<event>
 9    1  0.7835476E-005  0.1002609E+03  0.7546771E-02  0.1285273E+00
         21   -1    0    0  501  502  0.00000000000E+00  0.00000000000E+00  0.12366789078E+03  0.12366789078E+03  0.00000000000E+00 0. -1.
         -2   -1    0    0    0  501 -0.00000000000E+00 -0.00000000000E+00 -0.33126288608E+03  0.33126288608E+03  0.00000000000E+00 0.  1.
        -24    2    1    2    0    0 -0.19926809615E+01 -0.44751028943E+02 -0.28218581424E+03  0.29687483265E+03  0.80617660195E+02 0.  0.
         23    2    1    2    0    0 -0.21599892303E+01 -0.26957617619E+01  0.50004820143E+02  0.10445637373E+03  0.91644526793E+02 0.  0.
         11    1    3    3    0    0  0.31631924552E+02 -0.11681515471E+02 -0.52493109229E+02  0.62390407684E+02  0.00000000000E+00 0. -1.
        -12    1    3    3    0    0 -0.33624605513E+02 -0.33069513472E+02 -0.22969270501E+03  0.23448442497E+03  0.00000000000E+00 0.  1.
        -11    1    4    4    0    0 -0.17119460994E+01  0.36503964575E+02 -0.50280477734E+01  0.36888364745E+02  0.00000000000E+00 0. -1.
         11    1    4    4    0    0 -0.44804313093E+00 -0.39199726337E+02  0.55032867916E+02  0.67568008988E+02  0.00000000000E+00 0.  1.
         -1    1    1    2    0  502  0.41526701918E+01  0.47446790705E+02  0.24585998797E+02  0.53599570471E+02  0.00000000000E+00 0.  1.
<scales pt_clust_5="13000.00000" pt_clust_6="13000.00000" pt_clust_7="13000.00000" pt_clust_8="13000.00000" pt_clust_9="47.62817"></scales>
<clustering>
<clus scale="   47.628">  1  9  2 -1</clus>
<clus scale="   80.618">  5  6 -1 -1</clus>
<clus scale="   90.292">  2  5  1 -1</clus>
<clus scale="   91.645">  7  8 -1 -1</clus>
<clus scale="   47.628">  1  5  2 -1</clus>
</clustering>
</event>
<event>
 9    1  0.7835476E-005  0.1560246E+03  0.7546771E-02  0.1195557E+00
         21   -1    0    0  501  502  0.00000000000E+00  0.00000000000E+00  0.22661740476E+03  0.22661740476E+03  0.00000000000E+00 0. -1.
          1   -1    0    0  502    0 -0.00000000000E+00 -0.00000000000E+00 -0.44268124449E+03  0.44268124449E+03  0.00000000000E+00 0. -1.
         23    2    1    2    0    0 -0.11346086955E+03  0.90083087630E+02 -0.11204467898E+03  0.20500608232E+03  0.92114885346E+02 0.  0.
        -24    2    1    2    0    0  0.72440062847E+01 -0.77966639099E+02  0.15126834320E+03  0.18752454125E+03  0.78435129089E+02 0.  0.
         11    1    4    4    0    0 -0.15663817183E+01 -0.33119039771E+02  0.13499808200E+03  0.13901009493E+03  0.00000000000E+00 0. -1.
        -12    1    4    4    0    0  0.88103880030E+01 -0.44847599328E+02  0.16270261199E+02  0.48514446320E+02  0.00000000000E+00 0.  1.
        -13    1    3    3    0    0 -0.10470726184E+03  0.32983186556E+02 -0.93889769865E+02  0.14445341866E+03  0.00000000000E+00 0. -1.
         13    1    3    3    0    0 -0.87536077085E+01  0.57099901074E+02 -0.18154909118E+02  0.60552663654E+02  0.00000000000E+00 0.  1.
          2    1    1    2  501    0  0.10621686327E+03 -0.12116448531E+02 -0.25528750395E+03  0.27676802568E+03  0.00000000000E+00 0. -1.
<scales pt_clust_5="13000.00000" pt_clust_6="13000.00000" pt_clust_7="13000.00000" pt_clust_8="13000.00000" pt_clust_9="106.90576"></scales>
<clustering>
<clus scale="   78.435">  5  6 -1 -1</clus>
<clus scale="   92.115">  7  8 -1 -1</clus>
<clus scale="  106.906">  1  9  2 -1</clus>
<clus scale="  148.360">  1  5  2 -1</clus>
<clus scale="  106.906">  1  5  2 -1</clus>
</clustering>
</event>
<event>
 9    1  0.7835476E-005  0.1198992E+03  0.7546771E-02  0.1246060E+00
          1   -1    0    0  502    0 -0.00000000000E+00  0.00000000000E+00  0.70205621925E+03  0.70205621925E+03  0.00000000000E+00 0. -1.
         21   -1    0    0  501  502  0.00000000000E+00 -0.00000000000E+00 -0.33757565864E+02  0.33757565864E+02  0.00000000000E+00 0.  1.
         23    2    1    2    0    0  0.28515781126E+02  0.83609559140E+02  0.34402544864E+03  0.36634788123E+03  0.89741587995E+02 0.  0.
        -24    2    1    2    0    0  0.50920560037E+01 -0.66633927978E+02  0.11012974629E+03  0.15203757185E+03  0.80751797785E+02 0.  0.
         11    1    4    4    0    0 -0.21429683495E+01 -0.40999049442E+02  0.11744584501E+03  0.12441479365E+03  0.00000000000E+00 0. -1.
        -12    1    4    4    0    0  0.72350243532E+01 -0.25634878536E+02 -0.73160987270E+01  0.27622778201E+02  0.00000000000E+00 0.  1.
        -13    1    3    3    0    0 -0.28808719786E+02  0.37056972678E+02  0.18736854372E+03  0.19315831004E+03  0.00000000000E+00 0.  1.
         13    1    3    3    0    0  0.57324500912E+02  0.46552586463E+02  0.15665690492E+03  0.17318957120E+03  0.00000000000E+00 0. -1.
          2    1    1    2  501    0 -0.33607837130E+02 -0.16975631162E+02  0.21414345846E+03  0.21742833203E+03  0.00000000000E+00 0. -1.
<scales pt_clust_5="13000.00000" pt_clust_6="13000.00000" pt_clust_7="13000.00000" pt_clust_8="13000.00000" pt_clust_9="37.65183"></scales>
<clustering>
<clus scale="   37.652">  2  9  1 -1</clus>
<clus scale="   80.752">  5  6 -1 -1</clus>
<clus scale="   89.742">  7  8 -1 -1</clus>
<clus scale="  113.328">  2  5  1 -1</clus>
<clus scale="   37.652">  2  5  1 -1</clus>
</clustering>
</event>
<event>
 9    1  0.7835476E-005  0.1318362E+03  0.7546771E-02  0.1227536E+00
         21   -1    0    0  501  502  0.00000000000E+00  0.00000000000E+00  0.23367210361E+03  0.23367210361E+03  0.00000000000E+00 0.  1.
          3   -1    0    0  502    0 -0.00000000000E+00 -0.00000000000E+00 -0.21408838606E+03  0.21408838606E+03  0.00000000000E+00 0. -1.
         23    2    1    2    0    0 -0.98160167808E+01  0.93889645892E+02 -0.12932804134E+03  0.18420005481E+03  0.91062056438E+02 0.  0.
        -24    2    1    2    0    0 -0.46603552938E+02 -0.99971798694E+02  0.42080770122E+02  0.14259341211E+03  0.79973985039E+02 0.  0.
         13    1    4    4    0    0 -0.33079746576E+02 -0.53723619319E+02 -0.17970217130E+02  0.65600500074E+02  0.00000000000E+00 0. -1.
        -14    1    4    4    0    0 -0.13523806362E+02 -0.46248179374E+02  0.60050987252E+02  0.76992912037E+02  0.00000000000E+00 0.  1.
        -13    1    3    3    0    0 -0.48613294767E+02  0.33509518762E+02 -0.51716522089E+02  0.78490374778E+02  0.00000000000E+00 0.  1.
         13    1    3    3    0    0  0.38797277986E+02  0.60380127130E+02 -0.77611519256E+02  0.10570968003E+03  0.00000000000E+00 0. -1.
          4    1    1    2  501    0  0.56419569719E+02  0.60821528013E+01  0.10683098878E+03  0.12096702275E+03  0.00000000000E+00 0. -1.
<scales pt_clust_5="13000.00000" pt_clust_6="13000.00000" pt_clust_7="13000.00000" pt_clust_8="13000.00000" pt_clust_9="56.74646"></scales>
<clustering>
<clus scale="   56.746">  1  9  2 -1</clus>
<clus scale="   79.974">  5  6 -1 -1</clus>
<clus scale="   91.062">  7  8 -1 -1</clus>
<clus scale="  124.436">  1  5  2 -1</clus>
<clus scale="   56.746">  1  5  2 -1</clus>
</clustering>
</event>
<event>
 9    1  0.7835476E-005  0.2699006E+03  0.7546771E-02  0.1141691E+00
          1   -1    0    0  502    0 -0.00000000000E+00  0.00000000000E+00  0.98670209936E+02  0.98670209936E+02  0.00000000000E+00 0. -1.
         21   -1    0    0  501  502  0.00000000000E+00 -0.00000000000E+00 -0.11054773044E+04  0.11054773044E+04  0.00000000000E+00 0.  1.
         23    2    1    2    0    0 -0.25962034008E+02  0.22216852122E+02 -0.10035514957E+03  0.14070156252E+03  0.92510312523E+02 0.  0.
        -24    2    1    2    0    0 -0.22149979427E+03 -0.12829304595E+03 -0.59573905301E+03  0.65231091739E+03  0.71296908507E+02 0.  0.
         11    1    4    4    0    0 -0.24802124682E+02 -0.13136124314E+02 -0.13962296474E+03  0.14241585387E+03  0.00000000000E+00 0. -1.
        -12    1    4    4    0    0 -0.19669766959E+03 -0.11515692164E+03 -0.45611608827E+03  0.50989506352E+03  0.00000000000E+00 0.  1.
        -13    1    3    3    0    0 -0.26886308400E+02  0.49352761516E+02 -0.26738825536E+02  0.62237717179E+02  0.00000000000E+00 0.  1.
         13    1    3    3    0    0  0.92427439150E+00 -0.27135909394E+02 -0.73616324032E+02  0.78463845342E+02  0.00000000000E+00 0. -1.
          2    1    1    2  501    0  0.24746182828E+03  0.10607619383E+03 -0.31071289192E+03  0.41113503445E+03  0.00000000000E+00 0. -1.
<scales pt_clust_5="13000.00000" pt_clust_6="13000.00000" pt_clust_7="13000.00000" pt_clust_8="13000.00000" pt_clust_9="260.31360"></scales>
<clustering>
<clus scale="   71.297">  5  6 -1 -1</clus>
<clus scale="   92.510">  7  8 -1 -1</clus>
<clus scale="   98.619">  1  7  2 -1</clus>
<clus scale="  260.314">  2  9  1 -1</clus>
<clus scale="  260.314">  2  5  1 -1</clus>
</clustering>
</event>
<event>
 9    1  0.7835476E-005  0.1092489E+03  0.7546771E-02  0.1268449E+00
         21   -1    0    0  501  502  0.00000000000E+00  0.00000000000E+00  0.51519533666E+02  0.51519533666E+02  0.00000000000E+00 0. -1.
         -2   -1    0    0    0  501 -0.00000000000E+00 -0.00000000000E+00 -0.90436397334E+03  0.90436397334E+03  0.00000000000E+00 0.  1.
        -24    2    1    2    0    0  0.52434591153E+02 -0.86927305238E+01 -0.26713585549E+03  0.28395791465E+03  0.80284382618E+02 0.  0.
         23    2    1    2    0    0  0.51053574249E+02  0.14043679632E+02 -0.35521926207E+02  0.11206508147E+03  0.92157923487E+02 0.  0.
         13    1    3    3    0    0  0.64771548624E+02  0.10253526256E+02 -0.13716510000E+03  0.15203536750E+03  0.00000000000E+00 0. -1.
        -14    1    3    3    0    0 -0.12336957471E+02 -0.18946256780E+02 -0.12997075549E+03  0.13192254715E+03  0.00000000000E+00 0.  1.
        -13    1    4    4    0    0  0.47469537184E+01  0.47445907388E+02 -0.25575390409E+02  0.54108671136E+02  0.00000000000E+00 0.  1.
         13    1    4    4    0    0  0.46306620531E+02 -0.33402227756E+02 -0.99465357979E+01  0.57956410331E+02  0.00000000000E+00 0. -1.
         -1    1    1    2    0  502 -0.10348816540E+03 -0.53509491086E+01 -0.55018665798E+03  0.55986051089E+03  0.00000000000E+00 0.  1.
<scales pt_clust_5="13000.00000" pt_clust_6="13000.00000" pt_clust_7="13000.00000" pt_clust_8="13000.00000" pt_clust_9="58.67068"></scales>
<clustering>
<clus scale="   80.284">  5  6 -1 -1</clus>
<clus scale="   92.158">  7  8 -1 -1</clus>
<clus scale="   96.284">  2  5  1 -1</clus>
<clus scale="   58.671">  1  9  2 -1</clus>
<clus scale="   58.671">  1  5  2 -1</clus>
</clustering>
</event>
<event>
 9    1  0.7835476E-005  0.1306777E+03  0.7546771E-02  0.1244464E+00
         21   -1    0    0  501  502  0.00000000000E+00  0.00000000000E+00  0.46299831765E+03  0.46299831765E+03  0.00000000000E+00 0. -1.
          1   -1    0    0  502    0 -0.00000000000E+00 -0.00000000000E+00 -0.99353692589E+02  0.99353692589E+02  0.00000000000E+00 0. -1.
        -24    2    1    2    0    0  0.18661532687E+02 -0.37382799465E+02 -0.39500304473E+02  0.98647266471E+02  0.80157860692E+02 0.  0.
         23    2    1    2    0    0  0.39262566790E+02 -0.58174203972E+02  0.16571498956E+03  0.20129415213E+03  0.90178105764E+02 0.  0.
         11    1    3    3    0    0  0.11141802408E+02 -0.53710858062E+02 -0.52915381023E+02  0.76217016364E+02  0.00000000000E+00 0. -1.
        -12    1    3    3    0    0  0.75197302787E+01  0.16328058597E+02  0.13415076550E+02  0.22430250107E+02  0.00000000000E+00 0.  1.
        -13    1    4    4    0    0  0.13771179981E+02  0.22927000135E+02  0.59594454568E+02  0.65320683926E+02  0.00000000000E+00 0.  1.
         13    1    4    4    0    0  0.25491386809E+02 -0.81101204108E+02  0.10612053499E+03  0.13597346820E+03  0.00000000000E+00 0. -1.
          2    1    1    2  501    0 -0.57924099477E+02  0.95557003437E+02  0.23742993998E+03  0.26241059164E+03  0.00000000000E+00 0. -1.
<scales pt_clust_5="13000.00000" pt_clust_6="13000.00000" pt_clust_7="13000.00000" pt_clust_8="13000.00000" pt_clust_9="94.57580"></scales>
<clustering>
<clus scale="   80.158">  5  6 -1 -1</clus>
<clus scale="   90.178">  7  8 -1 -1</clus>
<clus scale="   90.394">  2  5  1 -1</clus>
<clus scale="   94.576">  1  9  2 -1</clus>
<clus scale="   94.576">  1  5  2 -1</clus>
</clustering>
</event>
<event>
 9    1  0.7835476E-005  0.2047761E+03  0.7546771E-02  0.1146422E+00
          1   -1    0    0  502    0 -0.00000000000E+00  0.00000000000E+00  0.77770861689E+03  0.77770861689E+03  0.00000000000E+00 0. -1.
         21   -1    0    0  501  502  0.00000000000E+00 -0.00000000000E+00 -0.11426411633E+03  0.11426411633E+03  0.00000000000E+00 0.  1.
         23    2    1    2    0    0  0.22095858936E+02 -0.19283727905E+03  0.47734641845E+03  0.52279243976E+03  0.88192339176E+02 0.  0.
        -24    2    1    2    0    0 -0.20194104256E+01  0.17191571296E+03  0.24116649222E+03  0.30694440748E+03  0.80588472694E+02 0.  0.
         11    1    4    4    0    0  0.32496183663E+02  0.80449912821E+02  0.14991440759E+03  0.17321235530E+03  0.00000000000E+00 0. -1.
        -12    1    4    4    0    0 -0.34515594089E+02  0.91465800142E+02  0.91252084634E+02  0.13373205218E+03  0.00000000000E+00 0.  1.
        -13    1    3    3    0    0  0.22142503953E+02 -0.14688767743E+03  0.43729811712E+03  0.46183971624E+03  0.00000000000E+00 0. -1.
         13    1    3    3    0    0 -0.46645017391E-01 -0.45949601620E+02  0.40048301330E+02  0.60952723517E+02  0.00000000000E+00 0.  1.
          2    1    1    2  501    0 -0.20076448510E+02  0.20921566087E+02 -0.55068410113E+02  0.62235885987E+02  0.00000000000E+00 0. -1.
<scales pt_clust_5="13000.00000" pt_clust_6="13000.00000" pt_clust_7="13000.00000" pt_clust_8="13000.00000" pt_clust_9="28.99613"></scales>
<clustering>
<clus scale="   28.996">  2  9  1 -1</clus>
<clus scale="   80.588">  5  6 -1 -1</clus>
<clus scale="   88.192">  7  8 -1 -1</clus>
<clus scale="  201.618">  2  5  1 -1</clus>
<clus scale="   28.996">  2  5  1 -1</clus>
</clustering>
</event>
<event>
 9    1  0.7835476E-005  0.1267437E+03  0.7546771E-02  0.1255896E+00
          1   -1    0    0  502    0 -0.00000000000E+00  0.00000000000E+00  0.24048761414E+03  0.24048761414E+03  0.00000000000E+00 0. -1.
         21   -1    0    0  501  502  0.00000000000E+00 -0.00000000000E+00 -0.16916372074E+03  0.16916372074E+03  0.00000000000E+00 0.  1.
        -24    2    1    2    0    0 -0.56011494873E+01  0.24109988886E+02  0.68877430766E+02  0.10469703948E+03  0.74864578856E+02 0.  0.
         23    2    1    2    0    0 -0.86849515928E+02 -0.25823226247E+01 -0.10324172347E+03  0.16289600233E+03  0.91251012603E+02 0.  0.
         13    1    3    3    0    0  0.31297470146E+02  0.10409677686E+02  0.11127769324E+02  0.34809772725E+02  0.00000000000E+00 0. -1.
        -14    1    3    3    0    0 -0.36898619633E+02  0.13700311200E+02  0.57749661443E+02  0.69887266755E+02  0.00000000000E+00 0.  1.
        -11    1    4    4    0    0 -0.21740306670E+02 -0.12311161241E+02  0.13850447380E+02  0.28566422910E+02  0.00000000000E+00 0. -1.
         11    1    4    4    0    0 -0.65109209258E+02  0.97288386167E+01 -0.11709217085E+03  0.13432957942E+03  0.00000000000E+00 0.  1.
          2    1    1    2  501    0  0.92450665415E+02 -0.21527666261E+02  0.10568818610E+03  0.14205829308E+03  0.00000000000E+00 0. -1.
<scales pt_clust_5="13000.00000" pt_clust_6="13000.00000" pt_clust_7="13000.00000" pt_clust_8="13000.00000" pt_clust_9="87.96151"></scales>
<clustering>
<clus scale="   74.865">  5  6 -1 -1</clus>
<clus scale="   78.850">  1  5  2 -1</clus>
<clus scale="   87.962">  2  9  1 -1</clus>
<clus scale="   91.251">  7  8 -1 -1</clus>
<clus scale="   87.962">  2  5  1 -1</clus>
</clustering>
</event>
<event>
 9    1  0.7835476E-005  0.1152354E+03  0.7546771E-02  0.1254647E+00
         21   -1    0    0  501  502  0.00000000000E+00  0.00000000000E+00  0.31476100489E+03  0.31476100489E+03  0.00000000000E+00 0. -1.
          1   -1    0    0  502    0 -0.00000000000E+00 -0.00000000000E+00 -0.93899376065E+02  0.93899376065E+02  0.00000000000E+00 0. -1.
         23    2    1    2    0    0  0.37407961034E+02  0.51900822483E+02 -0.18008310756E+02  0.11250749863E+03  0.90777679351E+02 0.  0.
        -24    2    1    2    0    0 -0.77360088706E+02 -0.68874023295E+02  0.18683317197E+03  0.22838794128E+03  0.80784919169E+02 0.  0.
         11    1    4    4    0    0 -0.79214873687E+02 -0.54227973293E+02  0.93889882360E+02  0.13427948209E+03  0.00000000000E+00 0. -1.
        -12    1    4    4    0    0  0.18547849817E+01 -0.14646050002E+02  0.92943289608E+02  0.94108459190E+02  0.00000000000E+00 0.  1.
        -11    1    3    3    0    0  0.11577416227E+02 -0.26277815396E+02 -0.41295087905E+01  0.29010566891E+02  0.00000000000E+00 0.  1.
         11    1    3    3    0    0  0.25830544807E+02  0.78178637879E+02 -0.13878801966E+02  0.83496931738E+02  0.00000000000E+00 0. -1.
          2    1    1    2  501    0  0.39952127672E+02  0.16973200811E+02  0.52036767612E+02  0.67764941045E+02  0.00000000000E+00 0. -1.
<scales pt_clust_5="13000.00000" pt_clust_6="13000.00000" pt_clust_7="13000.00000" pt_clust_8="13000.00000" pt_clust_9="43.40809"></scales>
<clustering>
<clus scale="   43.408">  1  9  2 -1</clus>
<clus scale="   80.785">  5  6 -1 -1</clus>
<clus scale="   90.778">  7  8 -1 -1</clus>
<clus scale="  107.540">  1  5  2 -1</clus>
<clus scale="   43.408">  1  5  2 -1</clus>
</clustering>
</event>
<event>
 9    1  0.7835476E-005  0.2899262E+03  0.7546771E-02  0.1122826E+00
         21   -1    0    0  501  502  0.00000000000E+00  0.00000000000E+00  0.34051203047E+03  0.34051203047E+03  0.00000000000E+00 0.  1.
          1   -1    0    0  502    0 -0.00000000000E+00 -0.00000000000E+00 -0.57320358595E+03  0.57320358595E+03  0.00000000000E+00 0. -1.
        -24    2    1    2    0    0  0.55443159220E+01 -0.94686598028E+02 -0.16277273857E+03  0.20597471836E+03  0.83272617928E+02 0.  0.
         23    2    1    2    0    0 -0.88969819799E+02  0.28046541453E+03  0.20135525276E+03  0.36853122214E+03  0.93246159683E+02 0.  0.
         13    1    3    3    0    0  0.24594421181E+02 -0.28306355390E+02 -0.11764763708E+03  0.12347915540E+03  0.00000000000E+00 0. -1.
        -14    1    3    3    0    0 -0.19050105259E+02 -0.66380242638E+02 -0.45125101493E+02  0.82495562959E+02  0.00000000000E+00 0.  1.
        -13    1    4    4    0    0 -0.17079477520E+02  0.11907509724E+03  0.13236689004E+03  0.17886190460E+03  0.00000000000E+00 0. -1.
         13    1    4    4    0    0 -0.71890342278E+02  0.16139031729E+03  0.68988362712E+02  0.18966931755E+03  0.00000000000E+00 0.  1.
          2    1    1    2  501    0  0.83425503877E+02 -0.18577881651E+03 -0.27127406966E+03  0.33920967591E+03  0.00000000000E+00 0. -1.
<scales pt_clust_5="13000.00000" pt_clust_6="13000.00000" pt_clust_7="13000.00000" pt_clust_8="13000.00000" pt_clust_9="274.52218"></scales>
<clustering>
<clus scale="   83.273">  5  6 -1 -1</clus>
<clus scale="   93.246">  7  8 -1 -1</clus>
<clus scale="  126.217">  2  5  1 -1</clus>
<clus scale="  274.522">  1  9  2 -1</clus>
<clus scale="  274.522">  1  5  2 -1</clus>
</clustering>
</event>
<event>
 9    1  0.7835476E-005  0.1907041E+03  0.7546771E-02  0.1173124E+00
          1   -1    0    0  502    0 -0.00000000000E+00  0.00000000000E+00  0.83584246072E+03  0.83584246072E+03  0.00000000000E+00 0. -1.
         21   -1    0    0  501  502  0.00000000000E+00 -0.00000000000E+00 -0.87833753868E+02  0.87833753868E+02  0.00000000000E+00 0. -1.
        -24    2    1    2    0    0 -0.11135409160E+03 -0.12713795372E+02  0.14733086339E+03  0.19917312436E+03  0.73499495577E+02 0.  0.
         23    2    1    2    0    0  0.22888892008E+03 -0.69036731899E+02  0.44361280439E+03  0.51197777147E+03  0.90403042982E+02 0.  0.
         13    1    3    3    0    0 -0.10131150513E+03 -0.36691595665E+02  0.11339714665E+03  0.15642636329E+03  0.00000000000E+00 0. -1.
        -14    1    3    3    0    0 -0.10042586472E+02  0.23977800293E+02  0.33933716741E+02  0.42746761068E+02  0.00000000000E+00 0.  1.
        -11    1    4    4    0    0  0.19418838178E+03 -0.35247655791E+02  0.28903441314E+03  0.34998916674E+03  0.00000000000E+00 0. -1.
         11    1    4    4    0    0  0.34700538297E+02 -0.33789076108E+02  0.15457839124E+03  0.16198860473E+03  0.00000000000E+00 0.  1.
          2    1    1    2  501    0 -0.11753482847E+03  0.81750527271E+02  0.15706503907E+03  0.21252531876E+03  0.00000000000E+00 0. -1.
<scales pt_clust_5="13000.00000" pt_clust_6="13000.00000" pt_clust_7="13000.00000" pt_clust_8="13000.00000" pt_clust_9="167.91467"></scales>
<clustering>
<clus scale="   73.499">  5  6 -1 -1</clus>
<clus scale="   90.403">  7  8 -1 -1</clus>
<clus scale="  134.028">  1  5  2 -1</clus>
<clus scale="  167.915">  2  9  1 -1</clus>
<clus scale="  167.915">  2  5  1 -1</clus>
</clustering>
</event>
<event>
 9    1  0.7835476E-005  0.9285249E+02  0.7546771E-02  0.1303244E+00
         21   -1    0    0  501  502  0.00000000000E+00  0.00000000000E+00  0.18002986345E+03  0.18002986345E+03  0.00000000000E+00 0. -1.
          1   -1    0    0  502    0 -0.00000000000E+00 -0.00000000000E+00 -0.77012335359E+02  0.77012335359E+02  0.00000000000E+00 0. -1.
         23    2    1    2    0    0 -0.66622720263E+01  0.18864068176E+02  0.15340387407E+00  0.94267425491E+02  0.92119949193E+02 0.  0.
        -24    2    1    2    0    0  0.14554897732E+02  0.18600866039E+02  0.88272737741E+02  0.12180132587E+03  0.80533530226E+02 0.  0.
         11    1    4    4    0    0  0.11630977224E+02  0.49472289349E+02  0.41155631549E+02  0.65395512483E+02  0.00000000000E+00 0. -1.
        -12    1    4    4    0    0  0.29239205082E+01 -0.30871423310E+02  0.47117106191E+02  0.56405813390E+02  0.00000000000E+00 0.  1.
        -11    1    3    3    0    0 -0.53546875763E+01 -0.35910744778E+02  0.11945590157E+02  0.38222393878E+02  0.00000000000E+00 0.  1.
         11    1    3    3    0    0 -0.13075844500E+01  0.54774812954E+02 -0.11792186283E+02  0.56045031613E+02  0.00000000000E+00 0. -1.
          2    1    1    2  501    0 -0.78926257060E+01 -0.37464934215E+02  0.14591386477E+02  0.40973447445E+02  0.00000000000E+00 0. -1.
<scales pt_clust_5="13000.00000" pt_clust_6="13000.00000" pt_clust_7="13000.00000" pt_clust_8="13000.00000" pt_clust_9="38.28729"></scales>
<clustering>
<clus scale="   38.287">  1  9  2 -1</clus>
<clus scale="   80.534">  5  6 -1 -1</clus>
<clus scale="   81.370">  1  5  2 -1</clus>
<clus scale="   92.120">  7  8 -1 -1</clus>
<clus scale="   38.287">  1  5  2 -1</clus>
</clustering>
</event>
<event>
 9    1  0.7835476E-005  0.1083920E+03  0.7546771E-02  0.1267903E+00
         -4   -1    0    0    0  501 -0.00000000000E+00  0.00000000000E+00  0.12576274461E+03  0.12576274461E+03  0.00000000000E+00 0.  1.
         21   -1    0    0  501  502  0.00000000000E+00 -0.00000000000E+00 -0.25264246001E+03  0.25264246001E+03  0.00000000000E+00 0.  1.
        -24    2    1    2    0    0  0.49855041198E+02  0.35335563239E+01 -0.12916571130E+02  0.95770726705E+02  0.80667113067E+02 0.  0.
         23    2    1    2    0    0 -0.74198640422E+02 -0.66958783863E+02 -0.15300757048E+03  0.20427736254E+03  0.91263394875E+02 0.  0.
         13    1    3    3    0    0  0.14081636388E+02  0.39541187450E+02 -0.16000292600E+02  0.44920010592E+02  0.00000000000E+00 0. -1.
        -14    1    3    3    0    0  0.35773404810E+02 -0.36007631126E+02  0.30837214699E+01  0.50850716112E+02  0.00000000000E+00 0.  1.
        -11    1    4    4    0    0 -0.72605512038E+02 -0.24585756007E+02 -0.14052915706E+03  0.16007643100E+03  0.00000000000E+00 0.  1.
         11    1    4    4    0    0 -0.15931283839E+01 -0.42373027856E+02 -0.12478413424E+02  0.44200931543E+02  0.00000000000E+00 0. -1.
         -3    1    1    2    0  502  0.24343599224E+02  0.63425227539E+02  0.39044426212E+02  0.78357115374E+02  0.00000000000E+00 0.  1.
<scales pt_clust_5="13000.00000" pt_clust_6="13000.00000" pt_clust_7="13000.00000" pt_clust_8="13000.00000" pt_clust_9="67.93655"></scales>
<clustering>
<clus scale="   67.937">  2  9  1 -1</clus>
<clus scale="   80.667">  5  6 -1 -1</clus>
<clus scale="   91.263">  7  8 -1 -1</clus>
<clus scale="   99.634">  1  5  2 -1</clus>
<clus scale="   67.937">  2  5  1 -1</clus>
</clustering>
</event>
<event>
 9    1  0.7835476E-005  0.1727693E+03  0.7546771E-02  0.1178544E+00
         -2   -1    0    0    0  501 -0.00000000000E+00  0.00000000000E+00  0.16246217545E+04  0.16246217545E+04  0.00000000000E+00 0.  1.
         21   -1    0    0  501  502  0.00000000000E+00 -0.00000000000E+00 -0.13395044168E+03  0.13395044168E+03  0.00000000000E+00 0.  1.
        -24    2    1    2    0    0 -0.12325080992E+03 -0.53242027110E+02  0.12072514301E+04  0.12172998240E+04  0.79607601576E+02 0.  0.
         23    2    1    2    0    0  0.14460487148E+03  0.54489980871E+02  0.39022546155E+03  0.43234586019E+03  0.10376562585E+03 0.  0.
         13    1    3    3    0    0 -0.70510637484E+02 -0.11890547907E+02  0.33866085025E+03  0.34612758720E+03  0.00000000000E+00 0. -1.
        -14    1    3    3    0    0 -0.52740172435E+02 -0.41351479202E+02  0.86859057990E+03  0.87117223677E+03  0.00000000000E+00 0.  1.
        -11    1    4    4    0    0  0.96256891976E+02  0.11556042584E+02  0.11886278315E+03  0.15338608995E+03  0.00000000000E+00 0. -1.
         11    1    4    4    0    0  0.48347979499E+02  0.42933938287E+02  0.27136267841E+03  0.27895977024E+03  0.00000000000E+00 0.  1.
         -1    1    1    2    0  502 -0.21354061556E+02 -0.12479537615E+01 -0.10680557890E+03  0.10892651200E+03  0.00000000000E+00 0.  1.
<scales pt_clust_5="13000.00000" pt_clust_6="13000.00000" pt_clust_7="13000.00000" pt_clust_8="13000.00000" pt_clust_9="21.39050"></scales>
<clustering>
<clus scale="   21.390">  2  9  1 -1</clus>
<clus scale="   79.608">  5  6 -1 -1</clus>
<clus scale="  103.766">  7  8 -1 -1</clus>
<clus scale="  159.434">  1  5  2 -1</clus>
<clus scale="   21.390">  2  5  1 -1</clus>
</clustering>
</event>
<event>
 9    1  0.7835476E-005  0.2341868E+03  0.7546771E-02  0.1124288E+00
          1   -1    0    0  502    0 -0.00000000000E+00  0.00000000000E+00  0.79864440242E+03  0.79864440242E+03  0.00000000000E+00 0. -1.
         21   -1    0    0  501  502  0.00000000000E+00 -0.00000000000E+00 -0.13961993512E+03  0.13961993512E+03  0.00000000000E+00 0. -1.
         23    2    1    2    0    0  0.13761870421E+03 -0.24996297095E+03  0.39522292687E+03  0.49579384610E+03  0.90498515505E+02 0.  0.
        -24    2    1    2    0    0 -0.13308927465E+03  0.78696546452E+02  0.83701614135E+02  0.19389718767E+03  0.81757309922E+02 0.  0.
         11    1    4    4    0    0 -0.13177977339E+03  0.91299075091E+02  0.84460083659E+02  0.18120412666E+03  0.00000000000E+00 0. -1.
        -12    1    4    4    0    0 -0.13095012577E+01 -0.12602528639E+02 -0.75846952331E+00  0.12693061004E+02  0.00000000000E+00 0.  1.
        -11    1    3    3    0    0  0.11293010500E+03 -0.11429049600E+03  0.23040613463E+03  0.28089591126E+03  0.00000000000E+00 0. -1.
         11    1    3    3    0    0  0.24688599213E+02 -0.13567247495E+03  0.16481679224E+03  0.21489793483E+03  0.00000000000E+00 0.  1.
          2    1    1    2  501    0 -0.45294295608E+01  0.17126642450E+03  0.18009992630E+03  0.24857330377E+03  0.00000000000E+00 0. -1.
<scales pt_clust_5="13000.00000" pt_clust_6="13000.00000" pt_clust_7="13000.00000" pt_clust_8="13000.00000" pt_clust_9="171.32639"></scales>
<clustering>
<clus scale="   81.757">  5  6 -1 -1</clus>
<clus scale="   90.499">  7  8 -1 -1</clus>
<clus scale="  171.326">  2  9  1 -1</clus>
<clus scale="  230.950">  2  5  1 -1</clus>
<clus scale="  171.326">  2  5  1 -1</clus>
</clustering>
</event>
<event>
 9    1  0.7835476E-005  0.9532708E+02  0.7546771E-02  0.1291511E+00
         21   -1    0    0  501  502  0.00000000000E+00  0.00000000000E+00  0.22359876720E+03  0.22359876720E+03  0.00000000000E+00 0. -1.
          1   -1    0    0  502    0 -0.00000000000E+00 -0.00000000000E+00 -0.16577171907E+03  0.16577171907E+03  0.00000000000E+00 0. -1.
         23    2    1    2    0    0 -0.20357229883E+02  0.44607480216E+01 -0.11570387171E+03  0.14909727990E+03  0.91696771284E+02 0.  0.
        -24    2    1    2    0    0  0.54578147933E+02 -0.16898398895E+01  0.58508320162E+02  0.12023593049E+03  0.89731965665E+02 0.  0.
         13    1    4    4    0    0  0.70656806675E+02  0.23178787532E+02  0.49315745084E+02  0.89228264772E+02  0.00000000000E+00 0. -1.
        -14    1    4    4    0    0 -0.16078658742E+02 -0.24868627422E+02  0.91925750784E+01  0.31007665719E+02  0.00000000000E+00 0.  1.
        -11    1    3    3    0    0 -0.23410708468E+02  0.40948109329E+02 -0.97271920348E+02  0.10810474280E+03  0.00000000000E+00 0. -1.
         11    1    3    3    0    0  0.30534785850E+01 -0.36487361308E+02 -0.18431951363E+02  0.40992537098E+02  0.00000000000E+00 0.  1.
          2    1    1    2  501    0 -0.34220918050E+02 -0.27709081321E+01  0.11502259968E+03  0.12003727588E+03  0.00000000000E+00 0. -1.
<scales pt_clust_5="13000.00000" pt_clust_6="13000.00000" pt_clust_7="13000.00000" pt_clust_8="13000.00000" pt_clust_9="34.33292"></scales>
<clustering>
<clus scale="   34.333">  1  9  2 -1</clus>
<clus scale="   89.732">  5  6 -1 -1</clus>
<clus scale="   91.697">  7  8 -1 -1</clus>
<clus scale="   93.439">  1  5  2 -1</clus>
<clus scale="   34.333">  1  5  2 -1</clus>
</clustering>
</event>
<event>
 9    1  0.7835476E-005  0.1251380E+03  0.7546771E-02  0.1243255E+00
         21   -1    0    0  501  502  0.00000000000E+00  0.00000000000E+00  0.51584664458E+02  0.51584664458E+02  0.00000000000E+00 0. -1.
         -2   -1    0    0    0  501 -0.00000000000E+00 -0.00000000000E+00 -0.61897411382E+03  0.61897411382E+03  0.00000000000E+00 0.  1.
         23    2    1    2    0    0  0.90735606426E+01 -0.58372087469E+02 -0.87853345670E+02  0.13727500577E+03  0.87387566420E+02 0.  0.
        -24    2    1    2    0    0  0.73125017890E+02 -0.16919193041E+02 -0.32347570937E+03  0.34150204786E+03  0.79709389700E+02 0.  0.
         13    1    4    4    0    0  0.61337906658E+02 -0.46330596361E+02 -0.20767678068E+03  0.22144640026E+03  0.00000000000E+00 0. -1.
        -14    1    4    4    0    0  0.11787111232E+02  0.29411403319E+02 -0.11579892869E+03  0.12005564760E+03  0.00000000000E+00 0.  1.
        -11    1    3    3    0    0  0.23645521662E+02 -0.16889308399E+02  0.94034121846E+01  0.30541506079E+02  0.00000000000E+00 0. -1.
         11    1    3    3    0    0 -0.14571961019E+02 -0.41482779070E+02 -0.97256757855E+02  0.10673349969E+03  0.00000000000E+00 0.  1.
         -1    1    1    2    0  502 -0.82198578533E+02  0.75291280510E+02 -0.15606039432E+03  0.19178172465E+03  0.00000000000E+00 0.  1.
<scales pt_clust_5="13000.00000" pt_clust_6="13000.00000" pt_clust_7="13000.00000" pt_clust_8="13000.00000" pt_clust_9="96.46720"></scales>
<clustering>
<clus scale="   79.709">  5  6 -1 -1</clus>
<clus scale="   87.388">  7  8 -1 -1</clus>
<clus scale="  105.481">  2  7  1 -1</clus>
<clus scale="   96.467">  1  9  2 -1</clus>
<clus scale="   96.467">  1  5  2 -1</clus>
</clustering>
</event>
<event>
 9    1  0.7835476E-005  0.9550719E+02  0.7546771E-02  0.1296557E+00
          1   -1    0    0  502    0 -0.00000000000E+00  0.00000000000E+00  0.10770827564E+03  0.10770827564E+03  0.00000000000E+00 0. -1.
         21   -1    0    0  501  502  0.00000000000E+00 -0.00000000000E+00 -0.13725949826E+03  0.13725949826E+03  0.00000000000E+00 0. -1.
         23    2    1    2    0    0  0.15882028573E+02  0.35913802168E+02 -0.11449905888E+02  0.10055337547E+03  0.91857721263E+02 0.  0.
        -24    2    1    2    0    0 -0.31411518035E+02  0.14047631896E+02 -0.26521260387E+02  0.91421895306E+02  0.80439830070E+02 0.  0.
         13    1    4    4    0    0 -0.41673596691E+02  0.39829807583E+02 -0.27027622913E+02  0.63667846151E+02  0.00000000000E+00 0. -1.
        -14    1    4    4    0    0  0.10262078656E+02 -0.25782175687E+02  0.50636252605E+00  0.27754049155E+02  0.00000000000E+00 0.  1.
        -11    1    3    3    0    0 -0.52239774047E+01  0.64270660676E+02 -0.91597903517E+01  0.65129943366E+02  0.00000000000E+00 0.  1.
         11    1    3    3    0    0  0.21106005978E+02 -0.28356858508E+02 -0.22901155366E+01  0.35423432103E+02  0.00000000000E+00 0. -1.
          2    1    1    2  501    0  0.15529489462E+02 -0.49961434064E+02  0.84199436478E+01  0.52992503127E+02  0.00000000000E+00 0. -1.
<scales pt_clust_5="13000.00000" pt_clust_6="13000.00000" pt_clust_7="13000.00000" pt_clust_8="13000.00000" pt_clust_9="52.31933"></scales>
<clustering>
<clus scale="   52.319">  2  9  1 -1</clus>
<clus scale="   80.440">  5  6 -1 -1</clus>
<clus scale="   84.583">  2  5  1 -1</clus>
<clus scale="   91.858">  7  8 -1 -1</clus>
<clus scale="   52.319">  2  5  1 -1</clus>
</clustering>
</event>
<event>
 9    1  0.7835476E-005  0.8378644E+02  0.7546771E-02  0.1320061E+00
         21   -1    0    0  501  502  0.00000000000E+00  0.00000000000E+00  0.13709755433E+03  0.13709755433E+03  0.00000000000E+00 0.  1.
          1   -1    0    0  502    0 -0.00000000000E+00 -0.00000000000E+00 -0.15597683175E+03  0.15597683175E+03  0.00000000000E+00 0. -1.
        -24    2    1    2    0    0 -0.27919631067E+02 -0.20382006268E+01 -0.64666709058E+02  0.10471226249E+03  0.77454596995E+02 0.  0.
         23    2    1    2    0    0  0.13241629252E+02 -0.35720774134E+02  0.91578200150E+02  0.12722311481E+03  0.79673331479E+02 0.  0.
         13    1    3    3    0    0 -0.42923260616E+02 -0.12801148020E+02 -0.72040215955E+02  0.84829643447E+02  0.00000000000E+00 0. -1.
        -14    1    3    3    0    0  0.15003629548E+02  0.10762947394E+02  0.73735068973E+01  0.19882619047E+02  0.00000000000E+00 0.  1.
        -11    1    4    4    0    0  0.23221944353E+02  0.63764397103E+01  0.78371982225E+02  0.81988324052E+02  0.00000000000E+00 0.  1.
         11    1    4    4    0    0 -0.99803151013E+01 -0.42097213844E+02  0.13206217925E+02  0.45234790757E+02  0.00000000000E+00 0. -1.
          2    1    1    2  501    0  0.14678001815E+02  0.37758974761E+02 -0.45790768517E+02  0.61139008772E+02  0.00000000000E+00 0. -1.
<scales pt_clust_5="13000.00000" pt_clust_6="13000.00000" pt_clust_7="13000.00000" pt_clust_8="13000.00000" pt_clust_9="40.51155"></scales>
<clustering>
<clus scale="   40.512">  1  9  2 -1</clus>
<clus scale="   77.455">  5  6 -1 -1</clus>
<clus scale="   79.673">  7  8 -1 -1</clus>
<clus scale="   81.680">  2  5  1 -1</clus>
<clus scale="   40.512">  1  5  2 -1</clus>
</clustering>
</event>
<event>
 9    1  0.7835476E-005  0.3007438E+03  0.7546771E-02  0.1085303E+00
         21   -1    0    0  501  502  0.00000000000E+00  0.00000000000E+00  0.39327586970E+03  0.39327586970E+03  0.00000000000E+00 0.  1.
          1   -1    0    0  502    0 -0.00000000000E+00 -0.00000000000E+00 -0.82319258623E+03  0.82319258623E+03  0.00000000000E+00 0. -1.
        -24    2    1    2    0    0 -0.57858944203E+01 -0.28636365550E+03 -0.69098980549E+03  0.75258676667E+03  0.82959690867E+02 0.  0.
         23    2    1    2    0    0  0.26096069698E+02  0.27824832622E+03  0.11578362283E+03  0.31695520848E+03  0.94613006349E+02 0.  0.
         13    1    3    3    0    0 -0.37028212463E+02 -0.17416503671E+03 -0.47355925211E+03  0.50592777527E+03  0.00000000000E+00 0. -1.
        -14    1    3    3    0    0  0.31242318042E+02 -0.11219861879E+03 -0.21743055338E+03  0.24665899140E+03  0.00000000000E+00 0.  1.
        -11    1    4    4    0    0 -0.32994203897E+02  0.11097155411E+03  0.63300988712E+02  0.13194816590E+03  0.00000000000E+00 0. -1.
         11    1    4    4    0    0  0.59090273595E+02  0.16727677211E+03  0.52482634119E+02  0.18500704258E+03  0.00000000000E+00 0.  1.
          2    1    1    2  501    0 -0.20310175278E+02  0.81153292771E+01  0.14528946612E+03  0.14692648078E+03  0.00000000000E+00 0. -1.
<scales pt_clust_5="13000.00000" pt_clust_6="13000.00000" pt_clust_7="13000.00000" pt_clust_8="13000.00000" pt_clust_9="21.87148"></scales>
<clustering>
<clus scale="   21.871">  1  9  2 -1</clus>
<clus scale="   82.960">  5  6 -1 -1</clus>
<clus scale="   94.613">  7  8 -1 -1</clus>
<clus scale="  297.284">  2  5  1 -1</clus>
<clus scale="   21.871">  1  5  2 -1</clus>
</clustering>
</event>
<event>
 9    1  0.7835476E-005  0.1036179E+03  0.7546771E-02  0.1273850E+00
         21   -1    0    0  501  502  0.00000000000E+00  0.00000000000E+00  0.53307910861E+03  0.53307910861E+03  0.00000000000E+00 0. -1.
          1   -1    0    0  502    0 -0.00000000000E+00 -0.00000000000E+00 -0.20944585872E+03  0.20944585872E+03  0.00000000000E+00 0. -1.
         23    2    1    2    0    0 -0.55482045543E+01  0.56327440033E+02 -0.11997332512E+03  0.16100620246E+03  0.91246015895E+02 0.  0.
        -24    2    1    2    0    0  0.88333808982E+02  0.27026120515E+01 -0.62589012662E+01  0.12030628662E+03  0.81389574474E+02 0.  0.
         13    1    4    4    0    0  0.10577053281E+02  0.24322533601E+02 -0.26084627366E+02  0.37200369376E+02  0.00000000000E+00 0. -1.
        -14    1    4    4    0    0  0.77756755701E+02 -0.21619921550E+02  0.19825726100E+02  0.83105917240E+02  0.00000000000E+00 0.  1.
        -11    1    3    3    0    0 -0.10774850534E+02  0.78523759664E+02 -0.11123817255E+03  0.13658700256E+03  0.00000000000E+00 0.  1.
         11    1    3    3    0    0  0.52266459801E+01 -0.22196319631E+02 -0.87351525620E+01  0.24419199898E+02  0.00000000000E+00 0. -1.
          2    1    1    2  501    0 -0.82785604428E+02 -0.59030052084E+02  0.44986547628E+03  0.46121247825E+03  0.00000000000E+00 0. -1.
<scales pt_clust_5="13000.00000" pt_clust_6="13000.00000" pt_clust_7="13000.00000" pt_clust_8="13000.00000" pt_clust_9="101.67597"></scales>
<clustering>
<clus scale="   81.390">  5  6 -1 -1</clus>
<clus scale="   91.246">  7  8 -1 -1</clus>
<clus scale="  101.676">  1  9  2 -1</clus>
<clus scale="  101.676">  1  5  2 -1</clus>
<clus scale="  101.676">  1  5  2 -1</clus>
</clustering>
</event>
<event>
 9    1  0.7835476E-005  0.1060321E+03  0.7546771E-02  0.1274780E+00
          1   -1    0    0  502    0 -0.00000000000E+00  0.00000000000E+00  0.25474089686E+03  0.25474089686E+03  0.00000000000E+00 0. -1.
         21   -1    0    0  501  502  0.00000000000E+00 -0.00000000000E+00 -0.67759533668E+02  0.67759533668E+02  0.00000000000E+00 0. -1.
        -24    2    1    2    0    0  0.18281990361E+02  0.59925100566E+02  0.98392584958E+02  0.14251960548E+03  0.81887046114E+02 0.  0.
         23    2    1    2    0    0 -0.29915422325E+00 -0.14409631544E+02  0.26357542326E+02  0.10081159467E+03  0.96231650763E+02 0.  0.
         11    1    3    3    0    0  0.35939743609E+02  0.68113292121E+02  0.95747766742E+02  0.12287685124E+03  0.00000000000E+00 0. -1.
        -12    1    3    3    0    0 -0.17657753248E+02 -0.81881915547E+01  0.26448182160E+01  0.19642754239E+02  0.00000000000E+00 0.  1.
        -13    1    4    4    0    0  0.43062091347E+02 -0.26993790151E+02  0.22231854255E+02  0.55473090427E+02  0.00000000000E+00 0.  1.
         13    1    4    4    0    0 -0.43361245570E+02  0.12584158607E+02  0.41256880709E+01  0.45338504246E+02  0.00000000000E+00 0. -1.
          2    1    1    2  501    0 -0.17982836138E+02 -0.45515469022E+02  0.62231235907E+02  0.79169230376E+02  0.00000000000E+00 0. -1.
<scales pt_clust_5="13000.00000" pt_clust_6="13000.00000" pt_clust_7="13000.00000" pt_clust_8="13000.00000" pt_clust_9="48.93917"></scales>
<clustering>
<clus scale="   48.939">  2  9  1 -1</clus>
<clus scale="   81.887">  5  6 -1 -1</clus>
<clus scale="   93.208">  1  5  2 -1</clus>
<clus scale="   96.232">  7  8 -1 -1</clus>
<clus scale="   48.939">  2  5  1 -1</clus>
</clustering>
</event>
<event>
 9    1  0.1459877E-004  0.1828319E+03  0.7546771E-02  0.1165603E+00
          1   -1    0    0  502    0 -0.00000000000E+00  0.00000000000E+00  0.44428717279E+03  0.44428717279E+03  0.00000000000E+00 0. -1.
         21   -1    0    0  501  502  0.00000000000E+00 -0.00000000000E+00 -0.52468647088E+03  0.52468647088E+03  0.00000000000E+00 0.  1.
         23    2    1    2    0    0 -0.70094410304E+02  0.13795289458E+03  0.21087880464E+03  0.27667561241E+03  0.90195880057E+02 0.  0.
        -24    2    1    2    0    0  0.14905063288E+03 -0.17240834364E+03 -0.45002609805E+03  0.51168189391E+03  0.85756303032E+02 0.  0.
         11    1    4    4    0    0  0.55283798319E+02 -0.12004477451E+02 -0.85258521398E+02  0.10232019012E+03  0.00000000000E+00 0. -1.
        -12    1    4    4    0    0  0.93766834562E+02 -0.16040386618E+03 -0.36476757665E+03  0.40936170379E+03  0.00000000000E+00 0.  1.
        -11    1    3    3    0    0 -0.26057071331E+02  0.12658309560E+03  0.12663350040E+03  0.18093726670E+03  0.00000000000E+00 0. -1.
         11    1    3    3    0    0 -0.44037338974E+02  0.11369798975E+02  0.84245304239E+02  0.95738345708E+02  0.00000000000E+00 0.  1.
          2    1    1    2  501    0 -0.78956222576E+02  0.34455449058E+02  0.15874799532E+03  0.18061613735E+03  0.00000000000E+00 0. -1.
<scales pt_clust_5="13000.00000" pt_clust_6="13000.00000" pt_clust_7="13000.00000" pt_clust_8="13000.00000" pt_clust_9="86.14680"></scales>
<clustering>
<clus scale="   85.756">  5  6 -1 -1</clus>
<clus scale="   86.147">  2  9  1 -1</clus>
<clus scale="   90.196">  7  8 -1 -1</clus>
<clus scale="  180.683">  2  5  1 -1</clus>
<clus scale="   86.147">  2  5  1 -1</clus>
</clustering>
</event>
<event>
 9    1  0.7835476E-005  0.1295900E+03  0.7546771E-02  0.1231415E+00
         21   -1    0    0  501  502  0.00000000000E+00  0.00000000000E+00  0.21495934741E+03  0.21495934741E+03  0.00000000000E+00 0.  1.
          3   -1    0    0  502    0 -0.00000000000E+00 -0.00000000000E+00 -0.11090912456E+03  0.11090912456E+03  0.00000000000E+00 0. -1.
         23    2    1    2    0    0 -0.82116417058E+02  0.19688534844E+02 -0.15445100168E+02  0.12599752216E+03  0.92228412736E+02 0.  0.
        -24    2    1    2    0    0  0.10100538692E+03 -0.37651903615E+02  0.10317097661E+03  0.16911448569E+03  0.79597140793E+02 0.  0.
         13    1    4    4    0    0  0.33376235312E+02 -0.22370624976E+02 -0.51453474457E+01  0.40507931887E+02  0.00000000000E+00 0. -1.
        -14    1    4    4    0    0  0.67629151611E+02 -0.15281278640E+02  0.10831632405E+03  0.12860655380E+03  0.00000000000E+00 0.  1.
        -13    1    3    3    0    0 -0.52455019203E+02 -0.34820788532E+02 -0.91560150150E+01  0.63622707932E+02  0.00000000000E+00 0. -1.
         13    1    3    3    0    0 -0.29661397855E+02  0.54509323376E+02 -0.62890851528E+01  0.62374814226E+02  0.00000000000E+00 0.  1.
          4    1    1    2  501    0 -0.18888969864E+02  0.17963368771E+02  0.16324346407E+02  0.30756464130E+02  0.00000000000E+00 0. -1.
<scales pt_clust_5="13000.00000" pt_clust_6="13000.00000" pt_clust_7="13000.00000" pt_clust_8="13000.00000" pt_clust_9="26.06676"></scales>
<clustering>
<clus scale="   26.067">  1  9  2 -1</clus>
<clus scale="   79.597">  5  6 -1 -1</clus>
<clus scale="   92.228">  7  8 -1 -1</clus>
<clus scale="  120.926">  1  5  2 -1</clus>
<clus scale="   26.067">  1  5  2 -1</clus>
</clustering>
</event>
<event>
 9    1  0.7835476E-005  0.1077797E+03  0.7546771E-02  0.1269159E+00
         -2   -1    0    0    0  501 -0.00000000000E+00  0.00000000000E+00  0.92883851440E+02  0.92883851440E+02  0.00000000000E+00 0.  1.
         21   -1    0    0  501  502  0.00000000000E+00 -0.00000000000E+00 -0.51229846129E+03  0.51229846129E+03  0.00000000000E+00 0. -1.
        -24    2    1    2    0    0 -0.48427336835E+02 -0.40794740741E+02  0.47178619421E+02  0.11310221356E+03  0.80974506830E+02 0.  0.
         23    2    1    2    0    0 -0.87728311470E+01  0.15638135142E+02 -0.26022811230E+03  0.27646174298E+03  0.91601916274E+02 0.  0.
         13    1    3    3    0    0 -0.16007490191E+02  0.19379269119E+02 -0.67630273635E+01  0.26029490063E+02  0.00000000000E+00 0. -1.
        -14    1    3    3    0    0 -0.32419846644E+02 -0.60174009861E+02  0.53941646785E+02  0.87072723496E+02  0.00000000000E+00 0.  1.
        -11    1    4    4    0    0 -0.48942593527E+02  0.99534528259E+01 -0.10920075366E+03  0.12008019522E+03  0.00000000000E+00 0.  1.
         11    1    4    4    0    0  0.40169762380E+02  0.56846823162E+01 -0.15102735864E+03  0.15638154777E+03  0.00000000000E+00 0. -1.
         -1    1    1    2    0  502  0.57200167982E+02  0.25156605599E+02 -0.20636511697E+03  0.21561835619E+03  0.00000000000E+00 0.  1.
<scales pt_clust_5="13000.00000" pt_clust_6="13000.00000" pt_clust_7="13000.00000" pt_clust_8="13000.00000" pt_clust_9="62.48771"></scales>
<clustering>
<clus scale="   62.488">  2  9  1 -1</clus>
<clus scale="   80.975">  5  6 -1 -1</clus>
<clus scale="   91.602">  7  8 -1 -1</clus>
<clus scale="   98.906">  1  5  2 -1</clus>
<clus scale="   62.488">  2  5  1 -1</clus>
</clustering>
</event>
<event>
 9    1  0.7835476E-005  0.1590747E+03  0.7546771E-02  0.1192531E+00
         -2   -1    0    0    0  501 -0.00000000000E+00  0.00000000000E+00  0.11859965744E+03  0.11859965744E+03  0.00000000000E+00 0.  1.
         21   -1    0    0  501  502  0.00000000000E+00 -0.00000000000E+00 -0.27329311780E+03  0.27329311780E+03  0.00000000000E+00 0.  1.
         23    2    1    2    0    0  0.12013814291E+03 -0.69519362660E+02 -0.40765196670E+02  0.17361628020E+03  0.95993209786E+02 0.  0.
        -24    2    1    2    0    0 -0.88901726323E+02  0.64683604133E+02 -0.12538485539E+03  0.18465579047E+03  0.79302669611E+02 0.  0.
         13    1    4    4    0    0 -0.68838066705E+02  0.53170227189E+02 -0.39174709599E+02  0.95396070984E+02  0.00000000000E+00 0. -1.
        -14    1    4    4    0    0 -0.20063659618E+02  0.11513376944E+02 -0.86210145793E+02  0.89259719491E+02  0.00000000000E+00 0.  1.
        -13    1    3    3    0    0  0.11522564546E+03 -0.49750042811E+02 -0.65501888040E+02  0.14157158425E+03  0.00000000000E+00 0.  1.
         13    1    3    3    0    0  0.49124974516E+01 -0.19769319849E+02  0.24736691370E+02  0.32044695949E+02  0.00000000000E+00 0. -1.
         -1    1    1    2    0  502 -0.31236416588E+02  0.48357585271E+01  0.11456591708E+02  0.33620704564E+02  0.00000000000E+00 0.  1.
<scales pt_clust_5="13000.00000" pt_clust_6="13000.00000" pt_clust_7="13000.00000" pt_clust_8="13000.00000" pt_clust_9="31.60853"></scales>
<clustering>
<clus scale="   31.609">  2  9  1 -1</clus>
<clus scale="   79.303">  5  6 -1 -1</clus>
<clus scale="   95.993">  7  8 -1 -1</clus>
<clus scale="  149.596">  2  5  1 -1</clus>
<clus scale="   31.609">  2  5  1 -1</clus>
</clustering>
</event>
<event>
 9    1  0.7835476E-005  0.2619816E+03  0.7546771E-02  0.1106464E+00
          1   -1    0    0  502    0 -0.00000000000E+00  0.00000000000E+00  0.15213004730E+04  0.15213004730E+04  0.00000000000E+00 0. -1.
         21   -1    0    0  501  502  0.00000000000E+00 -0.00000000000E+00 -0.18273745439E+03  0.18273745439E+03  0.00000000000E+00 0.  1.
         23    2    1    2    0    0  0.77305163131E+02  0.23330796580E+03  0.13270558164E+04  0.13526728208E+04  0.90763017721E+02 0.  0.
        -24    2    1    2    0    0 -0.15092027854E+03 -0.20751734808E+03 -0.14021681497E+02  0.26929157195E+03  0.80504428084E+02 0.  0.
         13    1    4    4    0    0 -0.80493320291E+02 -0.86504988106E+02  0.31100244363E+02  0.12218638540E+03  0.00000000000E+00 0. -1.
        -14    1    4    4    0    0 -0.70426958253E+02 -0.12101235998E+03 -0.45121925860E+02  0.14710518655E+03  0.00000000000E+00 0.  1.
        -11    1    3    3    0    0  0.79495037345E+02  0.20151530059E+03  0.12593013261E+04  0.12777979915E+04  0.00000000000E+00 0. -1.
         11    1    3    3    0    0 -0.21898742140E+01  0.31792665214E+02  0.67754490274E+02  0.74874829301E+02  0.00000000000E+00 0.  1.
          2    1    1    2  501    0  0.73615115413E+02 -0.25790617720E+02  0.25528883796E+02  0.82073534635E+02  0.00000000000E+00 0. -1.
<scales pt_clust_5="13000.00000" pt_clust_6="13000.00000" pt_clust_7="13000.00000" pt_clust_8="13000.00000" pt_clust_9="78.00219"></scales>
<clustering>
<clus scale="   78.002">  2  9  1 -1</clus>
<clus scale="   80.504">  5  6 -1 -1</clus>
<clus scale="   90.763">  7  8 -1 -1</clus>
<clus scale="  258.607">  2  5  1 -1</clus>
<clus scale="   78.002">  2  5  1 -1</clus>
</clustering>
</event>
<event>
 9    1  0.7835476E-005  0.1432719E+03  0.7546771E-02  0.1210990E+00
         21   -1    0    0  501  502  0.00000000000E+00  0.00000000000E+00  0.66695164601E+02  0.66695164601E+02  0.00000000000E+00 0. -1.
          1   -1    0    0  502    0 -0.00000000000E+00 -0.00000000000E+00 -0.68888221822E+03  0.68888221822E+03  0.00000000000E+00 0. -1.
        -24    2    1    2    0    0  0.22661081173E+01 -0.81020454479E+02 -0.19009379375E+03  0.22113655347E+03  0.78716425033E+02 0.  0.
         23    2    1    2    0    0 -0.48151690062E+02  0.17918951274E+03 -0.26874191111E+03  0.33841452047E+03  0.88739541055E+02 0.  0.
         11    1    3    3    0    0 -0.23753007429E+02 -0.50021778975E+02 -0.16371789415E+03  0.17282920065E+03  0.00000000000E+00 0. -1.
        -12    1    3    3    0    0  0.26019115546E+02 -0.30998675504E+02 -0.26375899601E+02  0.48307352821E+02  0.00000000000E+00 0.  1.
        -11    1    4    4    0    0 -0.39071689144E+02  0.33153459659E+02 -0.11643734455E+03  0.12721400861E+03  0.00000000000E+00 0.  1.
         11    1    4    4    0    0 -0.90800009175E+01  0.14603605308E+03 -0.15230456655E+03  0.21120051186E+03  0.00000000000E+00 0. -1.
          2    1    1    2  501    0  0.45885581945E+02 -0.98169058260E+02 -0.16335134876E+03  0.19602630888E+03  0.00000000000E+00 0. -1.
<scales pt_clust_5="13000.00000" pt_clust_6="13000.00000" pt_clust_7="13000.00000" pt_clust_8="13000.00000" pt_clust_9="108.36357"></scales>
<clustering>
<clus scale="   78.716">  5  6 -1 -1</clus>
<clus scale="   88.740">  7  8 -1 -1</clus>
<clus scale="  108.364">  1  9  2 -1</clus>
<clus scale="  137.290">  2  5  1 -1</clus>
<clus scale="  108.364">  1  5  2 -1</clus>
</clustering>
</event>
<event>
 9    1  0.7835476E-005  0.1480529E+03  0.7546771E-02  0.1205109E+00
         21   -1    0    0  501  502  0.00000000000E+00  0.00000000000E+00  0.17752684912E+03  0.17752684912E+03  0.00000000000E+00 0. -1.
          1   -1    0    0  502    0 -0.00000000000E+00 -0.00000000000E+00 -0.20339829390E+03  0.20339829390E+03  0.00000000000E+00 0. -1.
        -24    2    1    2    0    0 -0.10995382036E+02 -0.11075779575E+03 -0.83789924013E+02  0.16072020325E+03  0.80137660447E+02 0.  0.
         23    2    1    2    0    0  0.51270324967E+02  0.12548275216E+03  0.66096442015E+02  0.17654976316E+03  0.91796034302E+02 0.  0.
         13    1    3    3    0    0 -0.15973646558E+02 -0.10394742554E+03 -0.98287613170E+02  0.14394679421E+03  0.00000000000E+00 0. -1.
        -14    1    3    3    0    0  0.49782645219E+01 -0.68103702146E+01  0.14497689157E+02  0.16773409046E+02  0.00000000000E+00 0.  1.
        -13    1    4    4    0    0  0.19084027233E+02  0.72294442029E+02  0.83407727529E+02  0.11201578217E+03  0.00000000000E+00 0.  1.
         13    1    4    4    0    0  0.32186297734E+02  0.53188310133E+02 -0.17311285514E+02  0.64533980993E+02  0.00000000000E+00 0. -1.
          2    1    1    2  501    0 -0.40274942931E+02 -0.14724956412E+02 -0.81779627830E+01  0.43655176608E+02  0.00000000000E+00 0. -1.
<scales pt_clust_5="13000.00000" pt_clust_6="13000.00000" pt_clust_7="13000.00000" pt_clust_8="13000.00000" pt_clust_9="42.88236"></scales>
<clustering>
<clus scale="   42.882">  1  9  2 -1</clus>
<clus scale="   80.138">  5  6 -1 -1</clus>
<clus scale="   91.796">  7  8 -1 -1</clus>
<clus scale="  141.121">  2  5  1 -1</clus>
<clus scale="   42.882">  1  5  2 -1</clus>
</clustering>
</event>
<event>
 9    1  0.7835476E-005  0.1610013E+03  0.7546771E-02  0.1208056E+00
          1   -1    0    0  502    0 -0.00000000000E+00  0.00000000000E+00  0.65973081984E+03  0.65973081984E+03  0.00000000000E+00 0. -1.
         21   -1    0    0  501  502  0.00000000000E+00 -0.00000000000E+00 -0.85262965771E+02  0.85262965771E+02  0.00000000000E+00 0. -1.
         23    2    1    2    0    0 -0.30789051214E+01  0.45977067225E+02  0.74808242911E+02  0.12730647165E+03  0.92126511654E+02 0.  0.
        -24    2    1    2    0    0 -0.12202041984E+03 -0.78035635807E+02  0.90513770358E+02  0.18864429517E+03  0.80096093309E+02 0.  0.
         13    1    4    4    0    0 -0.70441408481E+02 -0.81736092823E+02  0.83546681445E+02  0.13646548604E+03  0.00000000000E+00 0. -1.
        -14    1    4    4    0    0 -0.51579011361E+02  0.37004570161E+01  0.69670889125E+01  0.52178809137E+02  0.00000000000E+00 0.  1.
        -13    1    3    3    0    0 -0.33702284161E+02  0.45613576842E+02  0.12789014432E+02  0.58137778080E+02  0.00000000000E+00 0.  1.
         13    1    3    3    0    0  0.30623379040E+02  0.36349038258E+00  0.62019228480E+02  0.69168693571E+02  0.00000000000E+00 0. -1.
          2    1    1    2  501    0  0.12509932496E+03  0.32058568583E+02  0.40914584080E+03  0.42904301879E+03  0.00000000000E+00 0. -1.
<scales pt_clust_5="13000.00000" pt_clust_6="13000.00000" pt_clust_7="13000.00000" pt_clust_8="13000.00000" pt_clust_9="139.66406"></scales>
<clustering>
<clus scale="   80.096">  5  6 -1 -1</clus>
<clus scale="   92.127">  7  8 -1 -1</clus>
<clus scale="  103.008">  1  7  2 -1</clus>
<clus scale="  139.664">  2  9  1 -1</clus>
<clus scale="  139.664">  2  5  1 -1</clus>
</clustering>
</event>
<event>
 9    1  0.7835476E-005  0.4022421E+03  0.7546771E-02  0.1043206E+00
         -4   -1    0    0    0  501 -0.00000000000E+00  0.00000000000E+00  0.42739315784E+03  0.42739315784E+03  0.00000000000E+00 0.  1.
         21   -1    0    0  501  502  0.00000000000E+00 -0.00000000000E+00 -0.11158801759E+04  0.11158801759E+04  0.00000000000E+00 0. -1.
        -24    2    1    2    0    0 -0.41518792248E+03  0.78485097354E+02  0.10690103091E+03  0.44321532685E+03  0.80442986404E+02 0.  0.
         23    2    1    2    0    0  0.19838568255E+03 -0.34531565613E+03 -0.50830874391E+03  0.65215591299E+03  0.91267597190E+02 0.  0.
         11    1    3    3    0    0 -0.19895387963E+03  0.24799987413E+02  0.11418143205E+02  0.20081847422E+03  0.00000000000E+00 0. -1.
        -12    1    3    3    0    0 -0.21623404285E+03  0.53685109942E+02  0.95482887703E+02  0.24239685263E+03  0.00000000000E+00 0.  1.
        -11    1    4    4    0    0  0.12527753082E+02 -0.18625032128E+02 -0.33890185809E+01  0.22700701883E+02  0.00000000000E+00 0.  1.
         11    1    4    4    0    0  0.18585792947E+03 -0.32669062400E+03 -0.50491972533E+03  0.62945521110E+03  0.00000000000E+00 0. -1.
         -3    1    1    2    0  502  0.21680223993E+03  0.26683055878E+03 -0.28707930510E+03  0.44790209394E+03  0.00000000000E+00 0.  1.
<scales pt_clust_5="13000.00000" pt_clust_6="13000.00000" pt_clust_7="13000.00000" pt_clust_8="13000.00000" pt_clust_9="343.80483"></scales>
<clustering>
<clus scale="   80.443">  5  6 -1 -1</clus>
<clus scale="   91.268">  7  8 -1 -1</clus>
<clus scale="  343.805">  2  9  1 -1</clus>
<clus scale="  399.925">  1  5  2 -1</clus>
<clus scale="  343.805">  2  5  1 -1</clus>
</clustering>
</event>
<event>
 9    1  0.7835476E-005  0.1200057E+03  0.7546771E-02  0.1244661E+00
         21   -1    0    0  501  502  0.00000000000E+00  0.00000000000E+00  0.38048597967E+02  0.38048597967E+02  0.00000000000E+00 0.  1.
          1   -1    0    0  502    0 -0.00000000000E+00 -0.00000000000E+00 -0.70268689367E+03  0.70268689367E+03  0.00000000000E+00 0. -1.
         23    2    1    2    0    0  0.64978322656E+02  0.42601486687E+02 -0.49382640550E+03  0.50793376386E+03  0.89972888223E+02 0.  0.
        -24    2    1    2    0    0 -0.55099880260E+02 -0.18884107327E+02 -0.76374997634E+02  0.13493230259E+03  0.94768031030E+02 0.  0.
         11    1    4    4    0    0 -0.46822795244E+01  0.33766962846E+02 -0.80657594333E+01  0.35031243150E+02  0.00000000000E+00 0. -1.
        -12    1    4    4    0    0 -0.50417600736E+02 -0.52651070173E+02 -0.68309238201E+02  0.99901059443E+02  0.00000000000E+00 0.  1.
        -11    1    3    3    0    0 -0.18818535856E+02 -0.75319763562E+01 -0.63038182243E+02  0.66216919138E+02  0.00000000000E+00 0.  1.
         11    1    3    3    0    0  0.83796858512E+02  0.50133463043E+02 -0.43078822326E+03  0.44171684472E+03  0.00000000000E+00 0. -1.
          2    1    1    2  501    0 -0.98784423961E+01 -0.23717379360E+02 -0.94436892571E+02  0.97869425186E+02  0.00000000000E+00 0. -1.
<scales pt_clust_5="13000.00000" pt_clust_6="13000.00000" pt_clust_7="13000.00000" pt_clust_8="13000.00000" pt_clust_9="25.69238"></scales>
<clustering>
<clus scale="   25.692">  1  9  2 -1</clus>
<clus scale="   89.973">  7  8 -1 -1</clus>
<clus scale="   94.768">  5  6 -1 -1</clus>
<clus scale="  116.256">  2  7  1 -1</clus>
<clus scale="   25.692">  1  5  2 -1</clus>
</clustering>
</event>
<event>
 9    1  0.7835476E-005  0.1017002E+03  0.7546771E-02  0.1284990E+00
          1   -1    0    0  502    0 -0.00000000000E+00  0.00000000000E+00  0.86981810514E+03  0.86981810514E+03  0.00000000000E+00 0. -1.
         21   -1    0    0  501  502  0.00000000000E+00 -0.00000000000E+00 -0.23768864891E+02  0.23768864891E+02  0.00000000000E+00 0.  1.
        -24    2    1    2    0    0 -0.15179890291E+02  0.83697332435E+01  0.32813349135E+03  0.33830285857E+03  0.80478285663E+02 0.  0.
         23    2    1    2    0    0  0.70539155035E+02 -0.37271753224E+02  0.24174146255E+03  0.27213713304E+03  0.96201499373E+02 0.  0.
         11    1    3    3    0    0 -0.44436225334E+02  0.32849574888E+01  0.11893788478E+03  0.12701019449E+03  0.00000000000E+00 0. -1.
        -12    1    3    3    0    0  0.29256335043E+02  0.50847757547E+01  0.20919560657E+03  0.21129266408E+03  0.00000000000E+00 0.  1.
        -13    1    4    4    0    0  0.73228592194E+02  0.96813572163E+01  0.11228569249E+03  0.13440324449E+03  0.00000000000E+00 0.  1.
         13    1    4    4    0    0 -0.26894371598E+01 -0.46953110440E+02  0.12945577006E+03  0.13773388855E+03  0.00000000000E+00 0. -1.
          2    1    1    2  501    0 -0.55359264743E+02  0.28902019980E+02  0.27617428634E+03  0.28314697842E+03  0.00000000000E+00 0. -1.
<scales pt_clust_5="13000.00000" pt_clust_6="13000.00000" pt_clust_7="13000.00000" pt_clust_8="13000.00000" pt_clust_9="62.44981"></scales>
<clustering>
<clus scale="   62.450">  2  9  1 -1</clus>
<clus scale="   80.478">  5  6 -1 -1</clus>
<clus scale="   86.977">  1  5  2 -1</clus>
<clus scale="   96.201">  7  8 -1 -1</clus>
<clus scale="   62.450">  2  5  1 -1</clus>
</clustering>
</event>
<event>
 9    1  0.7835476E-005  0.9976260E+02  0.7546771E-02  0.1283210E+00
         21   -1    0    0  501  502  0.00000000000E+00  0.00000000000E+00  0.89228105817E+02  0.89228105817E+02  0.00000000000E+00 0. -1.
          1   -1    0    0  502    0 -0.00000000000E+00 -0.00000000000E+00 -0.16087735018E+03  0.16087735018E+03  0.00000000000E+00 0. -1.
         23    2    1    2    0    0  0.10192214557E+02 -0.12866459720E+02 -0.78279241379E+02  0.12705567626E+03  0.98722227572E+02 0.  0.
        -24    2    1    2    0    0 -0.18202761433E+02 -0.70805379167E+01  0.19257464517E+02  0.98119787525E+02  0.94208111240E+02 0.  0.
         11    1    4    4    0    0 -0.35920811324E+02 -0.69902194094E+01  0.50403248617E+02  0.62286879234E+02  0.00000000000E+00 0. -1.
        -12    1    4    4    0    0  0.17718049891E+02 -0.90318507321E-01 -0.31145784100E+02  0.35832908291E+02  0.00000000000E+00 0.  1.
        -13    1    3    3    0    0  0.35967027047E+02 -0.45366684141E+02 -0.38099687436E+02  0.69306199198E+02  0.00000000000E+00 0. -1.
         13    1    3    3    0    0 -0.25774812490E+02  0.32500224421E+02 -0.40179553943E+02  0.57749477066E+02  0.00000000000E+00 0.  1.
          2    1    1    2  501    0  0.80105468762E+01  0.19946997637E+02 -0.12627467498E+02  0.24929992206E+02  0.00000000000E+00 0. -1.
<scales pt_clust_5="13000.00000" pt_clust_6="13000.00000" pt_clust_7="13000.00000" pt_clust_8="13000.00000" pt_clust_9="21.49540"></scales>
<clustering>
<clus scale="   21.495">  1  9  2 -1</clus>
<clus scale="   94.208">  5  6 -1 -1</clus>
<clus scale="   95.298">  1  5  2 -1</clus>
<clus scale="   98.722">  7  8 -1 -1</clus>
<clus scale="   21.495">  1  5  2 -1</clus>
</clustering>
</event>
<event>
 9    1  0.7835476E-005  0.1179604E+03  0.7546771E-02  0.1249082E+00
          1   -1    0    0  502    0 -0.00000000000E+00  0.00000000000E+00  0.19033262419E+03  0.19033262419E+03  0.00000000000E+00 0. -1.
         21   -1    0    0  501  502  0.00000000000E+00 -0.00000000000E+00 -0.12051178818E+03  0.12051178818E+03  0.00000000000E+00 0.  1.
         23    2    1    2    0    0  0.71424455036E+02  0.32180419589E+02  0.10635775852E+03  0.15915146647E+03  0.88770402164E+02 0.  0.
        -24    2    1    2    0    0 -0.80822587459E+02 -0.98455507693E+00 -0.23532941110E+02  0.11661288905E+03  0.80693906727E+02 0.  0.
         11    1    4    4    0    0 -0.23435258176E+02  0.19503767823E+02  0.24427106879E+02  0.39067785138E+02  0.00000000000E+00 0. -1.
        -12    1    4    4    0    0 -0.57387329283E+02 -0.20488322900E+02 -0.47960047990E+02  0.77545103912E+02  0.00000000000E+00 0.  1.
        -11    1    3    3    0    0 -0.20795543012E+02  0.60744010676E+01  0.27682013463E+02  0.35151768475E+02  0.00000000000E+00 0.  1.
         11    1    3    3    0    0  0.92219998048E+02  0.26106018521E+02  0.78675745061E+02  0.12399969800E+03  0.00000000000E+00 0. -1.
          2    1    1    2  501    0  0.93981324237E+01 -0.31195864512E+02 -0.13003981409E+02  0.35080056844E+02  0.00000000000E+00 0. -1.
<scales pt_clust_5="13000.00000" pt_clust_6="13000.00000" pt_clust_7="13000.00000" pt_clust_8="13000.00000" pt_clust_9="32.58077"></scales>
<clustering>
<clus scale="   32.581">  2  9  1 -1</clus>
<clus scale="   80.694">  5  6 -1 -1</clus>
<clus scale="   88.770">  7  8 -1 -1</clus>
<clus scale="  112.009">  2  5  1 -1</clus>
<clus scale="   32.581">  2  5  1 -1</clus>
</clustering>
</event>
<event>
 9    1  0.7835476E-005  0.1539077E+03  0.7546771E-02  0.1196878E+00
         21   -1    0    0  501  502  0.00000000000E+00  0.00000000000E+00  0.65655321569E+02  0.65655321569E+02  0.00000000000E+00 0. -1.
          1   -1    0    0  502    0 -0.00000000000E+00 -0.00000000000E+00 -0.66410036029E+03  0.66410036029E+03  0.00000000000E+00 0. -1.
        -24    2    1    2    0    0  0.77139684837E+02 -0.66136025101E+02 -0.18940072143E+03  0.23059458186E+03  0.83526780824E+02 0.  0.
         23    2    1    2    0    0 -0.62195967319E+02  0.15815888852E+03 -0.26126819488E+03  0.32443472980E+03  0.90079142309E+02 0.  0.
         11    1    3    3    0    0  0.93295940820E+02 -0.66484020900E+02 -0.15661485923E+03  0.19404244830E+03  0.00000000000E+00 0. -1.
        -12    1    3    3    0    0 -0.16156255983E+02  0.34799579874E+00 -0.32785862195E+02  0.36552133567E+02  0.00000000000E+00 0.  1.
        -13    1    4    4    0    0 -0.54934716270E+02  0.40466115052E+02 -0.13744117022E+03  0.15344511980E+03  0.00000000000E+00 0.  1.
         13    1    4    4    0    0 -0.72612510488E+01  0.11769277346E+03 -0.12382702466E+03  0.17098961000E+03  0.00000000000E+00 0. -1.
          2    1    1    2  501    0 -0.14943717519E+02 -0.92022863415E+02 -0.14777612241E+03  0.17472637019E+03  0.00000000000E+00 0. -1.
<scales pt_clust_5="13000.00000" pt_clust_6="13000.00000" pt_clust_7="13000.00000" pt_clust_8="13000.00000" pt_clust_9="93.22838"></scales>
<clustering>
<clus scale="   83.527">  5  6 -1 -1</clus>
<clus scale="   90.079">  7  8 -1 -1</clus>
<clus scale="   93.228">  1  9  2 -1</clus>
<clus scale="  150.167">  2  5  1 -1</clus>
<clus scale="   93.228">  1  5  2 -1</clus>
</clustering>
</event>
<event>
 9    1  0.7835476E-005  0.3782352E+03  0.7546771E-02  0.1076705E+00
          1   -1    0    0  502    0 -0.00000000000E+00  0.00000000000E+00  0.78487193474E+03  0.78487193474E+03  0.00000000000E+00 0. -1.
         21   -1    0    0  501  502  0.00000000000E+00 -0.00000000000E+00 -0.37078790727E+03  0.37078790727E+03  0.00000000000E+00 0. -1.
         23    2    1    2    0    0 -0.13997473347E+02  0.16488132499E+03 -0.50962610335E+02  0.19508201562E+03  0.89877831389E+02 0.  0.
        -24    2    1    2    0    0  0.33480045643E+03  0.11661588886E+03  0.52958619732E+02  0.36730573873E+03  0.80114163161E+02 0.  0.
         11    1    4    4    0    0  0.24282439306E+03  0.68456228592E+02  0.70632901462E+02  0.26199035834E+03  0.00000000000E+00 0. -1.
        -12    1    4    4    0    0  0.91976063375E+02  0.48159660273E+02 -0.17674281730E+02  0.10531538039E+03  0.00000000000E+00 0.  1.
        -13    1    3    3    0    0  0.18614436415E+02  0.53289685355E+02  0.18802754801E+02  0.59496482219E+02  0.00000000000E+00 0.  1.
         13    1    3    3    0    0 -0.32611909762E+02  0.11159163963E+03 -0.69765365136E+02  0.13558553340E+03  0.00000000000E+00 0. -1.
          2    1    1    2  501    0 -0.32080298309E+03 -0.28149721385E+03  0.41208801807E+03  0.59327208767E+03  0.00000000000E+00 0. -1.
<scales pt_clust_5="13000.00000" pt_clust_6="13000.00000" pt_clust_7="13000.00000" pt_clust_8="13000.00000" pt_clust_9="369.65353"></scales>
<clustering>
<clus scale="   80.114">  5  6 -1 -1</clus>
<clus scale="   89.878">  7  8 -1 -1</clus>
<clus scale="  188.308">  1  7  2 -1</clus>
<clus scale="  369.654">  2  9  1 -1</clus>
<clus scale="  369.654">  2  5  1 -1</clus>
</clustering>
</event>
<event>
 9    1  0.7835476E-005  0.4051330E+03  0.7546771E-02  0.1042017E+00
         21   -1    0    0  501  502  0.00000000000E+00  0.00000000000E+00  0.40217549315E+03  0.40217549315E+03  0.00000000000E+00 0. -1.
          1   -1    0    0  502    0 -0.00000000000E+00 -0.00000000000E+00 -0.11772057155E+04  0.11772057155E+04  0.00000000000E+00 0. -1.
        -24    2    1    2    0    0  0.34010314739E+02 -0.73320446354E+02 -0.39277472163E+03  0.40916353047E+03  0.81303280076E+02 0.  0.
         23    2    1    2    0    0  0.89518079553E+02 -0.25256774989E+03 -0.66365167325E+03  0.72228220670E+03  0.97232133806E+02 0.  0.
         11    1    3    3    0    0  0.61334646982E+01 -0.78301699330E+02 -0.34318403117E+03  0.35205689136E+03  0.00000000000E+00 0. -1.
        -12    1    3    3    0    0  0.27876850041E+02  0.49812529760E+01 -0.49590690464E+02  0.57106639107E+02  0.00000000000E+00 0.  1.
        -13    1    4    4    0    0  0.59362662005E+02 -0.23644012540E+03 -0.51550259763E+03  0.57023748273E+03  0.00000000000E+00 0. -1.
         13    1    4    4    0    0  0.30155417548E+02 -0.16127624486E+02 -0.14814907562E+03  0.15204472397E+03  0.00000000000E+00 0.  1.
          2    1    1    2  501    0 -0.12352839429E+03  0.32588819625E+03  0.28139617257E+03  0.44793547145E+03  0.00000000000E+00 0. -1.
<scales pt_clust_5="13000.00000" pt_clust_6="13000.00000" pt_clust_7="13000.00000" pt_clust_8="13000.00000" pt_clust_9="348.51453"></scales>
<clustering>
<clus scale="   81.303">  5  6 -1 -1</clus>
<clus scale="   97.232">  7  8 -1 -1</clus>
<clus scale="  110.609">  5  7 -1 -1</clus>
<clus scale="  348.515">  1  9  2 -1</clus>
<clus scale="  348.515">  1  5  2 -1</clus>
</clustering>
</event>
<event>
 9    1  0.7835476E-005  0.1447825E+03  0.7546771E-02  0.1207402E+00
         21   -1    0    0  501  502  0.00000000000E+00  0.00000000000E+00  0.40857922032E+02  0.40857922032E+02  0.00000000000E+00 0.  1.
         -2   -1    0    0    0  501 -0.00000000000E+00 -0.00000000000E+00 -0.97865962493E+03  0.97865962493E+03  0.00000000000E+00 0.  1.
         23    2    1    2    0    0 -0.13808548868E+02  0.81174484017E+02 -0.34207910937E+03  0.36344723737E+03  0.91081306591E+02 0.  0.
        -24    2    1    2    0    0  0.83389720969E+01 -0.16421497332E+03 -0.46352419104E+03  0.49985873270E+03  0.89263548315E+02 0.  0.
         11    1    4    4    0    0 -0.38522375497E+02 -0.67057206563E+02 -0.15935462984E+03  0.17712859853E+03  0.00000000000E+00 0. -1.
        -12    1    4    4    0    0  0.46861347594E+02 -0.97157766757E+02 -0.30416956120E+03  0.32273013417E+03  0.00000000000E+00 0.  1.
        -13    1    3    3    0    0  0.37131308623E+02  0.20896536507E+02 -0.14574385655E+03  0.15184423282E+03  0.00000000000E+00 0. -1.
         13    1    3    3    0    0 -0.50939857492E+02  0.60277947510E+02 -0.19633525282E+03  0.21160300455E+03  0.00000000000E+00 0.  1.
         -1    1    1    2    0  502  0.54695767714E+01  0.83040489303E+02 -0.13219840248E+03  0.15621157689E+03  0.00000000000E+00 0.  1.
<scales pt_clust_5="13000.00000" pt_clust_6="13000.00000" pt_clust_7="13000.00000" pt_clust_8="13000.00000" pt_clust_9="83.22042"></scales>
<clustering>
<clus scale="   83.220">  1  9  2 -1</clus>
<clus scale="   89.264">  5  6 -1 -1</clus>
<clus scale="   91.081">  7  8 -1 -1</clus>
<clus scale="  143.646">  1  5  2 -1</clus>
<clus scale="   83.220">  1  5  2 -1</clus>
</clustering>
</event>
<event>
 9    1  0.7835476E-005  0.1019092E+03  0.7546771E-02  0.1281123E+00
         21   -1    0    0  501  502  0.00000000000E+00  0.00000000000E+00  0.16688117434E+03  0.16688117434E+03  0.00000000000E+00 0. -1.
          1   -1    0    0  502    0 -0.00000000000E+00 -0.00000000000E+00 -0.19443001206E+03  0.19443001206E+03  0.00000000000E+00 0. -1.
         23    2    1    2    0    0 -0.36557428313E+02  0.13058769078E+02 -0.12538008947E+03  0.16053205928E+03  0.92430504736E+02 0.  0.
        -24    2    1    2    0    0  0.34302230210E+02 -0.61890662371E+02  0.22545838122E+02  0.11101536369E+03  0.82516659359E+02 0.  0.
         11    1    4    4    0    0 -0.21320347356E+02 -0.25586506565E+02 -0.12913690320E+02  0.35721001207E+02  0.00000000000E+00 0. -1.
        -12    1    4    4    0    0  0.55622577566E+02 -0.36304155806E+02  0.35459528442E+02  0.75294362480E+02  0.00000000000E+00 0.  1.
        -13    1    3    3    0    0  0.28464332736E+02  0.20013794922E+02 -0.46273437039E+02  0.57896469674E+02  0.00000000000E+00 0.  1.
         13    1    3    3    0    0 -0.65021761050E+02 -0.69550258445E+01 -0.79106652428E+02  0.10263558960E+03  0.00000000000E+00 0. -1.
          2    1    1    2  501    0  0.22551981029E+01  0.48831893294E+02  0.75285413631E+02  0.89763763439E+02  0.00000000000E+00 0. -1.
<scales pt_clust_5="13000.00000" pt_clust_6="13000.00000" pt_clust_7="13000.00000" pt_clust_8="13000.00000" pt_clust_9="48.88394"></scales>
<clustering>
<clus scale="   48.884">  1  9  2 -1</clus>
<clus scale="   82.517">  5  6 -1 -1</clus>
<clus scale="   92.431">  7  8 -1 -1</clus>
<clus scale="   93.011">  1  5  2 -1</clus>
<clus scale="   48.884">  1  5  2 -1</clus>
</clustering>
</event>
<event>
 9    1  0.7835476E-005  0.1046584E+03  0.7546771E-02  0.1276150E+00
         21   -1    0    0  501  502  0.00000000000E+00  0.00000000000E+00  0.44796386756E+03  0.44796386756E+03  0.00000000000E+00 0. -1.
         -4   -1    0    0    0  501 -0.00000000000E+00 -0.00000000000E+00 -0.56813003228E+02  0.56813003228E+02  0.00000000000E+00 0.  1.
        -24    2    1    2    0    0 -0.37832319605E+02  0.50847908260E+02  0.51164194602E+02  0.11459694265E+03  0.80609492464E+02 0.  0.
         23    2    1    2    0    0 -0.41472237750E+02 -0.31582814589E+02  0.22937127081E+03  0.25271675805E+03  0.92396749100E+02 0.  0.
         11    1    3    3    0    0 -0.62073333111E+02  0.46473234863E+02  0.42877768545E+02  0.88607918819E+02  0.00000000000E+00 0. -1.
        -12    1    3    3    0    0  0.24241013506E+02  0.43746733976E+01  0.82864260573E+01  0.25989023836E+02  0.00000000000E+00 0.  1.
        -13    1    4    4    0    0 -0.57646224599E+02 -0.51482221473E+02  0.14213482597E+03  0.16178941588E+03  0.00000000000E+00 0. -1.
         13    1    4    4    0    0  0.16173986849E+02  0.19899406883E+02  0.87236444844E+02  0.90927342169E+02  0.00000000000E+00 0.  1.
         -3    1    1    2    0  502  0.79304557355E+02 -0.19265093671E+02  0.11061539892E+03  0.13746317009E+03  0.00000000000E+00 0.  1.
<scales pt_clust_5="13000.00000" pt_clust_6="13000.00000" pt_clust_7="13000.00000" pt_clust_8="13000.00000" pt_clust_9="81.61101"></scales>
<clustering>
<clus scale="   80.609">  5  6 -1 -1</clus>
<clus scale="   81.611">  1  9  2 -1</clus>
<clus scale="   92.397">  7  8 -1 -1</clus>
<clus scale="   94.415">  2  5  1 -1</clus>
<clus scale="   81.611">  1  5  2 -1</clus>
</clustering>
</event>
<event>
 9    1  0.7835476E-005  0.1138234E+03  0.7546771E-02  0.1255715E+00
         -2   -1    0    0    0  501 -0.00000000000E+00  0.00000000000E+00  0.40829981312E+03  0.40829981312E+03  0.00000000000E+00 0.  1.
         21   -1    0    0  501  502  0.00000000000E+00 -0.00000000000E+00 -0.47664887717E+02  0.47664887717E+02  0.00000000000E+00 0.  1.
         23    2    1    2    0    0  0.23754319782E+02 -0.57544303755E+02  0.13914506039E+03  0.17675274572E+03  0.89468266358E+02 0.  0.
        -24    2    1    2    0    0 -0.29312284746E+02  0.77096433680E+02  0.94838751569E+02  0.15094005135E+03  0.83578945794E+02 0.  0.
         13    1    4    4    0    0 -0.10087421981E+01  0.23114993469E+02  0.86355163082E+02  0.89400976923E+02  0.00000000000E+00 0. -1.
        -14    1    4    4    0    0 -0.28303542547E+02  0.53981440211E+02  0.84835884868E+01  0.61539074429E+02  0.00000000000E+00 0.  1.
        -11    1    3    3    0    0 -0.26390362663E+02 -0.50365343350E+02  0.87968850190E+02  0.10474558538E+03  0.00000000000E+00 0.  1.
         11    1    3    3    0    0  0.50144682445E+02 -0.71789604050E+01  0.51176210203E+02  0.72007160343E+02  0.00000000000E+00 0. -1.
         -1    1    1    2    0  502  0.55579649634E+01 -0.19552129925E+02  0.12665111344E+03  0.12827190377E+03  0.00000000000E+00 0.  1.
<scales pt_clust_5="13000.00000" pt_clust_6="13000.00000" pt_clust_7="13000.00000" pt_clust_8="13000.00000" pt_clust_9="20.32676"></scales>
<clustering>
<clus scale="   20.327">  2  9  1 -1</clus>
<clus scale="   83.579">  5  6 -1 -1</clus>
<clus scale="   89.468">  7  8 -1 -1</clus>
<clus scale="  109.255">  2  5  1 -1</clus>
<clus scale="   20.327">  2  5  1 -1</clus>
</clustering>
</event>
<event>
 9    1  0.7835476E-005  0.1315108E+03  0.7546771E-02  0.1236917E+00
          1   -1    0    0  502    0 -0.00000000000E+00  0.00000000000E+00  0.28635205914E+03  0.28635205914E+03  0.00000000000E+00 0. -1.
         21   -1    0    0  501  502  0.00000000000E+00 -0.00000000000E+00 -0.28163677677E+03  0.28163677677E+03  0.00000000000E+00 0.  1.
        -24    2    1    2    0    0  0.61243642775E+02  0.22726254468E+02  0.20928345099E+03  0.23341580549E+03  0.80100617793E+02 0.  0.
         23    2    1    2    0    0 -0.65279527823E+01  0.68998579098E+02 -0.11242398508E+02  0.11370631673E+03  0.89438900126E+02 0.  0.
         13    1    3    3    0    0  0.68001237225E+02  0.89727483052E+01  0.90028952204E+02  0.11318078773E+03  0.00000000000E+00 0. -1.
        -14    1    3    3    0    0 -0.67575944500E+01  0.13753506163E+02  0.11925449878E+03  0.12023501776E+03  0.00000000000E+00 0.  1.
        -13    1    4    4    0    0  0.37706534407E+02  0.11052242108E+02  0.30757496743E+01  0.39413132693E+02  0.00000000000E+00 0. -1.
         13    1    4    4    0    0 -0.44234487190E+02  0.57946336990E+02 -0.14318148182E+02  0.74293184040E+02  0.00000000000E+00 0.  1.
          2    1    1    2  501    0 -0.54715689993E+02 -0.91724833566E+02 -0.19332577012E+03  0.22086671369E+03  0.00000000000E+00 0. -1.
<scales pt_clust_5="13000.00000" pt_clust_6="13000.00000" pt_clust_7="13000.00000" pt_clust_8="13000.00000" pt_clust_9="96.41456"></scales>
<clustering>
<clus scale="   80.101">  5  6 -1 -1</clus>
<clus scale="   89.439">  7  8 -1 -1</clus>
<clus scale="  103.360">  1  5  2 -1</clus>
<clus scale="   96.415">  2  9  1 -1</clus>
<clus scale="   96.415">  2  5  1 -1</clus>
</clustering>
</event>
<event>
 9    1  0.7835476E-005  0.2130430E+03  0.7546771E-02  0.1139179E+00
         21   -1    0    0  501  502  0.00000000000E+00  0.00000000000E+00  0.70038637762E+02  0.70038637762E+02  0.00000000000E+00 0. -1.
          1   -1    0    0  502    0 -0.00000000000E+00 -0.00000000000E+00 -0.46985492100E+03  0.46985492100E+03  0.00000000000E+00 0. -1.
        -24    2    1    2    0    0 -0.37220145535E+02  0.67811843444E+02 -0.24322940721E+03  0.26751115501E+03  0.80111723102E+02 0.  0.
         23    2    1    2    0    0 -0.12754084791E+02  0.33495029880E+02 -0.12010207271E+03  0.15367415993E+03  0.88919378398E+02 0.  0.
         11    1    3    3    0    0 -0.46562637466E+02  0.79785636882E+02 -0.22799801346E+03  0.24600187236E+03  0.00000000000E+00 0. -1.
        -12    1    3    3    0    0  0.93424919307E+01 -0.11973793438E+02 -0.15231393747E+02  0.21509282653E+02  0.00000000000E+00 0.  1.
        -11    1    4    4    0    0 -0.50031640209E+02  0.13364317118E+02 -0.80262166126E+02  0.95518507659E+02  0.00000000000E+00 0. -1.
         11    1    4    4    0    0  0.37277555418E+02  0.20130712762E+02 -0.39839906581E+02  0.58155652267E+02  0.00000000000E+00 0.  1.
          2    1    1    2  501    0  0.49974230326E+02 -0.10130687332E+03 -0.36484803323E+02  0.11870824383E+03  0.00000000000E+00 0. -1.
<scales pt_clust_5="13000.00000" pt_clust_6="13000.00000" pt_clust_7="13000.00000" pt_clust_8="13000.00000" pt_clust_9="112.96241"></scales>
<clustering>
<clus scale="   80.112">  5  6 -1 -1</clus>
<clus scale="   88.919">  7  8 -1 -1</clus>
<clus scale="   91.078">  5  7 -1 -1</clus>
<clus scale="  112.962">  1  9  2 -1</clus>
<clus scale="  112.962">  1  5  2 -1</clus>
</clustering>
</event>
<event>
 9    1  0.7835476E-005  0.1968396E+03  0.7546771E-02  0.1185726E+00
         21   -1    0    0  501  502  0.00000000000E+00  0.00000000000E+00  0.25157394918E+03  0.25157394918E+03  0.00000000000E+00 0.  1.
         -4   -1    0    0    0  501 -0.00000000000E+00 -0.00000000000E+00 -0.37486720655E+03  0.37486720655E+03  0.00000000000E+00 0.  1.
         23    2    1    2    0    0 -0.61076289251E+01  0.47735289270E+01 -0.16972937695E+03  0.19295840253E+03  0.91459247740E+02 0.  0.
        -24    2    1    2    0    0 -0.90065682745E+02 -0.15659937529E+03 -0.80673522260E+02  0.21335266768E+03  0.79849558943E+02 0.  0.
         13    1    4    4    0    0 -0.38090159106E+02 -0.11513779584E+02 -0.86991979597E+00  0.39801810279E+02  0.00000000000E+00 0. -1.
        -14    1    4    4    0    0 -0.51975523640E+02 -0.14508559571E+03 -0.79803602464E+02  0.17355085740E+03  0.00000000000E+00 0.  1.
        -13    1    3    3    0    0 -0.14435229067E+02 -0.26553235083E+02 -0.15398370528E+03  0.15692173726E+03  0.00000000000E+00 0.  1.
         13    1    3    3    0    0  0.83276001421E+01  0.31326764010E+02 -0.15745671663E+02  0.36036665267E+02  0.00000000000E+00 0. -1.
         -3    1    1    2    0  502  0.96173311670E+02  0.15182584636E+03  0.12710964184E+03  0.22013008552E+03  0.00000000000E+00 0.  1.
<scales pt_clust_5="13000.00000" pt_clust_6="13000.00000" pt_clust_7="13000.00000" pt_clust_8="13000.00000" pt_clust_9="179.91633"></scales>
<clustering>
<clus scale="   79.850">  5  6 -1 -1</clus>
<clus scale="   91.459">  7  8 -1 -1</clus>
<clus scale="   91.787">  2  7  1 -1</clus>
<clus scale="  179.916">  1  9  2 -1</clus>
<clus scale="  179.916">  1  5  2 -1</clus>
</clustering>
</event>
<event>
 9    1  0.7835476E-005  0.2034478E+03  0.7546771E-02  0.1159569E+00
          1   -1    0    0  502    0 -0.00000000000E+00  0.00000000000E+00  0.82788750814E+03  0.82788750814E+03  0.00000000000E+00 0. -1.
         21   -1    0    0  501  502  0.00000000000E+00 -0.00000000000E+00 -0.10051378142E+03  0.10051378142E+03  0.00000000000E+00 0.  1.
        -24    2    1    2    0    0 -0.12595521643E+03  0.23921560416E+02  0.27019427369E+03  0.30943475993E+03  0.79422714116E+02 0.  0.
         23    2    1    2    0    0  0.13161242744E+03  0.15311292275E+03  0.16150467279E+03  0.27429743044E+03  0.91596522005E+02 0.  0.
         13    1    3    3    0    0 -0.89647970739E+02  0.32884090949E+02  0.11343056415E+03  0.14827209777E+03  0.00000000000E+00 0. -1.
        -14    1    3    3    0    0 -0.36307245695E+02 -0.89625305326E+01  0.15676370955E+03  0.16116266216E+03  0.00000000000E+00 0.  1.
        -11    1    4    4    0    0  0.61942460991E+02  0.13558309410E+03  0.11972791652E+03  0.19119209679E+03  0.00000000000E+00 0.  1.
         11    1    4    4    0    0  0.69669966445E+02  0.17529828651E+02  0.41776756275E+02  0.83105333655E+02  0.00000000000E+00 0. -1.
          2    1    1    2  501    0 -0.56572110027E+01 -0.17703448317E+03  0.29567478024E+03  0.34466909919E+03  0.00000000000E+00 0. -1.
<scales pt_clust_5="13000.00000" pt_clust_6="13000.00000" pt_clust_7="13000.00000" pt_clust_8="13000.00000" pt_clust_9="181.66213"></scales>
<clustering>
<clus scale="   79.423">  5  6 -1 -1</clus>
<clus scale="   91.597">  7  8 -1 -1</clus>
<clus scale="  150.814">  1  5  2 -1</clus>
<clus scale="  181.662">  2  9  1 -1</clus>
<clus scale="  181.662">  2  5  1 -1</clus>
</clustering>
</event>
<event>
 9    1  0.7835476E-005  0.9892924E+02  0.7546771E-02  0.1287172E+00
         21   -1    0    0  501  502  0.00000000000E+00  0.00000000000E+00  0.36076163930E+02  0.36076163930E+02  0.00000000000E+00 0.  1.
         -2   -1    0    0    0  501 -0.00000000000E+00 -0.00000000000E+00 -0.42605211287E+03  0.42605211287E+03  0.00000000000E+00 0.  1.
         23    2    1    2    0    0 -0.38098196761E+02 -0.39552325335E+02 -0.21900734485E+03  0.24278543146E+03  0.89245109643E+02 0.  0.
        -24    2    1    2    0    0  0.70500161569E+01  0.21420348895E+02 -0.59519408834E+02  0.10223741758E+03  0.80008721089E+02 0.  0.
         13    1    4    4    0    0  0.38491299867E+02  0.20283935019E+02 -0.55497712987E+02  0.70519602467E+02  0.00000000000E+00 0. -1.
        -14    1    4    4    0    0 -0.31441283711E+02  0.11364138763E+01 -0.40216958474E+01  0.31717815110E+02  0.00000000000E+00 0.  1.
        -11    1    3    3    0    0  0.40966819577E+00  0.27205167643E+02 -0.68199522598E+02  0.73426588217E+02  0.00000000000E+00 0. -1.
         11    1    3    3    0    0 -0.38507864957E+02 -0.66757492979E+02 -0.15080782225E+03  0.16935884324E+03  0.00000000000E+00 0.  1.
         -1    1    1    2    0  502  0.31048180604E+02  0.18131976440E+02 -0.11144919525E+03  0.11710542776E+03  0.00000000000E+00 0.  1.
<scales pt_clust_5="13000.00000" pt_clust_6="13000.00000" pt_clust_7="13000.00000" pt_clust_8="13000.00000" pt_clust_9="35.95496"></scales>
<clustering>
<clus scale="   35.955">  1  9  2 -1</clus>
<clus scale="   80.009">  5  6 -1 -1</clus>
<clus scale="   89.245">  7  8 -1 -1</clus>
<clus scale="   90.685">  1  5  2 -1</clus>
<clus scale="   35.955">  1  5  2 -1</clus>
</clustering>
</event>
<event>
 9    1  0.7835476E-005  0.1792265E+03  0.7546771E-02  0.1169609E+00
         21   -1    0    0  501  502  0.00000000000E+00  0.00000000000E+00  0.51707410523E+02  0.51707410523E+02  0.00000000000E+00 0. -1.
          1   -1    0    0  502    0 -0.00000000000E+00 -0.00000000000E+00 -0.94647269495E+03  0.94647269495E+03  0.00000000000E+00 0. -1.
        -24    2    1    2    0    0 -0.13809089036E+03 -0.62333950341E+02 -0.53789615472E+03  0.56521637554E+03  0.84750590262E+02 0.  0.
         23    2    1    2    0    0  0.15396352430E+03  0.39376036611E+02 -0.19340063059E+03  0.26712960644E+03  0.93269414329E+02 0.  0.
         13    1    3    3    0    0 -0.12548298687E+03 -0.78493084303E+02 -0.41458339324E+03  0.44021191968E+03  0.00000000000E+00 0. -1.
        -14    1    3    3    0    0 -0.12607903486E+02  0.16159133963E+02 -0.12331276149E+03  0.12500445587E+03  0.00000000000E+00 0.  1.
        -13    1    4    4    0    0  0.11155667864E+03  0.53395277423E+02 -0.85509457496E+02  0.15035895558E+03  0.00000000000E+00 0.  1.
         13    1    4    4    0    0  0.42406845663E+02 -0.14019240812E+02 -0.10789117309E+03  0.11677065086E+03  0.00000000000E+00 0. -1.
          2    1    1    2  501    0 -0.15872633949E+02  0.22957913729E+02 -0.16346849911E+03  0.16583412349E+03  0.00000000000E+00 0. -1.
<scales pt_clust_5="13000.00000" pt_clust_6="13000.00000" pt_clust_7="13000.00000" pt_clust_8="13000.00000" pt_clust_9="27.91070"></scales>
<clustering>
<clus scale="   27.911">  1  9  2 -1</clus>
<clus scale="   84.751">  5  6 -1 -1</clus>
<clus scale="   93.269">  7  8 -1 -1</clus>
<clus scale="  174.945">  2  5  1 -1</clus>
<clus scale="   27.911">  1  5  2 -1</clus>
</clustering>
</event>
<event>
 9    1  0.7835476E-005  0.1141594E+03  0.7546771E-02  0.1256722E+00
         21   -1    0    0  501  502  0.00000000000E+00  0.00000000000E+00  0.23199052593E+03  0.23199052593E+03  0.00000000000E+00 0.  1.
          3   -1    0    0  502    0 -0.00000000000E+00 -0.00000000000E+00 -0.15050100609E+03  0.15050100609E+03  0.00000000000E+00 0. -1.
         23    2    1    2    0    0 -0.55846686953E+02 -0.35379928691E+02 -0.92964141634E+02  0.14610355390E+03  0.91287047465E+02 0.  0.
        -24    2    1    2    0    0  0.74554025620E+02  0.28229344663E+02  0.77996361883E+02  0.13787348163E+03  0.81058410014E+02 0.  0.
         13    1    4    4    0    0  0.36194985184E+02 -0.50128786326E+01 -0.85618563189E+01  0.37530138399E+02  0.00000000000E+00 0. -1.
        -14    1    4    4    0    0  0.38359040436E+02  0.33242223295E+02  0.86558218202E+02  0.10034334323E+03  0.00000000000E+00 0.  1.
        -11    1    3    3    0    0  0.14609539708E+02 -0.24126759672E+02 -0.62409647214E+02  0.68487248800E+02  0.00000000000E+00 0.  1.
         11    1    3    3    0    0 -0.70456226661E+02 -0.11253169019E+02 -0.30554494420E+02  0.77616305101E+02  0.00000000000E+00 0. -1.
          4    1    1    2  501    0 -0.18707338667E+02  0.71505840283E+01  0.96457299591E+02  0.98514496478E+02  0.00000000000E+00 0. -1.
<scales pt_clust_5="13000.00000" pt_clust_6="13000.00000" pt_clust_7="13000.00000" pt_clust_8="13000.00000" pt_clust_9="20.02737"></scales>
<clustering>
<clus scale="   20.027">  1  9  2 -1</clus>
<clus scale="   81.058">  5  6 -1 -1</clus>
<clus scale="   91.287">  7  8 -1 -1</clus>
<clus scale="  106.158">  1  5  2 -1</clus>
<clus scale="   20.027">  1  5  2 -1</clus>
</clustering>
</event>
<event>
 9    1  0.7835476E-005  0.1528662E+03  0.7546771E-02  0.1221577E+00
         -2   -1    0    0    0  501 -0.00000000000E+00  0.00000000000E+00  0.12063735231E+03  0.12063735231E+03  0.00000000000E+00 0.  1.
         21   -1    0    0  501  502  0.00000000000E+00 -0.00000000000E+00 -0.42290343973E+03  0.42290343973E+03  0.00000000000E+00 0.  1.
        -24    2    1    2    0    0  0.19400564551E+02  0.34119734426E+02 -0.21838175613E+03  0.23634271871E+03  0.81404859155E+02 0.  0.
         23    2    1    2    0    0 -0.38863085284E+02 -0.13400999326E+03 -0.11450069871E+03  0.20092382680E+03  0.88266394957E+02 0.  0.
         13    1    3    3    0    0  0.31413903975E+02 -0.18297308743E+02 -0.96692246359E+02  0.10330060685E+03  0.00000000000E+00 0. -1.
        -14    1    3    3    0    0 -0.12013339425E+02  0.52417043170E+02 -0.12168950977E+03  0.13304211186E+03  0.00000000000E+00 0.  1.
        -13    1    4    4    0    0  0.79020487682E+01 -0.89667476142E+02 -0.10060614467E+03  0.13499738886E+03  0.00000000000E+00 0.  1.
         13    1    4    4    0    0 -0.46765134052E+02 -0.44342517120E+02 -0.13894554031E+02  0.65926437937E+02  0.00000000000E+00 0. -1.
         -1    1    1    2    0  502  0.19462520733E+02  0.99890258835E+02  0.30616367415E+02  0.10627424654E+03  0.00000000000E+00 0.  1.
<scales pt_clust_5="13000.00000" pt_clust_6="13000.00000" pt_clust_7="13000.00000" pt_clust_8="13000.00000" pt_clust_9="124.80838"></scales>
<clustering>
<clus scale="   81.405">  5  6 -1 -1</clus>
<clus scale="   88.266">  7  8 -1 -1</clus>
<clus scale="   90.373">  1  5  2 -1</clus>
<clus scale="  124.808">  2  9  1 -1</clus>
<clus scale="  124.808">  2  5  1 -1</clus>
</clustering>
</event>
<event>
 9    1  0.7835476E-005  0.1017369E+03  0.7546771E-02  0.1281869E+00
         21   -1    0    0  501  502  0.00000000000E+00  0.00000000000E+00  0.54156707414E+02  0.54156707414E+02  0.00000000000E+00 0.  1.
          1   -1    0    0  502    0 -0.00000000000E+00 -0.00000000000E+00 -0.46140953058E+03  0.46140953058E+03  0.00000000000E+00 0. -1.
         23    2    1    2    0    0  0.19453397372E+02  0.30376920384E+02 -0.18368119380E+03  0.20863288038E+03  0.92128746109E+02 0.  0.
        -24    2    1    2    0    0 -0.84526763699E+02  0.30248878697E+02 -0.13454825611E+03  0.18109540028E+03  0.81440422004E+02 0.  0.
         11    1    4    4    0    0 -0.50147749050E+02  0.57450726119E+02 -0.96904795290E+02  0.12331229467E+03  0.00000000000E+00 0. -1.
        -12    1    4    4    0    0 -0.34379014649E+02 -0.27201847422E+02 -0.37643460821E+02  0.57783105611E+02  0.00000000000E+00 0.  1.
        -11    1    3    3    0    0  0.73088105717E+01  0.57363378630E+02 -0.16181584940E+03  0.17183813615E+03  0.00000000000E+00 0.  1.
         11    1    3    3    0    0  0.12144586800E+02 -0.26986458245E+02 -0.21865344401E+02  0.36794744230E+02  0.00000000000E+00 0. -1.
          2    1    1    2  501    0  0.65073366328E+02 -0.60625799081E+02 -0.89023373254E+02  0.12583795733E+03  0.00000000000E+00 0. -1.
<scales pt_clust_5="13000.00000" pt_clust_6="13000.00000" pt_clust_7="13000.00000" pt_clust_8="13000.00000" pt_clust_9="88.93835"></scales>
<clustering>
<clus scale="   81.440">  5  6 -1 -1</clus>
<clus scale="   88.938">  1  9  2 -1</clus>
<clus scale="   92.129">  7  8 -1 -1</clus>
<clus scale="   92.170">  1  5  2 -1</clus>
<clus scale="   88.938">  1  5  2 -1</clus>
</clustering>
</event>
<event>
 9    1  0.7835476E-005  0.1855873E+03  0.7546771E-02  0.1176931E+00
         21   -1    0    0  501  502  0.00000000000E+00  0.00000000000E+00  0.23130220018E+03  0.23130220018E+03  0.00000000000E+00 0. -1.
          1   -1    0    0  502    0 -0.00000000000E+00 -0.00000000000E+00 -0.35343655041E+03  0.35343655041E+03  0.00000000000E+00 0. -1.
         23    2    1    2    0    0  0.88035036826E+02  0.29738890846E+02  0.89458485549E+02  0.16061401266E+03  0.95705125714E+02 0.  0.
        -24    2    1    2    0    0  0.11486793129E+03 -0.31805487574E+02 -0.15926639417E+03  0.21457297397E+03  0.80433489096E+02 0.  0.
         11    1    4    4    0    0  0.56557859202E+02 -0.20122067471E+02 -0.13956099780E+03  0.15192419539E+03  0.00000000000E+00 0. -1.
        -12    1    4    4    0    0  0.58310072085E+02 -0.11683420103E+02 -0.19705396370E+02  0.62648778583E+02  0.00000000000E+00 0.  1.
        -13    1    3    3    0    0  0.16483425713E+02  0.54136188797E+02  0.49085047371E+02  0.74911762335E+02  0.00000000000E+00 0. -1.
         13    1    3    3    0    0  0.71551611113E+02 -0.24397297951E+02  0.40373438178E+02  0.85702250324E+02  0.00000000000E+00 0.  1.
          2    1    1    2  501    0 -0.20290296811E+03  0.20665967276E+01 -0.52326441607E+02  0.20955176397E+03  0.00000000000E+00 0. -1.
<scales pt_clust_5="13000.00000" pt_clust_6="13000.00000" pt_clust_7="13000.00000" pt_clust_8="13000.00000" pt_clust_9="167.25165"></scales>
<clustering>
<clus scale="   80.433">  5  6 -1 -1</clus>
<clus scale="   95.705">  7  8 -1 -1</clus>
<clus scale="  133.394">  2  7  1 -1</clus>
<clus scale="  167.252">  1  9  2 -1</clus>
<clus scale="  167.252">  1  5  2 -1</clus>
</clustering>
</event>
<event>
 9    1  0.7835476E-005  0.1468670E+03  0.7546771E-02  0.1224196E+00
          1   -1    0    0  502    0 -0.00000000000E+00  0.00000000000E+00  0.15032243616E+03  0.15032243616E+03  0.00000000000E+00 0. -1.
         21   -1    0    0  501  502  0.00000000000E+00 -0.00000000000E+00 -0.22877331431E+03  0.22877331431E+03  0.00000000000E+00 0. -1.
        -24    2    1    2    0    0 -0.36506931904E+02  0.35760593400E+02  0.13640521428E+02  0.97439423980E+02  0.81833986848E+02 0.  0.
         23    2    1    2    0    0 -0.91300511040E+02 -0.43230067537E+02 -0.33125983104E+02  0.14070436356E+03  0.92172474807E+02 0.  0.
         13    1    3    3    0    0 -0.36250035657E+02  0.90033363876E+01  0.43505876416E+02  0.57340094471E+02  0.00000000000E+00 0. -1.
        -14    1    3    3    0    0 -0.25689624670E+00  0.26757257013E+02 -0.29865354988E+02  0.40099329509E+02  0.00000000000E+00 0.  1.
        -13    1    4    4    0    0 -0.47292292278E+02  0.22449128778E+02  0.56375991607E+01  0.52652699989E+02  0.00000000000E+00 0.  1.
         13    1    4    4    0    0 -0.44008218762E+02 -0.65679196315E+02 -0.38763582264E+02  0.88051663568E+02  0.00000000000E+00 0. -1.
          2    1    1    2  501    0  0.12780744294E+03  0.74694741362E+01 -0.58965416472E+02  0.14095196294E+03  0.00000000000E+00 0. -1.
<scales pt_clust_5="13000.00000" pt_clust_6="13000.00000" pt_clust_7="13000.00000" pt_clust_8="13000.00000" pt_clust_9="114.34222"></scales>
<clustering>
<clus scale="   81.834">  5  6 -1 -1</clus>
<clus scale="   92.172">  7  8 -1 -1</clus>
<clus scale="   96.480">  1  5  2 -1</clus>
<clus scale="  114.342">  2  9  1 -1</clus>
<clus scale="  114.342">  2  5  1 -1</clus>
</clustering>
</event>
<event>
 9    1  0.7835476E-005  0.1096960E+03  0.7546771E-02  0.1265313E+00
         21   -1    0    0  501  502  0.00000000000E+00  0.00000000000E+00  0.22094900796E+03  0.22094900796E+03  0.00000000000E+00 0.  1.
          1   -1    0    0  502    0 -0.00000000000E+00 -0.00000000000E+00 -0.13433850619E+03  0.13433850619E+03  0.00000000000E+00 0. -1.
         23    2    1    2    0    0 -0.42102156231E+02 -0.35706262519E+02 -0.76834159883E+02  0.13164127204E+03  0.91533642101E+02 0.  0.
        -24    2    1    2    0    0  0.64878905955E+02  0.56951984581E+02  0.10903890653E+03  0.16095535582E+03  0.81020629747E+02 0.  0.
         11    1    4    4    0    0  0.46263490951E+02  0.37449540101E+01  0.10740662296E+02  0.47641338164E+02  0.00000000000E+00 0. -1.
        -12    1    4    4    0    0  0.18615415004E+02  0.53207030570E+02  0.98298244236E+02  0.11331401766E+03  0.00000000000E+00 0.  1.
        -13    1    3    3    0    0  0.12233657639E+02  0.21171391793E+02 -0.34576169008E+02  0.42348573446E+02  0.00000000000E+00 0.  1.
         13    1    3    3    0    0 -0.54335813870E+02 -0.56877654312E+02 -0.42257990875E+02  0.89292698591E+02  0.00000000000E+00 0. -1.
          2    1    1    2  501    0 -0.22776749724E+02 -0.21245722061E+02  0.54405755115E+02  0.62690886288E+02  0.00000000000E+00 0. -1.
<scales pt_clust_5="13000.00000" pt_clust_6="13000.00000" pt_clust_7="13000.00000" pt_clust_8="13000.00000" pt_clust_9="31.14741"></scales>
<clustering>
<clus scale="   31.147">  1  9  2 -1</clus>
<clus scale="   81.021">  5  6 -1 -1</clus>
<clus scale="   91.534">  7  8 -1 -1</clus>
<clus scale="  101.090">  1  5  2 -1</clus>
<clus scale="   31.147">  1  5  2 -1</clus>
</clustering>
</event>
<event>
 9    1  0.7835476E-005  0.1387615E+03  0.7546771E-02  0.1217318E+00
         21   -1    0    0  501  502  0.00000000000E+00  0.00000000000E+00  0.21484144079E+03  0.21484144079E+03  0.00000000000E+00 0. -1.
          1   -1    0    0  502    0 -0.00000000000E+00 -0.00000000000E+00 -0.26376891733E+03  0.26376891733E+03  0.00000000000E+00 0. -1.
         23    2    1    2    0    0 -0.27621672727E+02 -0.10019276814E+03 -0.11878464371E+03  0.18221035051E+03  0.91045442829E+02 0.  0.
        -24    2    1    2    0    0 -0.79738100888E+02  0.12258421068E+03  0.82064787831E+02  0.18605272086E+03  0.80597345478E+02 0.  0.
         13    1    4    4    0    0 -0.71093476176E+02  0.10588036347E+03  0.30451251360E+02  0.13111907730E+03  0.00000000000E+00 0. -1.
        -14    1    4    4    0    0 -0.86446247114E+01  0.16703847212E+02  0.51613536471E+02  0.54933643564E+02  0.00000000000E+00 0.  1.
        -11    1    3    3    0    0 -0.32999526006E+02 -0.37390859140E+02 -0.10704894671E+03  0.11809539388E+03  0.00000000000E+00 0.  1.
         11    1    3    3    0    0  0.53778532791E+01 -0.62801908997E+02 -0.11735697002E+02  0.64114956630E+02  0.00000000000E+00 0. -1.
          2    1    1    2  501    0  0.10735977361E+03 -0.22391442543E+02 -0.12207620650E+02  0.11034728674E+03  0.00000000000E+00 0. -1.
<scales pt_clust_5="13000.00000" pt_clust_6="13000.00000" pt_clust_7="13000.00000" pt_clust_8="13000.00000" pt_clust_9="109.67000"></scales>
<clustering>
<clus scale="   80.597">  5  6 -1 -1</clus>
<clus scale="   91.045">  7  8 -1 -1</clus>
<clus scale="  109.670">  1  9  2 -1</clus>
<clus scale="  132.142">  1  5  2 -1</clus>
<clus scale="  109.670">  1  5  2 -1</clus>
</clustering>
</event>
<event>
 9    1  0.7835476E-005  0.1466267E+03  0.7546771E-02  0.1222699E+00
         21   -1    0    0  501  502  0.00000000000E+00  0.00000000000E+00  0.54606441435E+03  0.54606441435E+03  0.00000000000E+00 0. -1.
          1   -1    0    0  502    0 -0.00000000000E+00 -0.00000000000E+00 -0.95479292808E+02  0.95479292808E+02  0.00000000000E+00 0. -1.
         23    2    1    2    0    0 -0.36816278990E+02  0.18046344985E+02  0.62843748129E+02  0.11813486392E+03  0.91243632259E+02 0.  0.
        -24    2    1    2    0    0 -0.63805725180E+02 -0.10263164485E+03  0.36097732676E+03  0.38926051165E+03  0.81330746984E+02 0.  0.
         11    1    4    4    0    0 -0.66554666778E+02 -0.11300425062E+03  0.30098552120E+03  0.32831656720E+03  0.00000000000E+00 0. -1.
        -12    1    4    4    0    0  0.27489415977E+01  0.10372605770E+02  0.59991805567E+02  0.60943944453E+02  0.00000000000E+00 0.  1.
        -11    1    3    3    0    0  0.30902805943E+01  0.39518056453E+02  0.61041797013E+02  0.72782742478E+02  0.00000000000E+00 0.  1.
         11    1    3    3    0    0 -0.39906559584E+02 -0.21471711468E+02  0.18019511158E+01  0.45352121439E+02  0.00000000000E+00 0. -1.
          2    1    1    2  501    0  0.10062200417E+03  0.84585299862E+02  0.26764046653E+02  0.13414833159E+03  0.00000000000E+00 0. -1.
<scales pt_clust_5="13000.00000" pt_clust_6="13000.00000" pt_clust_7="13000.00000" pt_clust_8="13000.00000" pt_clust_9="122.00292"></scales>
<clustering>
<clus scale="   81.331">  5  6 -1 -1</clus>
<clus scale="   91.244">  7  8 -1 -1</clus>
<clus scale="  100.033">  2  7  1 -1</clus>
<clus scale="  122.003">  1  9  2 -1</clus>
<clus scale="  122.003">  1  5  2 -1</clus>
</clustering>
</event>
<event>
 9    1  0.7835476E-005  0.2837190E+03  0.7546771E-02  0.1114123E+00
          1   -1    0    0  502    0 -0.00000000000E+00  0.00000000000E+00  0.13796434026E+04  0.13796434026E+04  0.00000000000E+00 0. -1.
         21   -1    0    0  501  502  0.00000000000E+00 -0.00000000000E+00 -0.10119129505E+03  0.10119129505E+03  0.00000000000E+00 0.  1.
        -24    2    1    2    0    0  0.52740541173E+02 -0.13726708288E+03  0.27304619049E+03  0.32034774120E+03  0.80278492913E+02 0.  0.
         23    2    1    2    0    0 -0.23946218603E+03  0.25214893899E+03  0.60125656531E+03  0.70070492978E+03  0.92502515218E+02 0.  0.
         13    1    3    3    0    0  0.43782589834E+02 -0.23594973391E+02  0.54088818499E+02  0.73479508903E+02  0.00000000000E+00 0. -1.
        -14    1    3    3    0    0  0.89579513389E+01 -0.11367210949E+03  0.21895737199E+03  0.24686823229E+03  0.00000000000E+00 0.  1.
        -11    1    4    4    0    0 -0.35172716169E+02  0.95976490679E+02  0.15526877086E+03  0.18589512616E+03  0.00000000000E+00 0.  1.
         11    1    4    4    0    0 -0.20428946987E+03  0.15617244831E+03  0.44598779444E+03  0.51480980362E+03  0.00000000000E+00 0. -1.
          2    1    1    2  501    0  0.18672164486E+03 -0.11488185611E+03  0.40414935177E+03  0.45978202668E+03  0.00000000000E+00 0. -1.
<scales pt_clust_5="13000.00000" pt_clust_6="13000.00000" pt_clust_7="13000.00000" pt_clust_8="13000.00000" pt_clust_9="268.21583"></scales>
<clustering>
<clus scale="   80.278">  5  6 -1 -1</clus>
<clus scale="   92.503">  7  8 -1 -1</clus>
<clus scale="  167.537">  1  5  2 -1</clus>
<clus scale="  268.216">  2  9  1 -1</clus>
<clus scale="  268.216">  2  5  1 -1</clus>
</clustering>
</event>
<event>
 9    1  0.7835476E-005  0.1512764E+03  0.7546771E-02  0.1200878E+00
          1   -1    0    0  502    0 -0.00000000000E+00  0.00000000000E+00  0.41011134539E+03  0.41011134539E+03  0.00000000000E+00 0. -1.
         21   -1    0    0  501  502  0.00000000000E+00 -0.00000000000E+00 -0.14613483844E+03  0.14613483844E+03  0.00000000000E+00 0.  1.
        -24    2    1    2    0    0  0.39837128372E+02 -0.11269828297E+03  0.22118583228E+03  0.26418218408E+03  0.81124313270E+02 0.  0.
         23    2    1    2    0    0 -0.84410274411E+02  0.99653801440E+02 -0.66734253569E+02  0.17309915725E+03  0.91945000259E+02 0.  0.
         11    1    3    3    0    0 -0.18467841904E+02 -0.68363974027E+02  0.11856524587E+03  0.13810290243E+03  0.00000000000E+00 0. -1.
        -12    1    3    3    0    0  0.58304970277E+02 -0.44334308939E+02  0.10262058641E+03  0.12607928165E+03  0.00000000000E+00 0.  1.
        -11    1    4    4    0    0 -0.74642835268E+02  0.23862068819E+02 -0.55108558261E+02  0.95801379838E+02  0.00000000000E+00 0.  1.
         11    1    4    4    0    0 -0.97674391431E+01  0.75791732620E+02 -0.11625695308E+02  0.77297777409E+02  0.00000000000E+00 0. -1.
          2    1    1    2  501    0  0.44573146039E+02  0.13044481526E+02  0.10952492824E+03  0.11896484250E+03  0.00000000000E+00 0. -1.
<scales pt_clust_5="13000.00000" pt_clust_6="13000.00000" pt_clust_7="13000.00000" pt_clust_8="13000.00000" pt_clust_9="46.44272"></scales>
<clustering>
<clus scale="   46.443">  2  9  1 -1</clus>
<clus scale="   81.124">  5  6 -1 -1</clus>
<clus scale="   91.945">  7  8 -1 -1</clus>
<clus scale="  144.955">  1  5  2 -1</clus>
<clus scale="   46.443">  2  5  1 -1</clus>
</clustering>
</event>
<event>
 9    1  0.7835476E-005  0.1521539E+03  0.7546771E-02  0.1200011E+00
          1   -1    0    0  502    0 -0.00000000000E+00  0.00000000000E+00  0.11213006625E+04  0.11213006625E+04  0.00000000000E+00 0. -1.
         21   -1    0    0  501  502  0.00000000000E+00 -0.00000000000E+00 -0.36668441345E+02  0.36668441345E+02  0.00000000000E+00 0. -1.
        -24    2    1    2    0    0 -0.82993684455E+02 -0.78549535840E+02  0.69961036011E+03  0.71347555707E+03  0.80837697382E+02 0.  0.
         23    2    1    2    0    0  0.71513151306E+02  0.12552642088E+03  0.32345562488E+03  0.36620541355E+03  0.92800056572E+02 0.  0.
         11    1    3    3    0    0 -0.61642219093E+02 -0.94786388302E+02  0.57486741831E+03  0.58588119207E+03  0.00000000000E+00 0. -1.
        -12    1    3    3    0    0 -0.21351465362E+02  0.16236852462E+02  0.12474294180E+03  0.12759436500E+03  0.00000000000E+00 0.  1.
        -11    1    4    4    0    0  0.35553452145E+02  0.22162932322E+02  0.26125989444E+02  0.49374192175E+02  0.00000000000E+00 0.  1.
         11    1    4    4    0    0  0.35959699161E+02  0.10336348856E+03  0.29732963543E+03  0.31683122137E+03  0.00000000000E+00 0. -1.
          2    1    1    2  501    0  0.11480533149E+02 -0.46976885042E+02  0.61566236204E+02  0.78288133265E+02  0.00000000000E+00 0. -1.
<scales pt_clust_5="13000.00000" pt_clust_6="13000.00000" pt_clust_7="13000.00000" pt_clust_8="13000.00000" pt_clust_9="48.35939"></scales>
<clustering>
<clus scale="   48.359">  2  9  1 -1</clus>
<clus scale="   80.838">  5  6 -1 -1</clus>
<clus scale="   92.800">  7  8 -1 -1</clus>
<clus scale="  145.168">  1  5  2 -1</clus>
<clus scale="   48.359">  2  5  1 -1</clus>
</clustering>
</event>
<event>
 9    1  0.7835476E-005  0.1236756E+03  0.7546771E-02  0.1249351E+00
          1   -1    0    0  502    0 -0.00000000000E+00  0.00000000000E+00  0.43924789394E+03  0.43924789394E+03  0.00000000000E+00 0. -1.
         21   -1    0    0  501  502  0.00000000000E+00 -0.00000000000E+00 -0.13369785743E+03  0.13369785743E+03  0.00000000000E+00 0. -1.
        -24    2    1    2    0    0  0.89825943947E+01  0.71838691179E+02  0.21323872594E+03  0.23552628151E+03  0.68995583110E+02 0.  0.
         23    2    1    2    0    0 -0.48459443279E+02 -0.49335715473E+02  0.19145317786E+03  0.22836024117E+03  0.10349758436E+03 0.  0.
         11    1    3    3    0    0 -0.23426787354E+02  0.57635527738E+02  0.15928646433E+03  0.17100539799E+03  0.00000000000E+00 0. -1.
        -12    1    3    3    0    0  0.32409381748E+02  0.14203163441E+02  0.53952261605E+02  0.64520883513E+02  0.00000000000E+00 0.  1.
        -11    1    4    4    0    0 -0.40175834039E+02  0.25226832310E+02  0.54907354697E+02  0.72562444205E+02  0.00000000000E+00 0. -1.
         11    1    4    4    0    0 -0.82836092396E+01 -0.74562547783E+02  0.13654582317E+03  0.15579779696E+03  0.00000000000E+00 0.  1.
          2    1    1    2  501    0  0.39476848884E+02 -0.22502975706E+02 -0.99141867291E+02  0.10905922869E+03  0.00000000000E+00 0. -1.
<scales pt_clust_5="13000.00000" pt_clust_6="13000.00000" pt_clust_7="13000.00000" pt_clust_8="13000.00000" pt_clust_9="45.44013"></scales>
<clustering>
<clus scale="   45.440">  2  9  1 -1</clus>
<clus scale="   68.996">  5  6 -1 -1</clus>
<clus scale="   96.666">  1  5  2 -1</clus>
<clus scale="  103.498">  7  8 -1 -1</clus>
<clus scale="   45.440">  2  5  1 -1</clus>
</clustering>
</event>
<event>
 9    1  0.7835476E-005  0.1472925E+03  0.7546771E-02  0.1207726E+00
          1   -1    0    0  502    0 -0.00000000000E+00  0.00000000000E+00  0.39437152237E+03  0.39437152237E+03  0.00000000000E+00 0. -1.
         21   -1    0    0  501  502  0.00000000000E+00 -0.00000000000E+00 -0.82118384650E+02  0.82118384650E+02  0.00000000000E+00 0.  1.
         23    2    1    2    0    0 -0.12476713150E+03  0.19748351459E+01  0.27241940730E+03  0.31396594225E+03  0.93763224906E+02 0.  0.
        -24    2    1    2    0    0  0.91435059672E+02 -0.12925078994E+02  0.46060161138E+02  0.12689106856E+03  0.73840212844E+02 0.  0.
         11    1    4    4    0    0  0.16967130163E+02  0.28369713564E+02  0.14138439751E+02  0.35953019794E+02  0.00000000000E+00 0. -1.
        -12    1    4    4    0    0  0.74467929508E+02 -0.41294792558E+02  0.31921721387E+02  0.90938048769E+02  0.00000000000E+00 0.  1.
        -13    1    3    3    0    0 -0.47039843759E+02 -0.34503832657E+02  0.54876609354E+02  0.80091844923E+02  0.00000000000E+00 0.  1.
         13    1    3    3    0    0 -0.77727287745E+02  0.36478667803E+02  0.21754279794E+03  0.23387409733E+03  0.00000000000E+00 0. -1.
          2    1    1    2  501    0  0.33332071833E+02  0.10950243848E+02 -0.62264307091E+01  0.35632896211E+02  0.00000000000E+00 0. -1.
<scales pt_clust_5="13000.00000" pt_clust_6="13000.00000" pt_clust_7="13000.00000" pt_clust_8="13000.00000" pt_clust_9="35.08468"></scales>
<clustering>
<clus scale="   35.085">  2  9  1 -1</clus>
<clus scale="   73.840">  5  6 -1 -1</clus>
<clus scale="   93.763">  7  8 -1 -1</clus>
<clus scale="  135.484">  2  5  1 -1</clus>
<clus scale="   35.085">  2  5  1 -1</clus>
</clustering>
</event>
<event>
 9    1  0.7835476E-005  0.1012337E+03  0.7546771E-02  0.1282922E+00
         -4   -1    0    0    0  501 -0.00000000000E+00  0.00000000000E+00  0.63799483467E+02  0.63799483467E+02  0.00000000000E+00 0.  1.
         21   -1    0    0  501  502  0.00000000000E+00 -0.00000000000E+00 -0.20737309408E+03  0.20737309408E+03  0.00000000000E+00 0. -1.
         23    2    1    2    0    0 -0.12147816009E+02 -0.48905686711E+02 -0.42003962728E+02  0.11208389728E+03  0.90879764068E+02 0.  0.
        -24    2    1    2    0    0  0.26495350449E+02  0.28655107120E+02 -0.10038934428E+03  0.13424253701E+03  0.80124400406E+02 0.  0.
         13    1    4    4    0    0 -0.23233416600E+02 -0.89187476671E+01 -0.42100701062E+02  0.48906080775E+02  0.00000000000E+00 0. -1.
        -14    1    4    4    0    0  0.49728767049E+02  0.37573854787E+02 -0.58288643215E+02  0.85336456240E+02  0.00000000000E+00 0.  1.
        -11    1    3    3    0    0 -0.21170501398E+02 -0.17878114968E+02  0.25238401620E+02  0.37480582181E+02  0.00000000000E+00 0.  1.
         11    1    3    3    0    0  0.90226853890E+01 -0.31027571743E+02 -0.67242364349E+02  0.74603315095E+02  0.00000000000E+00 0. -1.
         -3    1    1    2    0  502 -0.14347534439E+02  0.20250579591E+02 -0.11803036107E+01  0.24846143260E+02  0.00000000000E+00 0.  1.
<scales pt_clust_5="13000.00000" pt_clust_6="13000.00000" pt_clust_7="13000.00000" pt_clust_8="13000.00000" pt_clust_9="24.81810"></scales>
<clustering>
<clus scale="   24.818">  2  9  1 -1</clus>
<clus scale="   80.124">  5  6 -1 -1</clus>
<clus scale="   90.880">  7  8 -1 -1</clus>
<clus scale="   91.701">  2  5  1 -1</clus>
<clus scale="   24.818">  2  5  1 -1</clus>
</clustering>
</event>
<event>
 9    1  0.7835476E-005  0.1376102E+03  0.7546771E-02  0.1228937E+00
          1   -1    0    0  502    0 -0.00000000000E+00  0.00000000000E+00  0.70481541298E+03  0.70481541298E+03  0.00000000000E+00 0. -1.
         21   -1    0    0  501  502  0.00000000000E+00 -0.00000000000E+00 -0.85381209604E+02  0.85381209604E+02  0.00000000000E+00 0. -1.
         23    2    1    2    0    0 -0.53977007483E+02 -0.32279652225E+01  0.68559694411E+02  0.12648362217E+03  0.91508130151E+02 0.  0.
        -24    2    1    2    0    0  0.13571600883E+03 -0.65952809277E+02  0.52688354619E+03  0.55397326195E+03  0.80693838754E+02 0.  0.
         13    1    4    4    0    0  0.61745902796E+02  0.48398110502E+01  0.27870695277E+03  0.28550577193E+03  0.00000000000E+00 0. -1.
        -14    1    4    4    0    0  0.73970106034E+02 -0.70792620328E+02  0.24817659342E+03  0.26846749002E+03  0.00000000000E+00 0.  1.
        -13    1    3    3    0    0 -0.10711116658E+02  0.41422815373E+02  0.37914862057E+02  0.57167424450E+02  0.00000000000E+00 0.  1.
         13    1    3    3    0    0 -0.43265890825E+02 -0.44650780595E+02  0.30644832353E+02  0.69316197722E+02  0.00000000000E+00 0. -1.
          2    1    1    2  501    0 -0.81739001348E+02  0.69180774500E+02  0.23990962778E+02  0.10973973846E+03  0.00000000000E+00 0. -1.
<scales pt_clust_5="13000.00000" pt_clust_6="13000.00000" pt_clust_7="13000.00000" pt_clust_8="13000.00000" pt_clust_9="111.46783"></scales>
<clustering>
<clus scale="   80.694">  5  6 -1 -1</clus>
<clus scale="   91.508">  7  8 -1 -1</clus>
<clus scale="  106.291">  1  7  2 -1</clus>
<clus scale="  111.468">  2  9  1 -1</clus>
<clus scale="  111.468">  2  5  1 -1</clus>
</clustering>
</event>
<event>
 9    1  0.7835476E-005  0.1132030E+03  0.7546771E-02  0.1254758E+00
         21   -1    0    0  501  502  0.00000000000E+00  0.00000000000E+00  0.20647759936E+03  0.20647759936E+03  0.00000000000E+00 0. -1.
         -4   -1    0    0    0  501 -0.00000000000E+00 -0.00000000000E+00 -0.12643204013E+03  0.12643204013E+03  0.00000000000E+00 0.  1.
         23    2    1    2    0    0 -0.84950249338E+02 -0.24446002825E+02 -0.16176547531E+02  0.12313824040E+03  0.84185471685E+02 0.  0.
        -24    2    1    2    0    0  0.38957188545E+02  0.17569051925E+02  0.12380079235E+03  0.15570442217E+03  0.84207462684E+02 0.  0.
         13    1    4    4    0    0  0.11285812284E+02  0.19310757294E+02  0.12592599732E+03  0.12789695738E+03  0.00000000000E+00 0. -1.
        -14    1    4    4    0    0  0.27671376261E+02 -0.17417053690E+01 -0.21252049712E+01  0.27807464788E+02  0.00000000000E+00 0.  1.
        -11    1    3    3    0    0 -0.83535055962E+02  0.12969796052E+02 -0.13418319114E+02  0.85594231535E+02  0.00000000000E+00 0.  1.
         11    1    3    3    0    0 -0.14151933766E+01 -0.37415798877E+02 -0.27582284173E+01  0.37544008868E+02  0.00000000000E+00 0. -1.
         -3    1    1    2    0  502  0.45993060793E+02  0.68769509001E+01 -0.27578685579E+02  0.54066976918E+02  0.00000000000E+00 0.  1.
<scales pt_clust_5="13000.00000" pt_clust_6="13000.00000" pt_clust_7="13000.00000" pt_clust_8="13000.00000" pt_clust_9="46.50437"></scales>
<clustering>
<clus scale="   46.504">  1  9  2 -1</clus>
<clus scale="   84.185">  7  8 -1 -1</clus>
<clus scale="   84.207">  5  6 -1 -1</clus>
<clus scale="  113.187">  2  7  1 -1</clus>
<clus scale="   46.504">  1  5  2 -1</clus>
</clustering>
</event>
<event>
 9    1  0.7835476E-005  0.1149176E+03  0.7546771E-02  0.1256515E+00
         21   -1    0    0  501  502  0.00000000000E+00  0.00000000000E+00  0.28919860417E+02  0.28919860417E+02  0.00000000000E+00 0. -1.
          1   -1    0    0  502    0 -0.00000000000E+00 -0.00000000000E+00 -0.74682215844E+03  0.74682215844E+03  0.00000000000E+00 0. -1.
        -24    2    1    2    0    0 -0.20785586836E+02  0.51876682469E+02 -0.21721362011E+03  0.23845136123E+03  0.80957174532E+02 0.  0.
         23    2    1    2    0    0  0.82878058327E+02 -0.35400659593E+02 -0.31805669388E+03  0.34368958341E+03  0.94023879787E+02 0.  0.
         11    1    3    3    0    0 -0.89591942304E+01  0.38698119391E+02 -0.28450168202E+02  0.48859223043E+02  0.00000000000E+00 0. -1.
        -12    1    3    3    0    0 -0.11826392606E+02  0.13178563078E+02 -0.18876345191E+03  0.18959213819E+03  0.00000000000E+00 0.  1.
        -13    1    4    4    0    0 -0.19152442083E+02 -0.18847465996E+02 -0.66802716195E+02  0.72004485300E+02  0.00000000000E+00 0.  1.
         13    1    4    4    0    0  0.10203050041E+03 -0.16553193597E+02 -0.25125397768E+03  0.27168509811E+03  0.00000000000E+00 0. -1.
          2    1    1    2  501    0 -0.62092471491E+02 -0.16476022876E+02 -0.18263198404E+03  0.19360107422E+03  0.00000000000E+00 0. -1.
<scales pt_clust_5="13000.00000" pt_clust_6="13000.00000" pt_clust_7="13000.00000" pt_clust_8="13000.00000" pt_clust_9="64.24125"></scales>
<clustering>
<clus scale="   64.241">  1  9  2 -1</clus>
<clus scale="   80.957">  5  6 -1 -1</clus>
<clus scale="   94.024">  7  8 -1 -1</clus>
<clus scale="  104.497">  2  5  1 -1</clus>
<clus scale="   64.241">  1  5  2 -1</clus>
</clustering>
</event>
<event>
 9    1  0.7835476E-005  0.1369752E+03  0.7546771E-02  0.1232089E+00
         -2   -1    0    0    0  501 -0.00000000000E+00  0.00000000000E+00  0.39443349295E+03  0.39443349295E+03  0.00000000000E+00 0.  1.
         21   -1    0    0  501  502  0.00000000000E+00 -0.00000000000E+00 -0.14716825612E+03  0.14716825612E+03  0.00000000000E+00 0.  1.
        -24    2    1    2    0    0 -0.15233446264E+02  0.59594159249E+02  0.18187424518E+03  0.20803171755E+03  0.80096396587E+02 0.  0.
         23    2    1    2    0    0  0.71378420118E+02  0.31749930676E+02  0.15333227644E+03  0.19489894432E+03  0.91497948300E+02 0.  0.
         11    1    3    3    0    0 -0.24926002799E+02 -0.12325052519E+02  0.61139242097E+02  0.67165612178E+02  0.00000000000E+00 0. -1.
        -12    1    3    3    0    0  0.96925565351E+01  0.71919211769E+02  0.12073500308E+03  0.14086610537E+03  0.00000000000E+00 0.  1.
        -13    1    4    4    0    0  0.16279174133E+02 -0.16231441467E+02  0.10455029043E+03  0.10704781377E+03  0.00000000000E+00 0. -1.
         13    1    4    4    0    0  0.55099245985E+02  0.47981372143E+02  0.48781986002E+02  0.87851130552E+02  0.00000000000E+00 0.  1.
         -1    1    1    2    0  502 -0.56144973854E+02 -0.91344089926E+02 -0.87941284793E+02  0.13867108720E+03  0.00000000000E+00 0.  1.
<scales pt_clust_5="13000.00000" pt_clust_6="13000.00000" pt_clust_7="13000.00000" pt_clust_8="13000.00000" pt_clust_9="101.93296"></scales>
<clustering>
<clus scale="   80.096">  5  6 -1 -1</clus>
<clus scale="   91.498">  7  8 -1 -1</clus>
<clus scale="  100.990">  1  5  2 -1</clus>
<clus scale="  101.933">  2  9  1 -1</clus>
<clus scale="  101.933">  2  5  1 -1</clus>
</clustering>
</event>
<event>
 9    1  0.7835476E-005  0.9308485E+02  0.7546771E-02  0.1302708E+00
         21   -1    0    0  501  502  0.00000000000E+00  0.00000000000E+00  0.46287632896E+03  0.46287632896E+03  0.00000000000E+00 0.  1.
         -4   -1    0    0    0  501 -0.00000000000E+00 -0.00000000000E+00 -0.80126841987E+02  0.80126841987E+02  0.00000000000E+00 0.  1.
        -24    2    1    2    0    0  0.27445924922E-01 -0.21920450297E+02 -0.33095198791E+02  0.89632245542E+02  0.80362555730E+02 0.  0.
         23    2    1    2    0    0  0.21335345297E+02 -0.36122499613E+02  0.15346520583E+03  0.18380025865E+03  0.92037675670E+02 0.  0.
         13    1    3    3    0    0 -0.17479397494E+01 -0.38295609409E+02  0.13160414292E+02  0.40531537075E+02  0.00000000000E+00 0. -1.
        -14    1    3    3    0    0  0.17753856743E+01  0.16375159112E+02 -0.46255613084E+02  0.49100708467E+02  0.00000000000E+00 0.  1.
        -13    1    4    4    0    0 -0.21589733020E+02 -0.25213121352E+01  0.86269266909E+00  0.21753570406E+02  0.00000000000E+00 0. -1.
         13    1    4    4    0    0  0.42925078317E+02 -0.33601187477E+02  0.15260251316E+03  0.16204668824E+03  0.00000000000E+00 0.  1.
         -3    1    1    2    0  502 -0.21362791221E+02  0.58042949910E+02  0.26237947993E+03  0.26957066675E+03  0.00000000000E+00 0.  1.
<scales pt_clust_5="13000.00000" pt_clust_6="13000.00000" pt_clust_7="13000.00000" pt_clust_8="13000.00000" pt_clust_9="61.84944"></scales>
<clustering>
<clus scale="   61.849">  1  9  2 -1</clus>
<clus scale="   80.363">  5  6 -1 -1</clus>
<clus scale="   81.560">  2  5  1 -1</clus>
<clus scale="   92.038">  7  8 -1 -1</clus>
<clus scale="   61.849">  1  5  2 -1</clus>
</clustering>
</event>
<event>
 9    1  0.7835476E-005  0.9489653E+02  0.7546771E-02  0.1296316E+00
         21   -1    0    0  501  502  0.00000000000E+00  0.00000000000E+00  0.44800850690E+02  0.44800850690E+02  0.00000000000E+00 0.  1.
          3   -1    0    0  502    0 -0.00000000000E+00 -0.00000000000E+00 -0.44538026940E+03  0.44538026940E+03  0.00000000000E+00 0. -1.
         23    2    1    2    0    0 -0.25691498528E+02  0.23221670342E+01 -0.35999131130E+03  0.37251189383E+03  0.92227551652E+02 0.  0.
        -24    2    1    2    0    0  0.52232786875E+01 -0.14633751292E+02 -0.39308686357E+02  0.93749359024E+02  0.83679986718E+02 0.  0.
         13    1    4    4    0    0  0.33762792067E+02 -0.71542313943E+01 -0.51360848024E+02  0.61879284617E+02  0.00000000000E+00 0. -1.
        -14    1    4    4    0    0 -0.28539513380E+02 -0.74795198977E+01  0.12052161666E+02  0.31870074407E+02  0.00000000000E+00 0.  1.
        -11    1    3    3    0    0 -0.13397656947E+02  0.45508528937E+02 -0.13524248362E+03  0.14332150151E+03  0.00000000000E+00 0. -1.
         11    1    3    3    0    0 -0.12293841581E+02 -0.43186361903E+02 -0.22474882767E+03  0.22919039233E+03  0.00000000000E+00 0.  1.
          4    1    1    2  501    0  0.20468219840E+02  0.12311584258E+02 -0.12794210620E+01  0.23919867237E+02  0.00000000000E+00 0. -1.
<scales pt_clust_5="13000.00000" pt_clust_6="13000.00000" pt_clust_7="13000.00000" pt_clust_8="13000.00000" pt_clust_9="23.88563"></scales>
<clustering>
<clus scale="   23.886">  1  9  2 -1</clus>
<clus scale="   83.680">  5  6 -1 -1</clus>
<clus scale="   86.613">  1  5  2 -1</clus>
<clus scale="   92.228">  7  8 -1 -1</clus>
<clus scale="   23.886">  1  5  2 -1</clus>
</clustering>
</event>
<event>
 9    1  0.7835476E-005  0.1164125E+03  0.7546771E-02  0.1252986E+00
          1   -1    0    0  502    0 -0.00000000000E+00  0.00000000000E+00  0.47357711801E+02  0.47357711801E+02  0.00000000000E+00 0. -1.
         21   -1    0    0  501  502  0.00000000000E+00 -0.00000000000E+00 -0.59192875863E+03  0.59192875863E+03  0.00000000000E+00 0. -1.
        -24    2    1    2    0    0  0.54560081340E+02  0.45705497136E+02 -0.18231302029E+03  0.21149281121E+03  0.80158448605E+02 0.  0.
         23    2    1    2    0    0 -0.92383063971E+02  0.38219704964E+02 -0.21895586824E+03  0.25747182816E+03  0.91404013602E+02 0.  0.
         11    1    3    3    0    0  0.61042743688E+02  0.51143067588E+02 -0.95844893036E+02  0.12461169062E+03  0.00000000000E+00 0. -1.
        -12    1    3    3    0    0 -0.64826623483E+01 -0.54375704523E+01 -0.86468127257E+02  0.86881120590E+02  0.00000000000E+00 0.  1.
        -11    1    4    4    0    0 -0.74678279502E+02 -0.54555888811E+01 -0.74922434017E+02  0.10592440700E+03  0.00000000000E+00 0. -1.
         11    1    4    4    0    0 -0.17704784469E+02  0.43675293845E+02 -0.14403343423E+03  0.15154742116E+03  0.00000000000E+00 0.  1.
          2    1    1    2  501    0  0.37822982631E+02 -0.83925202099E+02 -0.14330215829E+03  0.17032183106E+03  0.00000000000E+00 0. -1.
<scales pt_clust_5="13000.00000" pt_clust_6="13000.00000" pt_clust_7="13000.00000" pt_clust_8="13000.00000" pt_clust_9="92.05447"></scales>
<clustering>
<clus scale="   80.158">  5  6 -1 -1</clus>
<clus scale="   91.404">  7  8 -1 -1</clus>
<clus scale="   92.054">  2  9  1 -1</clus>
<clus scale="  107.808">  1  5  2 -1</clus>
<clus scale="   92.054">  2  5  1 -1</clus>
</clustering>
</event>
<event>
 9    1  0.7835476E-005  0.1263351E+03  0.7546771E-02  0.1235939E+00
         21   -1    0    0  501  502  0.00000000000E+00  0.00000000000E+00  0.11299126580E+03  0.11299126580E+03  0.00000000000E+00 0. -1.
          1   -1    0    0  502    0 -0.00000000000E+00 -0.00000000000E+00 -0.27832631427E+03  0.27832631427E+03  0.00000000000E+00 0. -1.
         23    2    1    2    0    0  0.52342925406E+01 -0.10159242117E+03 -0.18985172341E+03  0.23365641637E+03  0.90571663194E+02 0.  0.
        -24    2    1    2    0    0  0.16902138870E+02  0.48077297320E+02  0.30141054205E+02  0.99475910252E+02  0.79936629625E+02 0.  0.
         11    1    4    4    0    0  0.16266221847E+02  0.70316439865E+02  0.19203184403E+02  0.74684362350E+02  0.00000000000E+00 0. -1.
        -12    1    4    4    0    0  0.63591702351E+00 -0.22239142544E+02  0.10937869802E+02  0.24791547902E+02  0.00000000000E+00 0.  1.
        -11    1    3    3    0    0 -0.20756015326E+02 -0.73115386105E+02 -0.56120290280E+02  0.94478351164E+02  0.00000000000E+00 0. -1.
         11    1    3    3    0    0  0.25990307867E+02 -0.28477035067E+02 -0.13373143313E+03  0.13917806521E+03  0.00000000000E+00 0.  1.
          2    1    1    2  501    0 -0.22136431411E+02  0.53515123852E+02 -0.56243792660E+01  0.58185253447E+02  0.00000000000E+00 0. -1.
<scales pt_clust_5="13000.00000" pt_clust_6="13000.00000" pt_clust_7="13000.00000" pt_clust_8="13000.00000" pt_clust_9="57.91278"></scales>
<clustering>
<clus scale="   57.913">  1  9  2 -1</clus>
<clus scale="   79.937">  5  6 -1 -1</clus>
<clus scale="   90.572">  7  8 -1 -1</clus>
<clus scale="  118.942">  1  5  2 -1</clus>
<clus scale="   57.913">  1  5  2 -1</clus>
</clustering>
</event>
<event>
 9    1  0.7835476E-005  0.1092269E+03  0.7546771E-02  0.1266962E+00
         21   -1    0    0  501  502  0.00000000000E+00  0.00000000000E+00  0.48776124410E+03  0.48776124410E+03  0.00000000000E+00 0.  1.
          3   -1    0    0  502    0 -0.00000000000E+00 -0.00000000000E+00 -0.51184721619E+02  0.51184721619E+02  0.00000000000E+00 0. -1.
        -24    2    1    2    0    0 -0.30714566600E+02  0.47069955377E+02  0.34304146649E+02  0.10324650055E+03  0.79524210770E+02 0.  0.
         23    2    1    2    0    0  0.68626141014E+02 -0.43165135392E+02  0.35147389271E+03  0.37219339474E+03  0.91767367209E+02 0.  0.
         13    1    3    3    0    0 -0.45988979469E+02  0.57252039612E+02  0.12082059905E+02  0.74422835500E+02  0.00000000000E+00 0. -1.
        -14    1    3    3    0    0  0.15274412869E+02 -0.10182084235E+02  0.22222086744E+02  0.28823665053E+02  0.00000000000E+00 0.  1.
        -13    1    4    4    0    0  0.66544900938E+02 -0.67637969674E+02  0.24064835939E+03  0.25867885816E+03  0.00000000000E+00 0.  1.
         13    1    4    4    0    0  0.20812400754E+01  0.24472834282E+02  0.11082553333E+03  0.11351453658E+03  0.00000000000E+00 0. -1.
          4    1    1    2  501    0 -0.37911574414E+02 -0.39048199848E+01  0.50798483115E+02  0.63506070422E+02  0.00000000000E+00 0. -1.
<scales pt_clust_5="13000.00000" pt_clust_6="13000.00000" pt_clust_7="13000.00000" pt_clust_8="13000.00000" pt_clust_9="38.11216"></scales>
<clustering>
<clus scale="   38.112">  1  9  2 -1</clus>
<clus scale="   79.524">  5  6 -1 -1</clus>
<clus scale="   91.767">  7  8 -1 -1</clus>
<clus scale="   99.163">  2  5  1 -1</clus>
<clus scale="   38.112">  1  5  2 -1</clus>
</clustering>
</event>
<event>
 9    1  0.7835476E-005  0.8570278E+02  0.7546771E-02  0.1317176E+00
         21   -1    0    0  501  502  0.00000000000E+00  0.00000000000E+00  0.10414367314E+03  0.10414367314E+03  0.00000000000E+00 0. -1.
         -2   -1    0    0    0  501 -0.00000000000E+00 -0.00000000000E+00 -0.14132521048E+03  0.14132521048E+03  0.00000000000E+00 0.  1.
        -24    2    1    2    0    0 -0.13728816950E+02 -0.27280349934E+01 -0.64497120419E+02  0.10256080338E+03  0.78504249938E+02 0.  0.
         23    2    1    2    0    0  0.19355182369E+02  0.32982538844E+02  0.49758469847E+02  0.10482036361E+03  0.83957920130E+02 0.  0.
         11    1    3    3    0    0  0.23716659532E+02  0.17553964784E+02 -0.49087486853E+02  0.57273056357E+02  0.00000000000E+00 0. -1.
        -12    1    3    3    0    0 -0.37445476482E+02 -0.20281999778E+02 -0.15409633567E+02  0.45287747025E+02  0.00000000000E+00 0.  1.
        -11    1    4    4    0    0  0.17325624129E+02 -0.15761755062E+02 -0.11837958185E+02  0.26243997944E+02  0.00000000000E+00 0.  1.
         11    1    4    4    0    0  0.20295582394E+01  0.48744293905E+02  0.61596428032E+02  0.78576365666E+02  0.00000000000E+00 0. -1.
         -1    1    1    2    0  502 -0.56263654191E+01 -0.30254503850E+02 -0.22442886774E+02  0.38087716626E+02  0.00000000000E+00 0.  1.
<scales pt_clust_5="13000.00000" pt_clust_6="13000.00000" pt_clust_7="13000.00000" pt_clust_8="13000.00000" pt_clust_9="30.77323"></scales>
<clustering>
<clus scale="   30.773">  1  9  2 -1</clus>
<clus scale="   78.504">  5  6 -1 -1</clus>
<clus scale="   80.368">  2  5  1 -1</clus>
<clus scale="   83.958">  7  8 -1 -1</clus>
<clus scale="   30.773">  1  5  2 -1</clus>
</clustering>
</event>
<event>
 9    1  0.7835477E-005  0.1562977E+03  0.7546771E-02  0.1194164E+00
         21   -1    0    0  501  502  0.00000000000E+00  0.00000000000E+00  0.19468823125E+03  0.19468823125E+03  0.00000000000E+00 0. -1.
          1   -1    0    0  502    0 -0.00000000000E+00 -0.00000000000E+00 -0.59388836855E+03  0.59388836855E+03  0.00000000000E+00 0. -1.
         23    2    1    2    0    0  0.75443687552E+02 -0.98196992869E+02 -0.27816559493E+03  0.31728999614E+03  0.89232527966E+02 0.  0.
        -24    2    1    2    0    0 -0.17037881083E+03  0.74437040768E+02  0.10232248352E+03  0.22743096201E+03  0.81762703168E+02 0.  0.
         13    1    4    4    0    0 -0.12057620112E+03  0.88780024788E+02  0.87925530369E+02  0.17364161934E+03  0.00000000000E+00 0. -1.
        -14    1    4    4    0    0 -0.49802609705E+02 -0.14342984020E+02  0.14396953150E+02  0.53789342663E+02  0.00000000000E+00 0.  1.
        -13    1    3    3    0    0  0.82589562068E+02 -0.42373982368E+02 -0.13868532591E+03  0.16688382117E+03  0.00000000000E+00 0.  1.
         13    1    3    3    0    0 -0.71458745165E+01 -0.55823010500E+02 -0.13948026902E+03  0.15040617497E+03  0.00000000000E+00 0. -1.
          2    1    1    2  501    0  0.94935123274E+02  0.23759952101E+02 -0.22335702589E+03  0.24385564166E+03  0.00000000000E+00 0. -1.
<scales pt_clust_5="13000.00000" pt_clust_6="13000.00000" pt_clust_7="13000.00000" pt_clust_8="13000.00000" pt_clust_9="97.86328"></scales>
<clustering>
<clus scale="   81.763">  5  6 -1 -1</clus>
<clus scale="   89.233">  7  8 -1 -1</clus>
<clus scale="   97.863">  1  9  2 -1</clus>
<clus scale="  152.157">  1  5  2 -1</clus>
<clus scale="   97.863">  1  5  2 -1</clus>
</clustering>
</event>
<event>
 9    1  0.7835476E-005  0.1308737E+03  0.7546771E-02  0.1226539E+00
          1   -1    0    0  502    0 -0.00000000000E+00  0.00000000000E+00  0.38962649229E+03  0.38962649229E+03  0.00000000000E+00 0. -1.
         21   -1    0    0  501  502  0.00000000000E+00 -0.00000000000E+00 -0.16643617163E+03  0.16643617163E+03  0.00000000000E+00 0. -1.
         23    2    1    2    0    0  0.70082953655E+02 -0.27605570429E+02  0.19660990673E+03  0.22907114152E+03  0.90246576340E+02 0.  0.
        -24    2    1    2    0    0 -0.12886732666E+03  0.54791204937E+02  0.12518537606E+03  0.20901864506E+03  0.91698154762E+02 0.  0.
         11    1    4    4    0    0 -0.91555446338E+02  0.59356781238E+02  0.13152983669E+03  0.17089682610E+03  0.00000000000E+00 0. -1.
        -12    1    4    4    0    0 -0.37311880324E+02 -0.45655763015E+01 -0.63444606302E+01  0.38121818962E+02  0.00000000000E+00 0.  1.
        -11    1    3    3    0    0  0.65793588776E+02 -0.56182918539E+02  0.12667413021E+03  0.15340029962E+03  0.00000000000E+00 0.  1.
         11    1    3    3    0    0  0.42893648786E+01  0.28577348110E+02  0.69935776518E+02  0.75670841896E+02  0.00000000000E+00 0. -1.
          2    1    1    2  501    0  0.58784373007E+02 -0.27185634508E+02 -0.98604962117E+02  0.11797287734E+03  0.00000000000E+00 0. -1.
<scales pt_clust_5="13000.00000" pt_clust_6="13000.00000" pt_clust_7="13000.00000" pt_clust_8="13000.00000" pt_clust_9="64.76620"></scales>
<clustering>
<clus scale="   64.766">  2  9  1 -1</clus>
<clus scale="   90.247">  7  8 -1 -1</clus>
<clus scale="   91.698">  5  6 -1 -1</clus>
<clus scale="  129.861">  1  7  2 -1</clus>
<clus scale="   64.766">  2  5  1 -1</clus>
</clustering>
</event>
<event>
 9    1  0.7835476E-005  0.2007393E+03  0.7546771E-02  0.1150627E+00
         21   -1    0    0  501  502  0.00000000000E+00  0.00000000000E+00  0.14312949203E+03  0.14312949203E+03  0.00000000000E+00 0. -1.
          1   -1    0    0  502    0 -0.00000000000E+00 -0.00000000000E+00 -0.77375187266E+03  0.77375187266E+03  0.00000000000E+00 0. -1.
        -24    2    1    2    0    0 -0.47758882792E+02 -0.16785677699E+03 -0.47946428495E+03  0.51653732560E+03  0.80423875388E+02 0.  0.
         23    2    1    2    0    0  0.82424910591E+02  0.16223948597E+03 -0.23323410347E+03  0.31107053521E+03  0.96183232209E+02 0.  0.
         11    1    3    3    0    0  0.51087322947E+01 -0.55509177149E+02 -0.75023278014E+02  0.93465823365E+02  0.00000000000E+00 0. -1.
        -12    1    3    3    0    0 -0.52867615087E+02 -0.11234759984E+03 -0.40444100693E+03  0.42307150223E+03  0.00000000000E+00 0.  1.
        -13    1    4    4    0    0 -0.13376743652E+01  0.24246453338E+02 -0.96529640500E+02  0.99537185852E+02  0.00000000000E+00 0. -1.
         13    1    4    4    0    0  0.83762584956E+02  0.13799303263E+03 -0.13670446297E+03  0.21153334936E+03  0.00000000000E+00 0.  1.
          2    1    1    2  501    0 -0.34666027799E+02  0.56172910241E+01  0.82076007785E+02  0.89273503884E+02  0.00000000000E+00 0. -1.
<scales pt_clust_5="13000.00000" pt_clust_6="13000.00000" pt_clust_7="13000.00000" pt_clust_8="13000.00000" pt_clust_9="35.11819"></scales>
<clustering>
<clus scale="   35.118">  1  9  2 -1</clus>
<clus scale="   80.424">  5  6 -1 -1</clus>
<clus scale="   96.183">  7  8 -1 -1</clus>
<clus scale="  193.683">  2  5  1 -1</clus>
<clus scale="   35.118">  1  5  2 -1</clus>
</clustering>
</event>
<event>
 9    1  0.7835476E-005  0.2680667E+03  0.7546771E-02  0.1102767E+00
          1   -1    0    0  502    0 -0.00000000000E+00  0.00000000000E+00  0.45182772697E+03  0.45182772697E+03  0.00000000000E+00 0. -1.
         21   -1    0    0  501  502  0.00000000000E+00 -0.00000000000E+00 -0.21226526095E+03  0.21226526095E+03  0.00000000000E+00 0. -1.
         23    2    1    2    0    0  0.65657143332E+02 -0.24013140900E+03  0.19696530189E+03  0.32977294932E+03  0.89335960818E+02 0.  0.
        -24    2    1    2    0    0 -0.12118075665E+03  0.23372437849E+03  0.39523986223E+02  0.27834356052E+03  0.81247346490E+02 0.  0.
         11    1    4    4    0    0 -0.65637363952E+02  0.14263202487E+03 -0.16435702783E+02  0.15786795239E+03  0.00000000000E+00 0. -1.
        -12    1    4    4    0    0 -0.55543392698E+02  0.91092353616E+02  0.55959689006E+02  0.12047560813E+03  0.00000000000E+00 0.  1.
        -13    1    3    3    0    0 -0.87029656997E+01 -0.91554772855E+02  0.10607155984E+03  0.14038943640E+03  0.00000000000E+00 0.  1.
         13    1    3    3    0    0  0.74360109032E+02 -0.14857663615E+03  0.90893742048E+02  0.18938351293E+03  0.00000000000E+00 0. -1.
          2    1    1    2  501    0  0.55523613318E+02  0.64070305143E+01  0.30731779111E+01  0.55976478081E+02  0.00000000000E+00 0. -1.
<scales pt_clust_5="13000.00000" pt_clust_6="13000.00000" pt_clust_7="13000.00000" pt_clust_8="13000.00000" pt_clust_9="55.89205"></scales>
<clustering>
<clus scale="   55.892">  2  9  1 -1</clus>
<clus scale="   81.247">  5  6 -1 -1</clus>
<clus scale="   89.336">  7  8 -1 -1</clus>
<clus scale="  265.481">  2  5  1 -1</clus>
<clus scale="   55.892">  2  5  1 -1</clus>
</clustering>
</event>
<event>
 9    1  0.7835476E-005  0.1563319E+03  0.7546771E-02  0.1221972E+00
          1   -1    0    0  502    0 -0.00000000000E+00  0.00000000000E+00  0.37524711061E+03  0.37524711061E+03  0.00000000000E+00 0. -1.
         21   -1    0    0  501  502  0.00000000000E+00 -0.00000000000E+00 -0.19085294377E+03  0.19085294377E+03  0.00000000000E+00 0. -1.
        -24    2    1    2    0    0 -0.13936109958E+02 -0.92300701695E+01 -0.61470286133E+02  0.10392786347E+03  0.82115743757E+02 0.  0.
         23    2    1    2    0    0 -0.21987866210E+02  0.12608660309E+03 -0.30264530513E+02  0.16019007742E+03  0.91452836786E+02 0.  0.
         11    1    3    3    0    0 -0.21054014448E+02 -0.40567107397E+02 -0.54349935154E+02  0.71013218334E+02  0.00000000000E+00 0. -1.
        -12    1    3    3    0    0  0.71179044907E+01  0.31337037228E+02 -0.71203509793E+01  0.32914645139E+02  0.00000000000E+00 0.  1.
        -13    1    4    4    0    0 -0.38050606032E+00  0.92971444163E+02 -0.60056026044E+02  0.11068225006E+03  0.00000000000E+00 0.  1.
         13    1    4    4    0    0 -0.21607360150E+02  0.33115158930E+02  0.29791495531E+02  0.49507827357E+02  0.00000000000E+00 0. -1.
          2    1    1    2  501    0  0.35923976168E+02 -0.11685653292E+03  0.27612898348E+03  0.30198211349E+03  0.00000000000E+00 0. -1.
<scales pt_clust_5="13000.00000" pt_clust_6="13000.00000" pt_clust_7="13000.00000" pt_clust_8="13000.00000" pt_clust_9="126.79144"></scales>
<clustering>
<clus scale="   82.116">  5  6 -1 -1</clus>
<clus scale="   83.800">  1  5  2 -1</clus>
<clus scale="   91.453">  7  8 -1 -1</clus>
<clus scale="  126.791">  2  9  1 -1</clus>
<clus scale="  126.791">  2  5  1 -1</clus>
</clustering>
</event>
<event>
 9    1  0.7835476E-005  0.1021856E+03  0.7546771E-02  0.1282140E+00
          3   -1    0    0  502    0 -0.00000000000E+00  0.00000000000E+00  0.95739212406E+03  0.95739212406E+03  0.00000000000E+00 0. -1.
         21   -1    0    0  501  502  0.00000000000E+00 -0.00000000000E+00 -0.35248778408E+02  0.35248778408E+02  0.00000000000E+00 0. -1.
        -24    2    1    2    0    0 -0.11598480364E+02 -0.35530869660E+02  0.20963082738E+03  0.22700659345E+03  0.78676185946E+02 0.  0.
         23    2    1    2    0    0  0.84612506945E+02  0.23355513500E+02  0.14287943527E+03  0.19121187159E+03  0.91884114356E+02 0.  0.
         11    1    3    3    0    0  0.23201047522E+02 -0.22692590667E+02  0.16860021086E+03  0.17169529225E+03  0.00000000000E+00 0. -1.
        -12    1    3    3    0    0 -0.34799527886E+02 -0.12838278993E+02  0.41030616520E+02  0.55311301201E+02  0.00000000000E+00 0.  1.
        -13    1    4    4    0    0  0.57118053558E+02 -0.56676259620E+01  0.13978855491E+03  0.15111397722E+03  0.00000000000E+00 0.  1.
         13    1    4    4    0    0  0.27494453387E+02  0.29023139462E+02  0.30908803532E+01  0.40097894366E+02  0.00000000000E+00 0. -1.
          4    1    1    2  501    0 -0.73014026581E+02  0.12175356160E+02  0.56963308301E+03  0.57442243744E+03  0.00000000000E+00 0. -1.
<scales pt_clust_5="13000.00000" pt_clust_6="13000.00000" pt_clust_7="13000.00000" pt_clust_8="13000.00000" pt_clust_9="74.02225"></scales>
<clustering>
<clus scale="   74.022">  2  9  1 -1</clus>
<clus scale="   78.676">  5  6 -1 -1</clus>
<clus scale="   90.494">  1  5  2 -1</clus>
<clus scale="   91.884">  7  8 -1 -1</clus>
<clus scale="   74.022">  2  5  1 -1</clus>
</clustering>
</event>
<event>
 9    1  0.7835476E-005  0.9421983E+02  0.7546771E-02  0.1303064E+00
         21   -1    0    0  501  502  0.00000000000E+00  0.00000000000E+00  0.71204358747E+02  0.71204358747E+02  0.00000000000E+00 0.  1.
          1   -1    0    0  502    0 -0.00000000000E+00 -0.00000000000E+00 -0.19786840014E+03  0.19786840014E+03  0.00000000000E+00 0. -1.
         23    2    1    2    0    0  0.57660546884E+01  0.24079725610E+02 -0.32297966184E+02  0.98347904842E+02  0.89532514737E+02 0.  0.
        -24    2    1    2    0    0 -0.45213617584E+02 -0.38896502560E+01 -0.26135697935E+02  0.89366795169E+02  0.72415114293E+02 0.  0.
         11    1    4    4    0    0 -0.13974429338E+02 -0.32195164285E+02 -0.31133585203E+02  0.46916025048E+02  0.00000000000E+00 0. -1.
        -12    1    4    4    0    0 -0.31239188246E+02  0.28305514029E+02  0.49978872681E+01  0.42450770121E+02  0.00000000000E+00 0.  1.
        -13    1    3    3    0    0 -0.13580220308E+02  0.53801934654E+02 -0.29319656349E+02  0.62759165104E+02  0.00000000000E+00 0. -1.
         13    1    3    3    0    0  0.19346274996E+02 -0.29722209044E+02 -0.29783098349E+01  0.35588739738E+02  0.00000000000E+00 0.  1.
          2    1    1    2  501    0  0.39447562895E+02 -0.20190075354E+02 -0.68230377270E+02  0.81358058873E+02  0.00000000000E+00 0. -1.
<scales pt_clust_5="13000.00000" pt_clust_6="13000.00000" pt_clust_7="13000.00000" pt_clust_8="13000.00000" pt_clust_9="44.31423"></scales>
<clustering>
<clus scale="   44.314">  1  9  2 -1</clus>
<clus scale="   72.415">  5  6 -1 -1</clus>
<clus scale="   78.136">  1  5  2 -1</clus>
<clus scale="   89.533">  7  8 -1 -1</clus>
<clus scale="   44.314">  1  5  2 -1</clus>
</clustering>
</event>
<event>
 9    1  0.7835476E-005  0.2385728E+03  0.7546771E-02  0.1121552E+00
          1   -1    0    0  502    0 -0.00000000000E+00  0.00000000000E+00  0.15301307752E+04  0.15301307752E+04  0.00000000000E+00 0. -1.
         21   -1    0    0  501  502  0.00000000000E+00 -0.00000000000E+00 -0.62015157579E+02  0.62015157579E+02  0.00000000000E+00 0. -1.
        -24    2    1    2    0    0 -0.15055743865E+03  0.16940509153E+03  0.11197411909E+04  0.11452064923E+04  0.79447769318E+02 0.  0.
         23    2    1    2    0    0  0.14110518526E+03 -0.14612550547E+03  0.35643879949E+03  0.42055159604E+03  0.92475350762E+02 0.  0.
         11    1    3    3    0    0 -0.15787914062E+03  0.15391144493E+03  0.98474489385E+03  0.10091268810E+04  0.00000000000E+00 0. -1.
        -12    1    3    3    0    0  0.73217019745E+01  0.15493646595E+02  0.13499629707E+03  0.13607961136E+03  0.00000000000E+00 0.  1.
        -11    1    4    4    0    0  0.40118150670E+02  0.53227613799E+01  0.78335285512E+02  0.88171507632E+02  0.00000000000E+00 0.  1.
         11    1    4    4    0    0  0.10098703459E+03 -0.15144826685E+03  0.27810351398E+03  0.33238008841E+03  0.00000000000E+00 0. -1.
          2    1    1    2  501    0  0.94522533814E+01 -0.23279586059E+02 -0.80643728342E+01  0.26387844366E+02  0.00000000000E+00 0. -1.
<scales pt_clust_5="13000.00000" pt_clust_6="13000.00000" pt_clust_7="13000.00000" pt_clust_8="13000.00000" pt_clust_9="25.12537"></scales>
<clustering>
<clus scale="   25.125">  2  9  1 -1</clus>
<clus scale="   79.448">  5  6 -1 -1</clus>
<clus scale="   92.475">  7  8 -1 -1</clus>
<clus scale="  233.832">  1  5  2 -1</clus>
<clus scale="   25.125">  2  5  1 -1</clus>
</clustering>
</event>
<event>
 9    1  0.7835476E-005  0.1246523E+03  0.7546771E-02  0.1237353E+00
         21   -1    0    0  501  502  0.00000000000E+00  0.00000000000E+00  0.76669562232E+02  0.76669562232E+02  0.00000000000E+00 0.  1.
          1   -1    0    0  502    0 -0.00000000000E+00 -0.00000000000E+00 -0.41758025989E+03  0.41758025989E+03  0.00000000000E+00 0. -1.
         23    2    1    2    0    0  0.20430538197E+02  0.81918000105E+02 -0.26884278269E+03  0.29510135378E+03  0.87637900288E+02 0.  0.
        -24    2    1    2    0    0  0.55638904354E+01 -0.11030553690E+03 -0.26842888220E+02  0.13976104872E+03  0.81328603479E+02 0.  0.
         11    1    4    4    0    0 -0.82142332980E+01 -0.56776448980E+02 -0.53457006874E+02  0.78413585375E+02  0.00000000000E+00 0. -1.
        -12    1    4    4    0    0  0.13778123733E+02 -0.53529087916E+02  0.26614118655E+02  0.61347463342E+02  0.00000000000E+00 0.  1.
        -13    1    3    3    0    0  0.29741219188E+02 -0.77653273584E+00 -0.12886892736E+03  0.13225862377E+03  0.00000000000E+00 0.  1.
         13    1    3    3    0    0 -0.93106809909E+01  0.82694532841E+02 -0.13997385532E+03  0.16284273001E+03  0.00000000000E+00 0. -1.
          2    1    1    2  501    0 -0.25994428633E+02  0.28387536791E+02 -0.45225026750E+02  0.59387419623E+02  0.00000000000E+00 0. -1.
<scales pt_clust_5="13000.00000" pt_clust_6="13000.00000" pt_clust_7="13000.00000" pt_clust_8="13000.00000" pt_clust_9="38.49109"></scales>
<clustering>
<clus scale="   38.491">  1  9  2 -1</clus>
<clus scale="   81.329">  5  6 -1 -1</clus>
<clus scale="   87.638">  7  8 -1 -1</clus>
<clus scale="  120.300">  1  5  2 -1</clus>
<clus scale="   38.491">  1  5  2 -1</clus>
</clustering>
</event>
<event>
 9    1  0.7835476E-005  0.1458929E+03  0.7546771E-02  0.1210462E+00
         21   -1    0    0  501  502  0.00000000000E+00  0.00000000000E+00  0.41493364934E+02  0.41493364934E+02  0.00000000000E+00 0.  1.
          3   -1    0    0  502    0 -0.00000000000E+00 -0.00000000000E+00 -0.87084787759E+03  0.87084787759E+03  0.00000000000E+00 0. -1.
        -24    2    1    2    0    0 -0.88201501206E+02 -0.63137580292E+02 -0.63165824588E+03  0.64585711118E+03  0.79833637114E+02 0.  0.
         23    2    1    2    0    0  0.90986758468E+02  0.23692398537E+02 -0.14471123655E+03  0.20036988590E+03  0.10181762730E+03 0.  0.
         11    1    3    3    0    0 -0.99677901404E+02 -0.41579049564E+02 -0.55470136753E+03  0.56511778288E+03  0.00000000000E+00 0. -1.
        -12    1    3    3    0    0  0.11476400198E+02 -0.21558530727E+02 -0.76956878352E+02  0.80739328300E+02  0.00000000000E+00 0.  1.
        -11    1    4    4    0    0  0.81685606013E+02  0.57489779438E+02 -0.85135913395E+02  0.13124685413E+03  0.00000000000E+00 0.  1.
         11    1    4    4    0    0  0.93011524547E+01 -0.33797380901E+02 -0.59575323152E+02  0.69123031773E+02  0.00000000000E+00 0. -1.
          4    1    1    2  501    0 -0.27852572620E+01  0.39445181755E+02 -0.52985030228E+02  0.66114245439E+02  0.00000000000E+00 0. -1.
<scales pt_clust_5="13000.00000" pt_clust_6="13000.00000" pt_clust_7="13000.00000" pt_clust_8="13000.00000" pt_clust_9="39.54339"></scales>
<clustering>
<clus scale="   39.543">  1  9  2 -1</clus>
<clus scale="   79.834">  5  6 -1 -1</clus>
<clus scale="  101.818">  7  8 -1 -1</clus>
<clus scale="  131.497">  2  5  1 -1</clus>
<clus scale="   39.543">  1  5  2 -1</clus>
</clustering>
</event>
<event>
 9    1  0.7835476E-005  0.9406991E+02  0.7546771E-02  0.1298593E+00
          1   -1    0    0  502    0 -0.00000000000E+00  0.00000000000E+00  0.23599248804E+03  0.23599248804E+03  0.00000000000E+00 0. -1.
         21   -1    0    0  501  502  0.00000000000E+00 -0.00000000000E+00 -0.27405910730E+03  0.27405910730E+03  0.00000000000E+00 0.  1.
        -24    2    1    2    0    0  0.31368306243E+02 -0.15679400851E+01  0.20411093600E+03  0.22146534369E+03  0.79994969745E+02 0.  0.
         23    2    1    2    0    0 -0.78962701776E+01  0.12546859146E+02 -0.69975820922E+02  0.11444576110E+03  0.89338916282E+02 0.  0.
         13    1    3    3    0    0 -0.11998402575E+02  0.19966130249E+02  0.13551421475E+03  0.13750167424E+03  0.00000000000E+00 0. -1.
        -14    1    3    3    0    0  0.43366708818E+02 -0.21534070334E+02  0.68596721257E+02  0.83963669441E+02  0.00000000000E+00 0.  1.
        -11    1    4    4    0    0 -0.17592713288E+02 -0.24578329430E+02 -0.69812491613E+02  0.76074843566E+02  0.00000000000E+00 0.  1.
         11    1    4    4    0    0  0.96964431106E+01  0.37125188576E+02 -0.16332930935E+00  0.38370917532E+02  0.00000000000E+00 0. -1.
          2    1    1    2  501    0 -0.23472036066E+02 -0.10978919061E+02 -0.17220173434E+03  0.17414049055E+03  0.00000000000E+00 0. -1.
<scales pt_clust_5="13000.00000" pt_clust_6="13000.00000" pt_clust_7="13000.00000" pt_clust_8="13000.00000" pt_clust_9="25.91280"></scales>
<clustering>
<clus scale="   25.913">  2  9  1 -1</clus>
<clus scale="   79.995">  5  6 -1 -1</clus>
<clus scale="   85.246">  1  5  2 -1</clus>
<clus scale="   89.339">  7  8 -1 -1</clus>
<clus scale="   25.913">  2  5  1 -1</clus>
</clustering>
</event>
<event>
 9    1  0.7835476E-005  0.1747379E+03  0.7546771E-02  0.1174169E+00
         -4   -1    0    0    0  501 -0.00000000000E+00  0.00000000000E+00  0.68411588893E+03  0.68411588893E+03  0.00000000000E+00 0.  1.
         21   -1    0    0  501  502  0.00000000000E+00 -0.00000000000E+00 -0.10250671719E+03  0.10250671719E+03  0.00000000000E+00 0.  1.
        -24    2    1    2    0    0 -0.98362020280E+02  0.11910822287E+03  0.37504669428E+03  0.41358405780E+03  0.80807760681E+02 0.  0.
         23    2    1    2    0    0  0.13637661910E+03 -0.65286085960E+02  0.24120539985E+03  0.29859350674E+03  0.90095405493E+02 0.  0.
         11    1    3    3    0    0 -0.14668263474E+02  0.48629442422E+02  0.52787370332E+02  0.73256310924E+02  0.00000000000E+00 0. -1.
        -12    1    3    3    0    0 -0.83693756806E+02  0.70478780447E+02  0.32225932395E+03  0.34032774687E+03  0.00000000000E+00 0.  1.
        -13    1    4    4    0    0  0.69137869594E+02 -0.14918350978E+02  0.41665279555E+02  0.82088962280E+02  0.00000000000E+00 0.  1.
         13    1    4    4    0    0  0.67238749507E+02 -0.50367734982E+02  0.19954012030E+03  0.21650454446E+03  0.00000000000E+00 0. -1.
         -3    1    1    2    0  502 -0.38014598820E+02 -0.53822136909E+02 -0.34642922390E+02  0.74445041586E+02  0.00000000000E+00 0.  1.
<scales pt_clust_5="13000.00000" pt_clust_6="13000.00000" pt_clust_7="13000.00000" pt_clust_8="13000.00000" pt_clust_9="65.89334"></scales>
<clustering>
<clus scale="   65.893">  2  9  1 -1</clus>
<clus scale="   80.808">  5  6 -1 -1</clus>
<clus scale="   90.095">  7  8 -1 -1</clus>
<clus scale="  170.135">  1  5  2 -1</clus>
<clus scale="   65.893">  2  5  1 -1</clus>
</clustering>
</event>
<event>
 9    1  0.7835476E-005  0.9729211E+02  0.7546771E-02  0.1293779E+00
         -2   -1    0    0    0  501 -0.00000000000E+00  0.00000000000E+00  0.63088610777E+03  0.63088610777E+03  0.00000000000E+00 0.  1.
         21   -1    0    0  501  502  0.00000000000E+00 -0.00000000000E+00 -0.43047558911E+02  0.43047558911E+02  0.00000000000E+00 0. -1.
        -24    2    1    2    0    0  0.12439948062E+02 -0.33314488922E+02  0.44114538650E+03  0.44952491554E+03  0.78732395989E+02 0.  0.
         23    2    1    2    0    0 -0.42908921449E+02 -0.24085785721E+02  0.92093549537E+02  0.13953079412E+03  0.92554416579E+02 0.  0.
         13    1    3    3    0    0  0.36098743754E+02 -0.46256064285E+02  0.32829843482E+03  0.33350053237E+03  0.00000000000E+00 0. -1.
        -14    1    3    3    0    0 -0.23658795693E+02  0.12941575362E+02  0.11284695168E+03  0.11602438317E+03  0.00000000000E+00 0.  1.
        -13    1    4    4    0    0 -0.18118270238E+02  0.14352242578E+02  0.90882510627E+02  0.93775739514E+02  0.00000000000E+00 0.  1.
         13    1    4    4    0    0 -0.24790651211E+02 -0.38438028299E+02  0.12110389102E+01  0.45755054608E+02  0.00000000000E+00 0. -1.
         -1    1    1    2    0  502  0.30468973387E+02  0.57400274643E+02  0.54599612825E+02  0.84877957026E+02  0.00000000000E+00 0.  1.
<scales pt_clust_5="13000.00000" pt_clust_6="13000.00000" pt_clust_7="13000.00000" pt_clust_8="13000.00000" pt_clust_9="64.98577"></scales>
<clustering>
<clus scale="   64.986">  2  9  1 -1</clus>
<clus scale="   78.732">  5  6 -1 -1</clus>
<clus scale="   84.251">  1  5  2 -1</clus>
<clus scale="   92.554">  7  8 -1 -1</clus>
<clus scale="   64.986">  2  5  1 -1</clus>
</clustering>
</event>
<event>
 9    1  0.7835476E-005  0.2060722E+03  0.7546771E-02  0.1145950E+00
          1   -1    0    0  502    0 -0.00000000000E+00  0.00000000000E+00  0.44022580783E+03  0.44022580783E+03  0.00000000000E+00 0. -1.
         21   -1    0    0  501  502  0.00000000000E+00 -0.00000000000E+00 -0.24671737378E+03  0.24671737378E+03  0.00000000000E+00 0. -1.
        -24    2    1    2    0    0  0.17420742111E+03 -0.51848554736E+02  0.25919382789E+03  0.32612246810E+03  0.78344914235E+02 0.  0.
         23    2    1    2    0    0 -0.18262263746E+03  0.82482318775E+02 -0.15255308094E+03  0.26832618163E+03  0.92585833779E+02 0.  0.
         11    1    3    3    0    0  0.98925293033E+02 -0.68317816586E+02  0.17055200085E+03  0.20866605535E+03  0.00000000000E+00 0. -1.
        -12    1    3    3    0    0  0.75282128075E+02  0.16469261850E+02  0.88641827041E+02  0.11745641274E+03  0.00000000000E+00 0.  1.
        -11    1    4    4    0    0 -0.39528549690E+02 -0.19806550145E+02 -0.22756412918E+02  0.49725848390E+02  0.00000000000E+00 0.  1.
         11    1    4    4    0    0 -0.14309408777E+03  0.10228886892E+03 -0.12979666803E+03  0.21860033324E+03  0.00000000000E+00 0. -1.
          2    1    1    2  501    0  0.84152163546E+01 -0.30633764040E+02  0.86867687110E+02  0.92494531889E+02  0.00000000000E+00 0. -1.
<scales pt_clust_5="13000.00000" pt_clust_6="13000.00000" pt_clust_7="13000.00000" pt_clust_8="13000.00000" pt_clust_9="31.76861"></scales>
<clustering>
<clus scale="   31.769">  2  9  1 -1</clus>
<clus scale="   78.345">  5  6 -1 -1</clus>
<clus scale="   92.586">  7  8 -1 -1</clus>
<clus scale="  200.079">  1  5  2 -1</clus>
<clus scale="   31.769">  2  5  1 -1</clus>
</clustering>
</event>
<event>
 9    1  0.7835476E-005  0.9583372E+02  0.7546771E-02  0.1296668E+00
          1   -1    0    0  502    0 -0.00000000000E+00  0.00000000000E+00  0.48483057454E+03  0.48483057454E+03  0.00000000000E+00 0. -1.
         21   -1    0    0  501  502  0.00000000000E+00 -0.00000000000E+00 -0.50174732081E+02  0.50174732081E+02  0.00000000000E+00 0.  1.
         23    2    1    2    0    0 -0.11291466263E+02  0.19990655731E+02  0.88963416531E+02  0.13081475200E+03  0.93117594115E+02 0.  0.
        -24    2    1    2    0    0  0.37199786910E+02  0.26905681510E+02  0.53124458950E+02  0.10675733047E+03  0.80418776581E+02 0.  0.
         13    1    4    4    0    0 -0.25070571060E+02  0.42092255803E+01  0.21625668907E+02  0.33375450093E+02  0.00000000000E+00 0. -1.
        -14    1    4    4    0    0  0.62270357970E+02  0.22696455929E+02  0.31498790043E+02  0.73381880377E+02  0.00000000000E+00 0.  1.
        -11    1    3    3    0    0 -0.21768854759E+02 -0.29186476033E+02  0.10985866219E+02  0.38031863974E+02  0.00000000000E+00 0. -1.
         11    1    3    3    0    0  0.10477388496E+02  0.49177131764E+02  0.77977550312E+02  0.92782888029E+02  0.00000000000E+00 0.  1.
          2    1    1    2  501    0 -0.25908320648E+02 -0.46896337241E+02  0.29256796698E+03  0.29743322415E+03  0.00000000000E+00 0. -1.
<scales pt_clust_5="13000.00000" pt_clust_6="13000.00000" pt_clust_7="13000.00000" pt_clust_8="13000.00000" pt_clust_9="53.57714"></scales>
<clustering>
<clus scale="   53.577">  2  9  1 -1</clus>
<clus scale="   80.419">  5  6 -1 -1</clus>
<clus scale="   83.549">  2  5  1 -1</clus>
<clus scale="   93.118">  7  8 -1 -1</clus>
<clus scale="   53.577">  2  5  1 -1</clus>
</clustering>
</event>
<event>
 9    1  0.7835476E-005  0.1011678E+03  0.7546771E-02  0.1280713E+00
         -4   -1    0    0    0  501 -0.00000000000E+00  0.00000000000E+00  0.17828220946E+03  0.17828220946E+03  0.00000000000E+00 0.  1.
         21   -1    0    0  501  502  0.00000000000E+00 -0.00000000000E+00 -0.15878958941E+03  0.15878958941E+03  0.00000000000E+00 0. -1.
        -24    2    1    2    0    0 -0.49834079235E+02  0.21144596557E+02  0.77975323839E+02  0.12671260690E+03  0.83936906076E+02 0.  0.
         23    2    1    2    0    0 -0.20581416014E+02 -0.69532800515E+02 -0.22999316648E+02  0.11784524158E+03  0.90000707580E+02 0.  0.
         11    1    3    3    0    0 -0.15902374803E+02 -0.27569702885E+02  0.54011530574E+02  0.62691462549E+02  0.00000000000E+00 0. -1.
        -12    1    3    3    0    0 -0.33931704432E+02  0.48714299442E+02  0.23963793265E+02  0.64021144347E+02  0.00000000000E+00 0.  1.
        -11    1    4    4    0    0 -0.11588167289E+01  0.21954203610E+02 -0.59773568883E+01  0.22782859955E+02  0.00000000000E+00 0.  1.
         11    1    4    4    0    0 -0.19422599285E+02 -0.91487004125E+02 -0.17021959760E+02  0.95062381628E+02  0.00000000000E+00 0. -1.
         -3    1    1    2    0  502  0.70415495250E+02  0.48388203958E+02 -0.35483387141E+02  0.92513950389E+02  0.00000000000E+00 0.  1.
<scales pt_clust_5="13000.00000" pt_clust_6="13000.00000" pt_clust_7="13000.00000" pt_clust_8="13000.00000" pt_clust_9="85.43863"></scales>
<clustering>
<clus scale="   83.937">  5  6 -1 -1</clus>
<clus scale="   85.439">  2  9  1 -1</clus>
<clus scale="   90.001">  7  8 -1 -1</clus>
<clus scale="   95.813">  1  5  2 -1</clus>
<clus scale="   85.439">  2  5  1 -1</clus>
</clustering>
</event>
<event>
 9    1  0.7835476E-005  0.1537331E+03  0.7546771E-02  0.1221583E+00
         -4   -1    0    0    0  501 -0.00000000000E+00  0.00000000000E+00  0.69909458473E+02  0.69909458473E+02  0.00000000000E+00 0.  1.
         21   -1    0    0  501  502  0.00000000000E+00 -0.00000000000E+00 -0.51135242724E+03  0.51135242724E+03  0.00000000000E+00 0.  1.
        -24    2    1    2    0    0 -0.14382430060E+02 -0.26170343875E+02 -0.57854044046E+02  0.10601943792E+03  0.83673709204E+02 0.  0.
         23    2    1    2    0    0  0.28634792277E+02  0.13604457679E+03 -0.26798725394E+03  0.31511992228E+03  0.90306804503E+02 0.  0.
         13    1    3    3    0    0  0.18441600449E+02 -0.13214404242E+02 -0.66010686654E+02  0.69800600707E+02  0.00000000000E+00 0. -1.
        -14    1    3    3    0    0 -0.32824030509E+02 -0.12955939632E+02  0.81566426077E+01  0.36218837215E+02  0.00000000000E+00 0.  1.
        -11    1    4    4    0    0  0.91943520408E+01  0.52965908740E+02 -0.19676872287E+03  0.20398003309E+03  0.00000000000E+00 0.  1.
         11    1    4    4    0    0  0.19440440236E+02  0.83078668055E+02 -0.71218531073E+02  0.11113988920E+03  0.00000000000E+00 0. -1.
         -3    1    1    2    0  502 -0.14252362217E+02 -0.10987423292E+03 -0.11560167078E+03  0.16012252551E+03  0.00000000000E+00 0.  1.
<scales pt_clust_5="13000.00000" pt_clust_6="13000.00000" pt_clust_7="13000.00000" pt_clust_8="13000.00000" pt_clust_9="124.41283"></scales>
<clustering>
<clus scale="   83.674">  5  6 -1 -1</clus>
<clus scale="   88.843">  1  5  2 -1</clus>
<clus scale="   90.307">  7  8 -1 -1</clus>
<clus scale="  124.413">  2  9  1 -1</clus>
<clus scale="  124.413">  2  5  1 -1</clus>
</clustering>
</event>
<event>
 9    1  0.7835476E-005  0.2367958E+03  0.7546771E-02  0.1165785E+00
         21   -1    0    0  501  502  0.00000000000E+00  0.00000000000E+00  0.17209079122E+03  0.17209079122E+03  0.00000000000E+00 0. -1.
          1   -1    0    0  502    0 -0.00000000000E+00 -0.00000000000E+00 -0.53151862404E+03  0.53151862404E+03  0.00000000000E+00 0. -1.
        -24    2    1    2    0    0  0.19133803222E+02 -0.29070107361E+02 -0.20441972135E+03  0.22055939147E+03  0.75152173092E+02 0.  0.
         23    2    1    2    0    0  0.45046109987E+02 -0.19537801050E+03 -0.10639074545E+03  0.24459737199E+03  0.91143648465E+02 0.  0.
         11    1    3    3    0    0 -0.98023430809E+01 -0.41154492004E+02 -0.64268915246E+02  0.76943301260E+02  0.00000000000E+00 0. -1.
        -12    1    3    3    0    0  0.28936146303E+02  0.12084384642E+02 -0.14015080610E+03  0.14361609021E+03  0.00000000000E+00 0.  1.
        -13    1    4    4    0    0  0.63764826449E+01 -0.26752001511E+02  0.16789765288E+02  0.32221504220E+02  0.00000000000E+00 0.  1.
         13    1    4    4    0    0  0.38669627342E+02 -0.16862600899E+03 -0.12318051073E+03  0.21237586777E+03  0.00000000000E+00 0. -1.
          2    1    1    2  501    0 -0.64179913209E+02  0.22444811786E+03 -0.48617366020E+02  0.23845265180E+03  0.00000000000E+00 0. -1.
<scales pt_clust_5="13000.00000" pt_clust_6="13000.00000" pt_clust_7="13000.00000" pt_clust_8="13000.00000" pt_clust_9="218.55225"></scales>
<clustering>
<clus scale="   75.152">  5  6 -1 -1</clus>
<clus scale="   82.819">  2  5  1 -1</clus>
<clus scale="   91.144">  7  8 -1 -1</clus>
<clus scale="  218.552">  1  9  2 -1</clus>
<clus scale="  218.552">  1  5  2 -1</clus>
</clustering>
</event>
<event>
 9    1  0.7835476E-005  0.1023572E+03  0.7546771E-02  0.1279476E+00
         21   -1    0    0  501  502  0.00000000000E+00  0.00000000000E+00  0.38754781222E+02  0.38754781222E+02  0.00000000000E+00 0. -1.
          1   -1    0    0  502    0 -0.00000000000E+00 -0.00000000000E+00 -0.39328976775E+03  0.39328976775E+03  0.00000000000E+00 0. -1.
         23    2    1    2    0    0 -0.52236171899E+01  0.51552009487E+02 -0.17638184393E+03  0.20449131987E+03  0.89561426823E+02 0.  0.
        -24    2    1    2    0    0 -0.35306342411E+02 -0.43390590887E+02 -0.10681109097E+03  0.14509733356E+03  0.80717692369E+02 0.  0.
         11    1    4    4    0    0 -0.46145756520E+01 -0.55379161094E+02 -0.33921777147E+02  0.65106318869E+02  0.00000000000E+00 0. -1.
        -12    1    4    4    0    0 -0.30691766759E+02  0.11988570207E+02 -0.72889313822E+02  0.79991014694E+02  0.00000000000E+00 0.  1.
        -13    1    3    3    0    0 -0.44333487575E+02  0.12456068032E+02 -0.59957215634E+02  0.75600790062E+02  0.00000000000E+00 0.  1.
         13    1    3    3    0    0  0.39109870385E+02  0.39095941455E+02 -0.11642462830E+03  0.12889052981E+03  0.00000000000E+00 0. -1.
          2    1    1    2  501    0  0.40529959601E+02 -0.81614186002E+01 -0.71342051631E+02  0.82455895543E+02  0.00000000000E+00 0. -1.
<scales pt_clust_5="13000.00000" pt_clust_6="13000.00000" pt_clust_7="13000.00000" pt_clust_8="13000.00000" pt_clust_9="41.34354"></scales>
<clustering>
<clus scale="   41.344">  1  9  2 -1</clus>
<clus scale="   80.718">  5  6 -1 -1</clus>
<clus scale="   89.561">  7  8 -1 -1</clus>
<clus scale="   94.716">  1  5  2 -1</clus>
<clus scale="   41.344">  1  5  2 -1</clus>
</clustering>
</event>
<event>
 9    1  0.7835476E-005  0.1006151E+03  0.7546771E-02  0.1282582E+00
         21   -1    0    0  501  502  0.00000000000E+00  0.00000000000E+00  0.51926203013E+03  0.51926203013E+03  0.00000000000E+00 0. -1.
          3   -1    0    0  502    0 -0.00000000000E+00 -0.00000000000E+00 -0.44557442837E+02  0.44557442837E+02  0.00000000000E+00 0. -1.
         23    2    1    2    0    0 -0.19456923541E+02  0.37310236586E+02  0.39004826253E+02  0.10641974602E+03  0.89627898809E+02 0.  0.
        -24    2    1    2    0    0  0.49399758878E+02 -0.40419480335E+02  0.27741066798E+03  0.29627344800E+03  0.82141382460E+02 0.  0.
         11    1    4    4    0    0 -0.75449781292E+00 -0.52314107804E+02  0.14795862001E+03  0.15693657437E+03  0.00000000000E+00 0. -1.
        -12    1    4    4    0    0  0.50154256691E+02  0.11894627469E+02  0.12945204797E+03  0.13933687362E+03  0.00000000000E+00 0.  1.
        -13    1    3    3    0    0  0.27666470965E+02  0.15979055314E+02 -0.11663506054E+02  0.34011780281E+02  0.00000000000E+00 0.  1.
         13    1    3    3    0    0 -0.47123394506E+02  0.21331181272E+02  0.50668332308E+02  0.72407965743E+02  0.00000000000E+00 0. -1.
          4    1    1    2  501    0 -0.29942835337E+02  0.31092437490E+01  0.15828909306E+03  0.16112627895E+03  0.00000000000E+00 0. -1.
<scales pt_clust_5="13000.00000" pt_clust_6="13000.00000" pt_clust_7="13000.00000" pt_clust_8="13000.00000" pt_clust_9="30.10383"></scales>
<clustering>
<clus scale="   30.104">  1  9  2 -1</clus>
<clus scale="   82.141">  5  6 -1 -1</clus>
<clus scale="   89.628">  7  8 -1 -1</clus>
<clus scale="   94.008">  1  5  2 -1</clus>
<clus scale="   30.104">  1  5  2 -1</clus>
</clustering>
</event>
<event>
 9    1  0.7835476E-005  0.9632198E+02  0.7546771E-02  0.1294392E+00
         21   -1    0    0  501  502  0.00000000000E+00  0.00000000000E+00  0.15441388976E+03  0.15441388976E+03  0.00000000000E+00 0. -1.
         -2   -1    0    0    0  501 -0.00000000000E+00 -0.00000000000E+00 -0.95496962565E+02  0.95496962565E+02  0.00000000000E+00 0.  1.
        -24    2    1    2    0    0  0.27044387986E+02 -0.14336394949E+02 -0.30665587969E+02  0.92333622462E+02  0.81536423823E+02 0.  0.
         23    2    1    2    0    0 -0.22867397685E+02 -0.94913666296E+01  0.42767571838E+02  0.10488141989E+03  0.92509692035E+02 0.  0.
         13    1    3    3    0    0  0.37415449680E+02 -0.37965482483E+02 -0.38052041532E+02  0.65492378180E+02  0.00000000000E+00 0. -1.
        -14    1    3    3    0    0 -0.10371061694E+02  0.23629087535E+02  0.73864535628E+01  0.26841244282E+02  0.00000000000E+00 0.  1.
        -13    1    4    4    0    0  0.16056814019E+02  0.33871322984E+02  0.17514461578E+02  0.41374438504E+02  0.00000000000E+00 0.  1.
         13    1    4    4    0    0 -0.38924211704E+02 -0.43362689614E+02  0.25253110260E+02  0.63506981389E+02  0.00000000000E+00 0. -1.
         -1    1    1    2    0  502 -0.41769903007E+01  0.23827761578E+02  0.46814943325E+02  0.52695809969E+02  0.00000000000E+00 0.  1.
<scales pt_clust_5="13000.00000" pt_clust_6="13000.00000" pt_clust_7="13000.00000" pt_clust_8="13000.00000" pt_clust_9="24.19110"></scales>
<clustering>
<clus scale="   24.191">  1  9  2 -1</clus>
<clus scale="   81.536">  5  6 -1 -1</clus>
<clus scale="   85.837">  2  5  1 -1</clus>
<clus scale="   92.510">  7  8 -1 -1</clus>
<clus scale="   24.191">  1  5  2 -1</clus>
</clustering>
</event>
<event>
 9    1  0.7835476E-005  0.1061176E+03  0.7546771E-02  0.1271887E+00
          1   -1    0    0  502    0 -0.00000000000E+00  0.00000000000E+00  0.13430102385E+04  0.13430102385E+04  0.00000000000E+00 0. -1.
         21   -1    0    0  501  502  0.00000000000E+00 -0.00000000000E+00 -0.13836167946E+02  0.13836167946E+02  0.00000000000E+00 0. -1.
        -24    2    1    2    0    0 -0.13596617423E+02 -0.67900426141E+02  0.69899612039E+03  0.70646516106E+03  0.75512327487E+02 0.  0.
         23    2    1    2    0    0 -0.35764494240E+02  0.52675745731E+02  0.36571188119E+03  0.38091768221E+03  0.85435749784E+02 0.  0.
         11    1    3    3    0    0  0.88206428573E+01 -0.71270499951E+02  0.38421610889E+03  0.39086993518E+03  0.00000000000E+00 0. -1.
        -12    1    3    3    0    0 -0.22417260280E+02  0.33700738099E+01  0.31478001150E+03  0.31559522588E+03  0.00000000000E+00 0.  1.
        -11    1    4    4    0    0 -0.22313904920E+02 -0.19967683184E+02  0.70369462999E+02  0.76475355817E+02  0.00000000000E+00 0.  1.
         11    1    4    4    0    0 -0.13450589320E+02  0.72643428915E+02  0.29534241819E+03  0.30444232640E+03  0.00000000000E+00 0. -1.
          2    1    1    2  501    0  0.49361111663E+02  0.15224680410E+02  0.26446606900E+03  0.26946356320E+03  0.00000000000E+00 0. -1.
<scales pt_clust_5="13000.00000" pt_clust_6="13000.00000" pt_clust_7="13000.00000" pt_clust_8="13000.00000" pt_clust_9="51.65572"></scales>
<clustering>
<clus scale="   51.656">  2  9  1 -1</clus>
<clus scale="   75.512">  5  6 -1 -1</clus>
<clus scale="   85.436">  7  8 -1 -1</clus>
<clus scale="   98.305">  1  5  2 -1</clus>
<clus scale="   51.656">  2  5  1 -1</clus>
</clustering>
</event>
<event>
 9    1  0.7835476E-005  0.1065572E+03  0.7546771E-02  0.1271533E+00
         21   -1    0    0  501  502  0.00000000000E+00  0.00000000000E+00  0.15156861812E+02  0.15156861812E+02  0.00000000000E+00 0.  1.
          1   -1    0    0  502    0 -0.00000000000E+00 -0.00000000000E+00 -0.14120761918E+04  0.14120761918E+04  0.00000000000E+00 0. -1.
        -24    2    1    2    0    0  0.21653998721E+02  0.47633752922E+02 -0.90167622815E+03  0.90687985018E+03  0.81689486324E+02 0.  0.
         23    2    1    2    0    0  0.17587021629E+01 -0.65024516767E+02 -0.26090134317E+03  0.28420356213E+03  0.92037345933E+02 0.  0.
         13    1    3    3    0    0  0.30457215034E+02 -0.11418434325E+02 -0.19582730200E+03  0.19851033927E+03  0.00000000000E+00 0. -1.
        -14    1    3    3    0    0 -0.88032163123E+01  0.59052187246E+02 -0.70584892615E+03  0.70836951091E+03  0.00000000000E+00 0.  1.
        -13    1    4    4    0    0  0.16999592497E+02 -0.83889120491E+02 -0.22632606632E+03  0.24197078125E+03  0.00000000000E+00 0. -1.
         13    1    4    4    0    0 -0.15240890334E+02  0.18864603724E+02 -0.34575276841E+02  0.42232780875E+02  0.00000000000E+00 0.  1.
          2    1    1    2  501    0 -0.23412700884E+02  0.17390763845E+02 -0.23434175865E+03  0.23614964128E+03  0.00000000000E+00 0. -1.
<scales pt_clust_5="13000.00000" pt_clust_6="13000.00000" pt_clust_7="13000.00000" pt_clust_8="13000.00000" pt_clust_9="29.16495"></scales>
<clustering>
<clus scale="   29.165">  1  9  2 -1</clus>
<clus scale="   81.689">  5  6 -1 -1</clus>
<clus scale="   92.037">  7  8 -1 -1</clus>
<clus scale="   97.759">  2  5  1 -1</clus>
<clus scale="   29.165">  1  5  2 -1</clus>
</clustering>
</event>
<event>
 9    1  0.7835476E-005  0.1441262E+03  0.7546771E-02  0.1223303E+00
          3   -1    0    0  502    0 -0.00000000000E+00  0.00000000000E+00  0.26916178441E+03  0.26916178441E+03  0.00000000000E+00 0. -1.
         21   -1    0    0  501  502  0.00000000000E+00 -0.00000000000E+00 -0.20099976797E+03  0.20099976797E+03  0.00000000000E+00 0. -1.
        -24    2    1    2    0    0  0.29137518358E+02 -0.53949624548E+02  0.15154695971E+03  0.18380491647E+03  0.84013149917E+02 0.  0.
         23    2    1    2    0    0  0.92793155238E+02  0.57789810210E+02 -0.80812688859E+02  0.16433838857E+03  0.92337335107E+02 0.  0.
         13    1    3    3    0    0  0.41458064420E+02  0.15490247666E+01  0.94797062602E+02  0.10347779308E+03  0.00000000000E+00 0. -1.
        -14    1    3    3    0    0 -0.12320546063E+02 -0.55498649315E+02  0.56749897103E+02  0.80327123391E+02  0.00000000000E+00 0.  1.
        -13    1    4    4    0    0  0.10445201291E+02  0.54960816771E+02 -0.53828832473E+02  0.77635924774E+02  0.00000000000E+00 0.  1.
         13    1    4    4    0    0  0.82347953947E+02  0.28289934390E+01 -0.26983856386E+02  0.86702463797E+02  0.00000000000E+00 0. -1.
          4    1    1    2  501    0 -0.12193067360E+03 -0.38401856615E+01 -0.25722544138E+01  0.12201824733E+03  0.00000000000E+00 0. -1.
<scales pt_clust_5="13000.00000" pt_clust_6="13000.00000" pt_clust_7="13000.00000" pt_clust_8="13000.00000" pt_clust_9="110.66249"></scales>
<clustering>
<clus scale="   84.013">  5  6 -1 -1</clus>
<clus scale="   92.337">  7  8 -1 -1</clus>
<clus scale="  104.008">  1  5  2 -1</clus>
<clus scale="  110.662">  2  9  1 -1</clus>
<clus scale="  110.662">  2  5  1 -1</clus>
</clustering>
</event>
<event>
 9    1  0.7835476E-005  0.9232778E+02  0.7546771E-02  0.1304320E+00
         21   -1    0    0  501  502  0.00000000000E+00  0.00000000000E+00  0.47882437697E+03  0.47882437697E+03  0.00000000000E+00 0. -1.
          1   -1    0    0  502    0 -0.00000000000E+00 -0.00000000000E+00 -0.13812991981E+03  0.13812991981E+03  0.00000000000E+00 0. -1.
        -24    2    1    2    0    0  0.15805562388E+01  0.54776733828E+00 -0.94748527592E+02  0.12447529101E+03  0.80709456588E+02 0.  0.
         23    2    1    2    0    0 -0.73429677747E+02  0.87741201337E+00  0.11666279053E+03  0.16569904980E+03  0.91941726020E+02 0.  0.
         13    1    3    3    0    0 -0.21630695133E+02  0.33681732656E+02 -0.51943418860E+02  0.65577929591E+02  0.00000000000E+00 0. -1.
        -14    1    3    3    0    0  0.23211251372E+02 -0.33133965317E+02 -0.42805108733E+02  0.58897361414E+02  0.00000000000E+00 0.  1.
        -13    1    4    4    0    0  0.56478135515E+01  0.32141055688E+02  0.31915226832E+02  0.45645667510E+02  0.00000000000E+00 0.  1.
         13    1    4    4    0    0 -0.79077491298E+02 -0.31263643675E+02  0.84747563698E+02  0.12005338229E+03  0.00000000000E+00 0. -1.
          2    1    1    2  501    0  0.71849121508E+02 -0.14251793516E+01  0.31878019423E+03  0.32677995598E+03  0.00000000000E+00 0. -1.
<scales pt_clust_5="13000.00000" pt_clust_6="13000.00000" pt_clust_7="13000.00000" pt_clust_8="13000.00000" pt_clust_9="71.86325"></scales>
<clustering>
<clus scale="   71.863">  1  9  2 -1</clus>
<clus scale="   80.709">  5  6 -1 -1</clus>
<clus scale="   81.149">  2  5  1 -1</clus>
<clus scale="   91.942">  7  8 -1 -1</clus>
<clus scale="   71.863">  1  5  2 -1</clus>
</clustering>
</event>
<event>
 9    1  0.7835476E-005  0.2250705E+03  0.7546771E-02  0.1130353E+00
         -2   -1    0    0    0  501 -0.00000000000E+00  0.00000000000E+00  0.94758795532E+02  0.94758795532E+02  0.00000000000E+00 0.  1.
         21   -1    0    0  501  502  0.00000000000E+00 -0.00000000000E+00 -0.90751615486E+03  0.90751615486E+03  0.00000000000E+00 0. -1.
         23    2    1    2    0    0  0.10722127139E+03 -0.13878028332E+03 -0.26959380550E+03  0.33363263658E+03  0.88733016138E+02 0.  0.
        -24    2    1    2    0    0 -0.21872943080E+03  0.14436417994E+03 -0.41934041421E+03  0.50191673263E+03  0.85967686674E+02 0.  0.
         13    1    4    4    0    0 -0.15149411027E+03  0.56460084887E+02 -0.20894112154E+03  0.26418667434E+03  0.00000000000E+00 0. -1.
        -14    1    4    4    0    0 -0.67235320533E+02  0.87904095052E+02 -0.21039929267E+03  0.23773005828E+03  0.00000000000E+00 0.  1.
        -13    1    3    3    0    0  0.70582424497E+02 -0.21807166642E+02 -0.96425438802E+02  0.12147138105E+03  0.00000000000E+00 0.  1.
         13    1    3    3    0    0  0.36638846897E+02 -0.11697311668E+03 -0.17316836669E+03  0.21216125554E+03  0.00000000000E+00 0. -1.
         -1    1    1    2    0  502  0.11150815941E+03 -0.55838966171E+01 -0.12382313962E+03  0.16672558118E+03  0.00000000000E+00 0.  1.
<scales pt_clust_5="13000.00000" pt_clust_6="13000.00000" pt_clust_7="13000.00000" pt_clust_8="13000.00000" pt_clust_9="111.64794"></scales>
<clustering>
<clus scale="   85.968">  5  6 -1 -1</clus>
<clus scale="   88.733">  7  8 -1 -1</clus>
<clus scale="  111.648">  2  9  1 -1</clus>
<clus scale="  223.995">  2  5  1 -1</clus>
<clus scale="  111.648">  2  5  1 -1</clus>
</clustering>
</event>
<event>
 9    1  0.7835476E-005  0.9303514E+02  0.7546771E-02  0.1297267E+00
         21   -1    0    0  501  502  0.00000000000E+00  0.00000000000E+00  0.65879386514E+02  0.65879386514E+02  0.00000000000E+00 0.  1.
         -2   -1    0    0    0  501 -0.00000000000E+00 -0.00000000000E+00 -0.22020384285E+03  0.22020384285E+03  0.00000000000E+00 0.  1.
        -24    2    1    2    0    0  0.38368257784E+02  0.24476803054E+02 -0.94874857912E+02  0.13262138423E+03  0.80721470489E+02 0.  0.
         23    2    1    2    0    0 -0.86890111751E+01 -0.40837130123E+02 -0.71199447411E+02  0.11759295984E+03  0.83759016114E+02 0.  0.
         13    1    3    3    0    0  0.41616556032E+02  0.39590844125E+02 -0.27847911395E+02  0.63834777696E+02  0.00000000000E+00 0. -1.
        -14    1    3    3    0    0 -0.32482982477E+01 -0.15114041070E+02 -0.67026946516E+02  0.68786606533E+02  0.00000000000E+00 0.  1.
        -11    1    4    4    0    0 -0.46328842721E+02 -0.20782250663E+02 -0.35237359140E+02  0.61805623447E+02  0.00000000000E+00 0. -1.
         11    1    4    4    0    0  0.37639831546E+02 -0.20054879461E+02 -0.35962088272E+02  0.55787336393E+02  0.00000000000E+00 0.  1.
         -1    1    1    2    0  502 -0.29679246609E+02  0.16360327069E+02  0.11749848986E+02  0.35868885295E+02  0.00000000000E+00 0.  1.
<scales pt_clust_5="13000.00000" pt_clust_6="13000.00000" pt_clust_7="13000.00000" pt_clust_8="13000.00000" pt_clust_9="33.88979"></scales>
<clustering>
<clus scale="   33.890">  1  9  2 -1</clus>
<clus scale="   80.721">  5  6 -1 -1</clus>
<clus scale="   83.759">  7  8 -1 -1</clus>
<clus scale="   90.310">  2  5  1 -1</clus>
<clus scale="   33.890">  1  5  2 -1</clus>
</clustering>
</event>
<event>
 9    1  0.7835476E-005  0.9833226E+02  0.7546771E-02  0.1286804E+00
         21   -1    0    0  501  502  0.00000000000E+00  0.00000000000E+00  0.60981053161E+02  0.60981053161E+02  0.00000000000E+00 0. -1.
          3   -1    0    0  502    0 -0.00000000000E+00 -0.00000000000E+00 -0.70375219518E+03  0.70375219518E+03  0.00000000000E+00 0. -1.
        -24    2    1    2    0    0  0.83916241282E+01 -0.14682668513E+02 -0.41908767141E+03  0.42856822763E+03  0.88035500200E+02 0.  0.
         23    2    1    2    0    0  0.25655674787E+02  0.94611686622E+02 -0.20738343767E+03  0.24777069073E+03  0.93663440422E+02 0.  0.
         13    1    3    3    0    0  0.33475669757E+02  0.16854191078E+02 -0.97324622633E+02  0.10429173694E+03  0.00000000000E+00 0. -1.
        -14    1    3    3    0    0 -0.25084045629E+02 -0.31536859590E+02 -0.32176304877E+03  0.32427649069E+03  0.00000000000E+00 0.  1.
        -11    1    4    4    0    0 -0.16249665299E+02  0.90758861275E+02 -0.12576839119E+03  0.15594521713E+03  0.00000000000E+00 0. -1.
         11    1    4    4    0    0  0.41905340085E+02  0.38528253471E+01 -0.81615046482E+02  0.91825473606E+02  0.00000000000E+00 0.  1.
          4    1    1    2  501    0 -0.34047298915E+02 -0.79929018109E+02 -0.16300032941E+02  0.88394329983E+02  0.00000000000E+00 0. -1.
<scales pt_clust_5="13000.00000" pt_clust_6="13000.00000" pt_clust_7="13000.00000" pt_clust_8="13000.00000" pt_clust_9="86.87846"></scales>
<clustering>
<clus scale="   86.878">  1  9  2 -1</clus>
<clus scale="   88.036">  5  6 -1 -1</clus>
<clus scale="   92.987">  2  5  1 -1</clus>
<clus scale="   93.663">  7  8 -1 -1</clus>
<clus scale="   86.878">  1  5  2 -1</clus>
</clustering>
</event>
<event>
 9    1  0.7835476E-005  0.1075283E+03  0.7546771E-02  0.1280111E+00
          1   -1    0    0  502    0 -0.00000000000E+00  0.00000000000E+00  0.12923430649E+03  0.12923430649E+03  0.00000000000E+00 0. -1.
         21   -1    0    0  501  502  0.00000000000E+00 -0.00000000000E+00 -0.27243061403E+03  0.27243061403E+03  0.00000000000E+00 0. -1.
         23    2    1    2    0    0  0.26382539726E+02  0.31334222567E+02  0.76004003927E+02  0.13416061297E+03  0.10268685190E+03 0.  0.
        -24    2    1    2    0    0  0.11444066810E+01 -0.16108726334E+02 -0.40417202919E+02  0.85974837722E+02  0.74143925569E+02 0.  0.
         11    1    4    4    0    0 -0.34321657892E+02 -0.19901482592E+02 -0.16156813877E+02  0.42837925306E+02  0.00000000000E+00 0. -1.
        -12    1    4    4    0    0  0.35466064573E+02  0.37927562581E+01 -0.24260389042E+02  0.43136912417E+02  0.00000000000E+00 0.  1.
        -13    1    3    3    0    0 -0.19445773668E+02  0.18690682053E+02 -0.15453394698E+02  0.31085159109E+02  0.00000000000E+00 0.  1.
         13    1    3    3    0    0  0.45828313394E+02  0.12643540513E+02  0.91457398625E+02  0.10307545386E+03  0.00000000000E+00 0. -1.
          2    1    1    2  501    0 -0.27526946407E+02 -0.15225496233E+02 -0.17878310855E+03  0.18152946983E+03  0.00000000000E+00 0. -1.
<scales pt_clust_5="13000.00000" pt_clust_6="13000.00000" pt_clust_7="13000.00000" pt_clust_8="13000.00000" pt_clust_9="31.45709"></scales>
<clustering>
<clus scale="   31.457">  2  9  1 -1</clus>
<clus scale="   74.144">  5  6 -1 -1</clus>
<clus scale="   80.716">  2  5  1 -1</clus>
<clus scale="  102.687">  7  8 -1 -1</clus>
<clus scale="   31.457">  2  5  1 -1</clus>
</clustering>
</event>
<event>
 9    1  0.7835476E-005  0.1460940E+03  0.7546771E-02  0.1224880E+00
          1   -1    0    0  502    0 -0.00000000000E+00  0.00000000000E+00  0.42303800713E+03  0.42303800713E+03  0.00000000000E+00 0. -1.
         21   -1    0    0  501  502  0.00000000000E+00 -0.00000000000E+00 -0.10088519071E+03  0.10088519071E+03  0.00000000000E+00 0. -1.
         23    2    1    2    0    0 -0.20635706846E+02  0.23956140768E+02  0.14979293144E+03  0.17825748466E+03  0.91313084772E+02 0.  0.
        -24    2    1    2    0    0 -0.85104028450E+02 -0.86516728854E+02  0.16841189120E+03  0.22274173075E+03  0.80768022695E+02 0.  0.
         13    1    4    4    0    0 -0.67763432319E+02 -0.71066062797E+02  0.17313336139E+03  0.19904127428E+03  0.00000000000E+00 0. -1.
        -14    1    4    4    0    0 -0.17340596131E+02 -0.15450666057E+02 -0.47214701966E+01  0.23700456464E+02  0.00000000000E+00 0.  1.
        -13    1    3    3    0    0 -0.52908702750E+02  0.30810983496E+02  0.77302128686E+02  0.98611696214E+02  0.00000000000E+00 0. -1.
         13    1    3    3    0    0  0.32272995904E+02 -0.68548427284E+01  0.72490802751E+02  0.79645788445E+02  0.00000000000E+00 0.  1.
          2    1    1    2  501    0  0.10573973530E+03  0.62560588086E+02  0.39479937885E+01  0.12292398243E+03  0.00000000000E+00 0. -1.
<scales pt_clust_5="13000.00000" pt_clust_6="13000.00000" pt_clust_7="13000.00000" pt_clust_8="13000.00000" pt_clust_9="121.73735"></scales>
<clustering>
<clus scale="   80.768">  5  6 -1 -1</clus>
<clus scale="   91.313">  7  8 -1 -1</clus>
<clus scale="   96.632">  1  7  2 -1</clus>
<clus scale="  121.737">  2  9  1 -1</clus>
<clus scale="  121.737">  2  5  1 -1</clus>
</clustering>
</event>
<event>
 9    1  0.7835476E-005  0.9839830E+02  0.7546771E-02  0.1287434E+00
         21   -1    0    0  501  502  0.00000000000E+00  0.00000000000E+00  0.24037268324E+03  0.24037268324E+03  0.00000000000E+00 0.  1.
          1   -1    0    0  502    0 -0.00000000000E+00 -0.00000000000E+00 -0.82125751460E+02  0.82125751460E+02  0.00000000000E+00 0. -1.
         23    2    1    2    0    0  0.46511619568E+02 -0.45337795951E+02  0.23553221453E+02  0.11265690049E+03  0.88983012375E+02 0.  0.
        -24    2    1    2    0    0 -0.15036946274E+02 -0.16095306820E+02  0.10488003861E+03  0.13465153357E+03  0.81523274827E+02 0.  0.
         13    1    4    4    0    0 -0.16446628130E+02 -0.28203640993E+02  0.38342148459E+01  0.32873061092E+02  0.00000000000E+00 0. -1.
        -14    1    4    4    0    0  0.14096818561E+01  0.12108334172E+02  0.10104582376E+03  0.10177847247E+03  0.00000000000E+00 0.  1.
        -11    1    3    3    0    0  0.69747990263E+02 -0.35644786470E+02  0.34011810367E+02  0.85394005601E+02  0.00000000000E+00 0.  1.
         11    1    3    3    0    0 -0.23236370694E+02 -0.96930094816E+01 -0.10458588914E+02  0.27262894893E+02  0.00000000000E+00 0. -1.
          2    1    1    2  501    0 -0.31474673294E+02  0.61433102771E+02  0.29813671720E+02  0.75190000642E+02  0.00000000000E+00 0. -1.
<scales pt_clust_5="13000.00000" pt_clust_6="13000.00000" pt_clust_7="13000.00000" pt_clust_8="13000.00000" pt_clust_9="69.02670"></scales>
<clustering>
<clus scale="   69.027">  1  9  2 -1</clus>
<clus scale="   81.523">  5  6 -1 -1</clus>
<clus scale="   88.983">  7  8 -1 -1</clus>
<clus scale="   91.708">  1  5  2 -1</clus>
<clus scale="   69.027">  1  5  2 -1</clus>
</clustering>
</event>
<event>
 9    1  0.7835476E-005  0.1006100E+03  0.7546771E-02  0.1284656E+00
         -4   -1    0    0    0  501 -0.00000000000E+00  0.00000000000E+00  0.32798307819E+03  0.32798307819E+03  0.00000000000E+00 0.  1.
         21   -1    0    0  501  502  0.00000000000E+00 -0.00000000000E+00 -0.49968612270E+02  0.49968612270E+02  0.00000000000E+00 0. -1.
        -24    2    1    2    0    0  0.26600995806E+02  0.47796229455E+02  0.10320416351E+03  0.14181260732E+03  0.80421537533E+02 0.  0.
         23    2    1    2    0    0  0.25072271827E+02 -0.33240051983E+02  0.86488786401E+02  0.13278193980E+03  0.91745373149E+02 0.  0.
         13    1    3    3    0    0  0.55213853858E+02  0.37384985323E+02  0.67357998300E+02  0.94780307662E+02  0.00000000000E+00 0. -1.
        -14    1    3    3    0    0 -0.28612858052E+02  0.10411244132E+02  0.35846165214E+02  0.47032299654E+02  0.00000000000E+00 0.  1.
        -11    1    4    4    0    0  0.27125308026E+02 -0.61639572821E+02  0.78042950734E+02  0.10308211015E+03  0.00000000000E+00 0.  1.
         11    1    4    4    0    0 -0.20530361998E+01  0.28399520837E+02  0.84458356662E+01  0.29699829655E+02  0.00000000000E+00 0. -1.
         -3    1    1    2    0  502 -0.51673267632E+02 -0.14556177471E+02  0.88321516006E+02  0.10335714334E+03  0.00000000000E+00 0.  1.
<scales pt_clust_5="13000.00000" pt_clust_6="13000.00000" pt_clust_7="13000.00000" pt_clust_8="13000.00000" pt_clust_9="53.68437"></scales>
<clustering>
<clus scale="   53.684">  2  9  1 -1</clus>
<clus scale="   80.422">  5  6 -1 -1</clus>
<clus scale="   90.403">  1  5  2 -1</clus>
<clus scale="   91.745">  7  8 -1 -1</clus>
<clus scale="   53.684">  2  5  1 -1</clus>
</clustering>
</event>
<event>
 9    1  0.7835476E-005  0.1232020E+03  0.7546771E-02  0.1246264E+00
          1   -1    0    0  502    0 -0.00000000000E+00  0.00000000000E+00  0.19257142657E+03  0.19257142657E+03  0.00000000000E+00 0. -1.
         21   -1    0    0  501  502  0.00000000000E+00 -0.00000000000E+00 -0.17395569608E+03  0.17395569608E+03  0.00000000000E+00 0. -1.
        -24    2    1    2    0    0 -0.59887126243E+02  0.45971094444E+02  0.11485602097E+03  0.15965084686E+03  0.81219935587E+02 0.  0.
         23    2    1    2    0    0  0.63292748659E+01 -0.42776777092E+02 -0.22129017204E+02  0.11538240750E+03  0.10465894219E+03 0.  0.
         13    1    3    3    0    0 -0.13261387989E+02  0.56297081344E+02  0.86674045654E+02  0.10419988469E+03  0.00000000000E+00 0. -1.
        -14    1    3    3    0    0 -0.46625738254E+02 -0.10325986900E+02  0.28181975317E+02  0.55450962174E+02  0.00000000000E+00 0.  1.
        -11    1    4    4    0    0  0.27354135527E+02  0.26234377058E+02  0.51603187046E+01  0.38250753707E+02  0.00000000000E+00 0.  1.
         11    1    4    4    0    0 -0.21024860661E+02 -0.69011154150E+02 -0.27289335908E+02  0.77131653796E+02  0.00000000000E+00 0. -1.
          2    1    1    2  501    0  0.53557851377E+02 -0.31943173522E+01 -0.74111273270E+02  0.91493868282E+02  0.00000000000E+00 0. -1.
<scales pt_clust_5="13000.00000" pt_clust_6="13000.00000" pt_clust_7="13000.00000" pt_clust_8="13000.00000" pt_clust_9="53.65303"></scales>
<clustering>
<clus scale="   53.653">  2  9  1 -1</clus>
<clus scale="   81.220">  5  6 -1 -1</clus>
<clus scale="  104.028">  1  5  2 -1</clus>
<clus scale="  104.659">  7  8 -1 -1</clus>
<clus scale="   53.653">  2  5  1 -1</clus>
</clustering>
</event>
<event>
 9    1  0.7835476E-005  0.1235900E+03  0.7546771E-02  0.1239978E+00
          1   -1    0    0  502    0 -0.00000000000E+00  0.00000000000E+00  0.15727217682E+04  0.15727217682E+04  0.00000000000E+00 0. -1.
         21   -1    0    0  501  502  0.00000000000E+00 -0.00000000000E+00 -0.13168924842E+02  0.13168924842E+02  0.00000000000E+00 0. -1.
        -24    2    1    2    0    0  0.16545084505E+02  0.72327939312E+02  0.70970202330E+03  0.71835689768E+03  0.82792511327E+02 0.  0.
         23    2    1    2    0    0  0.28383316215E+01 -0.99746395039E+02  0.58246698481E+03  0.59804983687E+03  0.91860870561E+02 0.  0.
         11    1    3    3    0    0  0.11913579380E+02  0.67402141728E+02  0.26798196436E+03  0.27658509596E+03  0.00000000000E+00 0. -1.
        -12    1    3    3    0    0  0.46315051254E+01  0.49257975840E+01  0.44172005894E+03  0.44177180172E+03  0.00000000000E+00 0.  1.
        -13    1    4    4    0    0  0.33086523564E+02 -0.57417334018E+01  0.97214332357E+02  0.10285092104E+03  0.00000000000E+00 0.  1.
         13    1    4    4    0    0 -0.30248191942E+02 -0.94004661637E+02  0.48525265245E+03  0.49519891583E+03  0.00000000000E+00 0. -1.
          2    1    1    2  501    0 -0.19383416127E+02  0.27418455726E+02  0.26738383524E+03  0.26948395849E+03  0.00000000000E+00 0. -1.
<scales pt_clust_5="13000.00000" pt_clust_6="13000.00000" pt_clust_7="13000.00000" pt_clust_8="13000.00000" pt_clust_9="33.57811"></scales>
<clustering>
<clus scale="   33.578">  2  9  1 -1</clus>
<clus scale="   82.793">  5  6 -1 -1</clus>
<clus scale="   91.861">  7  8 -1 -1</clus>
<clus scale="  117.007">  1  5  2 -1</clus>
<clus scale="   33.578">  2  5  1 -1</clus>
</clustering>
</event>
<event>
 9    1  0.7835476E-005  0.1194809E+03  0.7546771E-02  0.1246747E+00
         21   -1    0    0  501  502  0.00000000000E+00  0.00000000000E+00  0.68659919959E+02  0.68659919959E+02  0.00000000000E+00 0. -1.
          1   -1    0    0  502    0 -0.00000000000E+00 -0.00000000000E+00 -0.48576437975E+03  0.48576437975E+03  0.00000000000E+00 0. -1.
        -24    2    1    2    0    0  0.13672831954E+02 -0.42977979059E+02 -0.65329181343E+02  0.11312254971E+03  0.80590050873E+02 0.  0.
         23    2    1    2    0    0 -0.23418497836E+02  0.12915186064E+03 -0.13739176110E+03  0.21004170507E+03  0.89511969606E+02 0.  0.
         11    1    3    3    0    0  0.34920618600E+02  0.95521637705E+00 -0.51802727528E+02  0.62481074103E+02  0.00000000000E+00 0. -1.
        -12    1    3    3    0    0 -0.21247786646E+02 -0.43933195436E+02 -0.13526453815E+02  0.50641475604E+02  0.00000000000E+00 0.  1.
        -13    1    4    4    0    0 -0.47949649346E+02  0.84898648474E+02 -0.51283023621E+02  0.11016759005E+03  0.00000000000E+00 0. -1.
         13    1    4    4    0    0  0.24531151510E+02  0.44253212169E+02 -0.86108737479E+02  0.99874115025E+02  0.00000000000E+00 0.  1.
          2    1    1    2  501    0  0.97456658821E+01 -0.86173881585E+02 -0.21438351734E+03  0.23126004493E+03  0.00000000000E+00 0. -1.
<scales pt_clust_5="13000.00000" pt_clust_6="13000.00000" pt_clust_7="13000.00000" pt_clust_8="13000.00000" pt_clust_9="86.72326"></scales>
<clustering>
<clus scale="   80.590">  5  6 -1 -1</clus>
<clus scale="   86.723">  1  9  2 -1</clus>
<clus scale="   89.512">  7  8 -1 -1</clus>
<clus scale="  112.952">  2  5  1 -1</clus>
<clus scale="   86.723">  1  5  2 -1</clus>
</clustering>
</event>
<event>
 9    1  0.7835476E-005  0.1771073E+03  0.7546771E-02  0.1205434E+00
         21   -1    0    0  501  502  0.00000000000E+00  0.00000000000E+00  0.14728226961E+03  0.14728226961E+03  0.00000000000E+00 0. -1.
          1   -1    0    0  502    0 -0.00000000000E+00 -0.00000000000E+00 -0.54912208484E+03  0.54912208484E+03  0.00000000000E+00 0. -1.
        -24    2    1    2    0    0  0.16045093469E+02 -0.73704679237E+01 -0.24587652208E+03  0.25914654415E+03  0.79936840162E+02 0.  0.
         23    2    1    2    0    0 -0.87532126135E+02  0.13952269829E+03 -0.20635592054E+03  0.27878375966E+03  0.89493923072E+02 0.  0.
         13    1    3    3    0    0 -0.24510687902E+02 -0.22441057889E+02 -0.63066026091E+02  0.71286033327E+02  0.00000000000E+00 0. -1.
        -14    1    3    3    0    0  0.40555781371E+02  0.15070589965E+02 -0.18281049599E+03  0.18786051083E+03  0.00000000000E+00 0.  1.
        -13    1    4    4    0    0 -0.95772147750E+02  0.74776872127E+02 -0.12274317019E+03  0.17271297206E+03  0.00000000000E+00 0. -1.
         13    1    4    4    0    0  0.82400216155E+01  0.64745826159E+02 -0.83612750351E+02  0.10607078760E+03  0.00000000000E+00 0.  1.
          2    1    1    2  501    0  0.71487032666E+02 -0.13215223036E+03  0.50392627387E+02  0.15847405063E+03  0.00000000000E+00 0. -1.
<scales pt_clust_5="13000.00000" pt_clust_6="13000.00000" pt_clust_7="13000.00000" pt_clust_8="13000.00000" pt_clust_9="152.83272"></scales>
<clustering>
<clus scale="   79.937">  5  6 -1 -1</clus>
<clus scale="   81.864">  2  5  1 -1</clus>
<clus scale="   89.494">  7  8 -1 -1</clus>
<clus scale="  152.833">  1  9  2 -1</clus>
<clus scale="  152.833">  1  5  2 -1</clus>
</clustering>
</event>
<event>
 9    1  0.7835476E-005  0.9335231E+02  0.7546771E-02  0.1297077E+00
         21   -1    0    0  501  502  0.00000000000E+00  0.00000000000E+00  0.31552285545E+02  0.31552285545E+02  0.00000000000E+00 0.  1.
         -2   -1    0    0    0  501 -0.00000000000E+00 -0.00000000000E+00 -0.10160581144E+04  0.10160581144E+04  0.00000000000E+00 0.  1.
         23    2    1    2    0    0  0.94408549719E+01 -0.52462437568E+02 -0.54646858312E+03  0.55561570320E+03  0.85085017536E+02 0.  0.
        -24    2    1    2    0    0 -0.50596898327E+02 -0.56913712346E+01 -0.39987230016E+03  0.41117237031E+03  0.81070486874E+02 0.  0.
         11    1    4    4    0    0 -0.29499263155E+02  0.99704247589E+01 -0.41729236899E+02  0.52066737066E+02  0.00000000000E+00 0. -1.
        -12    1    4    4    0    0 -0.21097635172E+02 -0.15661795993E+02 -0.35814306326E+03  0.35910563324E+03  0.00000000000E+00 0.  1.
        -11    1    3    3    0    0 -0.34999251170E+02 -0.59072371292E+01 -0.16732986251E+03  0.17105299156E+03  0.00000000000E+00 0. -1.
         11    1    3    3    0    0  0.44440106142E+02 -0.46555200439E+02 -0.37913872061E+03  0.38456271164E+03  0.00000000000E+00 0.  1.
         -1    1    1    2    0  502  0.41156043355E+02  0.58153808803E+02 -0.38164945612E+02  0.80822326473E+02  0.00000000000E+00 0.  1.
<scales pt_clust_5="13000.00000" pt_clust_6="13000.00000" pt_clust_7="13000.00000" pt_clust_8="13000.00000" pt_clust_9="71.24384"></scales>
<clustering>
<clus scale="   71.244">  1  9  2 -1</clus>
<clus scale="   81.070">  5  6 -1 -1</clus>
<clus scale="   85.085">  7  8 -1 -1</clus>
<clus scale="   89.709">  1  5  2 -1</clus>
<clus scale="   71.244">  1  5  2 -1</clus>
</clustering>
</event>
<event>
 9    1  0.7835476E-005  0.9319816E+02  0.7546771E-02  0.1301960E+00
         21   -1    0    0  501  502  0.00000000000E+00  0.00000000000E+00  0.84528712978E+02  0.84528712978E+02  0.00000000000E+00 0. -1.
         -4   -1    0    0    0  501 -0.00000000000E+00 -0.00000000000E+00 -0.60368300259E+03  0.60368300259E+03  0.00000000000E+00 0.  1.
        -24    2    1    2    0    0  0.52175298985E+01 -0.12345166913E+02 -0.55156764703E+03  0.55770737137E+03  0.81431057183E+02 0.  0.
         23    2    1    2    0    0  0.18030749099E+02  0.46132481747E+01  0.58868926900E+01  0.94394534246E+02  0.92354115329E+02 0.  0.
         11    1    3    3    0    0 -0.11003470741E+02 -0.24431675522E+02 -0.59857230860E+02  0.65581027922E+02  0.00000000000E+00 0. -1.
        -12    1    3    3    0    0  0.16221000640E+02  0.12086508609E+02 -0.49171041617E+03  0.49212634345E+03  0.00000000000E+00 0.  1.
        -11    1    4    4    0    0 -0.26013252880E+02 -0.26014135946E+02 -0.10576369116E+02  0.38279030527E+02  0.00000000000E+00 0.  1.
         11    1    4    4    0    0  0.44044001979E+02  0.30627384121E+02  0.16463261806E+02  0.56115503719E+02  0.00000000000E+00 0. -1.
         -3    1    1    2    0  502 -0.23248278997E+02  0.77319187383E+01  0.26526464724E+02  0.36109809948E+02  0.00000000000E+00 0.  1.
<scales pt_clust_5="13000.00000" pt_clust_6="13000.00000" pt_clust_7="13000.00000" pt_clust_8="13000.00000" pt_clust_9="24.50031"></scales>
<clustering>
<clus scale="   24.500">  1  9  2 -1</clus>
<clus scale="   81.431">  5  6 -1 -1</clus>
<clus scale="   82.387">  2  5  1 -1</clus>
<clus scale="   92.354">  7  8 -1 -1</clus>
<clus scale="   24.500">  1  5  2 -1</clus>
</clustering>
</event>
<event>
 9    1  0.7835476E-005  0.1367211E+03  0.7546771E-02  0.1220498E+00
          1   -1    0    0  502    0 -0.00000000000E+00  0.00000000000E+00  0.54997429279E+03  0.54997429279E+03  0.00000000000E+00 0. -1.
         21   -1    0    0  501  502  0.00000000000E+00 -0.00000000000E+00 -0.58119712654E+02  0.58119712654E+02  0.00000000000E+00 0. -1.
         23    2    1    2    0    0  0.64034658337E+02  0.86837715922E+02  0.37094629984E+03  0.39711402189E+03  0.91962832967E+02 0.  0.
        -24    2    1    2    0    0 -0.71282040146E+02 -0.56677236601E+02  0.13072596790E+03  0.17844437159E+03  0.80372113782E+02 0.  0.
         11    1    4    4    0    0 -0.88840866335E+02 -0.52695431617E+02  0.11450209266E+03  0.15420842152E+03  0.00000000000E+00 0. -1.
        -12    1    4    4    0    0  0.17558826189E+02 -0.39818049840E+01  0.16223875234E+02  0.24235950067E+02  0.00000000000E+00 0.  1.
        -11    1    3    3    0    0 -0.14134821210E+02  0.44021268964E+02  0.75645477266E+02  0.88656096929E+02  0.00000000000E+00 0.  1.
         11    1    3    3    0    0  0.78169479547E+02  0.42816446958E+02  0.29530082257E+03  0.30845792496E+03  0.00000000000E+00 0. -1.
          2    1    1    2  501    0  0.72473818084E+01 -0.30160479321E+02 -0.98176875964E+01  0.32535611961E+02  0.00000000000E+00 0. -1.
<scales pt_clust_5="13000.00000" pt_clust_6="13000.00000" pt_clust_7="13000.00000" pt_clust_8="13000.00000" pt_clust_9="31.01901"></scales>
<clustering>
<clus scale="   31.019">  2  9  1 -1</clus>
<clus scale="   80.372">  5  6 -1 -1</clus>
<clus scale="   91.963">  7  8 -1 -1</clus>
<clus scale="  129.210">  2  5  1 -1</clus>
<clus scale="   31.019">  2  5  1 -1</clus>
</clustering>
</event>
<event>
 9    1  0.7835476E-005  0.9640017E+02  0.7546771E-02  0.1296383E+00
         21   -1    0    0  501  502  0.00000000000E+00  0.00000000000E+00  0.52958578807E+03  0.52958578807E+03  0.00000000000E+00 0. -1.
          1   -1    0    0  502    0 -0.00000000000E+00 -0.00000000000E+00 -0.58002542041E+02  0.58002542041E+02  0.00000000000E+00 0. -1.
         23    2    1    2    0    0 -0.36950124873E+01  0.98999232782E+01  0.17300634207E+02  0.96946740780E+02  0.94803465157E+02 0.  0.
        -24    2    1    2    0    0  0.63902480413E+02  0.21233693397E+02  0.18296426854E+03  0.21098486282E+03  0.80649191183E+02 0.  0.
         11    1    4    4    0    0  0.42081064988E+02  0.38238416560E+02  0.17212363660E+03  0.18127200227E+03  0.00000000000E+00 0. -1.
        -12    1    4    4    0    0  0.21821415425E+02 -0.17004723163E+02  0.10840631939E+02  0.29712860546E+02  0.00000000000E+00 0.  1.
        -11    1    3    3    0    0  0.40409317585E+02  0.17950115681E+02 -0.87794465189E+01  0.45079909958E+02  0.00000000000E+00 0. -1.
         11    1    3    3    0    0 -0.44104330073E+02 -0.80501924024E+01  0.26080080726E+02  0.51866830822E+02  0.00000000000E+00 0.  1.
          2    1    1    2  501    0 -0.60207467926E+02 -0.31133616675E+02  0.27131834329E+03  0.27965672651E+03  0.00000000000E+00 0. -1.
<scales pt_clust_5="13000.00000" pt_clust_6="13000.00000" pt_clust_7="13000.00000" pt_clust_8="13000.00000" pt_clust_9="67.78083"></scales>
<clustering>
<clus scale="   67.781">  1  9  2 -1</clus>
<clus scale="   80.649">  5  6 -1 -1</clus>
<clus scale="   82.520">  1  5  2 -1</clus>
<clus scale="   94.803">  7  8 -1 -1</clus>
<clus scale="   67.781">  1  5  2 -1</clus>
</clustering>
</event>
<event>
 9    1  0.7835476E-005  0.1339572E+03  0.7546771E-02  0.1224044E+00
         -2   -1    0    0    0  501 -0.00000000000E+00  0.00000000000E+00  0.12652335858E+03  0.12652335858E+03  0.00000000000E+00 0.  1.
         21   -1    0    0  501  502  0.00000000000E+00 -0.00000000000E+00 -0.24965571282E+03  0.24965571282E+03  0.00000000000E+00 0.  1.
        -24    2    1    2    0    0 -0.10174763697E+02 -0.11691247062E+03 -0.65921619256E+01  0.14252316394E+03  0.80606104345E+02 0.  0.
         23    2    1    2    0    0  0.62215483958E+02  0.59398008167E+02 -0.76493147168E+02  0.14636377849E+03  0.90400576719E+02 0.  0.
         11    1    3    3    0    0 -0.22729147924E+02 -0.44202161714E+00  0.87876229707E+01  0.24372768943E+02  0.00000000000E+00 0. -1.
        -12    1    3    3    0    0  0.12554384228E+02 -0.11647044901E+03 -0.15379784896E+02  0.11815039500E+03  0.00000000000E+00 0.  1.
        -11    1    4    4    0    0  0.61487344616E+01 -0.23602467412E+02 -0.11524912073E+02  0.26976044960E+02  0.00000000000E+00 0. -1.
         11    1    4    4    0    0  0.56066749496E+02  0.83000475579E+02 -0.64968235095E+02  0.11938773353E+03  0.00000000000E+00 0.  1.
         -1    1    1    2    0  502 -0.52040720261E+02  0.57514462456E+02 -0.40047045145E+02  0.87292128979E+02  0.00000000000E+00 0.  1.
<scales pt_clust_5="13000.00000" pt_clust_6="13000.00000" pt_clust_7="13000.00000" pt_clust_8="13000.00000" pt_clust_9="77.56384"></scales>
<clustering>
<clus scale="   77.564">  2  9  1 -1</clus>
<clus scale="   80.606">  5  6 -1 -1</clus>
<clus scale="   90.401">  7  8 -1 -1</clus>
<clus scale="  127.552">  1  5  2 -1</clus>
<clus scale="   77.564">  2  5  1 -1</clus>
</clustering>
</event>
<event>
 9    1  0.7835476E-005  0.9589600E+02  0.7546771E-02  0.1296220E+00
         21   -1    0    0  501  502  0.00000000000E+00  0.00000000000E+00  0.15078612249E+03  0.15078612249E+03  0.00000000000E+00 0. -1.
         -4   -1    0    0    0  501 -0.00000000000E+00 -0.00000000000E+00 -0.15913302000E+03  0.15913302000E+03  0.00000000000E+00 0.  1.
         23    2    1    2    0    0  0.21164208393E+02 -0.30495821986E+01 -0.11282623271E+03  0.14803243780E+03  0.93416380711E+02 0.  0.
        -24    2    1    2    0    0 -0.14238917298E+02  0.35979836950E+02  0.77359395626E+02  0.11866804603E+03  0.81242437332E+02 0.  0.
         11    1    4    4    0    0  0.22333411962E+02  0.36964333329E+02  0.68577395942E+02  0.81043213550E+02  0.00000000000E+00 0. -1.
        -12    1    4    4    0    0 -0.36572329259E+02 -0.98449637839E+00  0.87819996840E+01  0.37624832478E+02  0.00000000000E+00 0.  1.
        -11    1    3    3    0    0 -0.18990972510E+02  0.20466461882E+02 -0.21872535270E+01  0.28005663300E+02  0.00000000000E+00 0. -1.
         11    1    3    3    0    0  0.40155180902E+02 -0.23516044081E+02 -0.11063897918E+03  0.12002677450E+03  0.00000000000E+00 0.  1.
         -3    1    1    2    0  502 -0.69252910950E+01 -0.32930254752E+02  0.27119939566E+02  0.43218658665E+02  0.00000000000E+00 0.  1.
<scales pt_clust_5="13000.00000" pt_clust_6="13000.00000" pt_clust_7="13000.00000" pt_clust_8="13000.00000" pt_clust_9="33.65058"></scales>
<clustering>
<clus scale="   33.651">  1  9  2 -1</clus>
<clus scale="   81.242">  5  6 -1 -1</clus>
<clus scale="   84.082">  1  5  2 -1</clus>
<clus scale="   93.416">  7  8 -1 -1</clus>
<clus scale="   33.651">  1  5  2 -1</clus>
</clustering>
</event>
<event>
 9    1  0.7835476E-005  0.9296577E+02  0.7546771E-02  0.1300965E+00
         -2   -1    0    0    0  501 -0.00000000000E+00  0.00000000000E+00  0.75959904572E+03  0.75959904572E+03  0.00000000000E+00 0.  1.
         21   -1    0    0  501  502  0.00000000000E+00 -0.00000000000E+00 -0.27257675724E+02  0.27257675724E+02  0.00000000000E+00 0. -1.
         23    2    1    2    0    0  0.57823301584E+01  0.93572475653E+01  0.34082028570E+03  0.35329019269E+03  0.92382355910E+02 0.  0.
        -24    2    1    2    0    0 -0.20889906799E+02  0.43321184120E+02  0.10872689615E+03  0.14551131029E+03  0.83898094586E+02 0.  0.
         13    1    4    4    0    0 -0.27157610486E+02  0.65852260967E+02  0.67615930708E+02  0.98213900072E+02  0.00000000000E+00 0. -1.
        -14    1    4    4    0    0  0.62677036865E+01 -0.22531076847E+02  0.41110965444E+02  0.47297410216E+02  0.00000000000E+00 0.  1.
        -13    1    3    3    0    0  0.36591966603E+02 -0.25819657713E+02  0.13537537375E+03  0.14259073799E+03  0.00000000000E+00 0. -1.
         13    1    3    3    0    0 -0.30809636445E+02  0.35176905279E+02  0.20544491195E+03  0.21069945470E+03  0.00000000000E+00 0.  1.
         -1    1    1    2    0  502  0.15107576641E+02 -0.52678431685E+02  0.28279418814E+03  0.28805521846E+03  0.00000000000E+00 0.  1.
<scales pt_clust_5="13000.00000" pt_clust_6="13000.00000" pt_clust_7="13000.00000" pt_clust_8="13000.00000" pt_clust_9="54.80200"></scales>
<clustering>
<clus scale="   54.802">  2  9  1 -1</clus>
<clus scale="   83.898">  5  6 -1 -1</clus>
<clus scale="   84.540">  2  5  1 -1</clus>
<clus scale="   92.382">  7  8 -1 -1</clus>
<clus scale="   54.802">  2  5  1 -1</clus>
</clustering>
</event>
<event>
 9    1  0.7835476E-005  0.3516230E+03  0.7546771E-02  0.1062224E+00
          1   -1    0    0  502    0 -0.00000000000E+00  0.00000000000E+00  0.82212051924E+03  0.82212051924E+03  0.00000000000E+00 0. -1.
         21   -1    0    0  501  502  0.00000000000E+00 -0.00000000000E+00 -0.46176244463E+03  0.46176244463E+03  0.00000000000E+00 0. -1.
        -24    2    1    2    0    0 -0.34918137214E+03  0.14035044428E+03 -0.40412237693E+01  0.38482155227E+03  0.80283359059E+02 0.  0.
         23    2    1    2    0    0  0.22111603635E+03 -0.20888581509E+03 -0.15953166961E+03  0.35536895580E+03  0.91165540962E+02 0.  0.
         13    1    3    3    0    0 -0.19572523505E+03  0.36540860050E+02  0.69168077796E+01  0.19922711743E+03  0.00000000000E+00 0. -1.
        -14    1    3    3    0    0 -0.15345613708E+03  0.10380958423E+03 -0.10958031549E+02  0.18559443483E+03  0.00000000000E+00 0.  1.
        -13    1    4    4    0    0  0.95657339792E+02 -0.13768664838E+03 -0.52290830746E+02  0.17561967651E+03  0.00000000000E+00 0.  1.
         13    1    4    4    0    0  0.12545869656E+03 -0.71199166703E+02 -0.10724083887E+03  0.17974927928E+03  0.00000000000E+00 0. -1.
          2    1    1    2  501    0  0.12806533579E+03  0.68535370809E+02  0.52393096799E+03  0.54369245581E+03  0.00000000000E+00 0. -1.
<scales pt_clust_5="13000.00000" pt_clust_6="13000.00000" pt_clust_7="13000.00000" pt_clust_8="13000.00000" pt_clust_9="145.25098"></scales>
<clustering>
<clus scale="   80.283">  5  6 -1 -1</clus>
<clus scale="   91.166">  7  8 -1 -1</clus>
<clus scale="  145.251">  2  9  1 -1</clus>
<clus scale="  348.960">  1  5  2 -1</clus>
<clus scale="  145.251">  2  5  1 -1</clus>
</clustering>
</event>
<event>
 9    1  0.7835476E-005  0.1509318E+03  0.7546771E-02  0.1215197E+00
         -2   -1    0    0    0  501 -0.00000000000E+00  0.00000000000E+00  0.16787838711E+03  0.16787838711E+03  0.00000000000E+00 0.  1.
         21   -1    0    0  501  502  0.00000000000E+00 -0.00000000000E+00 -0.31470862820E+03  0.31470862820E+03  0.00000000000E+00 0.  1.
         23    2    1    2    0    0 -0.55506932268E+02  0.80546103915E+01 -0.87727656360E+02  0.13866844643E+03  0.91580020026E+02 0.  0.
        -24    2    1    2    0    0  0.95071808863E+02  0.11123871885E+03  0.53601856256E+02  0.17510337739E+03  0.79845678442E+02 0.  0.
         13    1    4    4    0    0  0.44694760090E+02  0.76214369336E+01 -0.53992547317E+01  0.45660265353E+02  0.00000000000E+00 0. -1.
        -14    1    4    4    0    0  0.50377048773E+02  0.10361728192E+03  0.59001110988E+02  0.12944311203E+03  0.00000000000E+00 0.  1.
        -11    1    3    3    0    0 -0.65506730503E+02  0.37701575330E+02 -0.68084784387E+02  0.10172550510E+03  0.00000000000E+00 0.  1.
         11    1    3    3    0    0  0.99997982356E+01 -0.29646964939E+02 -0.19642871973E+02  0.36942941331E+02  0.00000000000E+00 0. -1.
         -1    1    1    2    0  502 -0.39564876595E+02 -0.11929332924E+03 -0.11270444098E+03  0.16881519149E+03  0.00000000000E+00 0.  1.
<scales pt_clust_5="13000.00000" pt_clust_6="13000.00000" pt_clust_7="13000.00000" pt_clust_8="13000.00000" pt_clust_9="128.08234"></scales>
<clustering>
<clus scale="   79.846">  5  6 -1 -1</clus>
<clus scale="   91.580">  7  8 -1 -1</clus>
<clus scale="  107.391">  1  7  2 -1</clus>
<clus scale="  128.082">  2  9  1 -1</clus>
<clus scale="  128.082">  2  5  1 -1</clus>
</clustering>
</event>
<event>
 9    1  0.7835476E-005  0.1258544E+03  0.7546771E-02  0.1255026E+00
          1   -1    0    0  502    0 -0.00000000000E+00  0.00000000000E+00  0.54362086576E+03  0.54362086576E+03  0.00000000000E+00 0. -1.
         21   -1    0    0  501  502  0.00000000000E+00 -0.00000000000E+00 -0.57987019660E+02  0.57987019660E+02  0.00000000000E+00 0. -1.
        -24    2    1    2    0    0 -0.74784603408E+01  0.12968464477E+02  0.12855972225E+03  0.15244825409E+03  0.80552837006E+02 0.  0.
         23    2    1    2    0    0 -0.50268338734E+02 -0.85038214747E+02  0.32721627462E+03  0.35210174722E+03  0.84538430160E+02 0.  0.
         13    1    3    3    0    0  0.17535642773E+01 -0.22356192325E+02  0.41680181750E+01  0.22808917082E+02  0.00000000000E+00 0. -1.
        -14    1    3    3    0    0 -0.92320246181E+01  0.35324656802E+02  0.12439170408E+03  0.12963933701E+03  0.00000000000E+00 0.  1.
        -13    1    4    4    0    0 -0.62561629792E+02 -0.62959870804E+02  0.30749049191E+03  0.32004422424E+03  0.00000000000E+00 0. -1.
         13    1    4    4    0    0  0.12293291058E+02 -0.22078343943E+02  0.19725782713E+02  0.32057522985E+02  0.00000000000E+00 0.  1.
          2    1    1    2  501    0  0.57746799075E+02  0.72069750270E+02  0.29857849232E+02  0.97057884111E+02  0.00000000000E+00 0. -1.
<scales pt_clust_5="13000.00000" pt_clust_6="13000.00000" pt_clust_7="13000.00000" pt_clust_8="13000.00000" pt_clust_9="93.23405"></scales>
<clustering>
<clus scale="   80.553">  5  6 -1 -1</clus>
<clus scale="   81.932">  1  5  2 -1</clus>
<clus scale="   84.538">  7  8 -1 -1</clus>
<clus scale="   93.234">  2  9  1 -1</clus>
<clus scale="   93.234">  2  5  1 -1</clus>
</clustering>
</event>
<event>
 9    1  0.7835476E-005  0.1735893E+03  0.7546771E-02  0.1205747E+00
         21   -1    0    0  501  502  0.00000000000E+00  0.00000000000E+00  0.86535047292E+02  0.86535047292E+02  0.00000000000E+00 0. -1.
          1   -1    0    0  502    0 -0.00000000000E+00 -0.00000000000E+00 -0.58490776507E+03  0.58490776507E+03  0.00000000000E+00 0. -1.
        -24    2    1    2    0    0  0.19449071005E+02  0.14667284127E+02 -0.12143783881E+03  0.14901402323E+03  0.82853091912E+02 0.  0.
         23    2    1    2    0    0 -0.16196856931E+03 -0.79482037236E+01 -0.31680907979E+03  0.36759964082E+03  0.92002779874E+02 0.  0.
         13    1    3    3    0    0  0.21539259257E+02  0.46821853527E+01  0.46389735293E+01  0.22525155370E+02  0.00000000000E+00 0. -1.
        -14    1    3    3    0    0 -0.20901882524E+01  0.99850987745E+01 -0.12607681234E+03  0.12648886786E+03  0.00000000000E+00 0.  1.
        -13    1    4    4    0    0 -0.40026122935E+02 -0.28580858953E+02 -0.16286650898E+03  0.17013070200E+03  0.00000000000E+00 0.  1.
         13    1    4    4    0    0 -0.12194244638E+03  0.20632655230E+02 -0.15394257081E+03  0.19746893882E+03  0.00000000000E+00 0. -1.
          2    1    1    2  501    0  0.14251949831E+03 -0.67190804037E+01 -0.60125799185E+02  0.15482914831E+03  0.00000000000E+00 0. -1.
<scales pt_clust_5="13000.00000" pt_clust_6="13000.00000" pt_clust_7="13000.00000" pt_clust_8="13000.00000" pt_clust_9="147.20306"></scales>
<clustering>
<clus scale="   82.853">  5  6 -1 -1</clus>
<clus scale="   86.360">  2  5  1 -1</clus>
<clus scale="   92.003">  7  8 -1 -1</clus>
<clus scale="  147.203">  1  9  2 -1</clus>
<clus scale="  147.203">  1  5  2 -1</clus>
</clustering>
</event>
<event>
 9    1  0.7835476E-005  0.1029693E+03  0.7546771E-02  0.1277477E+00
         -4   -1    0    0    0  501 -0.00000000000E+00  0.00000000000E+00  0.97875852301E+02  0.97875852301E+02  0.00000000000E+00 0.  1.
         21   -1    0    0  501  502  0.00000000000E+00 -0.00000000000E+00 -0.45735031803E+03  0.45735031803E+03  0.00000000000E+00 0. -1.
         23    2    1    2    0    0 -0.38977399368E+02  0.96875728477E+01  0.17928092236E+02  0.10276176056E+03  0.92873441910E+02 0.  0.
        -24    2    1    2    0    0  0.67603632582E+02 -0.63116356263E+02 -0.37057748612E+03  0.39146705138E+03  0.85818724866E+02 0.  0.
         13    1    4    4    0    0  0.64914282375E+02 -0.66298768682E+02 -0.37445239704E+03  0.38577712274E+03  0.00000000000E+00 0. -1.
        -14    1    4    4    0    0  0.26893502076E+01  0.31824124189E+01  0.38749109190E+01  0.56899286439E+01  0.00000000000E+00 0.  1.
        -13    1    3    3    0    0 -0.57183753708E+02 -0.12169526319E+02  0.36376005744E+02  0.68857046501E+02  0.00000000000E+00 0.  1.
         13    1    3    3    0    0  0.18206354341E+02  0.21857099166E+02 -0.18447913508E+02  0.33904714055E+02  0.00000000000E+00 0. -1.
         -3    1    1    2    0  502 -0.28626233215E+02  0.53428783415E+02 -0.68250718543E+01  0.60997358395E+02  0.00000000000E+00 0.  1.
<scales pt_clust_5="13000.00000" pt_clust_6="13000.00000" pt_clust_7="13000.00000" pt_clust_8="13000.00000" pt_clust_9="60.61435"></scales>
<clustering>
<clus scale="   60.614">  2  9  1 -1</clus>
<clus scale="   85.819">  5  6 -1 -1</clus>
<clus scale="   92.873">  7  8 -1 -1</clus>
<clus scale="   96.654">  2  5  1 -1</clus>
<clus scale="   60.614">  2  5  1 -1</clus>
</clustering>
</event>
<event>
 9    1  0.7835476E-005  0.9744007E+02  0.7546771E-02  0.1292856E+00
         21   -1    0    0  501  502  0.00000000000E+00  0.00000000000E+00  0.79490353834E+02  0.79490353834E+02  0.00000000000E+00 0. -1.
         -4   -1    0    0    0  501 -0.00000000000E+00 -0.00000000000E+00 -0.24537010906E+03  0.24537010906E+03  0.00000000000E+00 0.  1.
        -24    2    1    2    0    0  0.41381677852E+01  0.27388120865E+02 -0.16241736361E+03  0.18294655759E+03  0.79516094809E+02 0.  0.
         23    2    1    2    0    0 -0.36627464080E+02 -0.39823923170E+02 -0.32916936747E+01  0.10712550651E+03  0.92398717075E+02 0.  0.
         13    1    3    3    0    0 -0.18195682755E+02  0.26754851803E+02 -0.15653270232E+03  0.15984177133E+03  0.00000000000E+00 0. -1.
        -14    1    3    3    0    0  0.22333850540E+02  0.63326906204E+00 -0.58846612936E+01  0.23104786261E+02  0.00000000000E+00 0.  1.
        -13    1    4    4    0    0 -0.40938593736E+02 -0.18807204693E+02 -0.42817021640E+02  0.62152849875E+02  0.00000000000E+00 0.  1.
         13    1    4    4    0    0  0.43111296556E+01 -0.21016718476E+02  0.39525327965E+02  0.44972656639E+02  0.00000000000E+00 0. -1.
         -3    1    1    2    0  502  0.32489296295E+02  0.12435802305E+02 -0.17069793938E+00  0.34788398792E+02  0.00000000000E+00 0.  1.
<scales pt_clust_5="13000.00000" pt_clust_6="13000.00000" pt_clust_7="13000.00000" pt_clust_8="13000.00000" pt_clust_9="34.78798"></scales>
<clustering>
<clus scale="   34.788">  1  9  2 -1</clus>
<clus scale="   79.516">  5  6 -1 -1</clus>
<clus scale="   85.322">  2  5  1 -1</clus>
<clus scale="   92.399">  7  8 -1 -1</clus>
<clus scale="   34.788">  1  5  2 -1</clus>
</clustering>
</event>
<event>
 9    1  0.7835476E-005  0.1562957E+03  0.7546771E-02  0.1213701E+00
         21   -1    0    0  501  502  0.00000000000E+00  0.00000000000E+00  0.37283529269E+02  0.37283529269E+02  0.00000000000E+00 0. -1.
          1   -1    0    0  502    0 -0.00000000000E+00 -0.00000000000E+00 -0.13804409936E+04  0.13804409936E+04  0.00000000000E+00 0. -1.
        -24    2    1    2    0    0  0.53998011660E+02 -0.23174689169E+02 -0.35055695360E+03  0.36449294570E+03  0.80697448938E+02 0.  0.
         23    2    1    2    0    0 -0.98461466293E+00 -0.12102312252E+03 -0.22957627222E+03  0.27489397836E+03  0.90630397353E+02 0.  0.
         13    1    3    3    0    0  0.71942542651E+02 -0.80352787975E+01 -0.30204310150E+03  0.31059673262E+03  0.00000000000E+00 0. -1.
        -14    1    3    3    0    0 -0.17944530991E+02 -0.15139410371E+02 -0.48513852095E+02  0.53896213077E+02  0.00000000000E+00 0.  1.
        -11    1    4    4    0    0  0.38607393272E+02 -0.61056987974E+02 -0.15669873293E+03  0.17254848449E+03  0.00000000000E+00 0. -1.
         11    1    4    4    0    0 -0.39592007935E+02 -0.59966134547E+02 -0.72877539287E+02  0.10234549388E+03  0.00000000000E+00 0.  1.
          2    1    1    2  501    0 -0.53013396997E+02  0.14419781169E+03 -0.76302423847E+03  0.77833759876E+03  0.00000000000E+00 0. -1.
<scales pt_clust_5="13000.00000" pt_clust_6="13000.00000" pt_clust_7="13000.00000" pt_clust_8="13000.00000" pt_clust_9="127.33611"></scales>
<clustering>
<clus scale="   80.697">  5  6 -1 -1</clus>
<clus scale="   90.630">  7  8 -1 -1</clus>
<clus scale="   99.824">  2  5  1 -1</clus>
<clus scale="  127.336">  1  9  2 -1</clus>
<clus scale="  127.336">  1  5  2 -1</clus>
</clustering>
</event>
<event>
 9    1  0.7835476E-005  0.1513526E+03  0.7546771E-02  0.1201009E+00
         21   -1    0    0  501  502  0.00000000000E+00  0.00000000000E+00  0.15552077922E+03  0.15552077922E+03  0.00000000000E+00 0. -1.
          1   -1    0    0  502    0 -0.00000000000E+00 -0.00000000000E+00 -0.18599417677E+03  0.18599417677E+03  0.00000000000E+00 0. -1.
         23    2    1    2    0    0  0.57829437923E+01 -0.13103030947E+03 -0.44086977916E+02  0.16594876930E+03  0.91613033855E+02 0.  0.
        -24    2    1    2    0    0  0.25265235173E+02  0.10689879320E+03  0.13441041144E+02  0.13624253905E+03  0.79471276338E+02 0.  0.
         11    1    4    4    0    0 -0.63611125098E+01  0.43139367466E+02  0.41064210591E+02  0.59897730919E+02  0.00000000000E+00 0. -1.
        -12    1    4    4    0    0  0.31626347683E+02  0.63759425734E+02 -0.27623169448E+02  0.76344808127E+02  0.00000000000E+00 0.  1.
        -11    1    3    3    0    0 -0.30903907601E+02 -0.60425437030E+02  0.11568209242E+02  0.68848445229E+02  0.00000000000E+00 0.  1.
         11    1    3    3    0    0  0.36686851394E+02 -0.70604872441E+02 -0.55655187158E+02  0.97100324074E+02  0.00000000000E+00 0. -1.
          2    1    1    2  501    0 -0.31048178966E+02  0.24131516272E+02  0.17253922224E+00  0.39323647649E+02  0.00000000000E+00 0. -1.
<scales pt_clust_5="13000.00000" pt_clust_6="13000.00000" pt_clust_7="13000.00000" pt_clust_8="13000.00000" pt_clust_9="39.32327"></scales>
<clustering>
<clus scale="   39.323">  1  9  2 -1</clus>
<clus scale="   79.471">  5  6 -1 -1</clus>
<clus scale="   91.613">  7  8 -1 -1</clus>
<clus scale="  144.327">  1  5  2 -1</clus>
<clus scale="   39.323">  1  5  2 -1</clus>
</clustering>
</event>
<event>
 9    1  0.7835476E-005  0.1118102E+03  0.7546771E-02  0.1263194E+00
          1   -1    0    0  502    0 -0.00000000000E+00  0.00000000000E+00  0.10928621466E+03  0.10928621466E+03  0.00000000000E+00 0. -1.
         21   -1    0    0  501  502  0.00000000000E+00 -0.00000000000E+00 -0.24560215616E+03  0.24560215616E+03  0.00000000000E+00 0.  1.
         23    2    1    2    0    0 -0.65548427073E+02  0.30013558732E+01  0.23288452544E+02  0.11869682158E+03  0.96130010937E+02 0.  0.
        -24    2    1    2    0    0  0.37547269305E+02 -0.39711622712E+02 -0.36438991395E+02  0.10465666818E+03  0.81476424130E+02 0.  0.
         11    1    4    4    0    0  0.56298022406E+02 -0.14017246699E+02 -0.23968012119E+01  0.58066299933E+02  0.00000000000E+00 0. -1.
        -12    1    4    4    0    0 -0.18750753101E+02 -0.25694376013E+02 -0.34042190183E+02  0.46590368243E+02  0.00000000000E+00 0.  1.
        -11    1    3    3    0    0 -0.18443988058E+02  0.38129427854E+02  0.39314660271E+02  0.57789934039E+02  0.00000000000E+00 0. -1.
         11    1    3    3    0    0 -0.47104439015E+02 -0.35128071981E+02 -0.16026207727E+02  0.60906887543E+02  0.00000000000E+00 0.  1.
          2    1    1    2  501    0  0.28001157768E+02  0.36710266839E+02 -0.12316540265E+03  0.13153488107E+03  0.00000000000E+00 0. -1.
<scales pt_clust_5="13000.00000" pt_clust_6="13000.00000" pt_clust_7="13000.00000" pt_clust_8="13000.00000" pt_clust_9="46.17043"></scales>
<clustering>
<clus scale="   46.170">  2  9  1 -1</clus>
<clus scale="   81.476">  5  6 -1 -1</clus>
<clus scale="   96.130">  7  8 -1 -1</clus>
<clus scale="   99.493">  2  5  1 -1</clus>
<clus scale="   46.170">  2  5  1 -1</clus>
</clustering>
</event>
<event>
 9    1  0.7835476E-005  0.1035650E+03  0.7546771E-02  0.1278300E+00
         -4   -1    0    0    0  501 -0.00000000000E+00  0.00000000000E+00  0.23195359662E+02  0.23195359662E+02  0.00000000000E+00 0.  1.
         21   -1    0    0  501  502  0.00000000000E+00 -0.00000000000E+00 -0.73533692619E+03  0.73533692619E+03  0.00000000000E+00 0. -1.
         23    2    1    2    0    0 -0.44032746484E+02  0.39578166322E+01 -0.26518233659E+03  0.28407994147E+03  0.91788857882E+02 0.  0.
        -24    2    1    2    0    0  0.44159014992E+02  0.48013637139E+02 -0.34249305763E+03  0.35777231563E+03  0.80275820491E+02 0.  0.
         11    1    4    4    0    0  0.43154866947E+02  0.18919585334E+02 -0.74151933118E+02  0.87856715369E+02  0.00000000000E+00 0. -1.
        -12    1    4    4    0    0  0.10041480456E+01  0.29094051805E+02 -0.26834112451E+03  0.26991560026E+03  0.00000000000E+00 0.  1.
        -11    1    3    3    0    0 -0.44838733067E+02  0.39036822383E+02 -0.21342058548E+03  0.22154622947E+03  0.00000000000E+00 0.  1.
         11    1    3    3    0    0  0.80598658359E+00 -0.35079005750E+02 -0.51761751106E+02  0.62533711999E+02  0.00000000000E+00 0. -1.
         -3    1    1    2    0  502 -0.12626850875E+00 -0.51971453771E+02 -0.10446617231E+03  0.11668002875E+03  0.00000000000E+00 0.  1.
<scales pt_clust_5="13000.00000" pt_clust_6="13000.00000" pt_clust_7="13000.00000" pt_clust_8="13000.00000" pt_clust_9="51.97163"></scales>
<clustering>
<clus scale="   51.972">  2  9  1 -1</clus>
<clus scale="   80.276">  5  6 -1 -1</clus>
<clus scale="   91.789">  7  8 -1 -1</clus>
<clus scale="   93.513">  2  5  1 -1</clus>
<clus scale="   51.972">  2  5  1 -1</clus>
</clustering>
</event>
<event>
 9    1  0.7835476E-005  0.1116793E+03  0.7546771E-02  0.1261029E+00
         21   -1    0    0  501  502  0.00000000000E+00  0.00000000000E+00  0.17817020473E+03  0.17817020473E+03  0.00000000000E+00 0.  1.
          1   -1    0    0  502    0 -0.00000000000E+00 -0.00000000000E+00 -0.32500538008E+03  0.32500538008E+03  0.00000000000E+00 0. -1.
         23    2    1    2    0    0 -0.35253533111E+02 -0.58901094926E+02 -0.14051668450E+03  0.18048893476E+03  0.90106416905E+02 0.  0.
        -24    2    1    2    0    0 -0.61522246147E+02  0.81952652375E+02  0.10931762817E+03  0.17014603981E+03  0.80610836926E+02 0.  0.
         13    1    4    4    0    0 -0.26017340893E+02  0.61057843542E+02  0.16194299347E+02  0.68317037527E+02  0.00000000000E+00 0. -1.
        -14    1    4    4    0    0 -0.35504905254E+02  0.20894808833E+02  0.93123328828E+02  0.10182900228E+03  0.00000000000E+00 0.  1.
        -13    1    3    3    0    0 -0.35484900057E+02 -0.79185387968E+02 -0.13310587718E+03  0.15889203359E+03  0.00000000000E+00 0.  1.
         13    1    3    3    0    0  0.23136694657E+00  0.20284293042E+02 -0.74108073224E+01  0.21596901168E+02  0.00000000000E+00 0. -1.
          2    1    1    2  501    0  0.96775779258E+02 -0.23051557449E+02 -0.11563611902E+03  0.15254061024E+03  0.00000000000E+00 0. -1.
<scales pt_clust_5="13000.00000" pt_clust_6="13000.00000" pt_clust_7="13000.00000" pt_clust_8="13000.00000" pt_clust_9="99.48334"></scales>
<clustering>
<clus scale="   80.611">  5  6 -1 -1</clus>
<clus scale="   90.106">  7  8 -1 -1</clus>
<clus scale="   99.483">  1  9  2 -1</clus>
<clus scale="  104.169">  1  5  2 -1</clus>
<clus scale="   99.483">  1  5  2 -1</clus>
</clustering>
</event>
<event>
 9    1  0.7835476E-005  0.1297988E+03  0.7546771E-02  0.1230341E+00
          3   -1    0    0  502    0 -0.00000000000E+00  0.00000000000E+00  0.15591207387E+03  0.15591207387E+03  0.00000000000E+00 0. -1.
         21   -1    0    0  501  502  0.00000000000E+00 -0.00000000000E+00 -0.32816668401E+03  0.32816668401E+03  0.00000000000E+00 0.  1.
        -24    2    1    2    0    0 -0.84541693530E+02 -0.10826943959E+02  0.84783349053E+02  0.14573110575E+03  0.82370008164E+02 0.  0.
         23    2    1    2    0    0  0.12076838737E+03  0.35690241117E+02 -0.12735961848E+03  0.20142786196E+03  0.92162435154E+02 0.  0.
         11    1    3    3    0    0 -0.68176494986E+02 -0.42502106913E+02  0.44142357921E+02  0.91667940543E+02  0.00000000000E+00 0. -1.
        -12    1    3    3    0    0 -0.16365198543E+02  0.31675162954E+02  0.40640991133E+02  0.54063165203E+02  0.00000000000E+00 0.  1.
        -13    1    4    4    0    0  0.62858042326E+02  0.10205022820E+02 -0.12238629608E+03  0.13796260886E+03  0.00000000000E+00 0.  1.
         13    1    4    4    0    0  0.57910345046E+02  0.25485218297E+02 -0.49733224028E+01  0.63465253097E+02  0.00000000000E+00 0. -1.
          4    1    1    2  501    0 -0.36226693842E+02 -0.24863297159E+02 -0.12967834072E+03  0.13691979018E+03  0.00000000000E+00 0. -1.
<scales pt_clust_5="13000.00000" pt_clust_6="13000.00000" pt_clust_7="13000.00000" pt_clust_8="13000.00000" pt_clust_9="43.93810"></scales>
<clustering>
<clus scale="   43.938">  2  9  1 -1</clus>
<clus scale="   82.370">  5  6 -1 -1</clus>
<clus scale="   92.162">  7  8 -1 -1</clus>
<clus scale="  123.039">  1  5  2 -1</clus>
<clus scale="   43.938">  2  5  1 -1</clus>
</clustering>
</event>
<event>
 9    1  0.7835476E-005  0.2216756E+03  0.7546771E-02  0.1133640E+00
         -2   -1    0    0    0  501 -0.00000000000E+00  0.00000000000E+00  0.64021615370E+03  0.64021615370E+03  0.00000000000E+00 0.  1.
         21   -1    0    0  501  502  0.00000000000E+00 -0.00000000000E+00 -0.15480198334E+03  0.15480198334E+03  0.00000000000E+00 0. -1.
         23    2    1    2    0    0  0.91877856287E+02  0.16883349652E+03  0.41054968768E+03  0.46291033662E+03  0.93747766236E+02 0.  0.
        -24    2    1    2    0    0 -0.64485581547E+02 -0.22271454369E+03  0.10216042087E+03  0.26578606792E+03  0.80282775915E+02 0.  0.
         13    1    4    4    0    0 -0.27334960097E+02 -0.51865584829E+02 -0.79449963036E+01  0.59163856360E+02  0.00000000000E+00 0. -1.
        -14    1    4    4    0    0 -0.37150621451E+02 -0.17084895886E+03  0.11010541718E+03  0.20662221156E+03  0.00000000000E+00 0.  1.
        -11    1    3    3    0    0  0.34671603852E+02  0.92974285418E+01  0.13252088060E+03  0.13729656254E+03  0.00000000000E+00 0. -1.
         11    1    3    3    0    0  0.57206252435E+02  0.15953606798E+03  0.27802880708E+03  0.32561377408E+03  0.00000000000E+00 0.  1.
         -1    1    1    2    0  502 -0.27392274739E+02  0.53881047166E+02 -0.27295938196E+02  0.66321732494E+02  0.00000000000E+00 0.  1.
<scales pt_clust_5="13000.00000" pt_clust_6="13000.00000" pt_clust_7="13000.00000" pt_clust_8="13000.00000" pt_clust_9="60.44422"></scales>
<clustering>
<clus scale="   60.444">  2  9  1 -1</clus>
<clus scale="   80.283">  5  6 -1 -1</clus>
<clus scale="   93.748">  7  8 -1 -1</clus>
<clus scale="  216.326">  2  5  1 -1</clus>
<clus scale="   60.444">  2  5  1 -1</clus>
</clustering>
</event>
<event>
 9    1  0.7835476E-005  0.9089225E+02  0.7546771E-02  0.1305959E+00
         21   -1    0    0  501  502  0.00000000000E+00  0.00000000000E+00  0.43694936645E+03  0.43694936645E+03  0.00000000000E+00 0. -1.
          1   -1    0    0  502    0 -0.00000000000E+00 -0.00000000000E+00 -0.37782421766E+02  0.37782421766E+02  0.00000000000E+00 0. -1.
         23    2    1    2    0    0 -0.81324386902E+01  0.67423512076E+01  0.42842562950E+02  0.10012488524E+03  0.89877202817E+02 0.  0.
        -24    2    1    2    0    0  0.31006948355E+02  0.81503811371E+01  0.25160813822E+03  0.26639170845E+03  0.81424981150E+02 0.  0.
         11    1    4    4    0    0  0.53906709496E+02 -0.12234488144E+02  0.18468794141E+03  0.19278291348E+03  0.00000000000E+00 0. -1.
        -12    1    4    4    0    0 -0.22899761141E+02  0.20384869281E+02  0.66920196805E+02  0.73608794966E+02  0.00000000000E+00 0.  1.
        -13    1    3    3    0    0  0.23245333520E+02  0.27324018843E+02 -0.81740363952E+01  0.36793510395E+02  0.00000000000E+00 0. -1.
         13    1    3    3    0    0 -0.31377772210E+02 -0.20581667636E+02  0.51016599345E+02  0.63331374849E+02  0.00000000000E+00 0.  1.
          2    1    1    2  501    0 -0.22874509665E+02 -0.14892732345E+02  0.10471624352E+03  0.10821519452E+03  0.00000000000E+00 0. -1.
<scales pt_clust_5="13000.00000" pt_clust_6="13000.00000" pt_clust_7="13000.00000" pt_clust_8="13000.00000" pt_clust_9="27.29536"></scales>
<clustering>
<clus scale="   27.295">  1  9  2 -1</clus>
<clus scale="   81.425">  5  6 -1 -1</clus>
<clus scale="   82.544">  1  5  2 -1</clus>
<clus scale="   89.877">  7  8 -1 -1</clus>
<clus scale="   27.295">  1  5  2 -1</clus>
</clustering>
</event>
<event>
 9    1  0.7835476E-005  0.2346125E+03  0.7546771E-02  0.1151333E+00
         -2   -1    0    0    0  501 -0.00000000000E+00  0.00000000000E+00  0.12265101925E+03  0.12265101925E+03  0.00000000000E+00 0.  1.
         21   -1    0    0  501  502  0.00000000000E+00 -0.00000000000E+00 -0.94810949271E+03  0.94810949271E+03  0.00000000000E+00 0.  1.
         23    2    1    2    0    0  0.38271956721E+02  0.68784042783E+02 -0.22542336985E+03  0.25504984708E+03  0.89659029710E+02 0.  0.
        -24    2    1    2    0    0 -0.10815559511E+03 -0.26048478032E+03 -0.16795679556E+03  0.33787747226E+03  0.80010921453E+02 0.  0.
         13    1    4    4    0    0 -0.31061782579E+01 -0.63808823489E+02 -0.68691677469E+02  0.93807040525E+02  0.00000000000E+00 0. -1.
        -14    1    4    4    0    0 -0.10504941685E+03 -0.19667595683E+03 -0.99265118090E+02  0.24407043173E+03  0.00000000000E+00 0.  1.
        -13    1    3    3    0    0  0.37270356362E+02 -0.11488652414E+02 -0.76389166788E+02  0.85769303368E+02  0.00000000000E+00 0.  1.
         13    1    3    3    0    0  0.10016003590E+01  0.80272695197E+02 -0.14903420306E+03  0.16928054371E+03  0.00000000000E+00 0. -1.
         -1    1    1    2    0  502  0.69883638388E+02  0.19170073754E+03 -0.43207830805E+03  0.47783319263E+03  0.00000000000E+00 0.  1.
<scales pt_clust_5="13000.00000" pt_clust_6="13000.00000" pt_clust_7="13000.00000" pt_clust_8="13000.00000" pt_clust_9="220.54768"></scales>
<clustering>
<clus scale="   80.011">  5  6 -1 -1</clus>
<clus scale="   89.659">  7  8 -1 -1</clus>
<clus scale="  119.309">  1  7  2 -1</clus>
<clus scale="  220.548">  2  9  1 -1</clus>
<clus scale="  220.548">  2  5  1 -1</clus>
</clustering>
</event>
<event>
 9    1  0.7835476E-005  0.1597359E+03  0.7546771E-02  0.1198827E+00
         21   -1    0    0  501  502  0.00000000000E+00  0.00000000000E+00  0.43729069083E+03  0.43729069083E+03  0.00000000000E+00 0. -1.
         -2   -1    0    0    0  501 -0.00000000000E+00 -0.00000000000E+00 -0.12240805131E+03  0.12240805131E+03  0.00000000000E+00 0.  1.
         23    2    1    2    0    0  0.26246308871E+02  0.38929252104E+02  0.88045564723E+02  0.15596241090E+03  0.11986616181E+03 0.  0.
        -24    2    1    2    0    0  0.12249148562E+03 -0.57428176116E+02  0.19515145776E+03  0.25053998656E+03  0.79900149786E+02 0.  0.
         13    1    4    4    0    0  0.13017350285E+03 -0.56908458278E+02  0.19674486089E+03  0.24267726254E+03  0.00000000000E+00 0. -1.
        -14    1    4    4    0    0 -0.76820172316E+01 -0.51971783772E+00 -0.15934031298E+01  0.78627240134E+01  0.00000000000E+00 0.  1.
        -13    1    3    3    0    0  0.44507425076E+02 -0.29844289264E+02  0.19118163148E+02  0.56895488843E+02  0.00000000000E+00 0.  1.
         13    1    3    3    0    0 -0.18261116205E+02  0.68773541369E+02  0.68927401575E+02  0.99066922055E+02  0.00000000000E+00 0. -1.
         -1    1    1    2    0  502 -0.14873779449E+03  0.18498924012E+02  0.31685617040E+02  0.15319634469E+03  0.00000000000E+00 0.  1.
<scales pt_clust_5="13000.00000" pt_clust_6="13000.00000" pt_clust_7="13000.00000" pt_clust_8="13000.00000" pt_clust_9="138.31684"></scales>
<clustering>
<clus scale="   79.900">  5  6 -1 -1</clus>
<clus scale="  119.866">  7  8 -1 -1</clus>
<clus scale="  128.733">  2  7  1 -1</clus>
<clus scale="  138.317">  1  9  2 -1</clus>
<clus scale="  138.317">  1  5  2 -1</clus>
</clustering>
</event>
<event>
 9    1  0.7835476E-005  0.1710062E+03  0.7546771E-02  0.1178128E+00
         21   -1    0    0  501  502  0.00000000000E+00  0.00000000000E+00  0.10639590750E+03  0.10639590750E+03  0.00000000000E+00 0. -1.
          1   -1    0    0  502    0 -0.00000000000E+00 -0.00000000000E+00 -0.53004939469E+03  0.53004939469E+03  0.00000000000E+00 0. -1.
        -24    2    1    2    0    0 -0.10492321743E+03 -0.74000253271E+01 -0.74036598495E+02  0.15160483762E+03  0.80243173821E+02 0.  0.
         23    2    1    2    0    0  0.16669146081E+03  0.10756689268E+03 -0.23672263856E+03  0.32176432001E+03  0.90210811532E+02 0.  0.
         11    1    3    3    0    0 -0.32383605726E+02 -0.20339356215E+01  0.15736977283E+02  0.36062269312E+02  0.00000000000E+00 0. -1.
        -12    1    3    3    0    0 -0.72539611699E+02 -0.53660897056E+01 -0.89773575778E+02  0.11554256831E+03  0.00000000000E+00 0.  1.
        -11    1    4    4    0    0  0.10375326462E+03  0.86157556388E+02 -0.21113300121E+03  0.25052945664E+03  0.00000000000E+00 0. -1.
         11    1    4    4    0    0  0.62938196187E+02  0.21409336295E+02 -0.25589637342E+02  0.71234863369E+02  0.00000000000E+00 0.  1.
          2    1    1    2  501    0 -0.61768243386E+02 -0.10016686736E+03 -0.11289425015E+03  0.16307614456E+03  0.00000000000E+00 0. -1.
<scales pt_clust_5="13000.00000" pt_clust_6="13000.00000" pt_clust_7="13000.00000" pt_clust_8="13000.00000" pt_clust_9="117.68063"></scales>
<clustering>
<clus scale="   80.243">  5  6 -1 -1</clus>
<clus scale="   90.211">  7  8 -1 -1</clus>
<clus scale="  117.681">  1  9  2 -1</clus>
<clus scale="  165.964">  2  5  1 -1</clus>
<clus scale="  117.681">  1  5  2 -1</clus>
</clustering>
</event>
<event>
 9    1  0.7835476E-005  0.1490033E+03  0.7546771E-02  0.1203720E+00
         21   -1    0    0  501  502  0.00000000000E+00  0.00000000000E+00  0.49446134179E+02  0.49446134179E+02  0.00000000000E+00 0.  1.
          1   -1    0    0  502    0 -0.00000000000E+00 -0.00000000000E+00 -0.91441926831E+03  0.91441926831E+03  0.00000000000E+00 0. -1.
        -24    2    1    2    0    0 -0.49848990894E+02  0.87618075523E+02 -0.36674885919E+03  0.38880593342E+03  0.80644150984E+02 0.  0.
         23    2    1    2    0    0  0.12459032638E+03 -0.84504222564E+02 -0.45673535958E+03  0.48951828947E+03  0.91418017806E+02 0.  0.
         11    1    3    3    0    0 -0.20917145895E+02 -0.86760553440E+01 -0.31438870909E+02  0.38745367887E+02  0.00000000000E+00 0. -1.
        -12    1    3    3    0    0 -0.28931844999E+02  0.96294130867E+02 -0.33530998828E+03  0.35006056553E+03  0.00000000000E+00 0.  1.
        -13    1    4    4    0    0  0.35240773357E+02 -0.33295325453E+02 -0.48817556658E+02  0.68801487207E+02  0.00000000000E+00 0. -1.
         13    1    4    4    0    0  0.89349553022E+02 -0.51208897111E+02 -0.40791780292E+03  0.42071680226E+03  0.00000000000E+00 0.  1.
          2    1    1    2  501    0 -0.74741335485E+02 -0.31138529588E+01 -0.41488915363E+02  0.85541179606E+02  0.00000000000E+00 0. -1.
<scales pt_clust_5="13000.00000" pt_clust_6="13000.00000" pt_clust_7="13000.00000" pt_clust_8="13000.00000" pt_clust_9="74.80617"></scales>
<clustering>
<clus scale="   74.806">  1  9  2 -1</clus>
<clus scale="   80.644">  5  6 -1 -1</clus>
<clus scale="   91.418">  7  8 -1 -1</clus>
<clus scale="  142.647">  2  5  1 -1</clus>
<clus scale="   74.806">  1  5  2 -1</clus>
</clustering>
</event>
<event>
 9    1  0.7835476E-005  0.9337222E+02  0.7546771E-02  0.1308411E+00
         21   -1    0    0  501  502  0.00000000000E+00  0.00000000000E+00  0.20353861262E+03  0.20353861262E+03  0.00000000000E+00 0. -1.
          1   -1    0    0  502    0 -0.00000000000E+00 -0.00000000000E+00 -0.13189310993E+03  0.13189310993E+03  0.00000000000E+00 0. -1.
        -24    2    1    2    0    0 -0.90375279560E+01  0.12095495822E+02 -0.99948284658E+02  0.12384411126E+03  0.71552263119E+02 0.  0.
         23    2    1    2    0    0  0.11315376247E+02  0.16730145559E+02  0.12492438887E+03  0.15668643690E+03  0.92393728493E+02 0.  0.
         11    1    3    3    0    0 -0.31780684760E+02  0.18542384097E+02 -0.91701163022E+02  0.98807566670E+02  0.00000000000E+00 0. -1.
        -12    1    3    3    0    0  0.22743156804E+02 -0.64468882749E+01 -0.82471216365E+01  0.25036544592E+02  0.00000000000E+00 0.  1.
        -11    1    4    4    0    0  0.10238732879E+01 -0.35972625066E+02  0.26944017565E+02  0.44956180367E+02  0.00000000000E+00 0.  1.
         11    1    4    4    0    0  0.10291502959E+02  0.52702770625E+02  0.97980371304E+02  0.11173025654E+03  0.00000000000E+00 0. -1.
          2    1    1    2  501    0 -0.22778482913E+01 -0.28825641380E+02  0.46669398478E+02  0.54901174378E+02  0.00000000000E+00 0. -1.
<scales pt_clust_5="13000.00000" pt_clust_6="13000.00000" pt_clust_7="13000.00000" pt_clust_8="13000.00000" pt_clust_9="28.91550"></scales>
<clustering>
<clus scale="   28.916">  1  9  2 -1</clus>
<clus scale="   71.552">  5  6 -1 -1</clus>
<clus scale="   72.811">  2  5  1 -1</clus>
<clus scale="   92.394">  7  8 -1 -1</clus>
<clus scale="   28.916">  1  5  2 -1</clus>
</clustering>
</event>
<event>
 9    1  0.7835476E-005  0.1119402E+03  0.7546771E-02  0.1266449E+00
          1   -1    0    0  502    0 -0.00000000000E+00  0.00000000000E+00  0.27451215556E+03  0.27451215556E+03  0.00000000000E+00 0. -1.
         21   -1    0    0  501  502  0.00000000000E+00 -0.00000000000E+00 -0.28032896634E+03  0.28032896634E+03  0.00000000000E+00 0.  1.
         23    2    1    2    0    0 -0.28474689260E+02  0.80470316409E+01  0.14380051323E+03  0.17127962478E+03  0.88218816653E+02 0.  0.
        -24    2    1    2    0    0 -0.69561915292E+02 -0.29539759635E+02 -0.22995497434E+03  0.25500313975E+03  0.80223772067E+02 0.  0.
         11    1    4    4    0    0 -0.18767594674E+02 -0.36478863464E+02 -0.17542720877E+03  0.18016002794E+03  0.00000000000E+00 0. -1.
        -12    1    4    4    0    0 -0.50794320618E+02  0.69391038285E+01 -0.54527765566E+02  0.74843111818E+02  0.00000000000E+00 0.  1.
        -11    1    3    3    0    0 -0.59723844343E+02  0.12478816917E+02  0.86356432120E+02  0.10573595331E+03  0.00000000000E+00 0.  1.
         11    1    3    3    0    0  0.31249155083E+02 -0.44317852762E+01  0.57444081111E+02  0.65543671463E+02  0.00000000000E+00 0. -1.
          2    1    1    2  501    0  0.98036604552E+02  0.21492727995E+02  0.80337650322E+02  0.12855835736E+03  0.00000000000E+00 0. -1.
<scales pt_clust_5="13000.00000" pt_clust_6="13000.00000" pt_clust_7="13000.00000" pt_clust_8="13000.00000" pt_clust_9="78.06890"></scales>
<clustering>
<clus scale="   80.224">  5  6 -1 -1</clus>
<clus scale="   88.219">  7  8 -1 -1</clus>
<clus scale="   93.049">  1  7  2 -1</clus>
<clus scale="   78.069">  2  9  1 -1</clus>
<clus scale="   78.069">  2  5  1 -1</clus>
</clustering>
</event>
<event>
 9    1  0.7835476E-005  0.1706085E+03  0.7546771E-02  0.1178791E+00
          1   -1    0    0  502    0 -0.00000000000E+00  0.00000000000E+00  0.70815547735E+03  0.70815547735E+03  0.00000000000E+00 0. -1.
         21   -1    0    0  501  502  0.00000000000E+00 -0.00000000000E+00 -0.30985750430E+03  0.30985750430E+03  0.00000000000E+00 0. -1.
         23    2    1    2    0    0 -0.45352008521E+02  0.16544773474E+03  0.60317709104E+03  0.63369089134E+03  0.91168991448E+02 0.  0.
        -24    2    1    2    0    0  0.29922486781E+02 -0.70866920352E+02  0.42923453088E+02  0.11863484028E+03  0.79462738993E+02 0.  0.
         13    1    4    4    0    0 -0.11758231601E+02 -0.66399999592E+02  0.34993031325E+02  0.75971890838E+02  0.00000000000E+00 0. -1.
        -14    1    4    4    0    0  0.41680718382E+02 -0.44669207600E+01  0.79304217633E+01  0.42662949444E+02  0.00000000000E+00 0.  1.
        -13    1    3    3    0    0 -0.49004928410E+02  0.91494210761E+02  0.46990713781E+03  0.48123319896E+03  0.00000000000E+00 0. -1.
         13    1    3    3    0    0  0.36529198890E+01  0.73953523983E+02  0.13326995323E+03  0.15245769238E+03  0.00000000000E+00 0.  1.
          2    1    1    2  501    0  0.15429521741E+02 -0.94580814392E+02 -0.24780257108E+03  0.26568725002E+03  0.00000000000E+00 0. -1.
<scales pt_clust_5="13000.00000" pt_clust_6="13000.00000" pt_clust_7="13000.00000" pt_clust_8="13000.00000" pt_clust_9="95.83110"></scales>
<clustering>
<clus scale="   79.463">  5  6 -1 -1</clus>
<clus scale="   91.169">  7  8 -1 -1</clus>
<clus scale="   95.831">  2  9  1 -1</clus>
<clus scale="  164.651">  2  5  1 -1</clus>
<clus scale="   95.831">  2  5  1 -1</clus>
</clustering>
</event>
<event>
 9    1  0.7835476E-005  0.9255224E+02  0.7546771E-02  0.1301120E+00
         21   -1    0    0  501  502  0.00000000000E+00  0.00000000000E+00  0.14048431529E+03  0.14048431529E+03  0.00000000000E+00 0.  1.
         -2   -1    0    0    0  501 -0.00000000000E+00 -0.00000000000E+00 -0.21062397791E+03  0.21062397791E+03  0.00000000000E+00 0.  1.
         23    2    1    2    0    0 -0.33041799158E+02 -0.53588136559E+01 -0.12693651813E+03  0.15694412966E+03  0.86012224846E+02 0.  0.
        -24    2    1    2    0    0  0.34273383643E+02 -0.34507830976E+02 -0.31391339465E+02  0.97375611075E+02  0.78301585002E+02 0.  0.
         11    1    4    4    0    0  0.32933528852E+02 -0.51025139751E+02  0.12777513368E+01  0.60743846254E+02  0.00000000000E+00 0. -1.
        -12    1    4    4    0    0  0.13398547913E+01  0.16517308776E+02 -0.32669090801E+02  0.36631764820E+02  0.00000000000E+00 0.  1.
        -11    1    3    3    0    0 -0.28353597711E+02  0.34671965159E+02 -0.35956858262E+02  0.57436637500E+02  0.00000000000E+00 0.  1.
         11    1    3    3    0    0 -0.46882014472E+01 -0.40030778815E+02 -0.90979659872E+02  0.99507492159E+02  0.00000000000E+00 0. -1.
         -1    1    1    2    0  502 -0.12315844847E+01  0.39866644632E+02  0.88188194979E+02  0.96788552464E+02  0.00000000000E+00 0.  1.
<scales pt_clust_5="13000.00000" pt_clust_6="13000.00000" pt_clust_7="13000.00000" pt_clust_8="13000.00000" pt_clust_9="39.88566"></scales>
<clustering>
<clus scale="   39.886">  1  9  2 -1</clus>
<clus scale="   78.302">  5  6 -1 -1</clus>
<clus scale="   85.434">  1  5  2 -1</clus>
<clus scale="   86.012">  7  8 -1 -1</clus>
<clus scale="   39.886">  1  5  2 -1</clus>
</clustering>
</event>
<event>
 9    1  0.7835476E-005  0.9534853E+02  0.7546771E-02  0.1295762E+00
         21   -1    0    0  501  502  0.00000000000E+00  0.00000000000E+00  0.51165094319E+02  0.51165094319E+02  0.00000000000E+00 0.  1.
          1   -1    0    0  502    0 -0.00000000000E+00 -0.00000000000E+00 -0.56600422028E+03  0.56600422028E+03  0.00000000000E+00 0. -1.
         23    2    1    2    0    0  0.32020439952E+02  0.20782118000E+02 -0.21897802718E+03  0.23984615391E+03  0.90097703383E+02 0.  0.
        -24    2    1    2    0    0 -0.19163632755E+02  0.26333287374E+02 -0.10028594385E+02  0.87348369570E+02  0.80426849478E+02 0.  0.
         13    1    4    4    0    0  0.22494890921E+02  0.43995191405E+01 -0.28675197792E+02  0.36710255442E+02  0.00000000000E+00 0. -1.
        -14    1    4    4    0    0 -0.41658523676E+02  0.21933768233E+02  0.18646603408E+02  0.50638114128E+02  0.00000000000E+00 0.  1.
        -11    1    3    3    0    0  0.14307369858E+01 -0.31029004612E+02 -0.12052778576E+03  0.12446603262E+03  0.00000000000E+00 0.  1.
         11    1    3    3    0    0  0.30589702966E+02  0.51811122612E+02 -0.98450241423E+02  0.11538012130E+03  0.00000000000E+00 0. -1.
          2    1    1    2  501    0 -0.12856807197E+02 -0.47115405374E+02 -0.28583250439E+03  0.28997479112E+03  0.00000000000E+00 0. -1.
<scales pt_clust_5="13000.00000" pt_clust_6="13000.00000" pt_clust_7="13000.00000" pt_clust_8="13000.00000" pt_clust_9="48.83811"></scales>
<clustering>
<clus scale="   48.838">  1  9  2 -1</clus>
<clus scale="   80.427">  5  6 -1 -1</clus>
<clus scale="   86.268">  1  5  2 -1</clus>
<clus scale="   90.098">  7  8 -1 -1</clus>
<clus scale="   48.838">  1  5  2 -1</clus>
</clustering>
</event>
<event>
 9    1  0.7835476E-005  0.1121266E+03  0.7546771E-02  0.1259259E+00
         -2   -1    0    0    0  501 -0.00000000000E+00  0.00000000000E+00  0.17516021358E+04  0.17516021358E+04  0.00000000000E+00 0.  1.
         21   -1    0    0  501  502  0.00000000000E+00 -0.00000000000E+00 -0.46221716190E+02  0.46221716190E+02  0.00000000000E+00 0. -1.
        -24    2    1    2    0    0 -0.29042770202E+02  0.56769454132E+02  0.14718667615E+04  0.14756445131E+04  0.84075632970E+02 0.  0.
         23    2    1    2    0    0  0.50502256196E+02 -0.60982775942E+02  0.26071756330E+03  0.28727498280E+03  0.91015883714E+02 0.  0.
         11    1    3    3    0    0  0.96634041209E+01  0.24603016245E+02  0.12158069872E+03  0.12442088285E+03  0.00000000000E+00 0. -1.
        -12    1    3    3    0    0 -0.38706174323E+02  0.32166437887E+02  0.13502860628E+04  0.13512236302E+04  0.00000000000E+00 0.  1.
        -13    1    4    4    0    0  0.37683009796E+01 -0.58721355054E+02  0.21079615397E+03  0.21885478327E+03  0.00000000000E+00 0.  1.
         13    1    4    4    0    0  0.46733955216E+02 -0.22614208885E+01  0.49921409333E+02  0.68420199535E+02  0.00000000000E+00 0. -1.
         -1    1    1    2    0  502 -0.21459485994E+02  0.42133218105E+01 -0.27203905152E+02  0.34904356108E+02  0.00000000000E+00 0.  1.
<scales pt_clust_5="13000.00000" pt_clust_6="13000.00000" pt_clust_7="13000.00000" pt_clust_8="13000.00000" pt_clust_9="21.86919"></scales>
<clustering>
<clus scale="   21.869">  2  9  1 -1</clus>
<clus scale="   84.076">  5  6 -1 -1</clus>
<clus scale="   91.016">  7  8 -1 -1</clus>
<clus scale="  106.570">  1  5  2 -1</clus>
<clus scale="   21.869">  2  5  1 -1</clus>
</clustering>
</event>
<event>
 9    1  0.7835476E-005  0.1553111E+03  0.7546771E-02  0.1208381E+00
          1   -1    0    0  502    0 -0.00000000000E+00  0.00000000000E+00  0.76293048845E+03  0.76293048845E+03  0.00000000000E+00 0. -1.
         21   -1    0    0  501  502  0.00000000000E+00 -0.00000000000E+00 -0.64738138928E+02  0.64738138928E+02  0.00000000000E+00 0. -1.
        -24    2    1    2    0    0  0.37864342793E+02  0.65942025134E+02  0.16540173950E+03  0.20085542863E+03  0.84871129657E+02 0.  0.
         23    2    1    2    0    0  0.70273507756E+02 -0.12477281327E+03  0.14242859957E+03  0.21749992561E+03  0.80707439821E+02 0.  0.
         11    1    3    3    0    0  0.31690997007E+02 -0.77137077159E+01  0.87909639012E+02  0.93765266539E+02  0.00000000000E+00 0. -1.
        -12    1    3    3    0    0  0.61733457852E+01  0.73655732850E+02  0.77492100485E+02  0.10709016209E+03  0.00000000000E+00 0.  1.
        -13    1    4    4    0    0  0.18723751616E+02  0.84822243310E+01  0.26300928795E+02  0.33380621020E+02  0.00000000000E+00 0. -1.
         13    1    4    4    0    0  0.51549756140E+02 -0.13325503760E+03  0.11612767077E+03  0.18411930459E+03  0.00000000000E+00 0.  1.
          2    1    1    2  501    0 -0.10813785055E+03  0.58830788137E+02  0.39036201045E+03  0.40931327313E+03  0.00000000000E+00 0. -1.
<scales pt_clust_5="13000.00000" pt_clust_6="13000.00000" pt_clust_7="13000.00000" pt_clust_8="13000.00000" pt_clust_9="132.69466"></scales>
<clustering>
<clus scale="   80.707">  7  8 -1 -1</clus>
<clus scale="   84.871">  5  6 -1 -1</clus>
<clus scale="  113.953">  1  5  2 -1</clus>
<clus scale="  132.695">  2  9  1 -1</clus>
<clus scale="  132.695">  2  5  1 -1</clus>
</clustering>
</event>
<event>
 9    1  0.7835476E-005  0.1021621E+03  0.7546771E-02  0.1282366E+00
          1   -1    0    0  502    0 -0.00000000000E+00  0.00000000000E+00  0.37822990982E+03  0.37822990982E+03  0.00000000000E+00 0. -1.
         21   -1    0    0  501  502  0.00000000000E+00 -0.00000000000E+00 -0.36605510799E+02  0.36605510799E+02  0.00000000000E+00 0. -1.
        -24    2    1    2    0    0  0.49423456525E+02 -0.20016357664E+02  0.20483633615E+03  0.22522553865E+03  0.76975879501E+02 0.  0.
         23    2    1    2    0    0 -0.33493116298E+02  0.11785996187E+01  0.72882589155E+02  0.12110771821E+03  0.90730533298E+02 0.  0.
         13    1    3    3    0    0  0.67532261786E+02 -0.27941322497E+02  0.17223792097E+03  0.18710217878E+03  0.00000000000E+00 0. -1.
        -14    1    3    3    0    0 -0.18108805261E+02  0.79249648330E+01  0.32598415180E+02  0.38123359871E+02  0.00000000000E+00 0.  1.
        -11    1    4    4    0    0 -0.11530554812E+02  0.35203466243E+02  0.71570582023E+02  0.80588993919E+02  0.00000000000E+00 0.  1.
         11    1    4    4    0    0 -0.21962561486E+02 -0.34024866624E+02  0.13120071323E+01  0.40518724295E+02  0.00000000000E+00 0. -1.
          2    1    1    2  501    0 -0.15930340227E+02  0.18837758045E+02  0.63905473712E+02  0.68502163749E+02  0.00000000000E+00 0. -1.
<scales pt_clust_5="13000.00000" pt_clust_6="13000.00000" pt_clust_7="13000.00000" pt_clust_8="13000.00000" pt_clust_9="24.67058"></scales>
<clustering>
<clus scale="   24.671">  2  9  1 -1</clus>
<clus scale="   76.976">  5  6 -1 -1</clus>
<clus scale="   90.168">  1  5  2 -1</clus>
<clus scale="   90.731">  7  8 -1 -1</clus>
<clus scale="   24.671">  2  5  1 -1</clus>
</clustering>
</event>
<event>
 9    1  0.7835476E-005  0.9243776E+02  0.7546771E-02  0.1303863E+00
          1   -1    0    0  502    0 -0.00000000000E+00  0.00000000000E+00  0.15551140148E+03  0.15551140148E+03  0.00000000000E+00 0. -1.
         21   -1    0    0  501  502  0.00000000000E+00 -0.00000000000E+00 -0.10226679966E+03  0.10226679966E+03  0.00000000000E+00 0.  1.
         23    2    1    2    0    0  0.11771693514E+02  0.25589578716E+01  0.84781186594E+02  0.12517632049E+03  0.91302467535E+02 0.  0.
        -24    2    1    2    0    0 -0.13461031942E+02 -0.27736605684E+02 -0.51686554934E+02  0.10030963528E+03  0.80249637345E+02 0.  0.
         11    1    4    4    0    0  0.32377909608E+02 -0.31488020027E+01 -0.11238733335E+02  0.34417337369E+02  0.00000000000E+00 0. -1.
        -12    1    4    4    0    0 -0.45838941550E+02 -0.24587803681E+02 -0.40447821599E+02  0.65892297914E+02  0.00000000000E+00 0.  1.
        -11    1    3    3    0    0 -0.38319314319E+02  0.11558666161E+02  0.47352537620E+02  0.62001898618E+02  0.00000000000E+00 0.  1.
         11    1    3    3    0    0  0.50091007833E+02 -0.89997082893E+01  0.37428648974E+02  0.63174421873E+02  0.00000000000E+00 0. -1.
          2    1    1    2  501    0  0.16893384284E+01  0.25177647812E+02  0.20149970152E+02  0.32292245367E+02  0.00000000000E+00 0. -1.
<scales pt_clust_5="13000.00000" pt_clust_6="13000.00000" pt_clust_7="13000.00000" pt_clust_8="13000.00000" pt_clust_9="25.23427"></scales>
<clustering>
<clus scale="   25.234">  2  9  1 -1</clus>
<clus scale="   80.250">  5  6 -1 -1</clus>
<clus scale="   81.539">  2  5  1 -1</clus>
<clus scale="   91.302">  7  8 -1 -1</clus>
<clus scale="   25.234">  2  5  1 -1</clus>
</clustering>
</event>
<event>
 9    1  0.7835476E-005  0.1340577E+03  0.7546771E-02  0.1222553E+00
          1   -1    0    0  502    0 -0.00000000000E+00  0.00000000000E+00  0.79943328846E+03  0.79943328846E+03  0.00000000000E+00 0. -1.
         21   -1    0    0  501  502  0.00000000000E+00 -0.00000000000E+00 -0.29561765118E+02  0.29561765118E+02  0.00000000000E+00 0. -1.
        -24    2    1    2    0    0  0.38930336451E+02 -0.99019016052E+02  0.41262878247E+03  0.43367148711E+03  0.80548804930E+02 0.  0.
         23    2    1    2    0    0 -0.12637733310E+02  0.10031100409E+03  0.22857562298E+03  0.26399117351E+03  0.84985377711E+02 0.  0.
         11    1    3    3    0    0 -0.17301170333E+02 -0.63800251330E+02  0.17952575813E+03  0.19130943624E+03  0.00000000000E+00 0. -1.
        -12    1    3    3    0    0  0.56231506784E+02 -0.35218764722E+02  0.23310302434E+03  0.24236205087E+03  0.00000000000E+00 0.  1.
        -11    1    4    4    0    0 -0.41857576090E+02  0.92610346959E+02  0.16942694501E+03  0.19757080436E+03  0.00000000000E+00 0. -1.
         11    1    4    4    0    0  0.29219842780E+02  0.77006571361E+01  0.59148677976E+02  0.66420369155E+02  0.00000000000E+00 0.  1.
          2    1    1    2  501    0 -0.26292603142E+02 -0.12919880426E+01  0.12866711789E+03  0.13133239295E+03  0.00000000000E+00 0. -1.
<scales pt_clust_5="13000.00000" pt_clust_6="13000.00000" pt_clust_7="13000.00000" pt_clust_8="13000.00000" pt_clust_9="26.32434"></scales>
<clustering>
<clus scale="   26.324">  2  9  1 -1</clus>
<clus scale="   80.549">  5  6 -1 -1</clus>
<clus scale="   84.985">  7  8 -1 -1</clus>
<clus scale="  131.290">  1  5  2 -1</clus>
<clus scale="   26.324">  2  5  1 -1</clus>
</clustering>
</event>
<event>
 9    1  0.7835476E-005  0.9722939E+02  0.7546771E-02  0.1287129E+00
          1   -1    0    0  502    0 -0.00000000000E+00  0.00000000000E+00  0.50384322228E+03  0.50384322228E+03  0.00000000000E+00 0. -1.
         21   -1    0    0  501  502  0.00000000000E+00 -0.00000000000E+00 -0.38830420997E+02  0.38830420997E+02  0.00000000000E+00 0.  1.
        -24    2    1    2    0    0 -0.18897136063E+02 -0.12762793324E+02  0.35447803519E+03  0.36678179178E+03  0.91401393360E+02 0.  0.
         23    2    1    2    0    0  0.29996440312E+02  0.36752413900E+02  0.10641556984E+03  0.14913995011E+03  0.93101690935E+02 0.  0.
         11    1    3    3    0    0  0.17566805034E+02 -0.41828184171E+02  0.13547394138E+03  0.14286839547E+03  0.00000000000E+00 0. -1.
        -12    1    3    3    0    0 -0.36463941097E+02  0.29065390847E+02  0.21900409380E+03  0.22391339631E+03  0.00000000000E+00 0.  1.
        -11    1    4    4    0    0  0.62584943400E+02  0.13111128132E+02  0.70615234120E+02  0.95264306595E+02  0.00000000000E+00 0. -1.
         11    1    4    4    0    0 -0.32588503088E+02  0.23641285767E+02  0.35800335721E+02  0.53875643513E+02  0.00000000000E+00 0.  1.
          2    1    1    2  501    0 -0.11099304249E+02 -0.23989620576E+02  0.41191962595E+01  0.26751901390E+02  0.00000000000E+00 0. -1.
<scales pt_clust_5="13000.00000" pt_clust_6="13000.00000" pt_clust_7="13000.00000" pt_clust_8="13000.00000" pt_clust_9="26.43287"></scales>
<clustering>
<clus scale="   26.433">  2  9  1 -1</clus>
<clus scale="   91.401">  5  6 -1 -1</clus>
<clus scale="   93.102">  7  8 -1 -1</clus>
<clus scale="   95.603">  1  5  2 -1</clus>
<clus scale="   26.433">  2  5  1 -1</clus>
</clustering>
</event>
<event>
 9    1  0.7835476E-005  0.9501555E+02  0.7546771E-02  0.1297057E+00
          1   -1    0    0  502    0 -0.00000000000E+00  0.00000000000E+00  0.17556567749E+03  0.17556567749E+03  0.00000000000E+00 0. -1.
         21   -1    0    0  501  502  0.00000000000E+00 -0.00000000000E+00 -0.97387902568E+02  0.97387902568E+02  0.00000000000E+00 0.  1.
         23    2    1    2    0    0 -0.78369225556E+01  0.32064109477E+02  0.13124636810E+02  0.98190271931E+02  0.91539876222E+02 0.  0.
        -24    2    1    2    0    0 -0.44840563435E+02 -0.25735157801E+01  0.10502278043E+02  0.93397412439E+02  0.81212558719E+02 0.  0.
         11    1    4    4    0    0 -0.30880276562E+02 -0.16813962919E+02  0.42829831497E+02  0.55413854726E+02  0.00000000000E+00 0. -1.
        -12    1    4    4    0    0 -0.13960286872E+02  0.14240447139E+02 -0.32327553453E+02  0.37983557713E+02  0.00000000000E+00 0.  1.
        -11    1    3    3    0    0 -0.35096267887E+02  0.52245770929E+02  0.13024975921E+02  0.64273000532E+02  0.00000000000E+00 0.  1.
         11    1    3    3    0    0  0.27259345331E+02 -0.20181661452E+02  0.99660888905E-01  0.33917271399E+02  0.00000000000E+00 0. -1.
          2    1    1    2  501    0  0.52677485990E+02 -0.29490593697E+02  0.54550860067E+02  0.81365895686E+02  0.00000000000E+00 0. -1.
<scales pt_clust_5="13000.00000" pt_clust_6="13000.00000" pt_clust_7="13000.00000" pt_clust_8="13000.00000" pt_clust_9="60.37066"></scales>
<clustering>
<clus scale="   60.371">  2  9  1 -1</clus>
<clus scale="   81.213">  5  6 -1 -1</clus>
<clus scale="   85.111">  2  5  1 -1</clus>
<clus scale="   91.540">  7  8 -1 -1</clus>
<clus scale="   60.371">  2  5  1 -1</clus>
</clustering>
</event>
<event>
 9    1  0.7835476E-005  0.9637730E+02  0.7546771E-02  0.1296694E+00
         21   -1    0    0  501  502  0.00000000000E+00  0.00000000000E+00  0.41802114353E+02  0.41802114353E+02  0.00000000000E+00 0.  1.
          1   -1    0    0  502    0 -0.00000000000E+00 -0.00000000000E+00 -0.40689207218E+03  0.40689207218E+03  0.00000000000E+00 0. -1.
        -24    2    1    2    0    0 -0.21417321847E+02 -0.78034015298E+01 -0.25367661956E+03  0.26706902107E+03  0.80339529193E+02 0.  0.
         23    2    1    2    0    0  0.46090364049E+01 -0.55596149414E+01 -0.12433292833E+03  0.15656514799E+03  0.94877900279E+02 0.  0.
         11    1    3    3    0    0 -0.22836250458E+02  0.29703138304E+02 -0.18547709422E+03  0.18922347434E+03  0.00000000000E+00 0. -1.
        -12    1    3    3    0    0  0.14189286116E+01 -0.37506539834E+02 -0.68199525340E+02  0.77845546727E+02  0.00000000000E+00 0.  1.
        -11    1    4    4    0    0 -0.17741097538E+02 -0.20193065222E+02 -0.12691120632E+03  0.12972648424E+03  0.00000000000E+00 0. -1.
         11    1    4    4    0    0  0.22350133943E+02  0.14633450281E+02  0.25782779808E+01  0.26838663748E+02  0.00000000000E+00 0.  1.
          2    1    1    2  501    0  0.16808285442E+02  0.13363016471E+02  0.12919590066E+02  0.25060017482E+02  0.00000000000E+00 0. -1.
<scales pt_clust_5="13000.00000" pt_clust_6="13000.00000" pt_clust_7="13000.00000" pt_clust_8="13000.00000" pt_clust_9="21.47298"></scales>
<clustering>
<clus scale="   21.473">  1  9  2 -1</clus>
<clus scale="   80.340">  5  6 -1 -1</clus>
<clus scale="   82.105">  2  5  1 -1</clus>
<clus scale="   94.878">  7  8 -1 -1</clus>
<clus scale="   21.473">  1  5  2 -1</clus>
</clustering>
</event>
<event>
 9    1  0.7835476E-005  0.1570949E+03  0.7546771E-02  0.1216450E+00
         21   -1    0    0  501  502  0.00000000000E+00  0.00000000000E+00  0.55125304319E+02  0.55125304319E+02  0.00000000000E+00 0.  1.
          1   -1    0    0  502    0 -0.00000000000E+00 -0.00000000000E+00 -0.68139022905E+03  0.68139022905E+03  0.00000000000E+00 0. -1.
        -24    2    1    2    0    0  0.26463408336E+02 -0.66790423480E+01 -0.95870230577E+02  0.13339393555E+03  0.88644905909E+02 0.  0.
         23    2    1    2    0    0  0.90401065858E+02 -0.70900745361E+02 -0.27022157383E+03  0.30754422837E+03  0.91457558682E+02 0.  0.
         13    1    3    3    0    0  0.26249329753E+02  0.15038446808E+02 -0.10541543741E+03  0.10967040001E+03  0.00000000000E+00 0. -1.
        -14    1    3    3    0    0  0.21407858330E+00 -0.21717489156E+02  0.95452068333E+01  0.23723535537E+02  0.00000000000E+00 0.  1.
        -11    1    4    4    0    0  0.11072281203E+02  0.18027003489E+02 -0.82680416551E+02  0.85344124267E+02  0.00000000000E+00 0. -1.
         11    1    4    4    0    0  0.79328784655E+02 -0.88927748850E+02 -0.18754115728E+03  0.22220010411E+03  0.00000000000E+00 0.  1.
          2    1    1    2  501    0 -0.11686447419E+03  0.77579787709E+02 -0.26017312032E+03  0.29557736944E+03  0.00000000000E+00 0. -1.
<scales pt_clust_5="13000.00000" pt_clust_6="13000.00000" pt_clust_7="13000.00000" pt_clust_8="13000.00000" pt_clust_9="127.72764"></scales>
<clustering>
<clus scale="   88.645">  5  6 -1 -1</clus>
<clus scale="   91.458">  7  8 -1 -1</clus>
<clus scale="   92.752">  2  5  1 -1</clus>
<clus scale="  127.728">  1  9  2 -1</clus>
<clus scale="  127.728">  1  5  2 -1</clus>
</clustering>
</event>
<event>
 9    1  0.7835476E-005  0.1237162E+03  0.7546771E-02  0.1246087E+00
         -4   -1    0    0    0  501 -0.00000000000E+00  0.00000000000E+00  0.10325495548E+04  0.10325495548E+04  0.00000000000E+00 0.  1.
         21   -1    0    0  501  502  0.00000000000E+00 -0.00000000000E+00 -0.26212760854E+03  0.26212760854E+03  0.00000000000E+00 0.  1.
        -24    2    1    2    0    0 -0.99629028239E+01  0.67042941284E+02  0.78198670097E+03  0.78897307282E+03  0.79883000322E+02 0.  0.
         23    2    1    2    0    0 -0.20159832305E+02 -0.56530574525E+02  0.23112997360E+03  0.26092128839E+03  0.10515098357E+03 0.  0.
         11    1    3    3    0    0  0.10699548143E+02  0.42759979069E+02  0.15417338174E+03  0.16035064009E+03  0.00000000000E+00 0. -1.
        -12    1    3    3    0    0 -0.20662450967E+02  0.24282962214E+02  0.62781331923E+03  0.62862243273E+03  0.00000000000E+00 0.  1.
        -11    1    4    4    0    0 -0.48971235812E+02  0.74615130095E+00  0.14828769389E+03  0.15616650998E+03  0.00000000000E+00 0.  1.
         11    1    4    4    0    0  0.28811403507E+02 -0.57276725826E+02  0.82842279708E+02  0.10475477841E+03  0.00000000000E+00 0. -1.
         -3    1    1    2    0  502  0.30122735129E+02 -0.10512366759E+02 -0.24269472835E+03  0.24478280209E+03  0.00000000000E+00 0.  1.
<scales pt_clust_5="13000.00000" pt_clust_6="13000.00000" pt_clust_7="13000.00000" pt_clust_8="13000.00000" pt_clust_9="31.90437"></scales>
<clustering>
<clus scale="   31.904">  2  9  1 -1</clus>
<clus scale="   79.883">  5  6 -1 -1</clus>
<clus scale="  103.103">  1  5  2 -1</clus>
<clus scale="  105.151">  7  8 -1 -1</clus>
<clus scale="   31.904">  2  5  1 -1</clus>
</clustering>
</event>
<event>
 9    1  0.7835476E-005  0.1061438E+03  0.7546771E-02  0.1269221E+00
          1   -1    0    0  502    0 -0.00000000000E+00  0.00000000000E+00  0.11863996966E+04  0.11863996966E+04  0.00000000000E+00 0. -1.
         21   -1    0    0  501  502  0.00000000000E+00 -0.00000000000E+00 -0.15149521793E+02  0.15149521793E+02  0.00000000000E+00 0.  1.
         23    2    1    2    0    0  0.39109610419E+02 -0.62138924221E+02  0.65763959306E+03  0.66781487255E+03  0.89978120129E+02 0.  0.
        -24    2    1    2    0    0 -0.90537704079E+01  0.28295077218E+02  0.25044258852E+03  0.26670222763E+03  0.86752555737E+02 0.  0.
         13    1    4    4    0    0 -0.28667461365E+02  0.34786857473E+02  0.23873928430E+03  0.24295759848E+03  0.00000000000E+00 0. -1.
        -14    1    4    4    0    0  0.19613690957E+02 -0.64917802557E+01  0.11703304226E+02  0.23744629154E+02  0.00000000000E+00 0.  1.
        -13    1    3    3    0    0  0.60713789778E+01 -0.78854914921E+02  0.44236256223E+03  0.44937689717E+03  0.00000000000E+00 0. -1.
         13    1    3    3    0    0  0.33038231441E+02  0.16715990700E+02  0.21527703083E+03  0.21843797537E+03  0.00000000000E+00 0.  1.
          2    1    1    2  501    0 -0.30055840011E+02  0.33843847003E+02  0.26316799321E+03  0.26703211819E+03  0.00000000000E+00 0. -1.
<scales pt_clust_5="13000.00000" pt_clust_6="13000.00000" pt_clust_7="13000.00000" pt_clust_8="13000.00000" pt_clust_9="45.26325"></scales>
<clustering>
<clus scale="   45.263">  2  9  1 -1</clus>
<clus scale="   86.753">  5  6 -1 -1</clus>
<clus scale="   89.978">  7  8 -1 -1</clus>
<clus scale="  103.424">  2  5  1 -1</clus>
<clus scale="   45.263">  2  5  1 -1</clus>
</clustering>
</event>
<event>
 9    1  0.7835476E-005  0.2189284E+03  0.7546771E-02  0.1135528E+00
          1   -1    0    0  502    0 -0.00000000000E+00  0.00000000000E+00  0.13312834857E+03  0.13312834857E+03  0.00000000000E+00 0. -1.
         21   -1    0    0  501  502  0.00000000000E+00 -0.00000000000E+00 -0.70264943370E+03  0.70264943370E+03  0.00000000000E+00 0. -1.
        -24    2    1    2    0    0  0.15804387320E+03 -0.20585709044E+03 -0.11804188562E+03  0.29602006564E+03  0.79617742749E+02 0.  0.
         23    2    1    2    0    0 -0.70208176732E+02  0.90053238238E+02 -0.27311764475E+03  0.30967406668E+03  0.90917577523E+02 0.  0.
         13    1    3    3    0    0  0.76912979088E+02 -0.53193568241E+02 -0.14864353353E+02  0.94689550928E+02  0.00000000000E+00 0. -1.
        -14    1    3    3    0    0  0.81130894111E+02 -0.15266352219E+03 -0.10317753226E+03  0.20133051471E+03  0.00000000000E+00 0.  1.
        -11    1    4    4    0    0  0.65984415414E+01  0.63308785787E+02 -0.10234897028E+03  0.12052739733E+03  0.00000000000E+00 0. -1.
         11    1    4    4    0    0 -0.76806618273E+02  0.26744452451E+02 -0.17076867447E+03  0.18914666935E+03  0.00000000000E+00 0.  1.
          2    1    1    2  501    0 -0.87835696467E+02  0.11580385220E+03 -0.17836155477E+03  0.23008364996E+03  0.00000000000E+00 0. -1.
<scales pt_clust_5="13000.00000" pt_clust_6="13000.00000" pt_clust_7="13000.00000" pt_clust_8="13000.00000" pt_clust_9="145.34663"></scales>
<clustering>
<clus scale="   79.618">  5  6 -1 -1</clus>
<clus scale="   90.918">  7  8 -1 -1</clus>
<clus scale="  145.347">  2  9  1 -1</clus>
<clus scale="  214.482">  1  5  2 -1</clus>
<clus scale="  145.347">  2  5  1 -1</clus>
</clustering>
</event>
<event>
 9    1  0.7835476E-005  0.9188628E+02  0.7546771E-02  0.1304242E+00
         -4   -1    0    0    0  501 -0.00000000000E+00  0.00000000000E+00  0.23257143158E+03  0.23257143158E+03  0.00000000000E+00 0.  1.
         21   -1    0    0  501  502  0.00000000000E+00 -0.00000000000E+00 -0.11907637887E+03  0.11907637887E+03  0.00000000000E+00 0.  1.
        -24    2    1    2    0    0  0.12317941936E+02 -0.84749071642E+01  0.17324060191E+03  0.19174681627E+03  0.80814476769E+02 0.  0.
         23    2    1    2    0    0 -0.42277140203E+02 -0.15066607209E+02 -0.66932326071E+02  0.12112721153E+03  0.90429562992E+02 0.  0.
         13    1    3    3    0    0  0.40590590769E+02 -0.26621785927E+02  0.10560790024E+03  0.11622970420E+03  0.00000000000E+00 0. -1.
        -14    1    3    3    0    0 -0.28272648832E+02  0.18146878763E+02  0.67632701664E+02  0.75517112069E+02  0.00000000000E+00 0.  1.
        -11    1    4    4    0    0 -0.70369259322E+02 -0.11209601549E+02 -0.38587189437E+02  0.81033690605E+02  0.00000000000E+00 0.  1.
         11    1    4    4    0    0  0.28092119119E+02 -0.38570056602E+01 -0.28345136634E+02  0.40093520923E+02  0.00000000000E+00 0. -1.
         -3    1    1    2    0  502  0.29959198267E+02  0.23541514373E+02  0.71867768759E+01  0.38773782659E+02  0.00000000000E+00 0.  1.
<scales pt_clust_5="13000.00000" pt_clust_6="13000.00000" pt_clust_7="13000.00000" pt_clust_8="13000.00000" pt_clust_9="38.10192"></scales>
<clustering>
<clus scale="   38.102">  2  9  1 -1</clus>
<clus scale="   80.814">  5  6 -1 -1</clus>
<clus scale="   82.441">  1  5  2 -1</clus>
<clus scale="   90.430">  7  8 -1 -1</clus>
<clus scale="   38.102">  2  5  1 -1</clus>
</clustering>
</event>
<event>
 9    1  0.7835476E-005  0.9239460E+02  0.7546771E-02  0.1304040E+00
          3   -1    0    0  502    0 -0.00000000000E+00  0.00000000000E+00  0.57930705053E+02  0.57930705053E+02  0.00000000000E+00 0. -1.
         21   -1    0    0  501  502  0.00000000000E+00 -0.00000000000E+00 -0.19153842039E+03  0.19153842039E+03  0.00000000000E+00 0.  1.
         23    2    1    2    0    0  0.52670825916E+01 -0.15480709927E+02 -0.18219905894E+02  0.94617838917E+02  0.91395710685E+02 0.  0.
        -24    2    1    2    0    0 -0.17660769568E+02 -0.15514801816E+01 -0.92958434354E+02  0.12408156369E+03  0.80253685628E+02 0.  0.
         13    1    4    4    0    0  0.24250283775E+02 -0.22637682899E+02 -0.25175057365E+02  0.41645221377E+02  0.00000000000E+00 0. -1.
        -14    1    4    4    0    0 -0.41911053343E+02  0.21086202718E+02 -0.67783376989E+02  0.82436342310E+02  0.00000000000E+00 0.  1.
        -11    1    3    3    0    0  0.39128258864E+02 -0.36070279704E+02 -0.10407456703E+02  0.54225463343E+02  0.00000000000E+00 0. -1.
         11    1    3    3    0    0 -0.33861176273E+02  0.20589569777E+02 -0.78124491906E+01  0.40392375574E+02  0.00000000000E+00 0.  1.
          4    1    1    2  501    0  0.12393686976E+02  0.17032190109E+02 -0.22429375091E+02  0.30769722842E+02  0.00000000000E+00 0. -1.
<scales pt_clust_5="13000.00000" pt_clust_6="13000.00000" pt_clust_7="13000.00000" pt_clust_8="13000.00000" pt_clust_9="21.06416"></scales>
<clustering>
<clus scale="   21.064">  2  9  1 -1</clus>
<clus scale="   80.254">  5  6 -1 -1</clus>
<clus scale="   81.389">  2  5  1 -1</clus>
<clus scale="   91.396">  7  8 -1 -1</clus>
<clus scale="   21.064">  2  5  1 -1</clus>
</clustering>
</event>
<event>
 9    1  0.7835476E-005  0.1018827E+03  0.7546771E-02  0.1284134E+00
         21   -1    0    0  501  502  0.00000000000E+00  0.00000000000E+00  0.47354081225E+03  0.47354081225E+03  0.00000000000E+00 0. -1.
          1   -1    0    0  502    0 -0.00000000000E+00 -0.00000000000E+00 -0.30315724265E+03  0.30315724265E+03  0.00000000000E+00 0. -1.
        -24    2    1    2    0    0  0.44584371664E+02  0.10714637890E+02 -0.21686145393E+03  0.23562902951E+03  0.79934846485E+02 0.  0.
         23    2    1    2    0    0  0.32572321013E+02 -0.57019500331E+02 -0.25750233353E+02  0.11838429924E+03  0.95076749388E+02 0.  0.
         11    1    3    3    0    0  0.44982545794E+02  0.20455158862E+02 -0.21992669207E+03  0.22540983305E+03  0.00000000000E+00 0. -1.
        -12    1    3    3    0    0 -0.39817412994E+00 -0.97405209721E+01  0.30652381359E+01  0.10219196459E+02  0.00000000000E+00 0.  1.
        -11    1    4    4    0    0  0.96430002425E+01 -0.81007281039E+02 -0.24492706438E+02  0.85176638251E+02  0.00000000000E+00 0.  1.
         11    1    4    4    0    0  0.22929320771E+02  0.23987780708E+02 -0.12575269148E+01  0.33207660988E+02  0.00000000000E+00 0. -1.
          2    1    1    2  501    0 -0.77156692677E+02  0.46304862441E+02  0.41299525689E+03  0.42268472615E+03  0.00000000000E+00 0. -1.
<scales pt_clust_5="13000.00000" pt_clust_6="13000.00000" pt_clust_7="13000.00000" pt_clust_8="13000.00000" pt_clust_9="89.98497"></scales>
<clustering>
<clus scale="   79.935">  5  6 -1 -1</clus>
<clus scale="   89.985">  1  9  2 -1</clus>
<clus scale="   87.921">  2  5  1 -1</clus>
<clus scale="   95.077">  7  8 -1 -1</clus>
<clus scale="   89.985">  1  5  2 -1</clus>
</clustering>
</event>
<event>
 9    1  0.7835476E-005  0.2022188E+03  0.7546771E-02  0.1148572E+00
         21   -1    0    0  501  502  0.00000000000E+00  0.00000000000E+00  0.13872630760E+03  0.13872630760E+03  0.00000000000E+00 0. -1.
          1   -1    0    0  502    0 -0.00000000000E+00 -0.00000000000E+00 -0.74227583740E+03  0.74227583740E+03  0.00000000000E+00 0. -1.
        -24    2    1    2    0    0 -0.19656821030E+03  0.41775489292E+01 -0.55529102422E+03  0.59467973579E+03  0.81482227296E+02 0.  0.
         23    2    1    2    0    0  0.12282793115E+03 -0.83369620024E+02 -0.40258891472E+02  0.17781892208E+03  0.89227778710E+02 0.  0.
         13    1    3    3    0    0 -0.19636551228E+03  0.94741866544E+00 -0.55729093906E+03  0.59087520068E+03  0.00000000000E+00 0. -1.
        -14    1    3    3    0    0 -0.20269801597E+00  0.32301302638E+01  0.19999148452E+01  0.38045351088E+01  0.00000000000E+00 0.  1.
        -11    1    4    4    0    0 -0.49343657845E+00 -0.43346680514E+02 -0.64190552660E+01  0.43822168611E+02  0.00000000000E+00 0.  1.
         11    1    4    4    0    0  0.12332136773E+03 -0.40022939509E+02 -0.33839836206E+02  0.13399675347E+03  0.00000000000E+00 0. -1.
          2    1    1    2  501    0  0.73740279144E+02  0.79192071094E+02 -0.79996141144E+01  0.10850348713E+03  0.00000000000E+00 0. -1.
<scales pt_clust_5="13000.00000" pt_clust_6="13000.00000" pt_clust_7="13000.00000" pt_clust_8="13000.00000" pt_clust_9="108.20819"></scales>
<clustering>
<clus scale="   81.482">  5  6 -1 -1</clus>
<clus scale="   89.228">  7  8 -1 -1</clus>
<clus scale="  108.208">  1  9  2 -1</clus>
<clus scale="  198.923">  2  5  1 -1</clus>
<clus scale="  108.208">  1  5  2 -1</clus>
</clustering>
</event>
<event>
 9    1  0.7835476E-005  0.1220268E+03  0.7546771E-02  0.1243195E+00
         21   -1    0    0  501  502  0.00000000000E+00  0.00000000000E+00  0.84395823871E+02  0.84395823871E+02  0.00000000000E+00 0. -1.
          1   -1    0    0  502    0 -0.00000000000E+00 -0.00000000000E+00 -0.61132028580E+03  0.61132028580E+03  0.00000000000E+00 0. -1.
        -24    2    1    2    0    0 -0.48121368165E+01 -0.93304301193E+02 -0.48323330304E+03  0.49854807776E+03  0.79416065011E+02 0.  0.
         23    2    1    2    0    0 -0.40337196692E+02  0.14308606011E+02 -0.12908455598E+02  0.10111410438E+03  0.90695138985E+02 0.  0.
         13    1    3    3    0    0 -0.27323753717E+02 -0.81808293208E+02 -0.44078035371E+03  0.44913973835E+03  0.00000000000E+00 0. -1.
        -14    1    3    3    0    0  0.22511616900E+02 -0.11496007985E+02 -0.42452949335E+02  0.49408339401E+02  0.00000000000E+00 0.  1.
        -11    1    4    4    0    0  0.10052427751E+02  0.41724852981E+02 -0.51459176066E+01  0.43226093138E+02  0.00000000000E+00 0.  1.
         11    1    4    4    0    0 -0.50389624443E+02 -0.27416246969E+02 -0.77625379910E+01  0.57888011241E+02  0.00000000000E+00 0. -1.
          2    1    1    2  501    0  0.45149333508E+02  0.78995695181E+02 -0.30782703289E+02  0.96053927537E+02  0.00000000000E+00 0. -1.
<scales pt_clust_5="13000.00000" pt_clust_6="13000.00000" pt_clust_7="13000.00000" pt_clust_8="13000.00000" pt_clust_9="90.98781"></scales>
<clustering>
<clus scale="   79.416">  5  6 -1 -1</clus>
<clus scale="   90.695">  7  8 -1 -1</clus>
<clus scale="   90.988">  1  9  2 -1</clus>
<clus scale="  113.894">  2  5  1 -1</clus>
<clus scale="   90.988">  1  5  2 -1</clus>
</clustering>
</event>
<event>
 9    1  0.7835476E-005  0.1470721E+03  0.7546771E-02  0.1206664E+00
          3   -1    0    0  502    0 -0.00000000000E+00  0.00000000000E+00  0.13772550271E+03  0.13772550271E+03  0.00000000000E+00 0. -1.
         21   -1    0    0  501  502  0.00000000000E+00 -0.00000000000E+00 -0.30917443507E+03  0.30917443507E+03  0.00000000000E+00 0. -1.
         23    2    1    2    0    0 -0.93707118474E+02  0.69960374250E+02  0.63599552338E+02  0.16205308738E+03  0.92416568079E+02 0.  0.
        -24    2    1    2    0    0  0.97057856405E+02 -0.43034179284E+02 -0.18066706546E+03  0.22407196926E+03  0.79344128869E+02 0.  0.
         11    1    4    4    0    0  0.31186059566E+02  0.22569155827E+02 -0.40499812667E+02  0.55876398704E+02  0.00000000000E+00 0. -1.
        -12    1    4    4    0    0  0.65871796839E+02 -0.65603335112E+02 -0.14016725280E+03  0.16819557055E+03  0.00000000000E+00 0.  1.
        -13    1    3    3    0    0 -0.68829450020E+02  0.92327709034E+02  0.43997182805E+02  0.12327875381E+03  0.00000000000E+00 0. -1.
         13    1    3    3    0    0 -0.24877668453E+02 -0.22367334784E+02  0.19602369533E+02  0.38774333577E+02  0.00000000000E+00 0.  1.
          4    1    1    2  501    0 -0.33507379316E+01 -0.26926194965E+02 -0.54381419234E+02  0.60774881143E+02  0.00000000000E+00 0. -1.
<scales pt_clust_5="13000.00000" pt_clust_6="13000.00000" pt_clust_7="13000.00000" pt_clust_8="13000.00000" pt_clust_9="27.13388"></scales>
<clustering>
<clus scale="   27.134">  2  9  1 -1</clus>
<clus scale="   79.344">  5  6 -1 -1</clus>
<clus scale="   92.417">  7  8 -1 -1</clus>
<clus scale="  139.230">  2  5  1 -1</clus>
<clus scale="   27.134">  2  5  1 -1</clus>
</clustering>
</event>
<event>
 9    1  0.7835476E-005  0.3095618E+03  0.7546771E-02  0.1080975E+00
         21   -1    0    0  501  502  0.00000000000E+00  0.00000000000E+00  0.71389011957E+02  0.71389011957E+02  0.00000000000E+00 0.  1.
          1   -1    0    0  502    0 -0.00000000000E+00 -0.00000000000E+00 -0.16646705367E+04  0.16646705367E+04  0.00000000000E+00 0. -1.
        -24    2    1    2    0    0 -0.13917206540E+03 -0.28190142649E+03 -0.96748998982E+03  0.10203976408E+04  0.79606449535E+02 0.  0.
         23    2    1    2    0    0  0.14213646462E+03  0.22664865638E+03 -0.45170125150E+03  0.53298984368E+03  0.92042190529E+02 0.  0.
         13    1    3    3    0    0 -0.12886681347E+03 -0.22942734130E+03 -0.87332387189E+03  0.91210643335E+03  0.00000000000E+00 0. -1.
        -14    1    3    3    0    0 -0.10305251936E+02 -0.52474085199E+02 -0.94166117929E+02  0.10829120740E+03  0.00000000000E+00 0.  1.
        -13    1    4    4    0    0  0.12538031114E+03  0.17734548791E+03 -0.41772214691E+03  0.47081146601E+03  0.00000000000E+00 0.  1.
         13    1    4    4    0    0  0.16756153489E+02  0.49303168468E+02 -0.33979104592E+02  0.62178377669E+02  0.00000000000E+00 0. -1.
          2    1    1    2  501    0 -0.29643992219E+01  0.55252770117E+02 -0.17409028344E+03  0.18267206425E+03  0.00000000000E+00 0. -1.
<scales pt_clust_5="13000.00000" pt_clust_6="13000.00000" pt_clust_7="13000.00000" pt_clust_8="13000.00000" pt_clust_9="55.33226"></scales>
<clustering>
<clus scale="   55.332">  1  9  2 -1</clus>
<clus scale="   79.606">  5  6 -1 -1</clus>
<clus scale="   92.042">  7  8 -1 -1</clus>
<clus scale="  306.095">  2  5  1 -1</clus>
<clus scale="   55.332">  1  5  2 -1</clus>
</clustering>
</event>
<event>
 9    1  0.7835476E-005  0.1863672E+03  0.7546771E-02  0.1176611E+00
         21   -1    0    0  501  502  0.00000000000E+00  0.00000000000E+00  0.18320265348E+03  0.18320265348E+03  0.00000000000E+00 0. -1.
          1   -1    0    0  502    0 -0.00000000000E+00 -0.00000000000E+00 -0.42894871458E+03  0.42894871458E+03  0.00000000000E+00 0. -1.
        -24    2    1    2    0    0  0.81861980851E+02 -0.64738444715E+02 -0.63778226349E+02  0.14721749816E+03  0.81932163870E+02 0.  0.
         23    2    1    2    0    0 -0.13841125637E+02 -0.14562929065E+03  0.87997919084E+01  0.17291724672E+03  0.91779468414E+02 0.  0.
         11    1    3    3    0    0  0.35387224622E+02 -0.39021636937E+02 -0.76231473876E+02  0.92661650239E+02  0.00000000000E+00 0. -1.
        -12    1    3    3    0    0  0.46474756228E+02 -0.25716807779E+02  0.12453247527E+02  0.54555847925E+02  0.00000000000E+00 0.  1.
        -13    1    4    4    0    0  0.85343638033E+01 -0.12205349556E+03  0.39134151010E+02  0.12845766976E+03  0.00000000000E+00 0. -1.
         13    1    4    4    0    0 -0.22375489440E+02 -0.23575795088E+02 -0.30334359102E+02  0.44459576964E+02  0.00000000000E+00 0.  1.
          2    1    1    2  501    0 -0.68020855214E+02  0.21036773537E+03 -0.19076762665E+03  0.29201662317E+03  0.00000000000E+00 0. -1.
<scales pt_clust_5="13000.00000" pt_clust_6="13000.00000" pt_clust_7="13000.00000" pt_clust_8="13000.00000" pt_clust_9="162.20135"></scales>
<clustering>
<clus scale="   81.932">  5  6 -1 -1</clus>
<clus scale="   91.779">  7  8 -1 -1</clus>
<clus scale="  132.685">  2  5  1 -1</clus>
<clus scale="  162.201">  1  9  2 -1</clus>
<clus scale="  162.201">  1  5  2 -1</clus>
</clustering>
</event>
<event>
 9    1  0.7835476E-005  0.1050913E+03  0.7546771E-02  0.1275521E+00
         21   -1    0    0  501  502  0.00000000000E+00  0.00000000000E+00  0.12026356606E+03  0.12026356606E+03  0.00000000000E+00 0. -1.
          1   -1    0    0  502    0 -0.00000000000E+00 -0.00000000000E+00 -0.39092044457E+03  0.39092044457E+03  0.00000000000E+00 0. -1.
         23    2    1    2    0    0 -0.34062880773E+02 -0.36512328485E+02 -0.33258015735E+03  0.34861230987E+03  0.91801696896E+02 0.  0.
        -24    2    1    2    0    0  0.70863412620E+02  0.17317077054E+02  0.35920843709E+02  0.11359350711E+03  0.79320069585E+02 0.  0.
         11    1    4    4    0    0  0.67324653144E+02 -0.17196299053E+02  0.37314173046E+02  0.78871218655E+02  0.00000000000E+00 0. -1.
        -12    1    4    4    0    0  0.35387594762E+01  0.34513376107E+02 -0.13933293366E+01  0.34722288455E+02  0.00000000000E+00 0.  1.
        -13    1    3    3    0    0 -0.32856086398E+02  0.25842846649E+02 -0.11999725520E+03  0.12706973043E+03  0.00000000000E+00 0.  1.
         13    1    3    3    0    0 -0.12067943748E+01 -0.62355175133E+02 -0.21258290214E+03  0.22154257944E+03  0.00000000000E+00 0. -1.
          2    1    1    2  501    0 -0.36800531847E+02  0.19195251431E+02  0.26002435124E+02  0.48978193659E+02  0.00000000000E+00 0. -1.
<scales pt_clust_5="13000.00000" pt_clust_6="13000.00000" pt_clust_7="13000.00000" pt_clust_8="13000.00000" pt_clust_9="41.50586"></scales>
<clustering>
<clus scale="   41.506">  1  9  2 -1</clus>
<clus scale="   79.320">  5  6 -1 -1</clus>
<clus scale="   91.802">  7  8 -1 -1</clus>
<clus scale="   94.384">  1  5  2 -1</clus>
<clus scale="   41.506">  1  5  2 -1</clus>
</clustering>
</event>
<event>
 9    1  0.7835476E-005  0.1070584E+03  0.7546771E-02  0.1270385E+00
          1   -1    0    0  502    0 -0.00000000000E+00  0.00000000000E+00  0.52172301994E+03  0.52172301994E+03  0.00000000000E+00 0. -1.
         21   -1    0    0  501  502  0.00000000000E+00 -0.00000000000E+00 -0.14750863563E+03  0.14750863563E+03  0.00000000000E+00 0. -1.
         23    2    1    2    0    0 -0.65827884160E+02  0.20352898023E+02  0.46209294866E+03  0.47572396769E+03  0.89642899600E+02 0.  0.
        -24    2    1    2    0    0 -0.27457729435E+01  0.13318378029E+02 -0.47200653044E+01  0.80585425928E+02  0.79289428004E+02 0.  0.
         11    1    4    4    0    0 -0.32171495012E+02 -0.17043177350E+02 -0.10548487885E+02  0.37904426947E+02  0.00000000000E+00 0. -1.
        -12    1    4    4    0    0  0.29425722068E+02  0.30361555379E+02  0.58284225808E+01  0.42680998982E+02  0.00000000000E+00 0.  1.
        -13    1    3    3    0    0 -0.28102554953E+02  0.49689316765E+02  0.33724052140E+03  0.34203793805E+03  0.00000000000E+00 0. -1.
         13    1    3    3    0    0 -0.37725329207E+02 -0.29336418742E+02  0.12485242726E+03  0.13368602964E+03  0.00000000000E+00 0.  1.
          2    1    1    2  501    0  0.68573657104E+02 -0.33671276052E+02 -0.83158499040E+02  0.11292226194E+03  0.00000000000E+00 0. -1.
<scales pt_clust_5="13000.00000" pt_clust_6="13000.00000" pt_clust_7="13000.00000" pt_clust_8="13000.00000" pt_clust_9="76.39438"></scales>
<clustering>
<clus scale="   76.394">  2  9  1 -1</clus>
<clus scale="   79.289">  5  6 -1 -1</clus>
<clus scale="   89.643">  7  8 -1 -1</clus>
<clus scale="   98.552">  2  5  1 -1</clus>
<clus scale="   76.394">  2  5  1 -1</clus>
</clustering>
</event>
<event>
 9    1  0.7835476E-005  0.1681205E+03  0.7546771E-02  0.1181310E+00
          1   -1    0    0  502    0 -0.00000000000E+00  0.00000000000E+00  0.14683514700E+03  0.14683514700E+03  0.00000000000E+00 0. -1.
         21   -1    0    0  501  502  0.00000000000E+00 -0.00000000000E+00 -0.60714865352E+03  0.60714865352E+03  0.00000000000E+00 0.  1.
        -24    2    1    2    0    0  0.90892528654E+02 -0.11769166245E+03 -0.37857306890E+02  0.17331754431E+03  0.80579254806E+02 0.  0.
         23    2    1    2    0    0 -0.12195590145E+03  0.37431717143E+02 -0.46057330706E+03  0.48654130826E+03  0.91215668163E+02 0.  0.
         13    1    3    3    0    0  0.24137101164E+02 -0.19323895417E+02 -0.44573612347E+02  0.54247760362E+02  0.00000000000E+00 0. -1.
        -14    1    3    3    0    0  0.66755427490E+02 -0.98367767029E+02  0.67163054564E+01  0.11906978394E+03  0.00000000000E+00 0.  1.
        -13    1    4    4    0    0 -0.31151649804E+02  0.55950021627E+02 -0.19746142195E+03  0.20758574942E+03  0.00000000000E+00 0. -1.
         13    1    4    4    0    0 -0.90804251647E+02 -0.18518304484E+02 -0.26311188511E+03  0.27895555883E+03  0.00000000000E+00 0.  1.
          2    1    1    2  501    0  0.31063372797E+02  0.80259945303E+02  0.38117107427E+02  0.94124947958E+02  0.00000000000E+00 0. -1.
<scales pt_clust_5="13000.00000" pt_clust_6="13000.00000" pt_clust_7="13000.00000" pt_clust_8="13000.00000" pt_clust_9="86.06160"></scales>
<clustering>
<clus scale="   80.579">  5  6 -1 -1</clus>
<clus scale="   86.062">  2  9  1 -1</clus>
<clus scale="   91.216">  7  8 -1 -1</clus>
<clus scale="  162.595">  1  5  2 -1</clus>
<clus scale="   86.062">  2  5  1 -1</clus>
</clustering>
</event>
<event>
 9    1  0.7835476E-005  0.1420747E+03  0.7546771E-02  0.1212708E+00
         21   -1    0    0  501  502  0.00000000000E+00  0.00000000000E+00  0.36624349939E+02  0.36624349939E+02  0.00000000000E+00 0.  1.
          1   -1    0    0  502    0 -0.00000000000E+00 -0.00000000000E+00 -0.10782372086E+04  0.10782372086E+04  0.00000000000E+00 0. -1.
        -24    2    1    2    0    0  0.90956939552E+02  0.70415386079E+02 -0.66987331715E+03  0.68454667262E+03  0.81500886615E+02 0.  0.
         23    2    1    2    0    0 -0.78764422373E+02 -0.34576993214E+02 -0.11366607895E+03  0.16947976566E+03  0.91673391856E+02 0.  0.
         11    1    3    3    0    0  0.63806027660E+02  0.61270521342E+01 -0.21502223628E+03  0.22437315354E+03  0.00000000000E+00 0. -1.
        -12    1    3    3    0    0  0.27150911892E+02  0.64288333945E+02 -0.45485108087E+03  0.46017351908E+03  0.00000000000E+00 0.  1.
        -13    1    4    4    0    0 -0.36505733328E+02  0.76811035139E+00 -0.10810890841E+03  0.11410869659E+03  0.00000000000E+00 0. -1.
         13    1    4    4    0    0 -0.42258689046E+02 -0.35345103565E+02 -0.55571705343E+01  0.55371069072E+02  0.00000000000E+00 0.  1.
          2    1    1    2  501    0 -0.12192517178E+02 -0.35838392866E+02 -0.25807346254E+03  0.26083512023E+03  0.00000000000E+00 0. -1.
<scales pt_clust_5="13000.00000" pt_clust_6="13000.00000" pt_clust_7="13000.00000" pt_clust_8="13000.00000" pt_clust_9="37.85564"></scales>
<clustering>
<clus scale="   37.856">  1  9  2 -1</clus>
<clus scale="   81.501">  5  6 -1 -1</clus>
<clus scale="   91.673">  7  8 -1 -1</clus>
<clus scale="  135.734">  2  5  1 -1</clus>
<clus scale="   37.856">  1  5  2 -1</clus>
</clustering>
</event>
<event>
 9    1  0.7835476E-005  0.9775470E+02  0.7546771E-02  0.1289721E+00
         -4   -1    0    0    0  501 -0.00000000000E+00  0.00000000000E+00  0.31433144356E+03  0.31433144356E+03  0.00000000000E+00 0.  1.
         21   -1    0    0  501  502  0.00000000000E+00 -0.00000000000E+00 -0.36174960742E+02  0.36174960742E+02  0.00000000000E+00 0. -1.
        -24    2    1    2    0    0 -0.38223593920E+02 -0.43050340483E+01  0.16200406501E+03  0.18618507263E+03  0.83306588822E+02 0.  0.
         23    2    1    2    0    0  0.24153890098E+02 -0.10461367754E+02  0.92756595458E+02  0.13328316659E+03  0.92020464430E+02 0.  0.
         11    1    3    3    0    0 -0.30206884907E+02  0.28616409775E+02  0.13934116766E+03  0.14542116699E+03  0.00000000000E+00 0. -1.
        -12    1    3    3    0    0 -0.80167090134E+01 -0.32921443823E+02  0.22662897347E+02  0.40763905639E+02  0.00000000000E+00 0.  1.
        -13    1    4    4    0    0 -0.69937993942E+01  0.36666440190E+02  0.50196999399E+02  0.62554614656E+02  0.00000000000E+00 0.  1.
         13    1    4    4    0    0  0.31147689492E+02 -0.47127807944E+02  0.42559596059E+02  0.70728551936E+02  0.00000000000E+00 0. -1.
         -3    1    1    2    0  502  0.14069703822E+02  0.14766401802E+02  0.23395822347E+02  0.31038165073E+02  0.00000000000E+00 0.  1.
<scales pt_clust_5="13000.00000" pt_clust_6="13000.00000" pt_clust_7="13000.00000" pt_clust_8="13000.00000" pt_clust_9="20.39616"></scales>
<clustering>
<clus scale="   20.396">  2  9  1 -1</clus>
<clus scale="   83.307">  5  6 -1 -1</clus>
<clus scale="   89.600">  1  5  2 -1</clus>
<clus scale="   92.020">  7  8 -1 -1</clus>
<clus scale="   20.396">  2  5  1 -1</clus>
</clustering>
</event>
<event>
 9    1  0.7835476E-005  0.2848363E+03  0.7546771E-02  0.1125227E+00
         -2   -1    0    0    0  501 -0.00000000000E+00  0.00000000000E+00  0.27540992363E+03  0.27540992363E+03  0.00000000000E+00 0.  1.
         21   -1    0    0  501  502  0.00000000000E+00 -0.00000000000E+00 -0.95775812343E+03  0.95775812343E+03  0.00000000000E+00 0.  1.
         23    2    1    2    0    0 -0.66030403124E+02  0.55045631622E+02  0.76951415757E+02  0.14713013951E+03  0.91300174514E+02 0.  0.
        -24    2    1    2    0    0 -0.10634700166E+03 -0.26795975212E+03 -0.21454299370E+02  0.29897875920E+03  0.76262034955E+02 0.  0.
         13    1    4    4    0    0 -0.35819883530E+02 -0.10213465372E+03  0.28614165678E+02  0.11195232031E+03  0.00000000000E+00 0. -1.
        -14    1    4    4    0    0 -0.70527118125E+02 -0.16582509841E+03 -0.50068465048E+02  0.18702643889E+03  0.00000000000E+00 0.  1.
        -11    1    3    3    0    0 -0.15972438427E+02  0.71059133682E+02  0.43638125541E+02  0.84904683438E+02  0.00000000000E+00 0.  1.
         11    1    3    3    0    0 -0.50057964696E+02 -0.16013502060E+02  0.33313290216E+02  0.62225456067E+02  0.00000000000E+00 0. -1.
         -1    1    1    2    0  502  0.17237740478E+03  0.21291412050E+03 -0.73784531618E+03  0.78705914835E+03  0.00000000000E+00 0.  1.
<scales pt_clust_5="13000.00000" pt_clust_6="13000.00000" pt_clust_7="13000.00000" pt_clust_8="13000.00000" pt_clust_9="274.43728"></scales>
<clustering>
<clus scale="   76.262">  5  6 -1 -1</clus>
<clus scale="   91.300">  7  8 -1 -1</clus>
<clus scale="  125.402">  1  7  2 -1</clus>
<clus scale="  274.437">  2  9  1 -1</clus>
<clus scale="  274.437">  2  5  1 -1</clus>
</clustering>
</event>
<event>
 9    1  0.7835476E-005  0.2525126E+03  0.7546771E-02  0.1112448E+00
          3   -1    0    0  502    0 -0.00000000000E+00  0.00000000000E+00  0.62276821978E+03  0.62276821978E+03  0.00000000000E+00 0. -1.
         21   -1    0    0  501  502  0.00000000000E+00 -0.00000000000E+00 -0.16430384197E+03  0.16430384197E+03  0.00000000000E+00 0.  1.
         23    2    1    2    0    0  0.19821236574E+03 -0.64002370723E+02  0.24386783011E+03  0.33412924719E+03  0.93735744930E+02 0.  0.
        -24    2    1    2    0    0 -0.27847986075E+03  0.28435784822E+02  0.21990830316E+03  0.36498789693E+03  0.80603203426E+02 0.  0.
         11    1    4    4    0    0 -0.42264935705E+02  0.31182670786E+02  0.59907446589E+02  0.79671738429E+02  0.00000000000E+00 0. -1.
        -12    1    4    4    0    0 -0.23621492505E+03 -0.27468859639E+01  0.16000085657E+03  0.28531615850E+03  0.00000000000E+00 0.  1.
        -11    1    3    3    0    0  0.95683801501E+02 -0.78578040779E+02  0.14852845906E+03  0.19336649532E+03  0.00000000000E+00 0. -1.
         11    1    3    3    0    0  0.10252856424E+03  0.14575670056E+02  0.95339371050E+02  0.14076275187E+03  0.00000000000E+00 0.  1.
          4    1    1    2  501    0  0.80267495014E+02  0.35566585901E+02 -0.53117554670E+01  0.87954917626E+02  0.00000000000E+00 0. -1.
<scales pt_clust_5="13000.00000" pt_clust_6="13000.00000" pt_clust_7="13000.00000" pt_clust_8="13000.00000" pt_clust_9="87.79438"></scales>
<clustering>
<clus scale="   80.603">  5  6 -1 -1</clus>
<clus scale="   87.794">  2  9  1 -1</clus>
<clus scale="   93.736">  7  8 -1 -1</clus>
<clus scale="  247.938">  2  5  1 -1</clus>
<clus scale="   87.794">  2  5  1 -1</clus>
</clustering>
</event>
<event>
 9    1  0.7835476E-005  0.1975774E+03  0.7546771E-02  0.1153123E+00
         21   -1    0    0  501  502  0.00000000000E+00  0.00000000000E+00  0.24088144678E+03  0.24088144678E+03  0.00000000000E+00 0.  1.
         -2   -1    0    0    0  501 -0.00000000000E+00 -0.00000000000E+00 -0.97135772176E+03  0.97135772176E+03  0.00000000000E+00 0.  1.
        -24    2    1    2    0    0  0.49342529319E+02  0.16676437596E+03 -0.85581333774E+03  0.87672348170E+03  0.77346958771E+02 0.  0.
         23    2    1    2    0    0 -0.77944067836E+02 -0.17315007701E+03  0.40691886284E+01  0.21075702992E+03  0.91355024400E+02 0.  0.
         11    1    3    3    0    0  0.29517253301E+02  0.84757440930E+01 -0.14892531341E+03  0.15205872370E+03  0.00000000000E+00 0. -1.
        -12    1    3    3    0    0  0.19825276018E+02  0.15828863187E+03 -0.70688802433E+03  0.72466475800E+03  0.00000000000E+00 0.  1.
        -13    1    4    4    0    0 -0.98112202366E+02 -0.14352440843E+03 -0.44823685368E+01  0.17391190786E+03  0.00000000000E+00 0. -1.
         13    1    4    4    0    0  0.20168134530E+02 -0.29625668581E+02  0.85515571652E+01  0.36845122055E+02  0.00000000000E+00 0.  1.
         -1    1    1    2    0  502  0.28601538518E+02  0.63857010505E+01  0.12126787413E+03  0.12475865693E+03  0.00000000000E+00 0.  1.
<scales pt_clust_5="13000.00000" pt_clust_6="13000.00000" pt_clust_7="13000.00000" pt_clust_8="13000.00000" pt_clust_9="29.30572"></scales>
<clustering>
<clus scale="   29.306">  1  9  2 -1</clus>
<clus scale="   77.347">  5  6 -1 -1</clus>
<clus scale="   91.355">  7  8 -1 -1</clus>
<clus scale="  191.504">  2  5  1 -1</clus>
<clus scale="   29.306">  1  5  2 -1</clus>
</clustering>
</event>
<event>
 9    1  0.7835476E-005  0.9433242E+02  0.7546771E-02  0.1300680E+00
         -2   -1    0    0    0  501 -0.00000000000E+00  0.00000000000E+00  0.17563903697E+03  0.17563903697E+03  0.00000000000E+00 0.  1.
         21   -1    0    0  501  502  0.00000000000E+00 -0.00000000000E+00 -0.11772150013E+03  0.11772150013E+03  0.00000000000E+00 0.  1.
        -24    2    1    2    0    0 -0.21915307000E+01  0.36488372933E+01  0.10964750683E+03  0.13615924156E+03  0.80614182919E+02 0.  0.
         23    2    1    2    0    0  0.39128573017E+02 -0.20215392201E+02 -0.19277937615E+02  0.10531748071E+03  0.93703924977E+02 0.  0.
         11    1    3    3    0    0  0.25448218370E+02  0.22469049621E+02  0.92597705573E+02  0.98624566343E+02  0.00000000000E+00 0. -1.
        -12    1    3    3    0    0 -0.27639749070E+02 -0.18820212327E+02  0.17049801259E+02  0.37534675217E+02  0.00000000000E+00 0.  1.
        -11    1    4    4    0    0  0.44285244989E+02  0.56221106981E+01  0.26923743152E+02  0.52131362900E+02  0.00000000000E+00 0.  1.
         11    1    4    4    0    0 -0.51566719719E+01 -0.25837502899E+02 -0.46201680768E+02  0.53186117809E+02  0.00000000000E+00 0. -1.
         -1    1    1    2    0  502 -0.36937042317E+02  0.16566554907E+02 -0.32452032373E+02  0.51883814835E+02  0.00000000000E+00 0.  1.
<scales pt_clust_5="13000.00000" pt_clust_6="13000.00000" pt_clust_7="13000.00000" pt_clust_8="13000.00000" pt_clust_9="40.48204"></scales>
<clustering>
<clus scale="   40.482">  2  9  1 -1</clus>
<clus scale="   80.614">  5  6 -1 -1</clus>
<clus scale="   81.344">  1  5  2 -1</clus>
<clus scale="   93.704">  7  8 -1 -1</clus>
<clus scale="   40.482">  2  5  1 -1</clus>
</clustering>
</event>
<event>
 9    1  0.7835476E-005  0.2217191E+03  0.7546771E-02  0.1133978E+00
          1   -1    0    0  502    0 -0.00000000000E+00  0.00000000000E+00  0.10538151095E+04  0.10538151095E+04  0.00000000000E+00 0. -1.
         21   -1    0    0  501  502  0.00000000000E+00 -0.00000000000E+00 -0.80544103845E+02  0.80544103845E+02  0.00000000000E+00 0. -1.
         23    2    1    2    0    0  0.12969058176E+03  0.14840386583E+03  0.54172584071E+03  0.58484075516E+03  0.98632996555E+02 0.  0.
        -24    2    1    2    0    0 -0.52684485055E+02 -0.20805195212E+03  0.36662594052E+03  0.43246146854E+03  0.80913977570E+02 0.  0.
         11    1    4    4    0    0 -0.72331417574E+02 -0.14212478016E+03  0.27487328215E+03  0.31778390195E+03  0.00000000000E+00 0. -1.
        -12    1    4    4    0    0  0.19646932519E+02 -0.65927171961E+02  0.91752658376E+02  0.11467756659E+03  0.00000000000E+00 0.  1.
        -13    1    3    3    0    0  0.17564806500E+02 -0.14046690592E+02  0.68512412003E+02  0.72109517697E+02  0.00000000000E+00 0.  1.
         13    1    3    3    0    0  0.11212577526E+03  0.16245055642E+03  0.47321342871E+03  0.51273123746E+03  0.00000000000E+00 0. -1.
          2    1    1    2  501    0 -0.77006096702E+02  0.59648086293E+02  0.64919224453E+02  0.11705698967E+03  0.00000000000E+00 0. -1.
<scales pt_clust_5="13000.00000" pt_clust_6="13000.00000" pt_clust_7="13000.00000" pt_clust_8="13000.00000" pt_clust_9="97.40551"></scales>
<clustering>
<clus scale="   80.914">  5  6 -1 -1</clus>
<clus scale="   97.406">  2  9  1 -1</clus>
<clus scale="   98.633">  7  8 -1 -1</clus>
<clus scale="  214.425">  2  5  1 -1</clus>
<clus scale="   97.406">  2  5  1 -1</clus>
</clustering>
</event>
<event>
 9    1  0.7835476E-005  0.1294122E+03  0.7546771E-02  0.1252516E+00
         -2   -1    0    0    0  501 -0.00000000000E+00  0.00000000000E+00  0.45027306666E+03  0.45027306666E+03  0.00000000000E+00 0.  1.
         21   -1    0    0  501  502  0.00000000000E+00 -0.00000000000E+00 -0.59608599813E+02  0.59608599813E+02  0.00000000000E+00 0. -1.
        -24    2    1    2    0    0 -0.19735842954E+01 -0.11561185848E+02  0.20327627701E+03  0.21816370627E+03  0.78336465871E+02 0.  0.
         23    2    1    2    0    0  0.64947633632E+02  0.69327583178E+02  0.82193068170E+02  0.15618677865E+03  0.92812178439E+02 0.  0.
         11    1    3    3    0    0 -0.33244007623E+02 -0.67028518742E+01  0.42851257524E+02  0.54647255535E+02  0.00000000000E+00 0. -1.
        -12    1    3    3    0    0  0.31270423327E+02 -0.48583339739E+01  0.16042501948E+03  0.16351645073E+03  0.00000000000E+00 0.  1.
        -11    1    4    4    0    0 -0.77951927870E+01  0.34043393129E+02  0.64614916504E+02  0.73449336832E+02  0.00000000000E+00 0.  1.
         11    1    4    4    0    0  0.72742826419E+02  0.35284190049E+02  0.17578151666E+02  0.82737441819E+02  0.00000000000E+00 0. -1.
         -1    1    1    2    0  502 -0.62974049336E+02 -0.57766397330E+02  0.10519512167E+03  0.13553118155E+03  0.00000000000E+00 0.  1.
<scales pt_clust_5="13000.00000" pt_clust_6="13000.00000" pt_clust_7="13000.00000" pt_clust_8="13000.00000" pt_clust_9="90.18556"></scales>
<clustering>
<clus scale="   78.336">  5  6 -1 -1</clus>
<clus scale="   79.210">  1  5  2 -1</clus>
<clus scale="   90.186">  2  9  1 -1</clus>
<clus scale="   92.812">  7  8 -1 -1</clus>
<clus scale="   90.186">  2  5  1 -1</clus>
</clustering>
</event>
<event>
 9    1  0.7835476E-005  0.1145862E+03  0.7546771E-02  0.1255187E+00
         21   -1    0    0  501  502  0.00000000000E+00  0.00000000000E+00  0.11769194807E+03  0.11769194807E+03  0.00000000000E+00 0.  1.
         -4   -1    0    0    0  501 -0.00000000000E+00 -0.00000000000E+00 -0.18858257215E+03  0.18858257215E+03  0.00000000000E+00 0.  1.
         23    2    1    2    0    0 -0.40143728090E+02  0.82452955632E+02 -0.87932283335E+02  0.15496339800E+03  0.88721809437E+02 0.  0.
        -24    2    1    2    0    0  0.15115153822E+02 -0.48008234020E+02 -0.17614815049E+02  0.96411763504E+02  0.80322400512E+02 0.  0.
         11    1    4    4    0    0  0.24345482317E+02 -0.41389173889E+02 -0.45593273302E+02  0.66215653699E+02  0.00000000000E+00 0. -1.
        -12    1    4    4    0    0 -0.92303284946E+01 -0.66190601311E+01  0.27978458253E+02  0.30196109805E+02  0.00000000000E+00 0.  1.
        -11    1    3    3    0    0  0.28460099201E+01  0.33994885663E+02  0.11750881596E+02  0.36080954006E+02  0.00000000000E+00 0. -1.
         11    1    3    3    0    0 -0.42989738010E+02  0.48458069969E+02 -0.99683164930E+02  0.11888244399E+03  0.00000000000E+00 0.  1.
         -3    1    1    2    0  502  0.25028574268E+02 -0.34444721612E+02  0.34656474298E+02  0.54899358717E+02  0.00000000000E+00 0.  1.
<scales pt_clust_5="13000.00000" pt_clust_6="13000.00000" pt_clust_7="13000.00000" pt_clust_8="13000.00000" pt_clust_9="42.57779"></scales>
<clustering>
<clus scale="   42.578">  1  9  2 -1</clus>
<clus scale="   80.322">  5  6 -1 -1</clus>
<clus scale="   88.722">  7  8 -1 -1</clus>
<clus scale="  108.213">  1  5  2 -1</clus>
<clus scale="   42.578">  1  5  2 -1</clus>
</clustering>
</event>
<event>
 9    1  0.7835476E-005  0.9981195E+02  0.7546771E-02  0.1282382E+00
         -2   -1    0    0    0  501 -0.00000000000E+00  0.00000000000E+00  0.96360860465E+02  0.96360860465E+02  0.00000000000E+00 0.  1.
         21   -1    0    0  501  502  0.00000000000E+00 -0.00000000000E+00 -0.13528681096E+03  0.13528681096E+03  0.00000000000E+00 0.  1.
         23    2    1    2    0    0  0.38349180559E+02 -0.45357503159E+02  0.12732541838E+02  0.10379461200E+03  0.84161993299E+02 0.  0.
        -24    2    1    2    0    0 -0.17343424100E+02  0.41599157955E+02 -0.53263533904E+02  0.10645345378E+03  0.80399312660E+02 0.  0.
         11    1    4    4    0    0  0.14550156640E+02  0.55465098006E+02 -0.31432166186E+02  0.65391629634E+02  0.00000000000E+00 0. -1.
        -12    1    4    4    0    0 -0.31893580740E+02 -0.13865940051E+02 -0.21831367718E+02  0.41061824148E+02  0.00000000000E+00 0.  1.
        -13    1    3    3    0    0  0.19429926908E+00 -0.20900627683E+02 -0.33223154691E+02  0.39251140077E+02  0.00000000000E+00 0. -1.
         13    1    3    3    0    0  0.38154881290E+02 -0.24456875476E+02  0.45955696529E+02  0.64543471922E+02  0.00000000000E+00 0.  1.
         -1    1    1    2    0  502 -0.21005756459E+02  0.37583452039E+01  0.16050415747E+01  0.21399605639E+02  0.00000000000E+00 0.  1.
<scales pt_clust_5="13000.00000" pt_clust_6="13000.00000" pt_clust_7="13000.00000" pt_clust_8="13000.00000" pt_clust_9="21.33934"></scales>
<clustering>
<clus scale="   21.339">  2  9  1 -1</clus>
<clus scale="   80.399">  5  6 -1 -1</clus>
<clus scale="   84.162">  7  8 -1 -1</clus>
<clus scale="   96.660">  2  5  1 -1</clus>
<clus scale="   21.339">  2  5  1 -1</clus>
</clustering>
</event>
<event>
 9    1  0.7835476E-005  0.9256787E+02  0.7546771E-02  0.1303406E+00
         21   -1    0    0  501  502  0.00000000000E+00  0.00000000000E+00  0.15937319319E+03  0.15937319319E+03  0.00000000000E+00 0.  1.
          1   -1    0    0  502    0 -0.00000000000E+00 -0.00000000000E+00 -0.11547604392E+03  0.11547604392E+03  0.00000000000E+00 0. -1.
         23    2    1    2    0    0  0.13129862370E+02 -0.10527688616E+02 -0.58501525898E+02  0.11018025204E+03  0.91836996321E+02 0.  0.
        -24    2    1    2    0    0  0.76544779028E+01 -0.10976584167E+02  0.10647843109E+03  0.13448509936E+03  0.81052509091E+02 0.  0.
         13    1    4    4    0    0 -0.13907270257E+01 -0.30758147383E+02  0.56080323852E+01  0.31296130421E+02  0.00000000000E+00 0. -1.
        -14    1    4    4    0    0  0.90452049284E+01  0.19781563216E+02  0.10087039870E+03  0.10318896894E+03  0.00000000000E+00 0.  1.
        -13    1    3    3    0    0 -0.38896062926E+02  0.43744724195E+01 -0.21963146660E+02  0.44882285272E+02  0.00000000000E+00 0.  1.
         13    1    3    3    0    0  0.52025925296E+02 -0.14902161035E+02 -0.36538379238E+02  0.65297966766E+02  0.00000000000E+00 0. -1.
          2    1    1    2  501    0 -0.20784340273E+02  0.21504272782E+02 -0.40797559289E+01  0.30183885716E+02  0.00000000000E+00 0. -1.
<scales pt_clust_5="13000.00000" pt_clust_6="13000.00000" pt_clust_7="13000.00000" pt_clust_8="13000.00000" pt_clust_9="29.90691"></scales>
<clustering>
<clus scale="   29.907">  1  9  2 -1</clus>
<clus scale="   81.053">  5  6 -1 -1</clus>
<clus scale="   81.880">  1  5  2 -1</clus>
<clus scale="   91.837">  7  8 -1 -1</clus>
<clus scale="   29.907">  1  5  2 -1</clus>
</clustering>
</event>
<event>
 9    1  0.7835476E-005  0.9681665E+02  0.7546771E-02  0.1293713E+00
         21   -1    0    0  501  502  0.00000000000E+00  0.00000000000E+00  0.30451723261E+02  0.30451723261E+02  0.00000000000E+00 0. -1.
         -2   -1    0    0    0  501 -0.00000000000E+00 -0.00000000000E+00 -0.68125455012E+03  0.68125455012E+03  0.00000000000E+00 0.  1.
         23    2    1    2    0    0  0.28060890316E+01 -0.49891611494E+02 -0.34626571369E+03  0.36140656750E+03  0.90651616199E+02 0.  0.
        -24    2    1    2    0    0  0.14485336856E+02 -0.67328392164E+01 -0.63998298828E+02  0.10258163421E+03  0.78562416698E+02 0.  0.
         13    1    4    4    0    0 -0.31512322686E+02 -0.30051053008E+01 -0.14219700238E+02  0.34702406456E+02  0.00000000000E+00 0. -1.
        -14    1    4    4    0    0  0.45997659542E+02 -0.37277339156E+01 -0.49778598590E+02  0.67879227758E+02  0.00000000000E+00 0.  1.
        -11    1    3    3    0    0  0.18265355387E+02 -0.66515048315E+02 -0.31673534284E+03  0.32415914650E+03  0.00000000000E+00 0. -1.
         11    1    3    3    0    0 -0.15459266355E+02  0.16623436821E+02 -0.29530370856E+02  0.37247420996E+02  0.00000000000E+00 0.  1.
         -1    1    1    2    0  502 -0.17291425887E+02  0.56624450711E+02 -0.24053881434E+03  0.24771807167E+03  0.00000000000E+00 0.  1.
<scales pt_clust_5="13000.00000" pt_clust_6="13000.00000" pt_clust_7="13000.00000" pt_clust_8="13000.00000" pt_clust_9="59.20579"></scales>
<clustering>
<clus scale="   59.206">  1  9  2 -1</clus>
<clus scale="   78.562">  5  6 -1 -1</clus>
<clus scale="   85.603">  1  5  2 -1</clus>
<clus scale="   90.652">  7  8 -1 -1</clus>
<clus scale="   59.206">  1  5  2 -1</clus>
</clustering>
</event>
<event>
 9    1  0.7835476E-005  0.1096913E+03  0.7546771E-02  0.1277937E+00
         21   -1    0    0  501  502  0.00000000000E+00  0.00000000000E+00  0.52821208417E+02  0.52821208417E+02  0.00000000000E+00 0. -1.
          3   -1    0    0  502    0 -0.00000000000E+00 -0.00000000000E+00 -0.46439985948E+03  0.46439985948E+03  0.00000000000E+00 0. -1.
        -24    2    1    2    0    0 -0.10591166067E+02  0.21652095438E+02 -0.36029676000E+03  0.36902209058E+03  0.76043159034E+02 0.  0.
         23    2    1    2    0    0 -0.17370621131E+02 -0.15355722664E+02 -0.45715564178E+02  0.11900154852E+03  0.10739608487E+03 0.  0.
         13    1    3    3    0    0  0.12705142559E+02 -0.19856894225E+02 -0.52279246578E+02  0.57348378516E+02  0.00000000000E+00 0. -1.
        -14    1    3    3    0    0 -0.23296308626E+02  0.41508989663E+02 -0.30801751342E+03  0.31167371207E+03  0.00000000000E+00 0.  1.
        -11    1    4    4    0    0  0.22640992715E+01  0.45490571373E+02 -0.23967631171E+02  0.51468102484E+02  0.00000000000E+00 0.  1.
         11    1    4    4    0    0 -0.19634720403E+02 -0.60846294037E+02 -0.21747933007E+02  0.67533446036E+02  0.00000000000E+00 0. -1.
          4    1    1    2  501    0  0.27961787199E+02 -0.62963727734E+01 -0.55663268892E+01  0.29197428799E+02  0.00000000000E+00 0. -1.
<scales pt_clust_5="13000.00000" pt_clust_6="13000.00000" pt_clust_7="13000.00000" pt_clust_8="13000.00000" pt_clust_9="28.66192"></scales>
<clustering>
<clus scale="   28.662">  1  9  2 -1</clus>
<clus scale="   76.043">  5  6 -1 -1</clus>
<clus scale="   79.252">  2  5  1 -1</clus>
<clus scale="  107.396">  7  8 -1 -1</clus>
<clus scale="   28.662">  1  5  2 -1</clus>
</clustering>
</event>
<event>
 9    1  0.7835476E-005  0.1111762E+03  0.7546771E-02  0.1261750E+00
         21   -1    0    0  501  502  0.00000000000E+00  0.00000000000E+00  0.10377945310E+04  0.10377945310E+04  0.00000000000E+00 0.  1.
         -2   -1    0    0    0  501 -0.00000000000E+00 -0.00000000000E+00 -0.30529422309E+02  0.30529422309E+02  0.00000000000E+00 0.  1.
         23    2    1    2    0    0 -0.34786433344E+02  0.76080778905E+02  0.13775340655E+03  0.18474562772E+03  0.90313703731E+02 0.  0.
        -24    2    1    2    0    0 -0.76422536413E+01 -0.25306703377E+02  0.37465622596E+03  0.38431873125E+03  0.81454074600E+02 0.  0.
         13    1    4    4    0    0 -0.14353590747E+02 -0.51942810093E+02  0.29928781221E+03  0.30410076557E+03  0.00000000000E+00 0. -1.
        -14    1    4    4    0    0  0.67113371058E+01  0.26636106716E+02  0.75368413751E+02  0.80217965681E+02  0.00000000000E+00 0.  1.
        -11    1    3    3    0    0  0.18341540734E+02  0.52244331005E+02  0.31818555905E+02  0.63861590479E+02  0.00000000000E+00 0.  1.
         11    1    3    3    0    0 -0.53127974079E+02  0.23836447900E+02  0.10593485064E+03  0.12088403724E+03  0.00000000000E+00 0. -1.
         -1    1    1    2    0  502  0.42428686986E+02 -0.50774075528E+02  0.49485547617E+03  0.49925959432E+03  0.00000000000E+00 0.  1.
<scales pt_clust_5="13000.00000" pt_clust_6="13000.00000" pt_clust_7="13000.00000" pt_clust_8="13000.00000" pt_clust_9="66.16797"></scales>
<clustering>
<clus scale="   66.168">  1  9  2 -1</clus>
<clus scale="   81.454">  5  6 -1 -1</clus>
<clus scale="   90.314">  7  8 -1 -1</clus>
<clus scale="  104.107">  1  5  2 -1</clus>
<clus scale="   66.168">  1  5  2 -1</clus>
</clustering>
</event>
<event>
 9    1  0.7835476E-005  0.1060663E+03  0.7546771E-02  0.1273165E+00
         -2   -1    0    0    0  501 -0.00000000000E+00  0.00000000000E+00  0.18993498062E+03  0.18993498062E+03  0.00000000000E+00 0.  1.
         21   -1    0    0  501  502  0.00000000000E+00 -0.00000000000E+00 -0.18769949000E+03  0.18769949000E+03  0.00000000000E+00 0. -1.
         23    2    1    2    0    0  0.31430809030E+02  0.33213999763E+02  0.11624591734E+03  0.15576186583E+03  0.93046117655E+02 0.  0.
        -24    2    1    2    0    0 -0.34510198419E+02 -0.55443927139E+02  0.12931848482E+01  0.10440526827E+03  0.81448172873E+02 0.  0.
         13    1    4    4    0    0 -0.13502485700E+01 -0.58025012646E+02  0.25371917166E+02  0.63343977176E+02  0.00000000000E+00 0. -1.
        -14    1    4    4    0    0 -0.33159949849E+02  0.25810855071E+01 -0.24078732318E+02  0.41061291096E+02  0.00000000000E+00 0.  1.
        -13    1    3    3    0    0  0.50197153065E+02  0.10243753252E+01  0.10573059408E+03  0.11704598261E+03  0.00000000000E+00 0.  1.
         13    1    3    3    0    0 -0.18766344036E+02  0.32189624438E+02  0.10515323260E+02  0.38715883216E+02  0.00000000000E+00 0. -1.
         -1    1    1    2    0  502  0.30793893895E+01  0.22229927376E+02 -0.11530361156E+03  0.11746733652E+03  0.00000000000E+00 0.  1.
<scales pt_clust_5="13000.00000" pt_clust_6="13000.00000" pt_clust_7="13000.00000" pt_clust_8="13000.00000" pt_clust_9="22.44220"></scales>
<clustering>
<clus scale="   22.442">  2  9  1 -1</clus>
<clus scale="   81.448">  5  6 -1 -1</clus>
<clus scale="   93.046">  7  8 -1 -1</clus>
<clus scale="   96.054">  2  5  1 -1</clus>
<clus scale="   22.442">  2  5  1 -1</clus>
</clustering>
</event>
<event>
 9    1  0.7835476E-005  0.1489628E+03  0.7546771E-02  0.1205254E+00
         21   -1    0    0  501  502  0.00000000000E+00  0.00000000000E+00  0.40731859697E+03  0.40731859697E+03  0.00000000000E+00 0.  1.
         -4   -1    0    0    0  501 -0.00000000000E+00 -0.00000000000E+00 -0.73267599472E+02  0.73267599472E+02  0.00000000000E+00 0.  1.
         23    2    1    2    0    0  0.65933265564E+02  0.10134892589E+03  0.59936612627E+02  0.16478624638E+03  0.94569070932E+02 0.  0.
        -24    2    1    2    0    0 -0.58748587218E+02 -0.81871718071E+02  0.26398898524E+03  0.29270222409E+03  0.76354652402E+02 0.  0.
         11    1    4    4    0    0 -0.22537359179E+02 -0.13868993732E+01  0.11719313144E+02  0.25440093341E+02  0.00000000000E+00 0. -1.
        -12    1    4    4    0    0 -0.36211228039E+02 -0.80484818698E+02  0.25226967209E+03  0.26726213075E+03  0.00000000000E+00 0.  1.
        -13    1    3    3    0    0  0.20762553687E+02 -0.15370611133E+02 -0.42252504997E+00  0.25836366804E+02  0.00000000000E+00 0. -1.
         13    1    3    3    0    0  0.45170711877E+02  0.11671953702E+03  0.60359137677E+02  0.13894987958E+03  0.00000000000E+00 0.  1.
         -3    1    1    2    0  502 -0.71846783458E+01 -0.19477207815E+02  0.10125399638E+02  0.23097725971E+02  0.00000000000E+00 0.  1.
<scales pt_clust_5="13000.00000" pt_clust_6="13000.00000" pt_clust_7="13000.00000" pt_clust_8="13000.00000" pt_clust_9="20.76010"></scales>
<clustering>
<clus scale="   20.760">  1  9  2 -1</clus>
<clus scale="   76.355">  5  6 -1 -1</clus>
<clus scale="   94.569">  7  8 -1 -1</clus>
<clus scale="  138.118">  1  5  2 -1</clus>
<clus scale="   20.760">  1  5  2 -1</clus>
</clustering>
</event>
<event>
 9    1  0.7835476E-005  0.1686118E+03  0.7546771E-02  0.1179697E+00
          1   -1    0    0  502    0 -0.00000000000E+00  0.00000000000E+00  0.76706340768E+03  0.76706340768E+03  0.00000000000E+00 0. -1.
         21   -1    0    0  501  502  0.00000000000E+00 -0.00000000000E+00 -0.15452299784E+03  0.15452299784E+03  0.00000000000E+00 0.  1.
         23    2    1    2    0    0 -0.10882539057E+03  0.11228546830E+03  0.45850469570E+03  0.49205004554E+03  0.86230501061E+02 0.  0.
        -24    2    1    2    0    0  0.13558357653E+03  0.45017783696E+02 -0.47902643487E+02  0.17216617157E+03  0.83288776592E+02 0.  0.
         11    1    4    4    0    0  0.75176571763E+02  0.26933292244E+02  0.17033775419E+02  0.81652119863E+02  0.00000000000E+00 0. -1.
        -12    1    4    4    0    0  0.60407004769E+02  0.18084491453E+02 -0.64936418906E+02  0.90514051708E+02  0.00000000000E+00 0.  1.
        -13    1    3    3    0    0 -0.48510866506E+02  0.15580389198E+01  0.17820344301E+03  0.18469488015E+03  0.00000000000E+00 0.  1.
         13    1    3    3    0    0 -0.60314524060E+02  0.11072742938E+03  0.28030125269E+03  0.30735516538E+03  0.00000000000E+00 0. -1.
          2    1    1    2  501    0 -0.26758185966E+02 -0.15730325199E+03  0.20193835763E+03  0.25737018842E+03  0.00000000000E+00 0. -1.
<scales pt_clust_5="13000.00000" pt_clust_6="13000.00000" pt_clust_7="13000.00000" pt_clust_8="13000.00000" pt_clust_9="159.56296"></scales>
<clustering>
<clus scale="   83.289">  5  6 -1 -1</clus>
<clus scale="   86.231">  7  8 -1 -1</clus>
<clus scale="  159.563">  2  9  1 -1</clus>
<clus scale="  167.126">  2  5  1 -1</clus>
<clus scale="  159.563">  2  5  1 -1</clus>
</clustering>
</event>
<event>
 9    1  0.7835476E-005  0.1129546E+03  0.7546771E-02  0.1255836E+00
         21   -1    0    0  501  502  0.00000000000E+00  0.00000000000E+00  0.14499379099E+03  0.14499379099E+03  0.00000000000E+00 0.  1.
         -2   -1    0    0    0  501 -0.00000000000E+00 -0.00000000000E+00 -0.18783382103E+03  0.18783382103E+03  0.00000000000E+00 0.  1.
         23    2    1    2    0    0 -0.75549362473E+02 -0.14762641272E+02 -0.84342386432E+02  0.14594128074E+03  0.90882217887E+02 0.  0.
        -24    2    1    2    0    0  0.44406640558E+02  0.38091907650E+02 -0.25319503354E+02  0.10956049641E+03  0.89103770788E+02 0.  0.
         13    1    4    4    0    0  0.22395146494E+02  0.26068235223E+02  0.32022085974E+02  0.46973497467E+02  0.00000000000E+00 0. -1.
        -14    1    4    4    0    0  0.22011494063E+02  0.12023672427E+02 -0.57341589328E+02  0.62586998939E+02  0.00000000000E+00 0.  1.
        -11    1    3    3    0    0 -0.66262312732E+02  0.26436854210E+02 -0.30694618029E+02  0.77664412218E+02  0.00000000000E+00 0.  1.
         11    1    3    3    0    0 -0.92870497410E+01 -0.41199495482E+02 -0.53647768403E+02  0.68276868524E+02  0.00000000000E+00 0. -1.
         -1    1    1    2    0  502  0.31142721916E+02 -0.23329266378E+02  0.66821859744E+02  0.77325834866E+02  0.00000000000E+00 0.  1.
<scales pt_clust_5="13000.00000" pt_clust_6="13000.00000" pt_clust_7="13000.00000" pt_clust_8="13000.00000" pt_clust_9="38.91174"></scales>
<clustering>
<clus scale="   38.912">  1  9  2 -1</clus>
<clus scale="   89.104">  5  6 -1 -1</clus>
<clus scale="   90.882">  7  8 -1 -1</clus>
<clus scale="  111.529">  1  5  2 -1</clus>
<clus scale="   38.912">  1  5  2 -1</clus>
</clustering>
</event>
<event>
 9    1  0.7835476E-005  0.1183133E+03  0.7546771E-02  0.1248758E+00
         -2   -1    0    0    0  501 -0.00000000000E+00  0.00000000000E+00  0.39809128617E+03  0.39809128617E+03  0.00000000000E+00 0.  1.
         21   -1    0    0  501  502  0.00000000000E+00 -0.00000000000E+00 -0.62635534375E+02  0.62635534375E+02  0.00000000000E+00 0. -1.
        -24    2    1    2    0    0 -0.77295368625E+02  0.29358953441E+01  0.17166046129E+03  0.20512282410E+03  0.81393276790E+02 0.  0.
         23    2    1    2    0    0  0.72015191501E+02  0.37815243219E+02  0.17498690943E+03  0.21301540761E+03  0.90216212397E+02 0.  0.
         13    1    3    3    0    0 -0.46887730425E+02  0.41824446697E+02  0.92058932621E+02  0.11145667625E+03  0.00000000000E+00 0. -1.
        -14    1    3    3    0    0 -0.30407638200E+02 -0.38888551353E+02  0.79601528666E+02  0.93666147851E+02  0.00000000000E+00 0.  1.
        -13    1    4    4    0    0  0.47351972685E+02 -0.23543900055E+02  0.99335937619E+02  0.11253511918E+03  0.00000000000E+00 0.  1.
         13    1    4    4    0    0  0.24663218817E+02  0.61359143274E+02  0.75650971813E+02  0.10048028843E+03  0.00000000000E+00 0. -1.
         -1    1    1    2    0  502  0.52801771233E+01 -0.40751138563E+02 -0.11191618925E+02  0.42588588833E+02  0.00000000000E+00 0.  1.
<scales pt_clust_5="13000.00000" pt_clust_6="13000.00000" pt_clust_7="13000.00000" pt_clust_8="13000.00000" pt_clust_9="41.09179"></scales>
<clustering>
<clus scale="   41.092">  2  9  1 -1</clus>
<clus scale="   81.393">  5  6 -1 -1</clus>
<clus scale="   90.216">  7  8 -1 -1</clus>
<clus scale="  111.731">  1  5  2 -1</clus>
<clus scale="   41.092">  2  5  1 -1</clus>
</clustering>
</event>
<event>
 9    1  0.7835476E-005  0.1028241E+03  0.7546771E-02  0.1281880E+00
         21   -1    0    0  501  502  0.00000000000E+00  0.00000000000E+00  0.20444514475E+03  0.20444514475E+03  0.00000000000E+00 0.  1.
         -2   -1    0    0    0  501 -0.00000000000E+00 -0.00000000000E+00 -0.24509721828E+03  0.24509721828E+03  0.00000000000E+00 0.  1.
         23    2    1    2    0    0 -0.29229915651E+02  0.12189220874E+02 -0.19804913573E+03  0.22268869509E+03  0.96766883211E+02 0.  0.
        -24    2    1    2    0    0  0.45590881264E+02 -0.27110490962E+02  0.37252672202E+02  0.10468575094E+03  0.82206068449E+02 0.  0.
         11    1    4    4    0    0  0.53825114497E+02  0.12692240000E+02  0.31476594333E+02  0.63631846568E+02  0.00000000000E+00 0. -1.
        -12    1    4    4    0    0 -0.82342332335E+01 -0.39802730961E+02  0.57760778692E+01  0.41053904376E+02  0.00000000000E+00 0.  1.
        -11    1    3    3    0    0  0.23095757766E+02 -0.22378174119E+02 -0.10989343019E+03  0.11450223885E+03  0.00000000000E+00 0. -1.
         11    1    3    3    0    0 -0.52325673416E+02  0.34567394994E+02 -0.88155705535E+02  0.10818645624E+03  0.00000000000E+00 0.  1.
         -1    1    1    2    0  502 -0.16360965613E+02  0.14921270088E+02  0.12014438999E+03  0.12216791699E+03  0.00000000000E+00 0.  1.
<scales pt_clust_5="13000.00000" pt_clust_6="13000.00000" pt_clust_7="13000.00000" pt_clust_8="13000.00000" pt_clust_9="22.14329"></scales>
<clustering>
<clus scale="   22.143">  1  9  2 -1</clus>
<clus scale="   82.206">  5  6 -1 -1</clus>
<clus scale="   89.257">  1  5  2 -1</clus>
<clus scale="   96.767">  7  8 -1 -1</clus>
<clus scale="   22.143">  1  5  2 -1</clus>
</clustering>
</event>
<event>
 9    1  0.7835476E-005  0.1040591E+03  0.7546771E-02  0.1275920E+00
         21   -1    0    0  501  502  0.00000000000E+00  0.00000000000E+00  0.27412242211E+03  0.27412242211E+03  0.00000000000E+00 0.  1.
          3   -1    0    0  502    0 -0.00000000000E+00 -0.00000000000E+00 -0.62994481740E+02  0.62994481740E+02  0.00000000000E+00 0. -1.
         23    2    1    2    0    0 -0.49026176345E+02  0.32690920983E+02  0.33386934040E+02  0.11225969017E+03  0.89528143007E+02 0.  0.
        -24    2    1    2    0    0  0.45643837052E+02 -0.11113507673E+02  0.74650092394E+02  0.11947808140E+03  0.80594700367E+02 0.  0.
         11    1    4    4    0    0 -0.22808765226E+02 -0.52996482043E+01  0.11184476103E+02  0.25950309207E+02  0.00000000000E+00 0. -1.
        -12    1    4    4    0    0  0.68452602278E+02 -0.58138594690E+01  0.63465616290E+02  0.93527772194E+02  0.00000000000E+00 0.  1.
        -11    1    3    3    0    0 -0.70858206853E+02  0.64581705768E+01  0.12485982859E+02  0.72239139070E+02  0.00000000000E+00 0. -1.
         11    1    3    3    0    0  0.21832030507E+02  0.26232750406E+02  0.20900951181E+02  0.40020551098E+02  0.00000000000E+00 0.  1.
          4    1    1    2  501    0  0.33823392937E+01 -0.21577413309E+02  0.10309091394E+03  0.10537913228E+03  0.00000000000E+00 0. -1.
<scales pt_clust_5="13000.00000" pt_clust_6="13000.00000" pt_clust_7="13000.00000" pt_clust_8="13000.00000" pt_clust_9="21.84090"></scales>
<clustering>
<clus scale="   21.841">  1  9  2 -1</clus>
<clus scale="   80.595">  5  6 -1 -1</clus>
<clus scale="   89.528">  7  8 -1 -1</clus>
<clus scale="   96.481">  1  5  2 -1</clus>
<clus scale="   21.841">  1  5  2 -1</clus>
</clustering>
</event>
<event>
 9    1  0.7835476E-005  0.1240698E+03  0.7546771E-02  0.1236965E+00
         21   -1    0    0  501  502  0.00000000000E+00  0.00000000000E+00  0.79189364273E+02  0.79189364273E+02  0.00000000000E+00 0.  1.
         -2   -1    0    0    0  501 -0.00000000000E+00 -0.00000000000E+00 -0.50330654386E+03  0.50330654386E+03  0.00000000000E+00 0.  1.
        -24    2    1    2    0    0  0.77300672115E+02  0.70660491555E+02 -0.24616762474E+03  0.27971511837E+03  0.81693016819E+02 0.  0.
         23    2    1    2    0    0 -0.67096306659E+01 -0.62460157086E+02  0.70534222954E+01  0.10459793942E+03  0.83334793445E+02 0.  0.
         11    1    3    3    0    0  0.82393387775E+02  0.80988703062E+02 -0.24064949156E+03  0.26694572138E+03  0.00000000000E+00 0. -1.
        -12    1    3    3    0    0 -0.50927156601E+01 -0.10328211507E+02 -0.55181331795E+01  0.12769396991E+02  0.00000000000E+00 0.  1.
        -11    1    4    4    0    0  0.32515268129E+02 -0.41546840270E+02 -0.15176902433E+02  0.54897367563E+02  0.00000000000E+00 0. -1.
         11    1    4    4    0    0 -0.39224898794E+02 -0.20913316817E+02  0.22230324729E+02  0.49700571860E+02  0.00000000000E+00 0.  1.
         -1    1    1    2    0  502 -0.70591041449E+02 -0.82003344690E+01 -0.18500297714E+03  0.19818285034E+03  0.00000000000E+00 0.  1.
<scales pt_clust_5="13000.00000" pt_clust_6="13000.00000" pt_clust_7="13000.00000" pt_clust_8="13000.00000" pt_clust_9="71.06578"></scales>
<clustering>
<clus scale="   71.066">  1  9  2 -1</clus>
<clus scale="   81.693">  5  6 -1 -1</clus>
<clus scale="   83.335">  7  8 -1 -1</clus>
<clus scale="  122.973">  2  5  1 -1</clus>
<clus scale="   71.066">  1  5  2 -1</clus>
</clustering>
</event>
<event>
 9    1  0.7835476E-005  0.2199962E+03  0.7546771E-02  0.1152597E+00
         21   -1    0    0  501  502  0.00000000000E+00  0.00000000000E+00  0.66668477612E+03  0.66668477612E+03  0.00000000000E+00 0.  1.
          1   -1    0    0  502    0 -0.00000000000E+00 -0.00000000000E+00 -0.19113201193E+03  0.19113201193E+03  0.00000000000E+00 0. -1.
        -24    2    1    2    0    0  0.11496069795E+03 -0.13063372390E+02  0.13313651296E+03  0.19352373869E+03  0.79620930564E+02 0.  0.
         23    2    1    2    0    0 -0.11602988514E+03 -0.17401753811E+03  0.40683914370E+03  0.46642764230E+03  0.91058326574E+02 0.  0.
         11    1    3    3    0    0  0.43107974956E+02 -0.25243497333E+02  0.10775891744E+02  0.51104319830E+02  0.00000000000E+00 0. -1.
        -12    1    3    3    0    0  0.71852722992E+02  0.12180124943E+02  0.12236062122E+03  0.14241941886E+03  0.00000000000E+00 0.  1.
        -11    1    4    4    0    0 -0.11747772684E+02 -0.31541833104E+02  0.15406718162E+02  0.37017082045E+02  0.00000000000E+00 0. -1.
         11    1    4    4    0    0 -0.10428211245E+03 -0.14247570501E+03  0.39143242554E+03  0.42941056025E+03  0.00000000000E+00 0.  1.
          2    1    1    2  501    0  0.10691871873E+01  0.18708091050E+03 -0.64422892475E+02  0.19786540706E+03  0.00000000000E+00 0. -1.
<scales pt_clust_5="13000.00000" pt_clust_6="13000.00000" pt_clust_7="13000.00000" pt_clust_8="13000.00000" pt_clust_9="200.26670"></scales>
<clustering>
<clus scale="   79.621">  5  6 -1 -1</clus>
<clus scale="   91.058">  7  8 -1 -1</clus>
<clus scale="  140.450">  2  5  1 -1</clus>
<clus scale="  200.267">  1  9  2 -1</clus>
<clus scale="  200.267">  1  5  2 -1</clus>
</clustering>
</event>
<event>
 9    1  0.7835476E-005  0.1752051E+03  0.7546771E-02  0.1186812E+00
          3   -1    0    0  502    0 -0.00000000000E+00  0.00000000000E+00  0.12154951135E+04  0.12154951135E+04  0.00000000000E+00 0. -1.
         21   -1    0    0  501  502  0.00000000000E+00 -0.00000000000E+00 -0.46033099941E+02  0.46033099941E+02  0.00000000000E+00 0. -1.
         23    2    1    2    0    0 -0.39090725215E+01 -0.88317968684E+02  0.28404367750E+03  0.31116600037E+03  0.91258559151E+02 0.  0.
        -24    2    1    2    0    0  0.15454990109E+03  0.61055136024E+02  0.39309698905E+03  0.43478852290E+03  0.83080775636E+02 0.  0.
         13    1    4    4    0    0  0.16019833187E+03  0.70190942473E+02  0.36609823826E+03  0.40573167734E+03  0.00000000000E+00 0. -1.
        -14    1    4    4    0    0 -0.56484307730E+01 -0.91358064487E+01  0.26998750794E+02  0.29056845564E+02  0.00000000000E+00 0.  1.
        -11    1    3    3    0    0 -0.11726514323E+02 -0.45437032681E+02  0.35531344449E+02  0.58860101218E+02  0.00000000000E+00 0.  1.
         11    1    3    3    0    0  0.78174418010E+01 -0.42880936003E+02  0.24851233305E+03  0.25230589915E+03  0.00000000000E+00 0. -1.
          4    1    1    2  501    0 -0.15064082857E+03  0.27262832661E+02  0.49232134700E+03  0.51557369017E+03  0.00000000000E+00 0. -1.
<scales pt_clust_5="13000.00000" pt_clust_6="13000.00000" pt_clust_7="13000.00000" pt_clust_8="13000.00000" pt_clust_9="154.25449"></scales>
<clustering>
<clus scale="   83.081">  5  6 -1 -1</clus>
<clus scale="   91.259">  7  8 -1 -1</clus>
<clus scale="  127.057">  1  7  2 -1</clus>
<clus scale="  154.254">  2  9  1 -1</clus>
<clus scale="  154.254">  2  5  1 -1</clus>
</clustering>
</event>
<event>
 9    1  0.7835476E-005  0.4051150E+03  0.7546771E-02  0.1042245E+00
         21   -1    0    0  501  502  0.00000000000E+00  0.00000000000E+00  0.25481030546E+03  0.25481030546E+03  0.00000000000E+00 0. -1.
          1   -1    0    0  502    0 -0.00000000000E+00 -0.00000000000E+00 -0.10266554583E+04  0.10266554583E+04  0.00000000000E+00 0. -1.
         23    2    1    2    0    0  0.87279094678E+02 -0.38363669017E+03 -0.44568682330E+03  0.60163280786E+03  0.92360925807E+02 0.  0.
        -24    2    1    2    0    0 -0.24657999257E+03  0.33723021118E+03 -0.19318662206E+03  0.46720226115E+03  0.80193352674E+02 0.  0.
         13    1    4    4    0    0 -0.13254086336E+03  0.17842084810E+03 -0.58646922528E+02  0.22987070501E+03  0.00000000000E+00 0. -1.
        -14    1    4    4    0    0 -0.11403912921E+03  0.15880936308E+03 -0.13453969953E+03  0.23733155614E+03  0.00000000000E+00 0.  1.
        -11    1    3    3    0    0  0.52012726372E+02 -0.14840669831E+03 -0.11746374879E+03  0.19628449783E+03  0.00000000000E+00 0.  1.
         11    1    3    3    0    0  0.35266368306E+02 -0.23522999186E+03 -0.32822307451E+03  0.40534831003E+03  0.00000000000E+00 0. -1.
          2    1    1    2  501    0  0.15930089789E+03  0.46406478992E+02 -0.13297170752E+03  0.21263069478E+03  0.00000000000E+00 0. -1.
<scales pt_clust_5="13000.00000" pt_clust_6="13000.00000" pt_clust_7="13000.00000" pt_clust_8="13000.00000" pt_clust_9="165.92277"></scales>
<clustering>
<clus scale="   80.193">  5  6 -1 -1</clus>
<clus scale="   92.361">  7  8 -1 -1</clus>
<clus scale="  165.923">  1  9  2 -1</clus>
<clus scale="  402.515">  1  5  2 -1</clus>
<clus scale="  165.923">  1  5  2 -1</clus>
</clustering>
</event>
<event>
 9    1  0.7835476E-005  0.1393343E+03  0.7546771E-02  0.1214840E+00
         21   -1    0    0  501  502  0.00000000000E+00  0.00000000000E+00  0.71737016422E+02  0.71737016422E+02  0.00000000000E+00 0. -1.
          1   -1    0    0  502    0 -0.00000000000E+00 -0.00000000000E+00 -0.61813348824E+03  0.61813348824E+03  0.00000000000E+00 0. -1.
        -24    2    1    2    0    0  0.81390366624E+02 -0.13261635237E+02 -0.18804253585E+03  0.22159499532E+03  0.83331170116E+02 0.  0.
         23    2    1    2    0    0 -0.14477487593E+03  0.98508664832E+02 -0.23099993922E+03  0.30243313670E+03  0.86261860122E+02 0.  0.
         13    1    3    3    0    0  0.29356568616E+02  0.38605584309E+01 -0.15461080302E+03  0.15742049562E+03  0.00000000000E+00 0. -1.
        -14    1    3    3    0    0  0.52033798008E+02 -0.17122193668E+02 -0.33431732833E+02  0.64174499697E+02  0.00000000000E+00 0.  1.
        -11    1    4    4    0    0 -0.19327208074E+02 -0.16200030612E+02 -0.29803852719E+02  0.39041664932E+02  0.00000000000E+00 0.  1.
         11    1    4    4    0    0 -0.12544766785E+03  0.11470869544E+03 -0.20119608650E+03  0.26339147177E+03  0.00000000000E+00 0. -1.
          2    1    1    2  501    0  0.63384509305E+02 -0.85247029595E+02 -0.12735399676E+03  0.16584237265E+03  0.00000000000E+00 0. -1.
<scales pt_clust_5="13000.00000" pt_clust_6="13000.00000" pt_clust_7="13000.00000" pt_clust_8="13000.00000" pt_clust_9="106.22924"></scales>
<clustering>
<clus scale="   83.331">  5  6 -1 -1</clus>
<clus scale="   86.262">  7  8 -1 -1</clus>
<clus scale="  106.229">  1  9  2 -1</clus>
<clus scale="  137.539">  2  5  1 -1</clus>
<clus scale="  106.229">  1  5  2 -1</clus>
</clustering>
</event>
<event>
 9    1  0.7835476E-005  0.1229928E+03  0.7546771E-02  0.1241151E+00
         -2   -1    0    0    0  501 -0.00000000000E+00  0.00000000000E+00  0.62049014850E+02  0.62049014850E+02  0.00000000000E+00 0.  1.
         21   -1    0    0  501  502  0.00000000000E+00 -0.00000000000E+00 -0.51157990118E+03  0.51157990118E+03  0.00000000000E+00 0. -1.
         23    2    1    2    0    0 -0.47908298010E+02 -0.81359165917E+02 -0.19232002757E+03  0.23270567148E+03  0.90831809633E+02 0.  0.
        -24    2    1    2    0    0  0.62584913186E+02  0.38033036315E+02 -0.27179215760E+03  0.29291105010E+03  0.81009401494E+02 0.  0.
         13    1    4    4    0    0 -0.11984299843E+02  0.28397673500E+02 -0.11442891166E+03  0.11850749819E+03  0.00000000000E+00 0. -1.
        -14    1    4    4    0    0  0.74569213029E+02  0.96353628141E+01 -0.15736324594E+03  0.17440355192E+03  0.00000000000E+00 0.  1.
        -13    1    3    3    0    0 -0.72369652175E+02 -0.59063486301E+02 -0.16575964552E+03  0.19026855246E+03  0.00000000000E+00 0.  1.
         13    1    3    3    0    0  0.24461354165E+02 -0.22295679617E+02 -0.26560382041E+02  0.42437119027E+02  0.00000000000E+00 0. -1.
         -1    1    1    2    0  502 -0.14676615176E+02  0.43326129603E+02  0.14581298836E+02  0.48012194442E+02  0.00000000000E+00 0.  1.
<scales pt_clust_5="13000.00000" pt_clust_6="13000.00000" pt_clust_7="13000.00000" pt_clust_8="13000.00000" pt_clust_9="45.74449"></scales>
<clustering>
<clus scale="   45.744">  2  9  1 -1</clus>
<clus scale="   81.009">  5  6 -1 -1</clus>
<clus scale="   90.832">  7  8 -1 -1</clus>
<clus scale="  115.928">  2  5  1 -1</clus>
<clus scale="   45.744">  2  5  1 -1</clus>
</clustering>
</event>
<event>
 9    1  0.7835476E-005  0.1804264E+03  0.7546771E-02  0.1196790E+00
         21   -1    0    0  501  502  0.00000000000E+00  0.00000000000E+00  0.68911987929E+02  0.68911987929E+02  0.00000000000E+00 0. -1.
         -2   -1    0    0    0  501 -0.00000000000E+00 -0.00000000000E+00 -0.72267483893E+03  0.72267483893E+03  0.00000000000E+00 0.  1.
         23    2    1    2    0    0 -0.10509189177E+02  0.23944111758E+02 -0.14969878728E+03  0.17643980565E+03  0.89652186578E+02 0.  0.
        -24    2    1    2    0    0  0.12073957957E+03  0.10007507780E+03 -0.19077037162E+03  0.26062701352E+03  0.83306891771E+02 0.  0.
         11    1    4    4    0    0  0.64802859191E+02  0.10259767182E+03 -0.13664488206E+03  0.18274987446E+03  0.00000000000E+00 0. -1.
        -12    1    4    4    0    0  0.55936720383E+02 -0.25225940250E+01 -0.54125489561E+02  0.77877139059E+02  0.00000000000E+00 0.  1.
        -13    1    3    3    0    0  0.25757514461E+02 -0.15738341220E+02 -0.95273468907E+02  0.99940876588E+02  0.00000000000E+00 0.  1.
         13    1    3    3    0    0 -0.36266703638E+02  0.39682452978E+02 -0.54425318376E+02  0.76498929060E+02  0.00000000000E+00 0. -1.
         -1    1    1    2    0  502 -0.11023039040E+03 -0.12401918955E+03 -0.31329369209E+03  0.35452000769E+03  0.00000000000E+00 0.  1.
<scales pt_clust_5="13000.00000" pt_clust_6="13000.00000" pt_clust_7="13000.00000" pt_clust_8="13000.00000" pt_clust_9="160.04269"></scales>
<clustering>
<clus scale="   83.307">  5  6 -1 -1</clus>
<clus scale="   89.652">  7  8 -1 -1</clus>
<clus scale="   93.388">  2  7  1 -1</clus>
<clus scale="  160.043">  1  9  2 -1</clus>
<clus scale="  160.043">  1  5  2 -1</clus>
</clustering>
</event>
<event>
 9    1  0.7835476E-005  0.3050929E+03  0.7546771E-02  0.1082722E+00
         21   -1    0    0  501  502  0.00000000000E+00  0.00000000000E+00  0.91974521229E+02  0.91974521229E+02  0.00000000000E+00 0. -1.
          1   -1    0    0  502    0 -0.00000000000E+00 -0.00000000000E+00 -0.77237640810E+03  0.77237640810E+03  0.00000000000E+00 0. -1.
        -24    2    1    2    0    0  0.10676298728E+03  0.78450824957E+02 -0.10416025692E+03  0.18704278224E+03  0.81134307641E+02 0.  0.
         23    2    1    2    0    0  0.91593701416E+02 -0.49494445219E+01 -0.18907989567E+03  0.23612560282E+03  0.10765774575E+03 0.  0.
         13    1    3    3    0    0  0.19441568049E+02  0.83947032166E+01  0.13117586960E+02  0.24910172580E+02  0.00000000000E+00 0. -1.
        -14    1    3    3    0    0  0.87321419234E+02  0.70056121740E+02 -0.11727784388E+03  0.16213260966E+03  0.00000000000E+00 0.  1.
        -11    1    4    4    0    0  0.72465529806E+02  0.46795789994E+02 -0.11642701630E+03  0.14490117010E+03  0.00000000000E+00 0. -1.
         11    1    4    4    0    0  0.19128171611E+02 -0.51745234516E+02 -0.72652879378E+02  0.91224432726E+02  0.00000000000E+00 0.  1.
          2    1    1    2  501    0 -0.19835668870E+03 -0.73501380435E+02 -0.38716173428E+03  0.44118254427E+03  0.00000000000E+00 0. -1.
<scales pt_clust_5="13000.00000" pt_clust_6="13000.00000" pt_clust_7="13000.00000" pt_clust_8="13000.00000" pt_clust_9="211.53693"></scales>
<clustering>
<clus scale="   81.134">  5  6 -1 -1</clus>
<clus scale="  107.658">  7  8 -1 -1</clus>
<clus scale="  134.698">  5  7 -1 -1</clus>
<clus scale="  211.537">  1  9  2 -1</clus>
<clus scale="  211.537">  1  5  2 -1</clus>
</clustering>
</event>
<event>
 9    1  0.7835476E-005  0.9439779E+02  0.7546771E-02  0.1297421E+00
         21   -1    0    0  501  502  0.00000000000E+00  0.00000000000E+00  0.65321336478E+02  0.65321336478E+02  0.00000000000E+00 0.  1.
         -2   -1    0    0    0  501 -0.00000000000E+00 -0.00000000000E+00 -0.44271937627E+03  0.44271937627E+03  0.00000000000E+00 0.  1.
        -24    2    1    2    0    0  0.21292974076E+02 -0.27836179925E+02 -0.31482829548E+03  0.32714194908E+03  0.81711416311E+02 0.  0.
         23    2    1    2    0    0 -0.45433911684E+01 -0.36385257033E+02 -0.13587016004E+02  0.98410890828E+02  0.90308178462E+02 0.  0.
         11    1    3    3    0    0 -0.19299452982E+02 -0.22578541798E+02 -0.43073737716E+02  0.52322139826E+02  0.00000000000E+00 0. -1.
        -12    1    3    3    0    0  0.40592427058E+02 -0.52576381269E+01 -0.27175455777E+03  0.27481980926E+03  0.00000000000E+00 0.  1.
        -13    1    4    4    0    0 -0.18014741983E+02 -0.64019252716E+02 -0.12355012617E+02  0.67643491807E+02  0.00000000000E+00 0.  1.
         13    1    4    4    0    0  0.13471350814E+02  0.27633995684E+02 -0.12320033866E+01  0.30767399022E+02  0.00000000000E+00 0. -1.
         -1    1    1    2    0  502 -0.16749582907E+02  0.64221436958E+02 -0.48982728301E+02  0.82487872832E+02  0.00000000000E+00 0.  1.
<scales pt_clust_5="13000.00000" pt_clust_6="13000.00000" pt_clust_7="13000.00000" pt_clust_8="13000.00000" pt_clust_9="66.36973"></scales>
<clustering>
<clus scale="   66.370">  1  9  2 -1</clus>
<clus scale="   81.711">  5  6 -1 -1</clus>
<clus scale="   86.210">  2  5  1 -1</clus>
<clus scale="   90.308">  7  8 -1 -1</clus>
<clus scale="   66.370">  1  5  2 -1</clus>
</clustering>
</event>
<event>
 9    1  0.7835476E-005  0.9478457E+02  0.7546771E-02  0.1293128E+00
          3   -1    0    0  502    0 -0.00000000000E+00  0.00000000000E+00  0.15938506624E+03  0.15938506624E+03  0.00000000000E+00 0. -1.
         21   -1    0    0  501  502  0.00000000000E+00 -0.00000000000E+00 -0.12924181642E+03  0.12924181642E+03  0.00000000000E+00 0. -1.
         23    2    1    2    0    0  0.27435141243E+02  0.29160703085E+02  0.89261364517E+01  0.87067368968E+02  0.76798549775E+02 0.  0.
        -24    2    1    2    0    0 -0.81490572750E+02  0.31912737292E+02  0.18877426426E+02  0.11996644456E+03  0.79852704050E+02 0.  0.
         11    1    4    4    0    0 -0.46335659805E+02  0.41259072755E+02 -0.21460153301E+02  0.65649391725E+02  0.00000000000E+00 0. -1.
        -12    1    4    4    0    0 -0.35154912945E+02 -0.93463354637E+01  0.40337579727E+02  0.54317052838E+02  0.00000000000E+00 0.  1.
        -13    1    3    3    0    0 -0.21355026951E+02 -0.72616162333E+01  0.13020419147E+02  0.26044184786E+02  0.00000000000E+00 0. -1.
         13    1    3    3    0    0  0.48790168194E+02  0.36422319319E+02 -0.40942826948E+01  0.61023184182E+02  0.00000000000E+00 0.  1.
          4    1    1    2  501    0  0.54055431507E+02 -0.61073440377E+02  0.23396869516E+01  0.81593069129E+02  0.00000000000E+00 0. -1.
<scales pt_clust_5="13000.00000" pt_clust_6="13000.00000" pt_clust_7="13000.00000" pt_clust_8="13000.00000" pt_clust_9="81.55952"></scales>
<clustering>
<clus scale="   76.799">  7  8 -1 -1</clus>
<clus scale="   79.853">  5  6 -1 -1</clus>
<clus scale="   81.560">  2  9  1 -1</clus>
<clus scale="   92.226">  1  7  2 -1</clus>
<clus scale="   81.560">  2  5  1 -1</clus>
</clustering>
</event>
<event>
 9    1  0.7835476E-005  0.9715213E+02  0.7546771E-02  0.1290212E+00
          1   -1    0    0  502    0 -0.00000000000E+00  0.00000000000E+00  0.45529503508E+03  0.45529503508E+03  0.00000000000E+00 0. -1.
         21   -1    0    0  501  502  0.00000000000E+00 -0.00000000000E+00 -0.15841011089E+03  0.15841011089E+03  0.00000000000E+00 0. -1.
         23    2    1    2    0    0 -0.18974303159E+01 -0.18762734416E+02  0.22920716716E+03  0.24876719293E+03  0.94834331124E+02 0.  0.
        -24    2    1    2    0    0 -0.48476840733E+02 -0.56352587260E+02  0.18606766464E+03  0.21595456820E+03  0.80557938919E+02 0.  0.
         13    1    4    4    0    0 -0.44793033401E+02 -0.76102763315E+02  0.13773157379E+03  0.16360939106E+03  0.00000000000E+00 0. -1.
        -14    1    4    4    0    0 -0.36838073326E+01  0.19750176055E+02  0.48336090855E+02  0.52345177140E+02  0.00000000000E+00 0.  1.
        -13    1    3    3    0    0  0.39916640090E+02 -0.16654677270E+02  0.57048589921E+02  0.71590907544E+02  0.00000000000E+00 0.  1.
         13    1    3    3    0    0 -0.41814070406E+02 -0.21080571462E+01  0.17215857724E+03  0.17717628539E+03  0.00000000000E+00 0. -1.
          2    1    1    2  501    0  0.50374271049E+02  0.75115321676E+02 -0.11838990760E+03  0.14898338483E+03  0.00000000000E+00 0. -1.
<scales pt_clust_5="13000.00000" pt_clust_6="13000.00000" pt_clust_7="13000.00000" pt_clust_8="13000.00000" pt_clust_9="90.44268"></scales>
<clustering>
<clus scale="   80.558">  5  6 -1 -1</clus>
<clus scale="   90.443">  2  9  1 -1</clus>
<clus scale="   90.443">  2  5  1 -1</clus>
<clus scale="   94.834">  7  8 -1 -1</clus>
<clus scale="   90.443">  2  5  1 -1</clus>
</clustering>
</event>
<event>
 9    1  0.7835476E-005  0.9107982E+02  0.7546771E-02  0.1306316E+00
          3   -1    0    0  502    0 -0.00000000000E+00  0.00000000000E+00  0.24788158940E+03  0.24788158940E+03  0.00000000000E+00 0. -1.
         21   -1    0    0  501  502  0.00000000000E+00 -0.00000000000E+00 -0.48024325376E+02  0.48024325376E+02  0.00000000000E+00 0.  1.
         23    2    1    2    0    0 -0.69959417340E+01  0.38074911963E+01  0.14969744556E+03  0.17523425711E+03  0.90742930679E+02 0.  0.
        -24    2    1    2    0    0 -0.13999608574E+02 -0.16895085472E+02  0.31768779930E+02  0.89844258243E+02  0.81125226703E+02 0.  0.
         13    1    4    4    0    0  0.31818091212E+02  0.58522975235E+01  0.17283541239E+02  0.36679164555E+02  0.00000000000E+00 0. -1.
        -14    1    4    4    0    0 -0.45817699787E+02 -0.22747382996E+02  0.14485238691E+02  0.53165093688E+02  0.00000000000E+00 0.  1.
        -13    1    3    3    0    0  0.27219575572E+02 -0.20635828792E+02  0.11724111365E+03  0.12211560693E+03  0.00000000000E+00 0.  1.
         13    1    3    3    0    0 -0.34215517306E+02  0.24443319988E+02  0.32456331903E+02  0.53118650182E+02  0.00000000000E+00 0. -1.
          4    1    1    2  501    0  0.20995550308E+02  0.13087594276E+02  0.18391038531E+02  0.30827399419E+02  0.00000000000E+00 0. -1.
<scales pt_clust_5="13000.00000" pt_clust_6="13000.00000" pt_clust_7="13000.00000" pt_clust_8="13000.00000" pt_clust_9="24.74062"></scales>
<clustering>
<clus scale="   24.741">  2  9  1 -1</clus>
<clus scale="   81.125">  5  6 -1 -1</clus>
<clus scale="   81.502">  2  5  1 -1</clus>
<clus scale="   90.743">  7  8 -1 -1</clus>
<clus scale="   24.741">  2  5  1 -1</clus>
</clustering>
</event>
<event>
 9    1  0.7835476E-005  0.9892841E+02  0.7546771E-02  0.1287931E+00
          3   -1    0    0  502    0 -0.00000000000E+00  0.00000000000E+00  0.87643462621E+03  0.87643462621E+03  0.00000000000E+00 0. -1.
         21   -1    0    0  501  502  0.00000000000E+00 -0.00000000000E+00 -0.31812019041E+02  0.31812019041E+02  0.00000000000E+00 0. -1.
         23    2    1    2    0    0  0.47105418410E+02 -0.16807334214E+02  0.59098625165E+03  0.59994827133E+03  0.90397852316E+02 0.  0.
        -24    2    1    2    0    0  0.26669322558E+01 -0.21956466847E+02  0.53943687461E+02  0.98877551558E+02  0.79860189213E+02 0.  0.
         13    1    4    4    0    0 -0.17518959552E+02 -0.30727880270E+02  0.65185262292E+02  0.74163569155E+02  0.00000000000E+00 0. -1.
        -14    1    4    4    0    0  0.20185891808E+02  0.87714134235E+01 -0.11241574832E+02  0.24713982403E+02  0.00000000000E+00 0.  1.
        -11    1    3    3    0    0  0.33239685036E+02  0.35758322244E+02  0.26487276064E+03  0.26933457558E+03  0.00000000000E+00 0.  1.
         11    1    3    3    0    0  0.13865733374E+02 -0.52565656459E+02  0.32611349101E+03  0.33061369575E+03  0.00000000000E+00 0. -1.
          4    1    1    2  501    0 -0.49772350665E+02  0.38763801061E+02  0.19969266806E+03  0.20942082237E+03  0.00000000000E+00 0. -1.
<scales pt_clust_5="13000.00000" pt_clust_6="13000.00000" pt_clust_7="13000.00000" pt_clust_8="13000.00000" pt_clust_9="63.08663"></scales>
<clustering>
<clus scale="   63.087">  2  9  1 -1</clus>
<clus scale="   79.860">  5  6 -1 -1</clus>
<clus scale="   89.402">  2  5  1 -1</clus>
<clus scale="   90.398">  7  8 -1 -1</clus>
<clus scale="   63.087">  2  5  1 -1</clus>
</clustering>
</event>
<event>
 9    1  0.7835476E-005  0.1287092E+03  0.7546771E-02  0.1248151E+00
          1   -1    0    0  502    0 -0.00000000000E+00  0.00000000000E+00  0.28576084036E+03  0.28576084036E+03  0.00000000000E+00 0. -1.
         21   -1    0    0  501  502  0.00000000000E+00 -0.00000000000E+00 -0.19202948850E+03  0.19202948850E+03  0.00000000000E+00 0. -1.
        -24    2    1    2    0    0 -0.33514676333E+02 -0.91864928127E+01  0.11851763054E+03  0.14752458068E+03  0.80681150073E+02 0.  0.
         23    2    1    2    0    0 -0.47710398033E+02 -0.72021826019E+02 -0.12549368330E+03  0.17751010966E+03  0.91091980875E+02 0.  0.
         11    1    3    3    0    0 -0.47461750684E+02  0.13930649998E+02  0.10755738875E+03  0.11838611685E+03  0.00000000000E+00 0. -1.
        -12    1    3    3    0    0  0.13947074351E+02 -0.23117142810E+02  0.10960241789E+02  0.29138463836E+02  0.00000000000E+00 0.  1.
        -13    1    4    4    0    0 -0.28998976106E+02 -0.92309144288E+02 -0.86820075177E+02  0.12999863149E+03  0.00000000000E+00 0. -1.
         13    1    4    4    0    0 -0.18711421927E+02  0.20287318269E+02 -0.38673608123E+02  0.47511478174E+02  0.00000000000E+00 0.  1.
          2    1    1    2  501    0  0.81225074366E+02  0.81208318831E+02  0.10070740462E+03  0.15275563852E+03  0.00000000000E+00 0. -1.
<scales pt_clust_5="13000.00000" pt_clust_6="13000.00000" pt_clust_7="13000.00000" pt_clust_8="13000.00000" pt_clust_9="90.93029"></scales>
<clustering>
<clus scale="   80.681">  5  6 -1 -1</clus>
<clus scale="   87.847">  1  5  2 -1</clus>
<clus scale="   90.930">  2  9  1 -1</clus>
<clus scale="   91.092">  7  8 -1 -1</clus>
<clus scale="   90.930">  2  5  1 -1</clus>
</clustering>
</event>
<event>
 9    1  0.7835476E-005  0.1947636E+03  0.7546771E-02  0.1155427E+00
         21   -1    0    0  501  502  0.00000000000E+00  0.00000000000E+00  0.25926919077E+03  0.25926919077E+03  0.00000000000E+00 0. -1.
          1   -1    0    0  502    0 -0.00000000000E+00 -0.00000000000E+00 -0.32122188964E+03  0.32122188964E+03  0.00000000000E+00 0. -1.
         23    2    1    2    0    0 -0.13900298519E+03  0.10163024783E+03 -0.12371359155E+03  0.23102942620E+03  0.91755140824E+02 0.  0.
        -24    2    1    2    0    0  0.73103573475E+02 -0.17727754763E+03  0.11342326279E+03  0.23661553370E+03  0.79690732825E+02 0.  0.
         13    1    4    4    0    0  0.29164203927E+02 -0.15622830756E+03  0.87810300631E+02  0.18157225496E+03  0.00000000000E+00 0. -1.
        -14    1    4    4    0    0  0.43939369548E+02 -0.21049240062E+02  0.25612962161E+02  0.55043278737E+02  0.00000000000E+00 0.  1.
        -13    1    3    3    0    0 -0.11351041842E+03  0.11874072206E+03 -0.10093792359E+03  0.19280155233E+03  0.00000000000E+00 0. -1.
         13    1    3    3    0    0 -0.25492566770E+02 -0.17110474225E+02 -0.22775667969E+02  0.38227873864E+02  0.00000000000E+00 0.  1.
          2    1    1    2  501    0  0.65899411718E+02  0.75647299795E+02 -0.51662370107E+02  0.11284612052E+03  0.00000000000E+00 0. -1.
<scales pt_clust_5="13000.00000" pt_clust_6="13000.00000" pt_clust_7="13000.00000" pt_clust_8="13000.00000" pt_clust_9="100.32575"></scales>
<clustering>
<clus scale="   79.691">  5  6 -1 -1</clus>
<clus scale="   91.755">  7  8 -1 -1</clus>
<clus scale="  100.326">  1  9  2 -1</clus>
<clus scale="  189.379">  1  5  2 -1</clus>
<clus scale="  100.326">  1  5  2 -1</clus>
</clustering>
</event>
<event>
 9    1  0.7835476E-005  0.3488316E+03  0.7546771E-02  0.1063096E+00
          1   -1    0    0  502    0 -0.00000000000E+00  0.00000000000E+00  0.46397510916E+03  0.46397510916E+03  0.00000000000E+00 0. -1.
         21   -1    0    0  501  502  0.00000000000E+00 -0.00000000000E+00 -0.21777677921E+03  0.21777677921E+03  0.00000000000E+00 0.  1.
        -24    2    1    2    0    0  0.52767337205E+02  0.19483788389E+03  0.68341717617E+02  0.22798011364E+03  0.80982399170E+02 0.  0.
         23    2    1    2    0    0 -0.43489041240E+02  0.77533268920E+02 -0.23831987006E+01  0.12703254975E+03  0.90713199500E+02 0.  0.
         13    1    3    3    0    0  0.48473621865E+02  0.20149390406E+03  0.71812909915E+02  0.21933212127E+03  0.00000000000E+00 0. -1.
        -14    1    3    3    0    0  0.42937153400E+01 -0.66560201767E+01 -0.34711922985E+01  0.86479923674E+01  0.00000000000E+00 0.  1.
        -13    1    4    4    0    0 -0.16156954600E+02  0.86720885562E+02  0.20092944170E+02  0.90472568107E+02  0.00000000000E+00 0.  1.
         13    1    4    4    0    0 -0.27332086640E+02 -0.91876166413E+01 -0.22476142871E+02  0.36559981647E+02  0.00000000000E+00 0. -1.
          2    1    1    2  501    0 -0.92782959651E+01 -0.27237115281E+03  0.18023981103E+03  0.32673922498E+03  0.00000000000E+00 0. -1.
<scales pt_clust_5="13000.00000" pt_clust_6="13000.00000" pt_clust_7="13000.00000" pt_clust_8="13000.00000" pt_clust_9="272.52928"></scales>
<clustering>
<clus scale="   80.982">  5  6 -1 -1</clus>
<clus scale="   90.713">  7  8 -1 -1</clus>
<clus scale="  120.829">  5  7 -1 -1</clus>
<clus scale="  272.529">  2  9  1 -1</clus>
<clus scale="  272.529">  2  5  1 -1</clus>
</clustering>
</event>
<event>
 9    1  0.7835476E-005  0.9686184E+02  0.7546771E-02  0.1293280E+00
         21   -1    0    0  501  502  0.00000000000E+00  0.00000000000E+00  0.21332995807E+03  0.21332995807E+03  0.00000000000E+00 0. -1.
          3   -1    0    0  502    0 -0.00000000000E+00 -0.00000000000E+00 -0.27893906469E+03  0.27893906469E+03  0.00000000000E+00 0. -1.
        -24    2    1    2    0    0 -0.30784784234E+02 -0.15321382440E+02 -0.22572732541E+03  0.24244851659E+03  0.81523064602E+02 0.  0.
         23    2    1    2    0    0 -0.10087490428E+02 -0.33971255105E+02  0.28249221987E+02  0.10322671617E+03  0.92746605065E+02 0.  0.
         13    1    3    3    0    0 -0.52057358328E+02 -0.31963662433E+02 -0.16653519348E+03  0.17738549811E+03  0.00000000000E+00 0. -1.
        -14    1    3    3    0    0  0.21272574094E+02  0.16642279993E+02 -0.59192131923E+02  0.65063018479E+02  0.00000000000E+00 0.  1.
        -11    1    4    4    0    0 -0.22103314500E+02 -0.57627283141E+02  0.40685422187E+02  0.73924041101E+02  0.00000000000E+00 0. -1.
         11    1    4    4    0    0  0.12015824072E+02  0.23656028036E+02 -0.12436200200E+02  0.29302675066E+02  0.00000000000E+00 0.  1.
          4    1    1    2  501    0  0.40872274662E+02  0.49292637545E+02  0.13186899679E+03  0.14659379000E+03  0.00000000000E+00 0. -1.
<scales pt_clust_5="13000.00000" pt_clust_6="13000.00000" pt_clust_7="13000.00000" pt_clust_8="13000.00000" pt_clust_9="64.03364"></scales>
<clustering>
<clus scale="   64.034">  1  9  2 -1</clus>
<clus scale="   81.523">  5  6 -1 -1</clus>
<clus scale="   86.176">  2  5  1 -1</clus>
<clus scale="   92.747">  7  8 -1 -1</clus>
<clus scale="   64.034">  1  5  2 -1</clus>
</clustering>
</event>
<event>
 9    1  0.7835476E-005  0.1100579E+03  0.7546771E-02  0.1264336E+00
          1   -1    0    0  502    0 -0.00000000000E+00  0.00000000000E+00  0.45936702325E+02  0.45936702325E+02  0.00000000000E+00 0. -1.
         21   -1    0    0  501  502  0.00000000000E+00 -0.00000000000E+00 -0.56929348013E+03  0.56929348013E+03  0.00000000000E+00 0.  1.
         23    2    1    2    0    0 -0.13240605673E+02  0.65475283147E+02 -0.45141651777E+02  0.12119493697E+03  0.90488218457E+02 0.  0.
        -24    2    1    2    0    0 -0.44829467401E+01 -0.43376947676E+02 -0.41131176855E+03  0.42138182174E+03  0.80520881412E+02 0.  0.
         11    1    4    4    0    0  0.26487031651E+02 -0.14034056171E+02 -0.55999713462E+02  0.63517599814E+02  0.00000000000E+00 0. -1.
        -12    1    4    4    0    0 -0.30969978391E+02 -0.29342891505E+02 -0.35531205509E+03  0.35786422193E+03  0.00000000000E+00 0.  1.
        -11    1    3    3    0    0  0.10805857365E+02  0.45061768585E+02 -0.67966317405E+02  0.82260256765E+02  0.00000000000E+00 0. -1.
         11    1    3    3    0    0 -0.24046463037E+02  0.20413514562E+02  0.22824665628E+02  0.38934680202E+02  0.00000000000E+00 0.  1.
          2    1    1    2  501    0  0.17723552413E+02 -0.22098335471E+02 -0.66903357472E+02  0.72653423744E+02  0.00000000000E+00 0. -1.
<scales pt_clust_5="13000.00000" pt_clust_6="13000.00000" pt_clust_7="13000.00000" pt_clust_8="13000.00000" pt_clust_9="28.32774"></scales>
<clustering>
<clus scale="   28.328">  2  9  1 -1</clus>
<clus scale="   80.521">  5  6 -1 -1</clus>
<clus scale="   90.488">  7  8 -1 -1</clus>
<clus scale="  102.021">  2  5  1 -1</clus>
<clus scale="   28.328">  2  5  1 -1</clus>
</clustering>
</event>
<event>
 9    1  0.7835476E-005  0.2536761E+03  0.7546771E-02  0.1112006E+00
         21   -1    0    0  501  502  0.00000000000E+00  0.00000000000E+00  0.84930709227E+02  0.84930709227E+02  0.00000000000E+00 0. -1.
          3   -1    0    0  502    0 -0.00000000000E+00 -0.00000000000E+00 -0.13334060992E+04  0.13334060992E+04  0.00000000000E+00 0. -1.
        -24    2    1    2    0    0 -0.16539967562E+03  0.21632375960E+03 -0.88571460406E+03  0.92952018215E+03  0.73241979190E+02 0.  0.
         23    2    1    2    0    0  0.15040920169E+03 -0.90787105475E+02 -0.19070193615E+03  0.27530219206E+03  0.92514009893E+02 0.  0.
         11    1    3    3    0    0 -0.15191352378E+03  0.17284441157E+03 -0.80037103839E+03  0.83279451752E+03  0.00000000000E+00 0. -1.
        -12    1    3    3    0    0 -0.13486151835E+02  0.43479348035E+02 -0.85343565677E+02  0.96725664636E+02  0.00000000000E+00 0.  1.
        -11    1    4    4    0    0  0.13087544804E+03 -0.55702799518E+02 -0.18704125287E+03  0.23498003117E+03  0.00000000000E+00 0.  1.
         11    1    4    4    0    0  0.19533753653E+02 -0.35084305957E+02 -0.36606832733E+01  0.40322160883E+02  0.00000000000E+00 0. -1.
          4    1    1    2  501    0  0.14990473927E+02 -0.12553665413E+03 -0.17205884977E+03  0.21351443422E+03  0.00000000000E+00 0. -1.
<scales pt_clust_5="13000.00000" pt_clust_6="13000.00000" pt_clust_7="13000.00000" pt_clust_8="13000.00000" pt_clust_9="126.42850"></scales>
<clustering>
<clus scale="   73.242">  5  6 -1 -1</clus>
<clus scale="   92.514">  7  8 -1 -1</clus>
<clus scale="  126.429">  1  9  2 -1</clus>
<clus scale="  247.300">  2  5  1 -1</clus>
<clus scale="  126.429">  1  5  2 -1</clus>
</clustering>
</event>
<event>
 9    1  0.7835476E-005  0.2964213E+03  0.7546771E-02  0.1128430E+00
          1   -1    0    0  502    0 -0.00000000000E+00  0.00000000000E+00  0.14418650782E+04  0.14418650782E+04  0.00000000000E+00 0. -1.
         21   -1    0    0  501  502  0.00000000000E+00 -0.00000000000E+00 -0.10467751424E+03  0.10467751424E+03  0.00000000000E+00 0. -1.
        -24    2    1    2    0    0  0.62631686067E+02 -0.12456617355E+02  0.13569793775E+03  0.17024182430E+03  0.80563347850E+02 0.  0.
         23    2    1    2    0    0 -0.10780861077E+03 -0.26608199748E+03  0.95582950312E+03  0.10021702955E+04  0.91175304864E+02 0.  0.
         11    1    3    3    0    0  0.76426633682E+02 -0.25434509291E+02  0.90034622010E+02  0.12080636473E+03  0.00000000000E+00 0. -1.
        -12    1    3    3    0    0 -0.13794947615E+02  0.12977891936E+02  0.45663315739E+02  0.49435459572E+02  0.00000000000E+00 0.  1.
        -13    1    4    4    0    0 -0.25841025224E+02 -0.14788602300E+03  0.37833102459E+03  0.40702874414E+03  0.00000000000E+00 0.  1.
         13    1    4    4    0    0 -0.81967585543E+02 -0.11819597448E+03  0.57749847853E+03  0.59514155137E+03  0.00000000000E+00 0. -1.
          2    1    1    2  501    0  0.45176924701E+02  0.27853861483E+03  0.24566012308E+03  0.37413047263E+03  0.00000000000E+00 0. -1.
<scales pt_clust_5="13000.00000" pt_clust_6="13000.00000" pt_clust_7="13000.00000" pt_clust_8="13000.00000" pt_clust_9="282.05075"></scales>
<clustering>
<clus scale="   80.563">  5  6 -1 -1</clus>
<clus scale="   91.175">  7  8 -1 -1</clus>
<clus scale="  102.803">  1  5  2 -1</clus>
<clus scale="  282.051">  2  9  1 -1</clus>
<clus scale="  282.051">  2  5  1 -1</clus>
</clustering>
</event>
<event>
 9    1  0.7835476E-005  0.1093879E+03  0.7546771E-02  0.1264647E+00
         21   -1    0    0  501  502  0.00000000000E+00  0.00000000000E+00  0.10342356434E+03  0.10342356434E+03  0.00000000000E+00 0. -1.
          3   -1    0    0  502    0 -0.00000000000E+00 -0.00000000000E+00 -0.13704590363E+03  0.13704590363E+03  0.00000000000E+00 0. -1.
         23    2    1    2    0    0  0.35291173509E+02  0.44933299230E+02 -0.25441252053E+02  0.10757170748E+03  0.87521121086E+02 0.  0.
        -24    2    1    2    0    0 -0.37712161440E+02 -0.66773898454E+02 -0.78731349838E+01  0.11092123229E+03  0.79753199828E+02 0.  0.
         13    1    4    4    0    0 -0.60820407128E+02 -0.61511525165E+02 -0.10223237577E+02  0.87105133246E+02  0.00000000000E+00 0. -1.
        -14    1    4    4    0    0  0.23108245688E+02 -0.52623732898E+01  0.23501025932E+01  0.23816099043E+02  0.00000000000E+00 0.  1.
        -13    1    3    3    0    0  0.11638703742E+02 -0.17061342334E+02 -0.34894360563E+02  0.40548307315E+02  0.00000000000E+00 0. -1.
         13    1    3    3    0    0  0.23652469768E+02  0.61994641564E+02  0.94531085098E+01  0.67023400162E+02  0.00000000000E+00 0.  1.
          4    1    1    2  501    0  0.24209879305E+01  0.21840599225E+02 -0.30795225451E+00  0.21976528198E+02  0.00000000000E+00 0. -1.
<scales pt_clust_5="13000.00000" pt_clust_6="13000.00000" pt_clust_7="13000.00000" pt_clust_8="13000.00000" pt_clust_9="21.97437"></scales>
<clustering>
<clus scale="   21.974">  1  9  2 -1</clus>
<clus scale="   79.753">  5  6 -1 -1</clus>
<clus scale="   87.521">  7  8 -1 -1</clus>
<clus scale="  103.278">  1  5  2 -1</clus>
<clus scale="   21.974">  1  5  2 -1</clus>
</clustering>
</event>
<event>
 9    1  0.7835476E-005  0.1489439E+03  0.7546771E-02  0.1204163E+00
         21   -1    0    0  501  502  0.00000000000E+00  0.00000000000E+00  0.22654784550E+03  0.22654784550E+03  0.00000000000E+00 0. -1.
          1   -1    0    0  502    0 -0.00000000000E+00 -0.00000000000E+00 -0.38912228067E+03  0.38912228067E+03  0.00000000000E+00 0. -1.
         23    2    1    2    0    0  0.10995539353E+03 -0.99048943292E+02 -0.50517230259E+02  0.16988150754E+03  0.66384142054E+02 0.  0.
        -24    2    1    2    0    0  0.34315779729E+02  0.11901316770E+03  0.10703793121E+03  0.18270038180E+03  0.81120921887E+02 0.  0.
         13    1    4    4    0    0  0.15695772544E+02  0.12634125322E+03  0.98393238269E+02  0.16090276218E+03  0.00000000000E+00 0. -1.
        -14    1    4    4    0    0  0.18620007185E+02 -0.73280855206E+01  0.86446929440E+01  0.21797619619E+02  0.00000000000E+00 0.  1.
        -13    1    3    3    0    0  0.11349062873E+03 -0.70934883487E+02 -0.42837435767E+02  0.14052375745E+03  0.00000000000E+00 0. -1.
         13    1    3    3    0    0 -0.35352352008E+01 -0.28114059806E+02 -0.76797944929E+01  0.29357750086E+02  0.00000000000E+00 0.  1.
          2    1    1    2  501    0 -0.14427117326E+03 -0.19964224406E+02 -0.21909513612E+03  0.26308823683E+03  0.00000000000E+00 0. -1.
<scales pt_clust_5="13000.00000" pt_clust_6="13000.00000" pt_clust_7="13000.00000" pt_clust_8="13000.00000" pt_clust_9="145.64602"></scales>
<clustering>
<clus scale="   66.384">  7  8 -1 -1</clus>
<clus scale="   81.121">  5  6 -1 -1</clus>
<clus scale="  145.646">  1  9  2 -1</clus>
<clus scale="  141.459">  2  7  1 -1</clus>
<clus scale="  145.646">  1  5  2 -1</clus>
</clustering>
</event>
<event>
 9    1  0.7835476E-005  0.1329031E+03  0.7546771E-02  0.1237972E+00
         21   -1    0    0  501  502  0.00000000000E+00  0.00000000000E+00  0.33598056461E+03  0.33598056461E+03  0.00000000000E+00 0.  1.
          3   -1    0    0  502    0 -0.00000000000E+00 -0.00000000000E+00 -0.19985428904E+03  0.19985428904E+03  0.00000000000E+00 0. -1.
        -24    2    1    2    0    0 -0.39678051375E+02  0.60844745035E+02 -0.12533436168E+03  0.15910750003E+03  0.65803218676E+02 0.  0.
         23    2    1    2    0    0  0.75082067010E+02  0.38372619576E+02  0.37850885915E+02  0.12954553662E+03  0.90772142061E+02 0.  0.
         11    1    3    3    0    0 -0.44389464697E+02  0.67712110732E+02 -0.12700111071E+03  0.15061419799E+03  0.00000000000E+00 0. -1.
        -12    1    3    3    0    0  0.47114133222E+01 -0.68673656970E+01  0.16667490300E+01  0.84933020338E+01  0.00000000000E+00 0.  1.
        -11    1    4    4    0    0  0.21210549770E+02  0.53933652053E+02  0.44514391279E+02  0.73077063955E+02  0.00000000000E+00 0.  1.
         11    1    4    4    0    0  0.53871517240E+02 -0.15561032478E+02 -0.66635053640E+01  0.56468472666E+02  0.00000000000E+00 0. -1.
          4    1    1    2  501    0 -0.35404015635E+02 -0.99217364611E+02  0.22360975133E+03  0.24718181700E+03  0.00000000000E+00 0. -1.
<scales pt_clust_5="13000.00000" pt_clust_6="13000.00000" pt_clust_7="13000.00000" pt_clust_8="13000.00000" pt_clust_9="97.07556"></scales>
<clustering>
<clus scale="   65.803">  5  6 -1 -1</clus>
<clus scale="   90.772">  7  8 -1 -1</clus>
<clus scale="   98.013">  2  5  1 -1</clus>
<clus scale="   97.076">  1  9  2 -1</clus>
<clus scale="   97.076">  1  5  2 -1</clus>
</clustering>
</event>
<event>
 9    1  0.7835476E-005  0.1266387E+03  0.7546771E-02  0.1234555E+00
          1   -1    0    0  502    0 -0.00000000000E+00  0.00000000000E+00  0.81859338019E+03  0.81859338019E+03  0.00000000000E+00 0. -1.
         21   -1    0    0  501  502  0.00000000000E+00 -0.00000000000E+00 -0.47746878985E+02  0.47746878985E+02  0.00000000000E+00 0. -1.
         23    2    1    2    0    0 -0.10641195955E+03 -0.15392176071E+01  0.43778404914E+03  0.45913316599E+03  0.88444989144E+02 0.  0.
        -24    2    1    2    0    0  0.43665974075E+02 -0.79965758093E+02  0.12202785341E+03  0.17243971558E+03  0.80891400920E+02 0.  0.
         13    1    4    4    0    0  0.30393992549E+02 -0.93598646483E+02  0.11675444543E+03  0.15269610975E+03  0.00000000000E+00 0. -1.
        -14    1    4    4    0    0  0.13271981526E+02  0.13632888390E+02  0.52734079856E+01  0.19743605832E+02  0.00000000000E+00 0.  1.
        -11    1    3    3    0    0 -0.25691231982E+02  0.29932023521E+02  0.61950444588E+02  0.73442651215E+02  0.00000000000E+00 0. -1.
         11    1    3    3    0    0 -0.80720727567E+02 -0.31471241128E+02  0.37583360455E+03  0.38569051477E+03  0.00000000000E+00 0.  1.
          2    1    1    2  501    0  0.62745985474E+02  0.81504975701E+02  0.21103459866E+03  0.23476737761E+03  0.00000000000E+00 0. -1.
<scales pt_clust_5="13000.00000" pt_clust_6="13000.00000" pt_clust_7="13000.00000" pt_clust_8="13000.00000" pt_clust_9="102.85976"></scales>
<clustering>
<clus scale="   80.891">  5  6 -1 -1</clus>
<clus scale="   88.445">  7  8 -1 -1</clus>
<clus scale="  102.860">  2  9  1 -1</clus>
<clus scale="  121.484">  2  5  1 -1</clus>
<clus scale="  102.860">  2  5  1 -1</clus>
</clustering>
</event>
<event>
 9    1  0.7835476E-005  0.1814618E+03  0.7546771E-02  0.1168280E+00
          1   -1    0    0  502    0 -0.00000000000E+00  0.00000000000E+00  0.85137226772E+03  0.85137226772E+03  0.00000000000E+00 0. -1.
         21   -1    0    0  501  502  0.00000000000E+00 -0.00000000000E+00 -0.73385263234E+02  0.73385263234E+02  0.00000000000E+00 0. -1.
        -24    2    1    2    0    0  0.16339803195E+03 -0.11539597192E+02  0.35764450103E+03  0.40055897150E+03  0.75536887552E+02 0.  0.
         23    2    1    2    0    0 -0.13327734292E+03  0.60159747892E+02  0.10157988121E+03  0.20034553060E+03  0.91857574329E+02 0.  0.
         11    1    3    3    0    0  0.93890296926E+02  0.17017720031E+02  0.26258560357E+03  0.27938537874E+03  0.00000000000E+00 0. -1.
        -12    1    3    3    0    0  0.69507735023E+02 -0.28557317223E+02  0.95058897461E+02  0.12117359276E+03  0.00000000000E+00 0.  1.
        -11    1    4    4    0    0 -0.75768627687E+02  0.60196673546E+02  0.17285086626E+02  0.98302078651E+02  0.00000000000E+00 0. -1.
         11    1    4    4    0    0 -0.57508715231E+02 -0.36925653957E-01  0.84294794583E+02  0.10204345194E+03  0.00000000000E+00 0.  1.
          2    1    1    2  501    0 -0.30120689030E+02 -0.48620150700E+02  0.31876262225E+03  0.32385302887E+03  0.00000000000E+00 0. -1.
<scales pt_clust_5="13000.00000" pt_clust_6="13000.00000" pt_clust_7="13000.00000" pt_clust_8="13000.00000" pt_clust_9="57.19422"></scales>
<clustering>
<clus scale="   57.194">  2  9  1 -1</clus>
<clus scale="   75.537">  5  6 -1 -1</clus>
<clus scale="   91.858">  7  8 -1 -1</clus>
<clus scale="  173.771">  1  5  2 -1</clus>
<clus scale="   57.194">  2  5  1 -1</clus>
</clustering>
</event>
<event>
 9    1  0.7835476E-005  0.1217490E+03  0.7546771E-02  0.1243329E+00
         21   -1    0    0  501  502  0.00000000000E+00  0.00000000000E+00  0.30703690372E+03  0.30703690372E+03  0.00000000000E+00 0.  1.
         -2   -1    0    0    0  501 -0.00000000000E+00 -0.00000000000E+00 -0.15681665515E+03  0.15681665515E+03  0.00000000000E+00 0.  1.
         23    2    1    2    0    0 -0.48464710980E+02  0.72357419232E+02 -0.10416737516E+03  0.16357153786E+03  0.91216125884E+02 0.  0.
        -24    2    1    2    0    0  0.16952829884E+02 -0.54531658189E+02  0.96817418890E+02  0.13860603065E+03  0.81098205565E+02 0.  0.
         11    1    4    4    0    0  0.49010524696E+02 -0.42715350067E+02  0.62617794872E+02  0.90264172831E+02  0.00000000000E+00 0. -1.
        -12    1    4    4    0    0 -0.32057694812E+02 -0.11816308122E+02  0.34199624018E+02  0.48341857818E+02  0.00000000000E+00 0.  1.
        -11    1    3    3    0    0 -0.69313789216E+02  0.72666210239E+02 -0.10109410951E+03  0.14249490680E+03  0.00000000000E+00 0.  1.
         11    1    3    3    0    0  0.20849078235E+02 -0.30879100685E+00 -0.30732656536E+01  0.21076631062E+02  0.00000000000E+00 0. -1.
         -1    1    1    2    0  502  0.31511881096E+02 -0.17825761044E+02  0.15757020484E+03  0.16167599037E+03  0.00000000000E+00 0.  1.
<scales pt_clust_5="13000.00000" pt_clust_6="13000.00000" pt_clust_7="13000.00000" pt_clust_8="13000.00000" pt_clust_9="36.20437"></scales>
<clustering>
<clus scale="   36.204">  1  9  2 -1</clus>
<clus scale="   81.098">  5  6 -1 -1</clus>
<clus scale="   91.216">  7  8 -1 -1</clus>
<clus scale="  114.365">  1  5  2 -1</clus>
<clus scale="   36.204">  1  5  2 -1</clus>
</clustering>
</event>
<event>
 9    1  0.7835476E-005  0.2230538E+03  0.7546771E-02  0.1132595E+00
         21   -1    0    0  501  502  0.00000000000E+00  0.00000000000E+00  0.40373421358E+03  0.40373421358E+03  0.00000000000E+00 0. -1.
          1   -1    0    0  502    0 -0.00000000000E+00 -0.00000000000E+00 -0.79082405539E+03  0.79082405539E+03  0.00000000000E+00 0. -1.
         23    2    1    2    0    0  0.16996548060E+03 -0.11025620760E+03 -0.64969786088E+03  0.68666097157E+03  0.91385357340E+02 0.  0.
        -24    2    1    2    0    0 -0.19632744594E+03  0.79312198903E+02 -0.16185298281E+02  0.22615592896E+03  0.77779492138E+02 0.  0.
         11    1    4    4    0    0 -0.15632824166E+03  0.56838409983E+02 -0.44566173643E+02  0.17220704929E+03  0.00000000000E+00 0. -1.
        -12    1    4    4    0    0 -0.39999204275E+02  0.22473788920E+02  0.28380875362E+02  0.53948879667E+02  0.00000000000E+00 0.  1.
        -11    1    3    3    0    0  0.56487736606E+02  0.17695747972E+01 -0.25044749187E+03  0.25674489667E+03  0.00000000000E+00 0. -1.
         11    1    3    3    0    0  0.11347774400E+03 -0.11202578240E+03 -0.39925036902E+03  0.42991607491E+03  0.00000000000E+00 0.  1.
          2    1    1    2  501    0  0.26361965336E+02  0.30944008699E+02  0.27879331735E+03  0.28174136844E+03  0.00000000000E+00 0. -1.
<scales pt_clust_5="13000.00000" pt_clust_6="13000.00000" pt_clust_7="13000.00000" pt_clust_8="13000.00000" pt_clust_9="40.65077"></scales>
<clustering>
<clus scale="   40.651">  1  9  2 -1</clus>
<clus scale="   77.779">  5  6 -1 -1</clus>
<clus scale="   91.385">  7  8 -1 -1</clus>
<clus scale="  217.833">  1  5  2 -1</clus>
<clus scale="   40.651">  1  5  2 -1</clus>
</clustering>
</event>
<event>
 9    1  0.7835476E-005  0.1083608E+03  0.7546771E-02  0.1267937E+00
         -4   -1    0    0    0  501 -0.00000000000E+00  0.00000000000E+00  0.68522483346E+02  0.68522483346E+02  0.00000000000E+00 0.  1.
         21   -1    0    0  501  502  0.00000000000E+00 -0.00000000000E+00 -0.34309184577E+03  0.34309184577E+03  0.00000000000E+00 0.  1.
        -24    2    1    2    0    0  0.60655456894E+02 -0.38460776629E+01 -0.73947107643E+01  0.10064313054E+03  0.79877914428E+02 0.  0.
         23    2    1    2    0    0 -0.54193364681E+02 -0.38880840953E+02 -0.21955979544E+03  0.24667094396E+03  0.90506410016E+02 0.  0.
         11    1    3    3    0    0  0.12253946110E+02 -0.21330064648E+02 -0.34583392517E+02  0.42439862054E+02  0.00000000000E+00 0. -1.
        -12    1    3    3    0    0  0.48401510784E+02  0.17483986985E+02  0.27188681753E+02  0.58203268487E+02  0.00000000000E+00 0.  1.
        -13    1    4    4    0    0 -0.41514400453E+02 -0.67383345877E+02 -0.17712806184E+03  0.19400595619E+03  0.00000000000E+00 0.  1.
         13    1    4    4    0    0 -0.12678964228E+02  0.28502504924E+02 -0.42431733600E+02  0.52664987773E+02  0.00000000000E+00 0. -1.
         -3    1    1    2    0  502 -0.64620922129E+01  0.42726918615E+02 -0.47614856219E+02  0.64300254610E+02  0.00000000000E+00 0.  1.
<scales pt_clust_5="13000.00000" pt_clust_6="13000.00000" pt_clust_7="13000.00000" pt_clust_8="13000.00000" pt_clust_9="43.21282"></scales>
<clustering>
<clus scale="   43.213">  2  9  1 -1</clus>
<clus scale="   79.878">  5  6 -1 -1</clus>
<clus scale="   90.506">  7  8 -1 -1</clus>
<clus scale="   99.655">  1  5  2 -1</clus>
<clus scale="   43.213">  2  5  1 -1</clus>
</clustering>
</event>
<event>
 9    1  0.7835476E-005  0.1261642E+03  0.7546771E-02  0.1235374E+00
          3   -1    0    0  502    0 -0.00000000000E+00  0.00000000000E+00  0.49515543377E+03  0.49515543377E+03  0.00000000000E+00 0. -1.
         21   -1    0    0  501  502  0.00000000000E+00 -0.00000000000E+00 -0.40927565894E+02  0.40927565894E+02  0.00000000000E+00 0. -1.
         23    2    1    2    0    0  0.45174757666E+02 -0.61480219313E+02  0.17634882272E+03  0.21204082390E+03  0.89676237818E+02 0.  0.
        -24    2    1    2    0    0 -0.68506996467E+02  0.77612598635E+02  0.18763223691E+03  0.22944231621E+03  0.81981681520E+02 0.  0.
         13    1    4    4    0    0 -0.48502594685E+02  0.89239276964E+02  0.17679202535E+03  0.20389107501E+03  0.00000000000E+00 0. -1.
        -14    1    4    4    0    0 -0.20004401782E+02 -0.11626678329E+02  0.10840211567E+02  0.25551241192E+02  0.00000000000E+00 0.  1.
        -11    1    3    3    0    0 -0.22550759802E+02 -0.29967551380E+02  0.92112707717E+02  0.99455225234E+02  0.00000000000E+00 0.  1.
         11    1    3    3    0    0  0.67725517468E+02 -0.31512667933E+02  0.84236115001E+02  0.11258559867E+03  0.00000000000E+00 0. -1.
          4    1    1    2  501    0  0.23332238801E+02 -0.16132379322E+02  0.90246808241E+02  0.94599859555E+02  0.00000000000E+00 0. -1.
<scales pt_clust_5="13000.00000" pt_clust_6="13000.00000" pt_clust_7="13000.00000" pt_clust_8="13000.00000" pt_clust_9="28.36632"></scales>
<clustering>
<clus scale="   28.366">  2  9  1 -1</clus>
<clus scale="   81.982">  5  6 -1 -1</clus>
<clus scale="   89.676">  7  8 -1 -1</clus>
<clus scale="  120.816">  2  5  1 -1</clus>
<clus scale="   28.366">  2  5  1 -1</clus>
</clustering>
</event>
<event>
 9    1  0.7835476E-005  0.1562905E+03  0.7546771E-02  0.1222130E+00
          1   -1    0    0  502    0 -0.00000000000E+00  0.00000000000E+00  0.14854593125E+03  0.14854593125E+03  0.00000000000E+00 0. -1.
         21   -1    0    0  501  502  0.00000000000E+00 -0.00000000000E+00 -0.25303825831E+03  0.25303825831E+03  0.00000000000E+00 0. -1.
        -24    2    1    2    0    0 -0.27092946569E+02  0.86760764237E+01 -0.36760140629E+02  0.91314947461E+02  0.78599043473E+02 0.  0.
         23    2    1    2    0    0  0.11743957596E+03 -0.72104215225E+02 -0.10298285884E+03  0.19438890668E+03  0.90501414179E+02 0.  0.
         13    1    3    3    0    0 -0.36004637541E+02 -0.12244157493E+02  0.99969734412E+01  0.39321658093E+02  0.00000000000E+00 0. -1.
        -14    1    3    3    0    0  0.89116909725E+01  0.20920233917E+02 -0.46757114070E+02  0.51993289368E+02  0.00000000000E+00 0.  1.
        -11    1    4    4    0    0  0.33375277102E+02 -0.56284049901E+02 -0.69815357314E+01  0.65806878334E+02  0.00000000000E+00 0.  1.
         11    1    4    4    0    0  0.84064298856E+02 -0.15820165324E+02 -0.96001323112E+02  0.12858202834E+03  0.00000000000E+00 0. -1.
          2    1    1    2  501    0 -0.90346629390E+02  0.63428138801E+02  0.35250672414E+02  0.11588033543E+03  0.00000000000E+00 0. -1.
<scales pt_clust_5="13000.00000" pt_clust_6="13000.00000" pt_clust_7="13000.00000" pt_clust_8="13000.00000" pt_clust_9="127.42150"></scales>
<clustering>
<clus scale="   78.599">  5  6 -1 -1</clus>
<clus scale="   83.589">  1  5  2 -1</clus>
<clus scale="   90.501">  7  8 -1 -1</clus>
<clus scale="  127.421">  2  9  1 -1</clus>
<clus scale="  127.421">  2  5  1 -1</clus>
</clustering>
</event>
<event>
 9    1  0.7835476E-005  0.1807389E+03  0.7546771E-02  0.1167863E+00
         21   -1    0    0  501  502  0.00000000000E+00  0.00000000000E+00  0.79593136618E+02  0.79593136618E+02  0.00000000000E+00 0. -1.
          1   -1    0    0  502    0 -0.00000000000E+00 -0.00000000000E+00 -0.61522630012E+03  0.61522630012E+03  0.00000000000E+00 0. -1.
        -24    2    1    2    0    0 -0.21366349317E+02  0.13543844138E+03 -0.19378461611E+03  0.25020844669E+03  0.79067673977E+02 0.  0.
         23    2    1    2    0    0  0.38419811348E+02 -0.19062312689E+03 -0.20187306998E+03  0.29318673717E+03  0.85979463010E+02 0.  0.
         13    1    3    3    0    0 -0.35282104713E+02  0.96762551395E+02 -0.83749993603E+02  0.13274742820E+03  0.00000000000E+00 0. -1.
        -14    1    3    3    0    0  0.13915755396E+02  0.38675889981E+02 -0.11003462250E+03  0.11746101849E+03  0.00000000000E+00 0.  1.
        -13    1    4    4    0    0  0.56645838149E+02 -0.16814675281E+03 -0.14411551177E+03  0.22858556865E+03  0.00000000000E+00 0. -1.
         13    1    4    4    0    0 -0.18226026802E+02 -0.22476374085E+02 -0.57757558202E+02  0.64601168522E+02  0.00000000000E+00 0.  1.
          2    1    1    2  501    0 -0.17053462031E+02  0.55184685516E+02 -0.13997547742E+03  0.15142425288E+03  0.00000000000E+00 0. -1.
<scales pt_clust_5="13000.00000" pt_clust_6="13000.00000" pt_clust_7="13000.00000" pt_clust_8="13000.00000" pt_clust_9="57.75962"></scales>
<clustering>
<clus scale="   57.760">  1  9  2 -1</clus>
<clus scale="   79.068">  5  6 -1 -1</clus>
<clus scale="   85.979">  7  8 -1 -1</clus>
<clus scale="  177.555">  2  5  1 -1</clus>
<clus scale="   57.760">  1  5  2 -1</clus>
</clustering>
</event>
<event>
 9    1  0.7835476E-005  0.9782732E+02  0.7546771E-02  0.1293673E+00
         -2   -1    0    0    0  501 -0.00000000000E+00  0.00000000000E+00  0.40519199147E+03  0.40519199147E+03  0.00000000000E+00 0.  1.
         21   -1    0    0  501  502  0.00000000000E+00 -0.00000000000E+00 -0.47518605249E+02  0.47518605249E+02  0.00000000000E+00 0. -1.
         23    2    1    2    0    0  0.70038279050E+01  0.19334006430E+02  0.22670941719E+03  0.24646743426E+03  0.94478457323E+02 0.  0.
        -24    2    1    2    0    0 -0.60664571224E+02  0.46378930672E+01  0.72349918948E+02  0.12323873965E+03  0.79066907896E+02 0.  0.
         11    1    4    4    0    0 -0.64589565779E+02  0.49503328287E+01  0.15966048971E+02  0.66717557827E+02  0.00000000000E+00 0. -1.
        -12    1    4    4    0    0  0.39249945546E+01 -0.31243976151E+00  0.56383869977E+02  0.56521181821E+02  0.00000000000E+00 0.  1.
        -13    1    3    3    0    0  0.50353505577E+02  0.72278129282E+01  0.13608059970E+03  0.14527782494E+03  0.00000000000E+00 0.  1.
         13    1    3    3    0    0 -0.43349677672E+02  0.12106193502E+02  0.90628817490E+02  0.10118960932E+03  0.00000000000E+00 0. -1.
         -1    1    1    2    0  502  0.53660743319E+02 -0.23971899497E+02  0.58614050086E+02  0.83004422813E+02  0.00000000000E+00 0.  1.
<scales pt_clust_5="13000.00000" pt_clust_6="13000.00000" pt_clust_7="13000.00000" pt_clust_8="13000.00000" pt_clust_9="58.77182"></scales>
<clustering>
<clus scale="   58.772">  2  9  1 -1</clus>
<clus scale="   79.067">  5  6 -1 -1</clus>
<clus scale="   83.040">  2  5  1 -1</clus>
<clus scale="   94.478">  7  8 -1 -1</clus>
<clus scale="   58.772">  2  5  1 -1</clus>
</clustering>
</event>
<event>
 9    1  0.7835476E-005  0.4067679E+03  0.7546771E-02  0.1080327E+00
         21   -1    0    0  501  502  0.00000000000E+00  0.00000000000E+00  0.26774686795E+03  0.26774686795E+03  0.00000000000E+00 0. -1.
          1   -1    0    0  502    0 -0.00000000000E+00 -0.00000000000E+00 -0.85427338775E+03  0.85427338775E+03  0.00000000000E+00 0. -1.
         23    2    1    2    0    0 -0.84855420850E+02  0.53553965900E+02 -0.44394002669E+02  0.14428656026E+03  0.93697995115E+02 0.  0.
        -24    2    1    2    0    0  0.20397940223E+03  0.33687449083E+03 -0.31325747719E+03  0.50975005611E+03  0.81380916595E+02 0.  0.
         13    1    4    4    0    0  0.98223883936E+02  0.21921219512E+03 -0.22214052842E+03  0.32718241431E+03  0.00000000000E+00 0. -1.
        -14    1    4    4    0    0  0.10575551830E+03  0.11766229571E+03 -0.91116948768E+02  0.18256764180E+03  0.00000000000E+00 0.  1.
        -13    1    3    3    0    0 -0.44050014067E+02  0.21629687075E+02 -0.70793081411E+02  0.86138884819E+02  0.00000000000E+00 0.  1.
         13    1    3    3    0    0 -0.40805406782E+02  0.31924278826E+02  0.26399078741E+02  0.58147675445E+02  0.00000000000E+00 0. -1.
          2    1    1    2  501    0 -0.11912398138E+03 -0.39042845673E+03 -0.22887503995E+03  0.46798363932E+03  0.00000000000E+00 0. -1.
<scales pt_clust_5="13000.00000" pt_clust_6="13000.00000" pt_clust_7="13000.00000" pt_clust_8="13000.00000" pt_clust_9="398.54397"></scales>
<clustering>
<clus scale="   81.381">  5  6 -1 -1</clus>
<clus scale="   93.698">  7  8 -1 -1</clus>
<clus scale="  137.287">  2  7  1 -1</clus>
<clus scale="  398.544">  1  9  2 -1</clus>
<clus scale="  398.544">  1  5  2 -1</clus>
</clustering>
</event>
<event>
 9    1  0.7835476E-005  0.2485262E+03  0.7546771E-02  0.1115373E+00
         21   -1    0    0  501  502  0.00000000000E+00  0.00000000000E+00  0.24242565688E+03  0.24242565688E+03  0.00000000000E+00 0.  1.
          1   -1    0    0  502    0 -0.00000000000E+00 -0.00000000000E+00 -0.29935223883E+03  0.29935223883E+03  0.00000000000E+00 0. -1.
         23    2    1    2    0    0 -0.21510174508E+03 -0.18579374416E+00 -0.67877459691E+02  0.24624259846E+03  0.98789030290E+02 0.  0.
        -24    2    1    2    0    0  0.24665354996E+03  0.12888896671E+02 -0.10168127365E+01  0.25947824758E+03  0.79522510589E+02 0.  0.
         13    1    4    4    0    0  0.20887749244E+03 -0.13012976000E+02 -0.19279002849E+02  0.21016856174E+03  0.00000000000E+00 0. -1.
        -14    1    4    4    0    0  0.37776057527E+02  0.25901872670E+02  0.18262190112E+02  0.49309685841E+02  0.00000000000E+00 0.  1.
        -11    1    3    3    0    0 -0.11973814920E+03  0.14487663094E+01  0.13972389928E+02  0.12055932555E+03  0.00000000000E+00 0.  1.
         11    1    3    3    0    0 -0.95363595888E+02 -0.16345600536E+01 -0.81849849619E+02  0.12568327291E+03  0.00000000000E+00 0. -1.
          2    1    1    2  501    0 -0.31551804881E+02 -0.12703102926E+02  0.11967690480E+02  0.36057049666E+02  0.00000000000E+00 0. -1.
<scales pt_clust_5="13000.00000" pt_clust_6="13000.00000" pt_clust_7="13000.00000" pt_clust_8="13000.00000" pt_clust_9="34.01302"></scales>
<clustering>
<clus scale="   34.013">  1  9  2 -1</clus>
<clus scale="   79.523">  5  6 -1 -1</clus>
<clus scale="   98.789">  7  8 -1 -1</clus>
<clus scale="  241.516">  1  5  2 -1</clus>
<clus scale="   34.013">  1  5  2 -1</clus>
</clustering>
</event>
<event>
 9    1  0.7835476E-005  0.1149874E+03  0.7546771E-02  0.1256140E+00
         -2   -1    0    0    0  501 -0.00000000000E+00  0.00000000000E+00  0.15834917068E+03  0.15834917068E+03  0.00000000000E+00 0.  1.
         21   -1    0    0  501  502  0.00000000000E+00 -0.00000000000E+00 -0.18382725328E+03  0.18382725328E+03  0.00000000000E+00 0. -1.
        -24    2    1    2    0    0  0.26747122658E+02  0.54385218741E+02  0.38854924636E+02  0.10795655120E+03  0.80447195047E+02 0.  0.
         23    2    1    2    0    0  0.53995602535E+01 -0.10330344858E+03 -0.94690895288E+02  0.16828047786E+03  0.93011804841E+02 0.  0.
         13    1    3    3    0    0  0.48980632182E+02  0.16590188539E+02  0.38660587947E+01  0.51858298230E+02  0.00000000000E+00 0. -1.
        -14    1    3    3    0    0 -0.22233509523E+02  0.37795030202E+02  0.34988865841E+02  0.56098252972E+02  0.00000000000E+00 0.  1.
        -11    1    4    4    0    0 -0.20629682045E+02 -0.47245639478E+02  0.41353321767E+01  0.51718808988E+02  0.00000000000E+00 0.  1.
         11    1    4    4    0    0  0.26029242299E+02 -0.56057809104E+02 -0.98826227464E+02  0.11656166888E+03  0.00000000000E+00 0. -1.
         -1    1    1    2    0  502 -0.32146682912E+02  0.48918229840E+02  0.30357888049E+02  0.65939394900E+02  0.00000000000E+00 0.  1.
<scales pt_clust_5="13000.00000" pt_clust_6="13000.00000" pt_clust_7="13000.00000" pt_clust_8="13000.00000" pt_clust_9="58.53551"></scales>
<clustering>
<clus scale="   58.536">  2  9  1 -1</clus>
<clus scale="   80.447">  5  6 -1 -1</clus>
<clus scale="   93.012">  7  8 -1 -1</clus>
<clus scale="  105.084">  1  5  2 -1</clus>
<clus scale="   58.536">  2  5  1 -1</clus>
</clustering>
</event>
<event>
 9    1  0.7835476E-005  0.2106354E+03  0.7546771E-02  0.1141688E+00
         21   -1    0    0  501  502  0.00000000000E+00  0.00000000000E+00  0.20187211261E+03  0.20187211261E+03  0.00000000000E+00 0.  1.
          1   -1    0    0  502    0 -0.00000000000E+00 -0.00000000000E+00 -0.59239491127E+03  0.59239491127E+03  0.00000000000E+00 0. -1.
         23    2    1    2    0    0  0.16094687075E+03 -0.10810459957E+03 -0.34561347987E+03  0.40655089189E+03  0.90798956936E+02 0.  0.
        -24    2    1    2    0    0 -0.11250603655E+03  0.13413876667E+03  0.11030448669E+03  0.22304792714E+03  0.83261521943E+02 0.  0.
         11    1    4    4    0    0 -0.37841854568E+02  0.53184895593E+01  0.80031399580E+00  0.38222150526E+02  0.00000000000E+00 0. -1.
        -12    1    4    4    0    0 -0.74664181980E+02  0.12882027711E+03  0.10950417269E+03  0.18482577662E+03  0.00000000000E+00 0.  1.
        -13    1    3    3    0    0  0.71968795982E+02  0.22513593468E+01 -0.12722786801E+03  0.14618996755E+03  0.00000000000E+00 0.  1.
         13    1    3    3    0    0  0.88978074767E+02 -0.11035595892E+03 -0.21838561185E+03  0.26036092434E+03  0.00000000000E+00 0. -1.
          2    1    1    2  501    0 -0.48440834200E+02 -0.26034167091E+02 -0.15521380549E+03  0.16466820485E+03  0.00000000000E+00 0. -1.
<scales pt_clust_5="13000.00000" pt_clust_6="13000.00000" pt_clust_7="13000.00000" pt_clust_8="13000.00000" pt_clust_9="54.99359"></scales>
<clustering>
<clus scale="   54.994">  1  9  2 -1</clus>
<clus scale="   83.262">  5  6 -1 -1</clus>
<clus scale="   90.799">  7  8 -1 -1</clus>
<clus scale="  207.498">  1  5  2 -1</clus>
<clus scale="   54.994">  1  5  2 -1</clus>
</clustering>
</event>
<event>
 9    1  0.7835476E-005  0.9694186E+02  0.7546771E-02  0.1295949E+00
          1   -1    0    0  502    0 -0.00000000000E+00  0.00000000000E+00  0.33709164571E+02  0.33709164571E+02  0.00000000000E+00 0. -1.
         21   -1    0    0  501  502  0.00000000000E+00 -0.00000000000E+00 -0.38121425166E+03  0.38121425166E+03  0.00000000000E+00 0. -1.
         23    2    1    2    0    0  0.30150367095E+02  0.12995600169E+02 -0.11077812625E+03  0.14749636167E+03  0.91681258663E+02 0.  0.
        -24    2    1    2    0    0 -0.65498968507E+01 -0.38676884018E+02 -0.13196135508E+03  0.15700811286E+03  0.75491362187E+02 0.  0.
         13    1    4    4    0    0  0.27001266805E+02 -0.14707448495E+02 -0.10062674460E+03  0.10521938594E+03  0.00000000000E+00 0. -1.
        -14    1    4    4    0    0 -0.33551163655E+02 -0.23969435523E+02 -0.31334610480E+02  0.51788726918E+02  0.00000000000E+00 0.  1.
        -11    1    3    3    0    0 -0.18871908141E+02  0.34139363043E+02 -0.70670907368E+02  0.80721881631E+02  0.00000000000E+00 0.  1.
         11    1    3    3    0    0  0.49022275236E+02 -0.21143762875E+02 -0.40107218887E+02  0.66774480040E+02  0.00000000000E+00 0. -1.
          2    1    1    2  501    0 -0.23600470245E+02  0.25681283849E+02 -0.10476560576E+03  0.11041894170E+03  0.00000000000E+00 0. -1.
<scales pt_clust_5="13000.00000" pt_clust_6="13000.00000" pt_clust_7="13000.00000" pt_clust_8="13000.00000" pt_clust_9="34.87851"></scales>
<clustering>
<clus scale="   34.879">  2  9  1 -1</clus>
<clus scale="   75.491">  5  6 -1 -1</clus>
<clus scale="   81.800">  2  5  1 -1</clus>
<clus scale="   91.681">  7  8 -1 -1</clus>
<clus scale="   34.879">  2  5  1 -1</clus>
</clustering>
</event>
<event>
 9    1  0.7835476E-005  0.9586077E+02  0.7546771E-02  0.1292099E+00
         21   -1    0    0  501  502  0.00000000000E+00  0.00000000000E+00  0.42264037671E+02  0.42264037671E+02  0.00000000000E+00 0.  1.
          1   -1    0    0  502    0 -0.00000000000E+00 -0.00000000000E+00 -0.26472453371E+03  0.26472453371E+03  0.00000000000E+00 0. -1.
        -24    2    1    2    0    0 -0.72801024324E+01 -0.45703949924E+02 -0.11810745416E+03  0.15041710885E+03  0.80833687140E+02 0.  0.
         23    2    1    2    0    0  0.22679644161E+02  0.30825170811E+02 -0.91850198728E+02  0.13177539349E+03  0.86392927415E+02 0.  0.
         13    1    3    3    0    0 -0.21241251252E+02 -0.26511519121E+02 -0.43951126991E+01  0.34254465643E+02  0.00000000000E+00 0. -1.
        -14    1    3    3    0    0  0.13961148819E+02 -0.19192430803E+02 -0.11371234146E+03  0.11616264320E+03  0.00000000000E+00 0.  1.
        -13    1    4    4    0    0 -0.15212530180E+02  0.22223954619E+02 -0.88806294713E+02  0.92800232833E+02  0.00000000000E+00 0. -1.
         13    1    4    4    0    0  0.37892174341E+02  0.86012161926E+01 -0.30439040152E+01  0.38975160653E+02  0.00000000000E+00 0.  1.
          2    1    1    2  501    0 -0.15399541729E+02  0.14878779113E+02 -0.12502843159E+02  0.24796069052E+02  0.00000000000E+00 0. -1.
<scales pt_clust_5="13000.00000" pt_clust_6="13000.00000" pt_clust_7="13000.00000" pt_clust_8="13000.00000" pt_clust_9="21.41317"></scales>
<clustering>
<clus scale="   21.413">  1  9  2 -1</clus>
<clus scale="   80.834">  5  6 -1 -1</clus>
<clus scale="   86.393">  7  8 -1 -1</clus>
<clus scale="   90.883">  2  5  1 -1</clus>
<clus scale="   21.413">  1  5  2 -1</clus>
</clustering>
</event>
<event>
 9    1  0.7835476E-005  0.1745406E+03  0.7546771E-02  0.1173701E+00
          1   -1    0    0  502    0 -0.00000000000E+00  0.00000000000E+00  0.54218742787E+03  0.54218742787E+03  0.00000000000E+00 0. -1.
         21   -1    0    0  501  502  0.00000000000E+00 -0.00000000000E+00 -0.19836745954E+03  0.19836745954E+03  0.00000000000E+00 0.  1.
         23    2    1    2    0    0 -0.15262238758E+03  0.26393394100E+00  0.44396116865E+03  0.47741322838E+03  0.86765249463E+02 0.  0.
        -24    2    1    2    0    0  0.14472989355E+03  0.28244615004E+02 -0.11209977168E+02  0.16941977644E+03  0.82661337386E+02 0.  0.
         13    1    4    4    0    0  0.10566704642E+03  0.15547072151E+02  0.30303325969E+02  0.11102039325E+03  0.00000000000E+00 0. -1.
        -14    1    4    4    0    0  0.39062847123E+02  0.12697542853E+02 -0.41513303137E+02  0.58399383192E+02  0.00000000000E+00 0.  1.
        -11    1    3    3    0    0 -0.79560100265E+02  0.43249956774E+02  0.24165415730E+03  0.25806413943E+03  0.00000000000E+00 0.  1.
         11    1    3    3    0    0 -0.73062287310E+02 -0.42986022833E+02  0.20230701134E+03  0.21934908895E+03  0.00000000000E+00 0. -1.
          2    1    1    2  501    0  0.78924940282E+01 -0.28508548945E+02 -0.88931223145E+02  0.93721882584E+02  0.00000000000E+00 0. -1.
<scales pt_clust_5="13000.00000" pt_clust_6="13000.00000" pt_clust_7="13000.00000" pt_clust_8="13000.00000" pt_clust_9="29.58089"></scales>
<clustering>
<clus scale="   29.581">  2  9  1 -1</clus>
<clus scale="   82.661">  5  6 -1 -1</clus>
<clus scale="   86.765">  7  8 -1 -1</clus>
<clus scale="  172.537">  2  5  1 -1</clus>
<clus scale="   29.581">  2  5  1 -1</clus>
</clustering>
</event>
<event>
 9    1  0.7835476E-005  0.9868445E+02  0.7546771E-02  0.1289532E+00
         21   -1    0    0  501  502  0.00000000000E+00  0.00000000000E+00  0.82667445518E+02  0.82667445518E+02  0.00000000000E+00 0. -1.
          3   -1    0    0  502    0 -0.00000000000E+00 -0.00000000000E+00 -0.30402774389E+03  0.30402774389E+03  0.00000000000E+00 0. -1.
        -24    2    1    2    0    0 -0.47968285940E+02  0.20348733547E+02 -0.16492430093E+03  0.19061415269E+03  0.80116806950E+02 0.  0.
         23    2    1    2    0    0 -0.17996037593E+02 -0.31716296983E+02 -0.77492688191E+02  0.12591054646E+03  0.92296089427E+02 0.  0.
         13    1    3    3    0    0 -0.21861887320E+02 -0.11288428331E+02 -0.14099695551E+03  0.14312760808E+03  0.00000000000E+00 0. -1.
        -14    1    3    3    0    0 -0.26106398620E+02  0.31637161878E+02 -0.23927345427E+02  0.47486544618E+02  0.00000000000E+00 0.  1.
        -11    1    4    4    0    0  0.16662367332E+00 -0.49785005565E+02 -0.85611929464E+02  0.99035231151E+02  0.00000000000E+00 0. -1.
         11    1    4    4    0    0 -0.18162661266E+02  0.18068708582E+02  0.81192412735E+01  0.26875315309E+02  0.00000000000E+00 0.  1.
          4    1    1    2  501    0  0.65964323533E+02  0.11367563436E+02  0.21056690748E+02  0.70170490257E+02  0.00000000000E+00 0. -1.
<scales pt_clust_5="13000.00000" pt_clust_6="13000.00000" pt_clust_7="13000.00000" pt_clust_8="13000.00000" pt_clust_9="66.93664"></scales>
<clustering>
<clus scale="   66.937">  1  9  2 -1</clus>
<clus scale="   80.117">  5  6 -1 -1</clus>
<clus scale="   87.400">  2  5  1 -1</clus>
<clus scale="   92.296">  7  8 -1 -1</clus>
<clus scale="   66.937">  1  5  2 -1</clus>
</clustering>
</event>
<event>
 9    1  0.7835476E-005  0.3962710E+03  0.7546771E-02  0.1045286E+00
         21   -1    0    0  501  502  0.00000000000E+00  0.00000000000E+00  0.20315470094E+03  0.20315470094E+03  0.00000000000E+00 0.  1.
          1   -1    0    0  502    0 -0.00000000000E+00 -0.00000000000E+00 -0.24926327243E+04  0.24926327243E+04  0.00000000000E+00 0. -1.
         23    2    1    2    0    0  0.14716479756E+03 -0.35473045496E+03 -0.13840166624E+04  0.14391620121E+04  0.90520726932E+02 0.  0.
        -24    2    1    2    0    0  0.15209064932E+02  0.42896118211E+03 -0.12226454713E+03  0.45333672202E+03  0.79539629311E+02 0.  0.
         11    1    4    4    0    0  0.28924795001E+02  0.29692435380E+03 -0.11710034436E+03  0.32048901119E+03  0.00000000000E+00 0. -1.
        -12    1    4    4    0    0 -0.13715730069E+02  0.13203682831E+03 -0.51642027708E+01  0.13284771082E+03  0.00000000000E+00 0.  1.
        -13    1    3    3    0    0  0.36448439680E+02 -0.80100597077E+02 -0.47653027971E+03  0.48458817762E+03  0.00000000000E+00 0.  1.
         13    1    3    3    0    0  0.11071635788E+03 -0.27462985788E+03 -0.90748638272E+03  0.95457383452E+03  0.00000000000E+00 0. -1.
          2    1    1    2  501    0 -0.16237386249E+03 -0.74230727155E+02 -0.78319681383E+03  0.80328869111E+03  0.00000000000E+00 0. -1.
<scales pt_clust_5="13000.00000" pt_clust_6="13000.00000" pt_clust_7="13000.00000" pt_clust_8="13000.00000" pt_clust_9="178.53712"></scales>
<clustering>
<clus scale="   79.540">  5  6 -1 -1</clus>
<clus scale="   90.521">  7  8 -1 -1</clus>
<clus scale="  178.537">  1  9  2 -1</clus>
<clus scale="  393.908">  1  5  2 -1</clus>
<clus scale="  178.537">  1  5  2 -1</clus>
</clustering>
</event>
<event>
 9    1  0.7835476E-005  0.1140413E+03  0.7546771E-02  0.1257182E+00
          3   -1    0    0  502    0 -0.00000000000E+00  0.00000000000E+00  0.82443220665E+03  0.82443220665E+03  0.00000000000E+00 0. -1.
         21   -1    0    0  501  502  0.00000000000E+00 -0.00000000000E+00 -0.25577249180E+02  0.25577249180E+02  0.00000000000E+00 0. -1.
        -24    2    1    2    0    0  0.57116942361E+02 -0.24433164126E+02  0.48317622306E+03  0.49369586139E+03  0.80106281932E+02 0.  0.
         23    2    1    2    0    0 -0.77120320987E+02  0.49689361606E+02  0.21769643955E+03  0.25317029232E+03  0.91032305000E+02 0.  0.
         11    1    3    3    0    0  0.74203122395E+02 -0.28782311792E+02  0.32786006701E+03  0.33738219927E+03  0.00000000000E+00 0. -1.
        -12    1    3    3    0    0 -0.17086180033E+02  0.43491476655E+01  0.15531615605E+03  0.15631366212E+03  0.00000000000E+00 0.  1.
        -11    1    4    4    0    0 -0.67861486797E+02  0.58440664682E+01  0.65435076614E+02  0.94451488896E+02  0.00000000000E+00 0. -1.
         11    1    4    4    0    0 -0.92588341892E+01  0.43845295138E+02  0.15226136294E+03  0.15871880342E+03  0.00000000000E+00 0.  1.
          4    1    1    2  501    0  0.20003378625E+02 -0.25256197480E+02  0.97982294850E+02  0.10314330212E+03  0.00000000000E+00 0. -1.
<scales pt_clust_5="13000.00000" pt_clust_6="13000.00000" pt_clust_7="13000.00000" pt_clust_8="13000.00000" pt_clust_9="32.21819"></scales>
<clustering>
<clus scale="   32.218">  2  9  1 -1</clus>
<clus scale="   80.106">  5  6 -1 -1</clus>
<clus scale="   91.032">  7  8 -1 -1</clus>
<clus scale="  105.525">  1  5  2 -1</clus>
<clus scale="   32.218">  2  5  1 -1</clus>
</clustering>
</event>
<event>
 9    1  0.7835476E-005  0.2220644E+03  0.7546771E-02  0.1168313E+00
         21   -1    0    0  501  502  0.00000000000E+00  0.00000000000E+00  0.86951901081E+02  0.86951901081E+02  0.00000000000E+00 0.  1.
          1   -1    0    0  502    0 -0.00000000000E+00 -0.00000000000E+00 -0.10005801334E+04  0.10005801334E+04  0.00000000000E+00 0. -1.
        -24    2    1    2    0    0  0.37050540587E+02  0.34903372034E+02 -0.25469240284E+03  0.27174540903E+03  0.79914700334E+02 0.  0.
         23    2    1    2    0    0  0.16947433489E+03 -0.71842984648E+02 -0.53265796684E+03  0.57091286659E+03  0.91290892039E+02 0.  0.
         11    1    3    3    0    0  0.40629322533E+02  0.16575509239E+02 -0.24808670065E+03  0.25193749303E+03  0.00000000000E+00 0. -1.
        -12    1    3    3    0    0 -0.35787819467E+01  0.18327862795E+02 -0.66057021882E+01  0.19807916000E+02  0.00000000000E+00 0.  1.
        -11    1    4    4    0    0  0.98094501305E+02 -0.54196038244E+02 -0.19116637800E+03  0.22159495894E+03  0.00000000000E+00 0.  1.
         11    1    4    4    0    0  0.71379833590E+02 -0.17646946404E+02 -0.34149158884E+03  0.34931790766E+03  0.00000000000E+00 0. -1.
          2    1    1    2  501    0 -0.20652487548E+03  0.36939612614E+02 -0.12627786259E+03  0.24487375881E+03  0.00000000000E+00 0. -1.
<scales pt_clust_5="13000.00000" pt_clust_6="13000.00000" pt_clust_7="13000.00000" pt_clust_8="13000.00000" pt_clust_9="202.43167"></scales>
<clustering>
<clus scale="   79.915">  5  6 -1 -1</clus>
<clus scale="   91.291">  7  8 -1 -1</clus>
<clus scale="   94.749">  2  5  1 -1</clus>
<clus scale="  202.432">  1  9  2 -1</clus>
<clus scale="  202.432">  1  5  2 -1</clus>
</clustering>
</event>
<event>
 9    1  0.7835476E-005  0.1494043E+03  0.7546771E-02  0.1203017E+00
          1   -1    0    0  502    0 -0.00000000000E+00  0.00000000000E+00  0.27136025084E+03  0.27136025084E+03  0.00000000000E+00 0. -1.
         21   -1    0    0  501  502  0.00000000000E+00 -0.00000000000E+00 -0.10024463260E+03  0.10024463260E+03  0.00000000000E+00 0. -1.
        -24    2    1    2    0    0  0.11749663506E+03  0.12528480540E+02  0.12887512612E+03  0.19138327147E+03  0.77822467131E+02 0.  0.
         23    2    1    2    0    0 -0.12254551212E+03 -0.32708020170E+02  0.35901956008E+02  0.15847576135E+03  0.87968172452E+02 0.  0.
         13    1    3    3    0    0  0.95464038537E+02  0.87931338718E+01  0.47490292345E+02  0.10698611931E+03  0.00000000000E+00 0. -1.
        -14    1    3    3    0    0  0.22032596523E+02  0.37353466677E+01  0.81384833780E+02  0.84397152165E+02  0.00000000000E+00 0.  1.
        -11    1    4    4    0    0 -0.68710241425E+02  0.11108211053E+02 -0.16467278166E+02  0.71523848328E+02  0.00000000000E+00 0. -1.
         11    1    4    4    0    0 -0.53835270695E+02 -0.43816231223E+02  0.52369234174E+02  0.86951913017E+02  0.00000000000E+00 0.  1.
          2    1    1    2  501    0  0.50488770603E+01  0.20179539630E+02  0.63385361118E+01  0.21745850622E+02  0.00000000000E+00 0. -1.
<scales pt_clust_5="13000.00000" pt_clust_6="13000.00000" pt_clust_7="13000.00000" pt_clust_8="13000.00000" pt_clust_9="20.80156"></scales>
<clustering>
<clus scale="   20.802">  2  9  1 -1</clus>
<clus scale="   77.822">  5  6 -1 -1</clus>
<clus scale="   87.968">  7  8 -1 -1</clus>
<clus scale="  143.665">  1  5  2 -1</clus>
<clus scale="   20.802">  2  5  1 -1</clus>
</clustering>
</event>
<event>
 9    1  0.7835476E-005  0.1383359E+03  0.7546771E-02  0.1215936E+00
         21   -1    0    0  501  502  0.00000000000E+00  0.00000000000E+00  0.12114828432E+03  0.12114828432E+03  0.00000000000E+00 0. -1.
          1   -1    0    0  502    0 -0.00000000000E+00 -0.00000000000E+00 -0.45289597516E+03  0.45289597516E+03  0.00000000000E+00 0. -1.
        -24    2    1    2    0    0 -0.75085081521E+02 -0.57361425741E+02 -0.28136586951E+03  0.31095886611E+03  0.92739211011E+02 0.  0.
         23    2    1    2    0    0  0.89508693525E+02  0.12725588834E+03 -0.89638552294E+01  0.18057039835E+03  0.91211023060E+02 0.  0.
         13    1    3    3    0    0 -0.69906338192E+02 -0.41425192154E+01 -0.21268848950E+03  0.22392063360E+03  0.00000000000E+00 0. -1.
        -14    1    3    3    0    0 -0.51787433289E+01 -0.53218906526E+02 -0.68677380007E+02  0.87038232512E+02  0.00000000000E+00 0.  1.
        -13    1    4    4    0    0  0.76358522767E+02  0.10819007403E+03  0.29502820208E+02  0.13566920254E+03  0.00000000000E+00 0. -1.
         13    1    4    4    0    0  0.13150170757E+02  0.19065814308E+02 -0.38466675437E+02  0.44901195812E+02  0.00000000000E+00 0.  1.
          2    1    1    2  501    0 -0.14423612004E+02 -0.69894462598E+02 -0.41417966101E+02  0.82514995007E+02  0.00000000000E+00 0. -1.
<scales pt_clust_5="13000.00000" pt_clust_6="13000.00000" pt_clust_7="13000.00000" pt_clust_8="13000.00000" pt_clust_9="71.36719"></scales>
<clustering>
<clus scale="   71.367">  1  9  2 -1</clus>
<clus scale="   91.211">  7  8 -1 -1</clus>
<clus scale="   92.739">  5  6 -1 -1</clus>
<clus scale="  137.316">  1  7  2 -1</clus>
<clus scale="   71.367">  1  5  2 -1</clus>
</clustering>
</event>
<event>
 9    1  0.7835476E-005  0.1755267E+03  0.7546771E-02  0.1172927E+00
         -2   -1    0    0    0  501 -0.00000000000E+00  0.00000000000E+00  0.72058289398E+02  0.72058289398E+02  0.00000000000E+00 0.  1.
         21   -1    0    0  501  502  0.00000000000E+00 -0.00000000000E+00 -0.14052056954E+04  0.14052056954E+04  0.00000000000E+00 0.  1.
         23    2    1    2    0    0 -0.89939252690E+02  0.11395357584E+03 -0.10327600575E+03  0.20446928328E+03  0.10033577538E+03 0.  0.
        -24    2    1    2    0    0  0.40039146682E+02 -0.13896101393E+03 -0.11939020933E+04  0.12063930179E+04  0.95229242773E+02 0.  0.
         13    1    4    4    0    0  0.46596671157E+02 -0.38744897982E+02 -0.25347290154E+03  0.26061643981E+03  0.00000000000E+00 0. -1.
        -14    1    4    4    0    0 -0.65575244753E+01 -0.10021611594E+03 -0.94042919177E+03  0.94577657814E+03  0.00000000000E+00 0.  1.
        -11    1    3    3    0    0 -0.57882923574E+02  0.15428797690E+02 -0.77042534420E+02  0.97591150979E+02  0.00000000000E+00 0. -1.
         11    1    3    3    0    0 -0.32056329116E+02  0.98524778154E+02 -0.26233471326E+02  0.10687813230E+03  0.00000000000E+00 0.  1.
         -1    1    1    2    0  502  0.49900106008E+02  0.25007438083E+02 -0.35969306952E+02  0.66401683576E+02  0.00000000000E+00 0.  1.
<scales pt_clust_5="13000.00000" pt_clust_6="13000.00000" pt_clust_7="13000.00000" pt_clust_8="13000.00000" pt_clust_9="55.81573"></scales>
<clustering>
<clus scale="   55.816">  2  9  1 -1</clus>
<clus scale="   95.229">  5  6 -1 -1</clus>
<clus scale="  100.336">  7  8 -1 -1</clus>
<clus scale="  172.659">  2  5  1 -1</clus>
<clus scale="   55.816">  2  5  1 -1</clus>
</clustering>
</event>
<event>
 9    1  0.7835476E-005  0.1884825E+03  0.7546771E-02  0.1160553E+00
         21   -1    0    0  501  502  0.00000000000E+00  0.00000000000E+00  0.19466377782E+03  0.19466377782E+03  0.00000000000E+00 0.  1.
         -2   -1    0    0    0  501 -0.00000000000E+00 -0.00000000000E+00 -0.50146424608E+03  0.50146424608E+03  0.00000000000E+00 0.  1.
        -24    2    1    2    0    0  0.16409207162E+03  0.19851654139E+02 -0.26298525825E+03  0.32076882405E+03  0.80069321750E+02 0.  0.
         23    2    1    2    0    0 -0.14184700458E+03 -0.15979017638E+03 -0.35415024748E+02  0.23341485820E+03  0.87033320467E+02 0.  0.
         11    1    3    3    0    0  0.11592470316E+02  0.21034972013E+02 -0.74719954764E+02  0.78485202781E+02  0.00000000000E+00 0. -1.
        -12    1    3    3    0    0  0.15249960130E+03 -0.11833178746E+01 -0.18826530349E+03  0.24228362127E+03  0.00000000000E+00 0.  1.
        -11    1    4    4    0    0 -0.37783093545E+02 -0.50261025873E+02 -0.51771514784E+02  0.81449509653E+02  0.00000000000E+00 0. -1.
         11    1    4    4    0    0 -0.10406391104E+03 -0.10952915051E+03  0.16356490036E+02  0.15196534854E+03  0.00000000000E+00 0.  1.
         -1    1    1    2    0  502 -0.22245067038E+02  0.13993852224E+03 -0.84001852547E+01  0.14194434165E+03  0.00000000000E+00 0.  1.
<scales pt_clust_5="13000.00000" pt_clust_6="13000.00000" pt_clust_7="13000.00000" pt_clust_8="13000.00000" pt_clust_9="141.69556"></scales>
<clustering>
<clus scale="   80.069">  5  6 -1 -1</clus>
<clus scale="   87.033">  7  8 -1 -1</clus>
<clus scale="  141.696">  1  9  2 -1</clus>
<clus scale="  185.370">  2  5  1 -1</clus>
<clus scale="  141.696">  1  5  2 -1</clus>
</clustering>
</event>
<event>
 9    1  0.7835476E-005  0.1572013E+03  0.7546771E-02  0.1216141E+00
          1   -1    0    0  502    0 -0.00000000000E+00  0.00000000000E+00  0.26505674162E+03  0.26505674162E+03  0.00000000000E+00 0. -1.
         21   -1    0    0  501  502  0.00000000000E+00 -0.00000000000E+00 -0.14086741420E+03  0.14086741420E+03  0.00000000000E+00 0. -1.
        -24    2    1    2    0    0 -0.40019902954E+02 -0.13077199071E+02  0.53800066761E+02  0.10758796649E+03  0.83115086371E+02 0.  0.
         23    2    1    2    0    0 -0.31677476693E+02  0.12483573046E+03  0.46246299682E+02  0.16337928454E+03  0.89256082444E+02 0.  0.
         11    1    3    3    0    0 -0.44688381096E+02 -0.19262365820E+02  0.72516247217E+02  0.87330958156E+02  0.00000000000E+00 0. -1.
        -12    1    3    3    0    0  0.46684781418E+01  0.61851667494E+01 -0.18716180456E+02  0.20257008336E+02  0.00000000000E+00 0.  1.
        -11    1    4    4    0    0 -0.16423542767E+01  0.11690155433E+03  0.12608412409E+02  0.11759099794E+03  0.00000000000E+00 0. -1.
         11    1    4    4    0    0 -0.30035122416E+02  0.79341761242E+01  0.33637887273E+02  0.45788286598E+02  0.00000000000E+00 0.  1.
          2    1    1    2  501    0  0.71697379647E+02 -0.11175853138E+03  0.24142960982E+02  0.13495690479E+03  0.00000000000E+00 0. -1.
<scales pt_clust_5="13000.00000" pt_clust_6="13000.00000" pt_clust_7="13000.00000" pt_clust_8="13000.00000" pt_clust_9="129.40474"></scales>
<clustering>
<clus scale="   83.115">  5  6 -1 -1</clus>
<clus scale="   89.256">  7  8 -1 -1</clus>
<clus scale="   93.170">  1  5  2 -1</clus>
<clus scale="  129.405">  2  9  1 -1</clus>
<clus scale="  129.405">  2  5  1 -1</clus>
</clustering>
</event>
<event>
 9    1  0.7835476E-005  0.1815101E+03  0.7546771E-02  0.1167362E+00
          1   -1    0    0  502    0 -0.00000000000E+00  0.00000000000E+00  0.42293484751E+03  0.42293484751E+03  0.00000000000E+00 0. -1.
         21   -1    0    0  501  502  0.00000000000E+00 -0.00000000000E+00 -0.14839907568E+03  0.14839907568E+03  0.00000000000E+00 0.  1.
         23    2    1    2    0    0 -0.19591351587E+03  0.43067313907E+02  0.21812198053E+03  0.30979232575E+03  0.90317149417E+02 0.  0.
        -24    2    1    2    0    0  0.81212696851E+02 -0.67225148340E+02  0.46225961738E+01  0.13339243927E+03  0.81593209029E+02 0.  0.
         11    1    4    4    0    0 -0.78744349284E+01 -0.28579185079E+02  0.19021989681E+02  0.35222331505E+02  0.00000000000E+00 0. -1.
        -12    1    4    4    0    0  0.89087131779E+02 -0.38645963260E+02 -0.14399393507E+02  0.98170107764E+02  0.00000000000E+00 0.  1.
        -13    1    3    3    0    0 -0.34600817249E+02  0.34756596427E+02  0.17152994581E+02  0.51956354496E+02  0.00000000000E+00 0. -1.
         13    1    3    3    0    0 -0.16131269862E+03  0.83107174803E+01  0.20096898595E+03  0.25783597126E+03  0.00000000000E+00 0.  1.
          2    1    1    2  501    0  0.11470081902E+03  0.24157834432E+02  0.51791195123E+02  0.12814915817E+03  0.00000000000E+00 0. -1.
<scales pt_clust_5="13000.00000" pt_clust_6="13000.00000" pt_clust_7="13000.00000" pt_clust_8="13000.00000" pt_clust_9="117.21723"></scales>
<clustering>
<clus scale="   81.593">  5  6 -1 -1</clus>
<clus scale="   90.317">  7  8 -1 -1</clus>
<clus scale="  117.217">  2  9  1 -1</clus>
<clus scale="  177.331">  2  5  1 -1</clus>
<clus scale="  117.217">  2  5  1 -1</clus>
</clustering>
</event>
<event>
 9    1  0.7835476E-005  0.1480331E+03  0.7546771E-02  0.1204490E+00
          1   -1    0    0  502    0 -0.00000000000E+00  0.00000000000E+00  0.68587263620E+03  0.68587263620E+03  0.00000000000E+00 0. -1.
         21   -1    0    0  501  502  0.00000000000E+00 -0.00000000000E+00 -0.10131483027E+03  0.10131483027E+03  0.00000000000E+00 0. -1.
         23    2    1    2    0    0  0.10154442670E+03  0.69544689230E+02  0.47769177879E+03  0.50150674885E+03  0.90398281111E+02 0.  0.
        -24    2    1    2    0    0 -0.98270911392E+02 -0.42467686528E+02  0.16994587789E+03  0.21695701319E+03  0.82024799497E+02 0.  0.
         13    1    4    4    0    0 -0.58050679404E+02  0.82538822431E+01  0.37673790849E+02  0.69694493816E+02  0.00000000000E+00 0. -1.
        -14    1    4    4    0    0 -0.40220231987E+02 -0.50721568772E+02  0.13227208705E+03  0.14726251937E+03  0.00000000000E+00 0.  1.
        -13    1    3    3    0    0  0.20605195304E+02  0.56322449026E+02  0.11545994485E+03  0.13010684533E+03  0.00000000000E+00 0.  1.
         13    1    3    3    0    0  0.80939231392E+02  0.13222240205E+02  0.36223183394E+03  0.37139990352E+03  0.00000000000E+00 0. -1.
          2    1    1    2  501    0 -0.32735153047E+01 -0.27077002702E+02 -0.63079850761E+02  0.68723704424E+02  0.00000000000E+00 0. -1.
<scales pt_clust_5="13000.00000" pt_clust_6="13000.00000" pt_clust_7="13000.00000" pt_clust_8="13000.00000" pt_clust_9="27.27416"></scales>
<clustering>
<clus scale="   27.274">  2  9  1 -1</clus>
<clus scale="   82.025">  5  6 -1 -1</clus>
<clus scale="   90.398">  7  8 -1 -1</clus>
<clus scale="  143.073">  2  5  1 -1</clus>
<clus scale="   27.274">  2  5  1 -1</clus>
</clustering>
</event>
<event>
 9    1  0.7835476E-005  0.1378362E+03  0.7546771E-02  0.1218497E+00
         -2   -1    0    0    0  501 -0.00000000000E+00  0.00000000000E+00  0.19136445941E+03  0.19136445941E+03  0.00000000000E+00 0.  1.
         21   -1    0    0  501  502  0.00000000000E+00 -0.00000000000E+00 -0.18893737298E+03  0.18893737298E+03  0.00000000000E+00 0.  1.
        -24    2    1    2    0    0  0.50464744577E+02 -0.45209009264E+02 -0.40137714645E+01  0.10572996188E+03  0.81068918300E+02 0.  0.
         23    2    1    2    0    0 -0.12206464121E+03  0.10105515088E+03  0.15164165597E+02  0.18334998263E+03  0.90968918105E+02 0.  0.
         13    1    3    3    0    0  0.85767583418E+01  0.21907325368E+02  0.96771890990E+01  0.25438940177E+02  0.00000000000E+00 0. -1.
        -14    1    3    3    0    0  0.41887986235E+02 -0.67116334633E+02 -0.13690960564E+02  0.80291021705E+02  0.00000000000E+00 0.  1.
        -13    1    4    4    0    0 -0.86016736884E+02  0.17296214337E+02 -0.11145800527E+02  0.88443580457E+02  0.00000000000E+00 0.  1.
         13    1    4    4    0    0 -0.36047904321E+02  0.83758936541E+02  0.26309966124E+02  0.94906402176E+02  0.00000000000E+00 0. -1.
         -1    1    1    2    0  502  0.71599896629E+02 -0.55846141614E+02 -0.87233077097E+01  0.91221887877E+02  0.00000000000E+00 0.  1.
<scales pt_clust_5="13000.00000" pt_clust_6="13000.00000" pt_clust_7="13000.00000" pt_clust_8="13000.00000" pt_clust_9="90.80384"></scales>
<clustering>
<clus scale="   81.069">  5  6 -1 -1</clus>
<clus scale="   90.804">  2  9  1 -1</clus>
<clus scale="   90.969">  7  8 -1 -1</clus>
<clus scale="  131.513">  1  5  2 -1</clus>
<clus scale="   90.804">  2  5  1 -1</clus>
</clustering>
</event>
<event>
 9    1  0.7835476E-005  0.1118769E+03  0.7546771E-02  0.1261615E+00
         21   -1    0    0  501  502  0.00000000000E+00  0.00000000000E+00  0.15637175018E+03  0.15637175018E+03  0.00000000000E+00 0. -1.
          3   -1    0    0  502    0 -0.00000000000E+00 -0.00000000000E+00 -0.10962338096E+03  0.10962338096E+03  0.00000000000E+00 0. -1.
        -24    2    1    2    0    0  0.52868732262E+02  0.19823965620E+02 -0.16437823119E+02  0.98997210645E+02  0.79637636973E+02 0.  0.
         23    2    1    2    0    0 -0.79214543321E+02 -0.14129115372E+02  0.32354060601E+02  0.12604485678E+03  0.91465539464E+02 0.  0.
         11    1    3    3    0    0  0.34341183180E+02 -0.24384114178E+02 -0.26846817956E+02  0.49946506593E+02  0.00000000000E+00 0. -1.
        -12    1    3    3    0    0  0.18527549083E+02  0.44208079799E+02  0.10408994837E+02  0.49050704052E+02  0.00000000000E+00 0.  1.
        -13    1    4    4    0    0  0.35641889698E+01  0.24112713448E+02  0.24439261120E+02  0.34516718804E+02  0.00000000000E+00 0.  1.
         13    1    4    4    0    0 -0.82778732290E+02 -0.38241828821E+02  0.79147994803E+01  0.91528137979E+02  0.00000000000E+00 0. -1.
          4    1    1    2  501    0  0.26345811058E+02 -0.56948502481E+01  0.30832131740E+02  0.40953063711E+02  0.00000000000E+00 0. -1.
<scales pt_clust_5="13000.00000" pt_clust_6="13000.00000" pt_clust_7="13000.00000" pt_clust_8="13000.00000" pt_clust_9="26.95428"></scales>
<clustering>
<clus scale="   26.954">  1  9  2 -1</clus>
<clus scale="   79.638">  5  6 -1 -1</clus>
<clus scale="   91.466">  7  8 -1 -1</clus>
<clus scale="  102.434">  2  5  1 -1</clus>
<clus scale="   26.954">  1  5  2 -1</clus>
</clustering>
</event>
<event>
 9    1  0.7835476E-005  0.1271173E+03  0.7546771E-02  0.1234385E+00
         21   -1    0    0  501  502  0.00000000000E+00  0.00000000000E+00  0.56278933178E+02  0.56278933178E+02  0.00000000000E+00 0. -1.
          1   -1    0    0  502    0 -0.00000000000E+00 -0.00000000000E+00 -0.41015511416E+03  0.41015511416E+03  0.00000000000E+00 0. -1.
         23    2    1    2    0    0 -0.20894982815E+02 -0.84702238294E+02 -0.21349553416E+03  0.24767015610E+03  0.90272330405E+02 0.  0.
        -24    2    1    2    0    0  0.57958618674E+02  0.79645302635E+02 -0.89734325479E+02  0.15580092143E+03  0.80740957632E+02 0.  0.
         11    1    4    4    0    0  0.38774004110E+02  0.92081285040E+02 -0.54529579542E+02  0.11382381778E+03  0.00000000000E+00 0. -1.
        -12    1    4    4    0    0  0.19184614564E+02 -0.12435982405E+02 -0.35204745937E+02  0.41977103650E+02  0.00000000000E+00 0.  1.
        -11    1    3    3    0    0 -0.54802086948E+01 -0.32588672149E+02 -0.18175438057E+03  0.18473415790E+03  0.00000000000E+00 0.  1.
         11    1    3    3    0    0 -0.15414774120E+02 -0.52113566145E+02 -0.31741153588E+02  0.62935998194E+02  0.00000000000E+00 0. -1.
          2    1    1    2  501    0 -0.37063635859E+02  0.50569356595E+01 -0.50646321343E+02  0.62962969807E+02  0.00000000000E+00 0. -1.
<scales pt_clust_5="13000.00000" pt_clust_6="13000.00000" pt_clust_7="13000.00000" pt_clust_8="13000.00000" pt_clust_9="37.40705"></scales>
<clustering>
<clus scale="   37.407">  1  9  2 -1</clus>
<clus scale="   80.741">  5  6 -1 -1</clus>
<clus scale="   90.272">  7  8 -1 -1</clus>
<clus scale="  120.535">  1  5  2 -1</clus>
<clus scale="   37.407">  1  5  2 -1</clus>
</clustering>
</event>
<event>
 9    1  0.7835476E-005  0.9297379E+02  0.7546771E-02  0.1303435E+00
         -2   -1    0    0    0  501 -0.00000000000E+00  0.00000000000E+00  0.31399487789E+03  0.31399487789E+03  0.00000000000E+00 0.  1.
         21   -1    0    0  501  502  0.00000000000E+00 -0.00000000000E+00 -0.85260366596E+02  0.85260366596E+02  0.00000000000E+00 0.  1.
         23    2    1    2    0    0 -0.19941252902E+02 -0.80706709518E+01  0.10139800330E+03  0.13892890739E+03  0.92503496904E+02 0.  0.
        -24    2    1    2    0    0 -0.25998516208E+02 -0.36202693362E+02 -0.25040667739E+02  0.95131310357E+02  0.80227011148E+02 0.  0.
         11    1    4    4    0    0  0.94870864030E+01 -0.48537590349E+02  0.92209660067E+00  0.49464661602E+02  0.00000000000E+00 0. -1.
        -12    1    4    4    0    0 -0.35485602611E+02  0.12334896987E+02 -0.25962764340E+02  0.45666648755E+02  0.00000000000E+00 0.  1.
        -11    1    3    3    0    0  0.23754295488E+02 -0.10399375673E+02 -0.26384247279E+01  0.26064820229E+02  0.00000000000E+00 0.  1.
         11    1    3    3    0    0 -0.43695548390E+02  0.23287047216E+01  0.10403642803E+03  0.11286408717E+03  0.00000000000E+00 0. -1.
         -1    1    1    2    0  502  0.45939769110E+02  0.44273364313E+02  0.15237717573E+03  0.16519502674E+03  0.00000000000E+00 0.  1.
<scales pt_clust_5="13000.00000" pt_clust_6="13000.00000" pt_clust_7="13000.00000" pt_clust_8="13000.00000" pt_clust_9="63.80123"></scales>
<clustering>
<clus scale="   63.801">  2  9  1 -1</clus>
<clus scale="   80.227">  5  6 -1 -1</clus>
<clus scale="   80.769">  2  5  1 -1</clus>
<clus scale="   92.503">  7  8 -1 -1</clus>
<clus scale="   63.801">  2  5  1 -1</clus>
</clustering>
</event>
<event>
 9    1  0.7835476E-005  0.9180321E+02  0.7546771E-02  0.1302279E+00
         -2   -1    0    0    0  501 -0.00000000000E+00  0.00000000000E+00  0.97113662683E+02  0.97113662683E+02  0.00000000000E+00 0.  1.
         21   -1    0    0  501  502  0.00000000000E+00 -0.00000000000E+00 -0.44628272637E+03  0.44628272637E+03  0.00000000000E+00 0. -1.
        -24    2    1    2    0    0  0.35763063326E+02  0.11448474877E+02  0.68695767365E+02  0.11033312736E+03  0.77744622082E+02 0.  0.
         23    2    1    2    0    0 -0.17168994667E+02 -0.59733572160E+00 -0.26409560246E+03  0.27779426198E+03  0.84427682450E+02 0.  0.
         13    1    3    3    0    0  0.31819236086E+02 -0.79517222251E+01 -0.57518154172E+01  0.33298304042E+02  0.00000000000E+00 0. -1.
        -14    1    3    3    0    0  0.39438272400E+01  0.19400197102E+02  0.74447582782E+02  0.77034823314E+02  0.00000000000E+00 0.  1.
        -11    1    4    4    0    0  0.33947587934E+02  0.64202606350E+01 -0.10361699940E+03  0.10922518500E+03  0.00000000000E+00 0.  1.
         11    1    4    4    0    0 -0.51116582601E+02 -0.70175963566E+01 -0.16047860306E+03  0.16856907699E+03  0.00000000000E+00 0. -1.
         -1    1    1    2    0  502 -0.18594068660E+02 -0.10851139155E+02 -0.15376922859E+03  0.15526899971E+03  0.00000000000E+00 0.  1.
<scales pt_clust_5="13000.00000" pt_clust_6="13000.00000" pt_clust_7="13000.00000" pt_clust_8="13000.00000" pt_clust_9="21.52874"></scales>
<clustering>
<clus scale="   21.529">  2  9  1 -1</clus>
<clus scale="   77.745">  5  6 -1 -1</clus>
<clus scale="   84.428">  7  8 -1 -1</clus>
<clus scale="   85.697">  1  5  2 -1</clus>
<clus scale="   21.529">  2  5  1 -1</clus>
</clustering>
</event>
<event>
 9    1  0.7835476E-005  0.1671900E+03  0.7546771E-02  0.1182404E+00
          1   -1    0    0  502    0 -0.00000000000E+00  0.00000000000E+00  0.41348523835E+03  0.41348523835E+03  0.00000000000E+00 0. -1.
         21   -1    0    0  501  502  0.00000000000E+00 -0.00000000000E+00 -0.11515883127E+03  0.11515883127E+03  0.00000000000E+00 0.  1.
        -24    2    1    2    0    0 -0.14430674391E+03 -0.58701061274E+00  0.25257174580E+03  0.30162064540E+03  0.79735475397E+02 0.  0.
         23    2    1    2    0    0  0.12526758589E+03  0.22309852608E+02 -0.17563984947E+02  0.15742728666E+03  0.91022851090E+02 0.  0.
         11    1    3    3    0    0 -0.64755748385E+02  0.39074355945E+02  0.12594288135E+03  0.14690718704E+03  0.00000000000E+00 0. -1.
        -12    1    3    3    0    0 -0.79550995524E+02 -0.39661366558E+02  0.12662886445E+03  0.15471345836E+03  0.00000000000E+00 0.  1.
        -13    1    4    4    0    0  0.10575543487E+03  0.54043740088E+01  0.23924123964E+02  0.10856234601E+03  0.00000000000E+00 0.  1.
         13    1    4    4    0    0  0.19512151017E+02  0.16905478600E+02 -0.41488108911E+02  0.48864940652E+02  0.00000000000E+00 0. -1.
          2    1    1    2  501    0  0.19039158018E+02 -0.21722841996E+02  0.63318646232E+02  0.69596137559E+02  0.00000000000E+00 0. -1.
<scales pt_clust_5="13000.00000" pt_clust_6="13000.00000" pt_clust_7="13000.00000" pt_clust_8="13000.00000" pt_clust_9="28.88550"></scales>
<clustering>
<clus scale="   28.886">  2  9  1 -1</clus>
<clus scale="   79.735">  5  6 -1 -1</clus>
<clus scale="   91.023">  7  8 -1 -1</clus>
<clus scale="  161.323">  1  5  2 -1</clus>
<clus scale="   28.886">  2  5  1 -1</clus>
</clustering>
</event>
<event>
 9    1  0.7835476E-005  0.1313207E+03  0.7546771E-02  0.1232276E+00
          3   -1    0    0  502    0 -0.00000000000E+00  0.00000000000E+00  0.29781817424E+03  0.29781817424E+03  0.00000000000E+00 0. -1.
         21   -1    0    0  501  502  0.00000000000E+00 -0.00000000000E+00 -0.10963801678E+03  0.10963801678E+03  0.00000000000E+00 0. -1.
         23    2    1    2    0    0 -0.49700615492E+02 -0.72664042300E+02  0.18829068641E+03  0.21949335892E+03  0.70524731829E+02 0.  0.
        -24    2    1    2    0    0  0.81106659371E+02  0.59192599452E+02  0.30463089370E+02  0.14210909178E+03  0.95838093300E+02 0.  0.
         11    1    4    4    0    0  0.49163116302E+02  0.68756400981E+02  0.54882037453E+02  0.10077942605E+03  0.00000000000E+00 0. -1.
        -12    1    4    4    0    0  0.31943543069E+02 -0.95638015285E+01 -0.24418948083E+02  0.41329665725E+02  0.00000000000E+00 0.  1.
        -11    1    3    3    0    0 -0.59974671941E+02 -0.28447587270E+02  0.96984935748E+02  0.11752575998E+03  0.00000000000E+00 0. -1.
         11    1    3    3    0    0  0.10274056449E+02 -0.44216455030E+02  0.91305750661E+02  0.10196759895E+03  0.00000000000E+00 0.  1.
          4    1    1    2  501    0 -0.31406043879E+02  0.13471442848E+02 -0.30573618317E+02  0.45853740322E+02  0.00000000000E+00 0. -1.
<scales pt_clust_5="13000.00000" pt_clust_6="13000.00000" pt_clust_7="13000.00000" pt_clust_8="13000.00000" pt_clust_9="34.17337"></scales>
<clustering>
<clus scale="   34.173">  2  9  1 -1</clus>
<clus scale="   70.525">  7  8 -1 -1</clus>
<clus scale="   95.838">  5  6 -1 -1</clus>
<clus scale="  114.166">  1  7  2 -1</clus>
<clus scale="   34.173">  2  5  1 -1</clus>
</clustering>
</event>
<event>
 9    1  0.7835476E-005  0.2047824E+03  0.7546771E-02  0.1165500E+00
          1   -1    0    0  502    0 -0.00000000000E+00  0.00000000000E+00  0.24551983110E+04  0.24551983110E+04  0.00000000000E+00 0. -1.
         21   -1    0    0  501  502  0.00000000000E+00 -0.00000000000E+00 -0.59645353073E+02  0.59645353073E+02  0.00000000000E+00 0.  1.
        -24    2    1    2    0    0  0.41322284280E+02 -0.92846599771E+02  0.17192395859E+04  0.17240643382E+04  0.79278408567E+02 0.  0.
         23    2    1    2    0    0 -0.12708536956E+03 -0.10767293607E+03  0.27948316225E+03  0.33796854156E+03  0.91475378023E+02 0.  0.
         11    1    3    3    0    0  0.10740667322E+02 -0.22247433268E+02  0.10030150363E+03  0.10329908931E+03  0.00000000000E+00 0. -1.
        -12    1    3    3    0    0  0.30581616958E+02 -0.70599166503E+02  0.16189380823E+04  0.16207652489E+04  0.00000000000E+00 0.  1.
        -13    1    4    4    0    0 -0.81867477569E+02 -0.82160705940E+02  0.10686321074E+03  0.15770989599E+03  0.00000000000E+00 0.  1.
         13    1    4    4    0    0 -0.45217891991E+02 -0.25512230127E+02  0.17261995151E+03  0.18025864557E+03  0.00000000000E+00 0. -1.
          2    1    1    2  501    0  0.85763085280E+02  0.20051953584E+03  0.39683020976E+03  0.45281078436E+03  0.00000000000E+00 0. -1.
<scales pt_clust_5="13000.00000" pt_clust_6="13000.00000" pt_clust_7="13000.00000" pt_clust_8="13000.00000" pt_clust_9="183.21607"></scales>
<clustering>
<clus scale="   79.278">  5  6 -1 -1</clus>
<clus scale="   91.475">  7  8 -1 -1</clus>
<clus scale="  128.892">  1  5  2 -1</clus>
<clus scale="  183.216">  2  9  1 -1</clus>
<clus scale="  183.216">  2  5  1 -1</clus>
</clustering>
</event>
<event>
 9    1  0.7835476E-005  0.1889763E+03  0.7546771E-02  0.1160134E+00
          1   -1    0    0  502    0 -0.00000000000E+00  0.00000000000E+00  0.27792756731E+03  0.27792756731E+03  0.00000000000E+00 0. -1.
         21   -1    0    0  501  502  0.00000000000E+00 -0.00000000000E+00 -0.22305886361E+03  0.22305886361E+03  0.00000000000E+00 0.  1.
         23    2    1    2    0    0  0.12819876136E+03  0.11745864969E+03  0.16632651733E+03  0.25597241650E+03  0.87326461280E+02 0.  0.
        -24    2    1    2    0    0 -0.10877841402E+03 -0.10577072433E+03 -0.48747792769E+02  0.17833340100E+03  0.80039147488E+02 0.  0.
         13    1    4    4    0    0 -0.38891153185E+02 -0.85883232434E+02 -0.47712372283E+02  0.10566419393E+03  0.00000000000E+00 0. -1.
        -14    1    4    4    0    0 -0.69887260835E+02 -0.19887491892E+02 -0.10354204853E+01  0.72669207071E+02  0.00000000000E+00 0.  1.
        -11    1    3    3    0    0 -0.38971914567E+01  0.42518703907E+02  0.36495657932E+02  0.56169042462E+02  0.00000000000E+00 0.  1.
         11    1    3    3    0    0  0.13209595282E+03  0.74939945783E+02  0.12983085940E+03  0.19980337404E+03  0.00000000000E+00 0. -1.
          2    1    1    2  501    0 -0.19420347340E+02 -0.11687925363E+02 -0.62710020865E+02  0.66680613426E+02  0.00000000000E+00 0. -1.
<scales pt_clust_5="13000.00000" pt_clust_6="13000.00000" pt_clust_7="13000.00000" pt_clust_8="13000.00000" pt_clust_9="22.66622"></scales>
<clustering>
<clus scale="   22.666">  2  9  1 -1</clus>
<clus scale="   80.039">  5  6 -1 -1</clus>
<clus scale="   87.326">  7  8 -1 -1</clus>
<clus scale="  185.721">  2  5  1 -1</clus>
<clus scale="   22.666">  2  5  1 -1</clus>
</clustering>
</event>
<event>
 9    1  0.7835476E-005  0.2052723E+03  0.7546771E-02  0.1146358E+00
         -2   -1    0    0    0  501 -0.00000000000E+00  0.00000000000E+00  0.46681871043E+03  0.46681871043E+03  0.00000000000E+00 0.  1.
         21   -1    0    0  501  502  0.00000000000E+00 -0.00000000000E+00 -0.15690018860E+03  0.15690018860E+03  0.00000000000E+00 0.  1.
        -24    2    1    2    0    0 -0.15043948862E+03 -0.10574324812E+03  0.33350807925E+03  0.38946328177E+03  0.81488248588E+02 0.  0.
         23    2    1    2    0    0  0.16090679819E+03  0.83579793358E+02 -0.35985196710E+02  0.20678863399E+03  0.92682388866E+02 0.  0.
         13    1    3    3    0    0 -0.84600916311E+01 -0.40132056206E+02  0.42351856527E+02  0.58956211183E+02  0.00000000000E+00 0. -1.
        -14    1    3    3    0    0 -0.14197939699E+03 -0.65611191917E+02  0.29115622273E+03  0.33050707059E+03  0.00000000000E+00 0.  1.
        -11    1    4    4    0    0  0.16462543247E+03  0.55262462860E+02 -0.39275050221E+02  0.17803932820E+03  0.00000000000E+00 0.  1.
         11    1    4    4    0    0 -0.37186342796E+01  0.28317330497E+02  0.32898535114E+01  0.28749305792E+02  0.00000000000E+00 0. -1.
         -1    1    1    2    0  502 -0.10467309564E+02  0.22163454766E+02  0.12395639287E+02  0.27466983271E+02  0.00000000000E+00 0.  1.
<scales pt_clust_5="13000.00000" pt_clust_6="13000.00000" pt_clust_7="13000.00000" pt_clust_8="13000.00000" pt_clust_9="24.51088"></scales>
<clustering>
<clus scale="   24.511">  2  9  1 -1</clus>
<clus scale="   81.488">  5  6 -1 -1</clus>
<clus scale="   92.682">  7  8 -1 -1</clus>
<clus scale="  200.467">  1  5  2 -1</clus>
<clus scale="   24.511">  2  5  1 -1</clus>
</clustering>
</event>
<event>
 9    1  0.7835476E-005  0.1261872E+03  0.7546771E-02  0.1236966E+00
         21   -1    0    0  501  502  0.00000000000E+00  0.00000000000E+00  0.89907719498E+02  0.89907719498E+02  0.00000000000E+00 0.  1.
          3   -1    0    0  502    0 -0.00000000000E+00 -0.00000000000E+00 -0.32426837238E+03  0.32426837238E+03  0.00000000000E+00 0. -1.
        -24    2    1    2    0    0 -0.10303428325E+03  0.21949995965E+02 -0.12284009490E+03  0.17939011076E+03  0.77416129313E+02 0.  0.
         23    2    1    2    0    0  0.38262836588E+02 -0.73462814848E+02 -0.55778355330E+02  0.13500570266E+03  0.90854196374E+02 0.  0.
         13    1    3    3    0    0 -0.54696162472E+02  0.47179338545E+02 -0.47740286440E+02  0.86583457566E+02  0.00000000000E+00 0. -1.
        -14    1    3    3    0    0 -0.48338120775E+02 -0.25229342580E+02 -0.75099808460E+02  0.92806653198E+02  0.00000000000E+00 0.  1.
        -13    1    4    4    0    0  0.17693228350E+02 -0.56851749897E+02 -0.79608703855E+02  0.99411858071E+02  0.00000000000E+00 0. -1.
         13    1    4    4    0    0  0.20569608239E+02 -0.16611064951E+02  0.23830348525E+02  0.35593844590E+02  0.00000000000E+00 0.  1.
          4    1    1    2  501    0  0.64771446659E+02  0.51512818883E+02 -0.55742202652E+02  0.99780278453E+02  0.00000000000E+00 0. -1.
<scales pt_clust_5="13000.00000" pt_clust_6="13000.00000" pt_clust_7="13000.00000" pt_clust_8="13000.00000" pt_clust_9="82.75815"></scales>
<clustering>
<clus scale="   77.416">  5  6 -1 -1</clus>
<clus scale="   82.758">  1  9  2 -1</clus>
<clus scale="   90.854">  7  8 -1 -1</clus>
<clus scale="  116.884">  2  5  1 -1</clus>
<clus scale="   82.758">  1  5  2 -1</clus>
</clustering>
</event>
<event>
 9    1  0.7835476E-005  0.1417156E+03  0.7546771E-02  0.1229157E+00
         21   -1    0    0  501  502  0.00000000000E+00  0.00000000000E+00  0.18627559724E+03  0.18627559724E+03  0.00000000000E+00 0. -1.
          1   -1    0    0  502    0 -0.00000000000E+00 -0.00000000000E+00 -0.22605039362E+03  0.22605039362E+03  0.00000000000E+00 0. -1.
        -24    2    1    2    0    0  0.22077874746E+02  0.49045489059E+02 -0.35665411859E+02  0.10323353466E+03  0.80574490529E+02 0.  0.
         23    2    1    2    0    0  0.11275636158E+02 -0.14551713599E+03 -0.72319621463E+02  0.18632490440E+03  0.90468035878E+02 0.  0.
         11    1    3    3    0    0  0.47038155484E+02  0.30631426494E+02 -0.43762981321E+02  0.71176336620E+02  0.00000000000E+00 0. -1.
        -12    1    3    3    0    0 -0.24960280739E+02  0.18414062564E+02  0.80975694625E+01  0.32057198036E+02  0.00000000000E+00 0.  1.
        -11    1    4    4    0    0  0.23965502949E+02  0.45981189789E-01 -0.19701614051E+02  0.31024200910E+02  0.00000000000E+00 0.  1.
         11    1    4    4    0    0 -0.12689866792E+02 -0.14556311718E+03 -0.52618007412E+02  0.15530070349E+03  0.00000000000E+00 0. -1.
          2    1    1    2  501    0 -0.33353510903E+02  0.96471646928E+02  0.68210236946E+02  0.12276755180E+03  0.00000000000E+00 0. -1.
<scales pt_clust_5="13000.00000" pt_clust_6="13000.00000" pt_clust_7="13000.00000" pt_clust_8="13000.00000" pt_clust_9="109.08186"></scales>
<clustering>
<clus scale="   80.574">  5  6 -1 -1</clus>
<clus scale="   90.468">  7  8 -1 -1</clus>
<clus scale="   96.877">  2  5  1 -1</clus>
<clus scale="  109.082">  1  9  2 -1</clus>
<clus scale="  109.082">  1  5  2 -1</clus>
</clustering>
</event>
<event>
 9    1  0.7835476E-005  0.1099209E+03  0.7546771E-02  0.1264463E+00
          1   -1    0    0  502    0 -0.00000000000E+00  0.00000000000E+00  0.57866074354E+03  0.57866074354E+03  0.00000000000E+00 0. -1.
         21   -1    0    0  501  502  0.00000000000E+00 -0.00000000000E+00 -0.59717913906E+02  0.59717913906E+02  0.00000000000E+00 0. -1.
         23    2    1    2    0    0 -0.10784687131E+02 -0.82740182323E+02  0.16266477556E+03  0.20462629869E+03  0.91923042061E+02 0.  0.
        -24    2    1    2    0    0  0.70305098645E+02  0.39127587810E+00  0.67629801766E+02  0.12774282403E+03  0.82471079854E+02 0.  0.
         11    1    4    4    0    0 -0.14098169722E+02  0.16105517536E+02  0.21254557297E+02  0.30164586695E+02  0.00000000000E+00 0. -1.
        -12    1    4    4    0    0  0.84403268367E+02 -0.15714241658E+02  0.46375244469E+02  0.97578237336E+02  0.00000000000E+00 0.  1.
        -13    1    3    3    0    0  0.22240767009E+02 -0.87503467909E+02  0.11038233680E+03  0.14260353744E+03  0.00000000000E+00 0. -1.
         13    1    3    3    0    0 -0.33025454140E+02  0.47632855866E+01  0.52282438755E+02  0.62022761249E+02  0.00000000000E+00 0.  1.
          2    1    1    2  501    0 -0.59520411514E+02  0.82348906445E+02  0.28864825231E+03  0.30600953472E+03  0.00000000000E+00 0. -1.
<scales pt_clust_5="13000.00000" pt_clust_6="13000.00000" pt_clust_7="13000.00000" pt_clust_8="13000.00000" pt_clust_9="101.60724"></scales>
<clustering>
<clus scale="   82.471">  5  6 -1 -1</clus>
<clus scale="   91.923">  7  8 -1 -1</clus>
<clus scale="  101.607">  2  9  1 -1</clus>
<clus scale="  102.148">  2  5  1 -1</clus>
<clus scale="  101.607">  2  5  1 -1</clus>
</clustering>
</event>
<event>
 9    1  0.7835476E-005  0.1180855E+03  0.7546771E-02  0.1249492E+00
          1   -1    0    0  502    0 -0.00000000000E+00  0.00000000000E+00  0.26765137843E+03  0.26765137843E+03  0.00000000000E+00 0. -1.
         21   -1    0    0  501  502  0.00000000000E+00 -0.00000000000E+00 -0.82019268192E+02  0.82019268192E+02  0.00000000000E+00 0. -1.
         23    2    1    2    0    0  0.32786798002E+02 -0.89686965956E+02  0.11421883460E+03  0.17456255355E+03  0.91145032438E+02 0.  0.
        -24    2    1    2    0    0 -0.10886695148E+02  0.44727299705E+02  0.73105289680E+01  0.93805275012E+02  0.81405984523E+02 0.  0.
         13    1    4    4    0    0 -0.40358824095E+02  0.12473423730E+02 -0.14899438687E+02  0.44793015695E+02  0.00000000000E+00 0. -1.
        -14    1    4    4    0    0  0.29472128947E+02  0.32253875975E+02  0.22209967655E+02  0.49012259316E+02  0.00000000000E+00 0.  1.
        -11    1    3    3    0    0 -0.21307409842E+02 -0.11323268340E+01  0.45065691203E+02  0.49861853173E+02  0.00000000000E+00 0.  1.
         11    1    3    3    0    0  0.54094207844E+02 -0.88554639122E+02  0.69153143401E+02  0.12470070038E+03  0.00000000000E+00 0. -1.
          2    1    1    2  501    0 -0.21900102853E+02  0.44959666252E+02  0.64102746668E+02  0.81302818062E+02  0.00000000000E+00 0. -1.
<scales pt_clust_5="13000.00000" pt_clust_6="13000.00000" pt_clust_7="13000.00000" pt_clust_8="13000.00000" pt_clust_9="50.00988"></scales>
<clustering>
<clus scale="   50.010">  2  9  1 -1</clus>
<clus scale="   81.406">  5  6 -1 -1</clus>
<clus scale="   91.145">  7  8 -1 -1</clus>
<clus scale="  110.742">  2  5  1 -1</clus>
<clus scale="   50.010">  2  5  1 -1</clus>
</clustering>
</event>
<event>
 9    1  0.7835476E-005  0.1118897E+03  0.7546771E-02  0.1261156E+00
          1   -1    0    0  502    0 -0.00000000000E+00  0.00000000000E+00  0.25696479192E+03  0.25696479192E+03  0.00000000000E+00 0. -1.
         21   -1    0    0  501  502  0.00000000000E+00 -0.00000000000E+00 -0.75745706626E+02  0.75745706626E+02  0.00000000000E+00 0. -1.
         23    2    1    2    0    0 -0.49209982797E+01  0.63291627320E+02  0.15278208071E+03  0.18900018927E+03  0.91371007681E+02 0.  0.
        -24    2    1    2    0    0  0.28430103374E+02 -0.64733550261E+02  0.61713965581E+00  0.10725894375E+03  0.80656040358E+02 0.  0.
         13    1    4    4    0    0  0.30665337788E+02 -0.81325797912E+02 -0.99160077232E+01  0.87479000662E+02  0.00000000000E+00 0. -1.
        -14    1    4    4    0    0 -0.22352344131E+01  0.16592247650E+02  0.10533147379E+02  0.19779943091E+02  0.00000000000E+00 0.  1.
        -13    1    3    3    0    0 -0.24409015046E+02  0.79972883709E+02  0.13067195738E+03  0.15513420831E+03  0.00000000000E+00 0. -1.
         13    1    3    3    0    0  0.19488016767E+02 -0.16681256389E+02  0.22110123330E+02  0.33865980952E+02  0.00000000000E+00 0.  1.
          2    1    1    2  501    0 -0.23509105095E+02  0.14419229408E+01  0.27819864935E+02  0.36451365532E+02  0.00000000000E+00 0. -1.
<scales pt_clust_5="13000.00000" pt_clust_6="13000.00000" pt_clust_7="13000.00000" pt_clust_8="13000.00000" pt_clust_9="23.55330"></scales>
<clustering>
<clus scale="   23.553">  2  9  1 -1</clus>
<clus scale="   80.656">  5  6 -1 -1</clus>
<clus scale="   91.371">  7  8 -1 -1</clus>
<clus scale="  103.325">  2  5  1 -1</clus>
<clus scale="   23.553">  2  5  1 -1</clus>
</clustering>
</event>
<event>
 9    1  0.7835476E-005  0.1143816E+03  0.7546771E-02  0.1253660E+00
         21   -1    0    0  501  502  0.00000000000E+00  0.00000000000E+00  0.67730877748E+02  0.67730877748E+02  0.00000000000E+00 0. -1.
          1   -1    0    0  502    0 -0.00000000000E+00 -0.00000000000E+00 -0.24146446079E+03  0.24146446079E+03  0.00000000000E+00 0. -1.
         23    2    1    2    0    0  0.71699578426E+02  0.22689480728E+02 -0.70294198956E+02  0.13361779539E+03  0.85186846141E+02 0.  0.
        -24    2    1    2    0    0 -0.64485708317E+02 -0.46344442953E+02 -0.70036118165E+02  0.13401583801E+03  0.82152133387E+02 0.  0.
         13    1    4    4    0    0 -0.22149866720E+02 -0.35845060304E+01  0.17037719879E+02  0.28173554583E+02  0.00000000000E+00 0. -1.
        -14    1    4    4    0    0 -0.42335841597E+02 -0.42759936923E+02 -0.87073838043E+02  0.10584228343E+03  0.00000000000E+00 0.  1.
        -11    1    3    3    0    0  0.40300668671E+02 -0.30893834611E+02 -0.39282065172E+02  0.64200105580E+02  0.00000000000E+00 0.  1.
         11    1    3    3    0    0  0.31398909756E+02  0.53583315340E+02 -0.31012133784E+02  0.69417689809E+02  0.00000000000E+00 0. -1.
          2    1    1    2  501    0 -0.72138701093E+01  0.23654962224E+02 -0.33403265917E+02  0.41561705135E+02  0.00000000000E+00 0. -1.
<scales pt_clust_5="13000.00000" pt_clust_6="13000.00000" pt_clust_7="13000.00000" pt_clust_8="13000.00000" pt_clust_9="24.73050"></scales>
<clustering>
<clus scale="   24.731">  1  9  2 -1</clus>
<clus scale="   82.152">  5  6 -1 -1</clus>
<clus scale="   85.187">  7  8 -1 -1</clus>
<clus scale="  112.140">  1  5  2 -1</clus>
<clus scale="   24.731">  1  5  2 -1</clus>
</clustering>
</event>
<event>
 9    1  0.7835476E-005  0.9075337E+02  0.7546771E-02  0.1305861E+00
          1   -1    0    0  502    0 -0.00000000000E+00  0.00000000000E+00  0.18344679832E+03  0.18344679832E+03  0.00000000000E+00 0. -1.
         21   -1    0    0  501  502  0.00000000000E+00 -0.00000000000E+00 -0.83057044843E+02  0.83057044843E+02  0.00000000000E+00 0.  1.
         23    2    1    2    0    0 -0.28817698213E+01  0.15308699184E+02  0.36624999389E+02  0.96777359546E+02  0.88214544563E+02 0.  0.
        -24    2    1    2    0    0  0.37539610904E+02 -0.11892970530E+02 -0.81757821588E+01  0.89799805303E+02  0.80290077119E+02 0.  0.
         11    1    4    4    0    0  0.49296692804E+02 -0.95061046228E+00  0.23246112103E+02  0.54511001730E+02  0.00000000000E+00 0. -1.
        -12    1    4    4    0    0 -0.11757081901E+02 -0.10942360067E+02 -0.31421894261E+02  0.35288803573E+02  0.00000000000E+00 0.  1.
        -13    1    3    3    0    0  0.12772000603E+02 -0.33423400739E+02  0.38234114283E+01  0.35984249211E+02  0.00000000000E+00 0. -1.
         13    1    3    3    0    0 -0.15653770424E+02  0.48732099923E+02  0.32801587961E+02  0.60793110335E+02  0.00000000000E+00 0.  1.
          2    1    1    2  501    0 -0.34657841082E+02 -0.34157286548E+01  0.71940536248E+02  0.79926678314E+02  0.00000000000E+00 0. -1.
<scales pt_clust_5="13000.00000" pt_clust_6="13000.00000" pt_clust_7="13000.00000" pt_clust_8="13000.00000" pt_clust_9="34.82577"></scales>
<clustering>
<clus scale="   34.826">  2  9  1 -1</clus>
<clus scale="   80.290">  5  6 -1 -1</clus>
<clus scale="   83.071">  2  5  1 -1</clus>
<clus scale="   88.215">  7  8 -1 -1</clus>
<clus scale="   34.826">  2  5  1 -1</clus>
</clustering>
</event>
<event>
 9    1  0.7835476E-005  0.8820959E+02  0.7546771E-02  0.1309923E+00
         -4   -1    0    0    0  501 -0.00000000000E+00  0.00000000000E+00  0.23403638959E+03  0.23403638959E+03  0.00000000000E+00 0.  1.
         21   -1    0    0  501  502  0.00000000000E+00 -0.00000000000E+00 -0.87988951192E+02  0.87988951192E+02  0.00000000000E+00 0.  1.
         23    2    1    2    0    0 -0.14683385239E+02 -0.12801648864E+02  0.14422330209E+03  0.16990588465E+03  0.87682180382E+02 0.  0.
        -24    2    1    2    0    0 -0.37965699225E+02 -0.91159153809E+01 -0.13348286418E+02  0.93106676762E+02  0.83463658418E+02 0.  0.
         11    1    4    4    0    0  0.12731156185E+02 -0.33345098255E+02 -0.17680244980E+01  0.35736589458E+02  0.00000000000E+00 0. -1.
        -12    1    4    4    0    0 -0.50696855409E+02  0.24229182874E+02 -0.11580261920E+02  0.57370087304E+02  0.00000000000E+00 0.  1.
        -11    1    3    3    0    0 -0.48590781554E+02 -0.21383168131E+02  0.10274029016E+03  0.11564545453E+03  0.00000000000E+00 0.  1.
         11    1    3    3    0    0  0.33907396316E+02  0.85815192670E+01  0.41483011938E+02  0.54260430124E+02  0.00000000000E+00 0. -1.
         -3    1    1    2    0  502  0.52649084464E+02  0.21917564245E+02  0.15172422720E+02  0.59012779366E+02  0.00000000000E+00 0.  1.
<scales pt_clust_5="13000.00000" pt_clust_6="13000.00000" pt_clust_7="13000.00000" pt_clust_8="13000.00000" pt_clust_9="57.02899"></scales>
<clustering>
<clus scale="   57.029">  2  9  1 -1</clus>
<clus scale="   83.464">  5  6 -1 -1</clus>
<clus scale="   84.018">  2  5  1 -1</clus>
<clus scale="   87.682">  7  8 -1 -1</clus>
<clus scale="   57.029">  2  5  1 -1</clus>
</clustering>
</event>
<event>
 9    1  0.7835476E-005  0.1260167E+03  0.7546771E-02  0.1243320E+00
         21   -1    0    0  501  502  0.00000000000E+00  0.00000000000E+00  0.29734322801E+02  0.29734322801E+02  0.00000000000E+00 0. -1.
          1   -1    0    0  502    0 -0.00000000000E+00 -0.00000000000E+00 -0.17604044560E+04  0.17604044560E+04  0.00000000000E+00 0. -1.
        -24    2    1    2    0    0  0.34971526065E+00 -0.64948715239E+02 -0.77068045572E+03  0.77755333424E+03  0.80139658403E+02 0.  0.
         23    2    1    2    0    0  0.29122956831E+02 -0.71795264210E+02 -0.15358846956E+03  0.19414151707E+03  0.89993355811E+02 0.  0.
         11    1    3    3    0    0  0.31187233629E+02 -0.36836831621E+02 -0.21701172297E+03  0.22231438013E+03  0.00000000000E+00 0. -1.
        -12    1    3    3    0    0 -0.30837518369E+02 -0.28111883618E+02 -0.55366873275E+03  0.55523895411E+03  0.00000000000E+00 0.  1.
        -11    1    4    4    0    0  0.39776845589E+02  0.59686434541E+01 -0.54357396997E+02  0.67620623762E+02  0.00000000000E+00 0.  1.
         11    1    4    4    0    0 -0.10653888758E+02 -0.77763907664E+02 -0.99231072567E+02  0.12652089331E+03  0.00000000000E+00 0. -1.
          2    1    1    2  501    0 -0.29472672092E+02  0.13674397945E+03 -0.80640120788E+03  0.81844392746E+03  0.00000000000E+00 0. -1.
<scales pt_clust_5="13000.00000" pt_clust_6="13000.00000" pt_clust_7="13000.00000" pt_clust_8="13000.00000" pt_clust_9="88.21229"></scales>
<clustering>
<clus scale="   80.140">  5  6 -1 -1</clus>
<clus scale="   89.993">  7  8 -1 -1</clus>
<clus scale="  103.154">  2  5  1 -1</clus>
<clus scale="   88.212">  1  9  2 -1</clus>
<clus scale="   88.212">  1  5  2 -1</clus>
</clustering>
</event>
<event>
 9    1  0.7835476E-005  0.1345485E+03  0.7546771E-02  0.1223015E+00
          1   -1    0    0  502    0 -0.00000000000E+00  0.00000000000E+00  0.27346275923E+03  0.27346275923E+03  0.00000000000E+00 0. -1.
         21   -1    0    0  501  502  0.00000000000E+00 -0.00000000000E+00 -0.86238283728E+02  0.86238283728E+02  0.00000000000E+00 0. -1.
         23    2    1    2    0    0  0.97375418316E+02  0.29241863944E+02  0.13173023364E+03  0.18888697210E+03  0.89377710162E+02 0.  0.
        -24    2    1    2    0    0 -0.10152519480E+03  0.68974619155E+00  0.34067148686E+02  0.13377028256E+03  0.80162815241E+02 0.  0.
         13    1    4    4    0    0 -0.33706032924E+02 -0.38228084511E+02  0.17105230402E+02  0.53759389951E+02  0.00000000000E+00 0. -1.
        -14    1    4    4    0    0 -0.67819161871E+02  0.38917830702E+02  0.16961918284E+02  0.80010892605E+02  0.00000000000E+00 0.  1.
        -13    1    3    3    0    0  0.92981627849E+02  0.50666883099E+02  0.12892581547E+03  0.16683699247E+03  0.00000000000E+00 0. -1.
         13    1    3    3    0    0  0.43937904673E+01 -0.21425019155E+02  0.28044181702E+01  0.22049979631E+02  0.00000000000E+00 0.  1.
          2    1    1    2  501    0  0.41497764793E+01 -0.29931610136E+02  0.21427093178E+02  0.37043788308E+02  0.00000000000E+00 0. -1.
<scales pt_clust_5="13000.00000" pt_clust_6="13000.00000" pt_clust_7="13000.00000" pt_clust_8="13000.00000" pt_clust_9="30.21792"></scales>
<clustering>
<clus scale="   30.218">  2  9  1 -1</clus>
<clus scale="   80.163">  5  6 -1 -1</clus>
<clus scale="   89.378">  7  8 -1 -1</clus>
<clus scale="  128.612">  2  5  1 -1</clus>
<clus scale="   30.218">  2  5  1 -1</clus>
</clustering>
</event>
<event>
 9    1  0.7835476E-005  0.1189617E+03  0.7546771E-02  0.1259102E+00
         21   -1    0    0  501  502  0.00000000000E+00  0.00000000000E+00  0.66306097383E+02  0.66306097383E+02  0.00000000000E+00 0.  1.
          1   -1    0    0  502    0 -0.00000000000E+00 -0.00000000000E+00 -0.54666019572E+03  0.54666019572E+03  0.00000000000E+00 0. -1.
         23    2    1    2    0    0 -0.22874511163E+02 -0.51891168175E+02 -0.41970151112E+03  0.43703555389E+03  0.10786463897E+03 0.  0.
        -24    2    1    2    0    0  0.39748905836E+02  0.20380944591E+02 -0.93484154163E+02  0.12739671842E+03  0.74130144791E+02 0.  0.
         13    1    4    4    0    0  0.51162442939E+02  0.37281419332E+02 -0.55074724162E+02  0.83909028336E+02  0.00000000000E+00 0. -1.
        -14    1    4    4    0    0 -0.11413537103E+02 -0.16900474741E+02 -0.38409430001E+02  0.43487690082E+02  0.00000000000E+00 0.  1.
        -13    1    3    3    0    0  0.34344655081E+02 -0.80223636345E+01 -0.55445975915E+02  0.65712783353E+02  0.00000000000E+00 0. -1.
         13    1    3    3    0    0 -0.57219166244E+02 -0.43868804540E+02 -0.36425553520E+03  0.37132277054E+03  0.00000000000E+00 0.  1.
          2    1    1    2  501    0 -0.16874394673E+02  0.31510223584E+02  0.32831566944E+02  0.48534020788E+02  0.00000000000E+00 0. -1.
<scales pt_clust_5="13000.00000" pt_clust_6="13000.00000" pt_clust_7="13000.00000" pt_clust_8="13000.00000" pt_clust_9="35.74408"></scales>
<clustering>
<clus scale="   35.744">  1  9  2 -1</clus>
<clus scale="   74.130">  5  6 -1 -1</clus>
<clus scale="   89.512">  1  5  2 -1</clus>
<clus scale="  107.865">  7  8 -1 -1</clus>
<clus scale="   35.744">  1  5  2 -1</clus>
</clustering>
</event>
<event>
 9    1  0.7835476E-005  0.1004018E+03  0.7546771E-02  0.1283106E+00
          1   -1    0    0  502    0 -0.00000000000E+00  0.00000000000E+00  0.35254656781E+03  0.35254656781E+03  0.00000000000E+00 0. -1.
         21   -1    0    0  501  502  0.00000000000E+00 -0.00000000000E+00 -0.11077038613E+03  0.11077038613E+03  0.00000000000E+00 0. -1.
         23    2    1    2    0    0  0.96627036596E+01  0.49873196376E+02  0.28416980152E+03  0.30258341129E+03  0.90683742371E+02 0.  0.
        -24    2    1    2    0    0  0.12987642049E+02  0.12039072565E+02 -0.41917407289E+02  0.94806355660E+02  0.83171857774E+02 0.  0.
         11    1    4    4    0    0  0.16819424731E+02  0.45414983632E+02 -0.36797593101E+02  0.60823323196E+02  0.00000000000E+00 0. -1.
        -12    1    4    4    0    0 -0.38317826816E+01 -0.33375911068E+02 -0.51198141881E+01  0.33983032464E+02  0.00000000000E+00 0.  1.
        -13    1    3    3    0    0  0.45694912786E+01  0.71001285733E+02  0.26219436754E+03  0.27167618445E+03  0.00000000000E+00 0. -1.
         13    1    3    3    0    0  0.50932123810E+01 -0.21128089357E+02  0.21975433984E+02  0.30907226842E+02  0.00000000000E+00 0.  1.
          2    1    1    2  501    0 -0.22650345709E+02 -0.61912268940E+02 -0.47621255933E+00  0.65927186990E+02  0.00000000000E+00 0. -1.
<scales pt_clust_5="13000.00000" pt_clust_6="13000.00000" pt_clust_7="13000.00000" pt_clust_8="13000.00000" pt_clust_9="65.92547"></scales>
<clustering>
<clus scale="   65.925">  2  9  1 -1</clus>
<clus scale="   83.172">  5  6 -1 -1</clus>
<clus scale="   90.684">  7  8 -1 -1</clus>
<clus scale="   93.673">  2  5  1 -1</clus>
<clus scale="   65.925">  2  5  1 -1</clus>
</clustering>
</event>
<event>
 9    1  0.7835476E-005  0.1338617E+03  0.7546771E-02  0.1248044E+00
         21   -1    0    0  501  502  0.00000000000E+00  0.00000000000E+00  0.91637250086E+02  0.91637250086E+02  0.00000000000E+00 0. -1.
          1   -1    0    0  502    0 -0.00000000000E+00 -0.00000000000E+00 -0.53108874426E+03  0.53108874426E+03  0.00000000000E+00 0. -1.
        -24    2    1    2    0    0  0.15877412740E+01 -0.43664742583E+01 -0.75687160200E+02  0.10886945745E+03  0.78118023063E+02 0.  0.
         23    2    1    2    0    0 -0.99392992358E+02  0.79543520840E+00 -0.38988492887E+03  0.41256041190E+03  0.91193399219E+02 0.  0.
         11    1    3    3    0    0 -0.11537627985E+02 -0.34948763514E+02 -0.15175372864E+02  0.39809858983E+02  0.00000000000E+00 0. -1.
        -12    1    3    3    0    0  0.13125369259E+02  0.30582289256E+02 -0.60511787335E+02  0.69059598470E+02  0.00000000000E+00 0.  1.
        -11    1    4    4    0    0 -0.17547310166E+02  0.16759431932E+02 -0.15030591252E+02  0.28543043393E+02  0.00000000000E+00 0.  1.
         11    1    4    4    0    0 -0.81845682192E+02 -0.15963996724E+02 -0.37485433762E+03  0.38401736851E+03  0.00000000000E+00 0. -1.
          2    1    1    2  501    0  0.97805251084E+02  0.35710390499E+01  0.26120594900E+02  0.10129612499E+03  0.00000000000E+00 0. -1.
<scales pt_clust_5="13000.00000" pt_clust_6="13000.00000" pt_clust_7="13000.00000" pt_clust_8="13000.00000" pt_clust_9="97.99342"></scales>
<clustering>
<clus scale="   78.118">  5  6 -1 -1</clus>
<clus scale="   78.256">  2  5  1 -1</clus>
<clus scale="   91.193">  7  8 -1 -1</clus>
<clus scale="   97.993">  1  9  2 -1</clus>
<clus scale="   97.993">  1  5  2 -1</clus>
</clustering>
</event>
<event>
 9    1  0.7835476E-005  0.1097464E+03  0.7546771E-02  0.1264037E+00
         -2   -1    0    0    0  501 -0.00000000000E+00  0.00000000000E+00  0.52219512507E+03  0.52219512507E+03  0.00000000000E+00 0.  1.
         21   -1    0    0  501  502  0.00000000000E+00 -0.00000000000E+00 -0.53114536426E+02  0.53114536426E+02  0.00000000000E+00 0. -1.
         23    2    1    2    0    0  0.43600926695E+02 -0.31915581620E+02  0.35523792535E+03  0.36959024638E+03  0.86506193152E+02 0.  0.
        -24    2    1    2    0    0 -0.39221007648E+02  0.67521226071E+02  0.48943956901E+02  0.13156560403E+03  0.93896718976E+02 0.  0.
         11    1    4    4    0    0 -0.38676000905E+02  0.86557017280E+02  0.19956750866E+02  0.96882517471E+02  0.00000000000E+00 0. -1.
        -12    1    4    4    0    0 -0.54500674325E+00 -0.19035791209E+02  0.28987206035E+02  0.34683086555E+02  0.00000000000E+00 0.  1.
        -13    1    3    3    0    0  0.15261756227E+02  0.29876419643E+02  0.13453232657E+03  0.13865232975E+03  0.00000000000E+00 0.  1.
         13    1    3    3    0    0  0.28339170468E+02 -0.61792001263E+02  0.22070559878E+03  0.23093791663E+03  0.00000000000E+00 0. -1.
         -1    1    1    2    0  502 -0.43799190466E+01 -0.35605644451E+02  0.64898706393E+02  0.74153811089E+02  0.00000000000E+00 0.  1.
<scales pt_clust_5="13000.00000" pt_clust_6="13000.00000" pt_clust_7="13000.00000" pt_clust_8="13000.00000" pt_clust_9="35.87404"></scales>
<clustering>
<clus scale="   35.874">  2  9  1 -1</clus>
<clus scale="   86.506">  7  8 -1 -1</clus>
<clus scale="   93.897">  5  6 -1 -1</clus>
<clus scale="  103.494">  1  7  2 -1</clus>
<clus scale="   35.874">  2  5  1 -1</clus>
</clustering>
</event>
<event>
 9    1  0.7835476E-005  0.8998943E+02  0.7546771E-02  0.1303385E+00
          3   -1    0    0  502    0 -0.00000000000E+00  0.00000000000E+00  0.35244526339E+03  0.35244526339E+03  0.00000000000E+00 0. -1.
         21   -1    0    0  501  502  0.00000000000E+00 -0.00000000000E+00 -0.44602035085E+02  0.44602035085E+02  0.00000000000E+00 0. -1.
        -24    2    1    2    0    0 -0.15334780646E+02  0.76731223566E+01  0.21119481006E+03  0.22992477813E+03  0.89264346173E+02 0.  0.
         23    2    1    2    0    0  0.46689559223E+01  0.12854575513E+02  0.10890148027E+03  0.14094459595E+03  0.88424020838E+02 0.  0.
         13    1    3    3    0    0 -0.44758555584E+02  0.23929016413E+02  0.82066731320E+02  0.96492872867E+02  0.00000000000E+00 0. -1.
        -14    1    3    3    0    0  0.29423774938E+02 -0.16255894057E+02  0.12912807874E+03  0.13343190526E+03  0.00000000000E+00 0.  1.
        -11    1    4    4    0    0  0.21712305957E+02 -0.28629527254E+02  0.79704943205E+02  0.87429697655E+02  0.00000000000E+00 0.  1.
         11    1    4    4    0    0 -0.17043350035E+02  0.41484102767E+02  0.29196537066E+02  0.53514898294E+02  0.00000000000E+00 0. -1.
          4    1    1    2  501    0  0.10665824723E+02 -0.20527697869E+02 -0.12253062023E+02  0.26177924398E+02  0.00000000000E+00 0. -1.
<scales pt_clust_5="13000.00000" pt_clust_6="13000.00000" pt_clust_7="13000.00000" pt_clust_8="13000.00000" pt_clust_9="23.13323"></scales>
<clustering>
<clus scale="   23.133">  2  9  1 -1</clus>
<clus scale="   88.424">  7  8 -1 -1</clus>
<clus scale="   89.156">  2  7  1 -1</clus>
<clus scale="   89.264">  5  6 -1 -1</clus>
<clus scale="   23.133">  2  5  1 -1</clus>
</clustering>
</event>
<event>
 9    1  0.7835476E-005  0.9670488E+02  0.7546771E-02  0.1293682E+00
          1   -1    0    0  502    0 -0.00000000000E+00  0.00000000000E+00  0.13959408796E+03  0.13959408796E+03  0.00000000000E+00 0. -1.
         21   -1    0    0  501  502  0.00000000000E+00 -0.00000000000E+00 -0.18576619654E+03  0.18576619654E+03  0.00000000000E+00 0. -1.
         23    2    1    2    0    0 -0.30725769034E+01 -0.39860403924E+02  0.53557661668E+02  0.11415471896E+03  0.92545038807E+02 0.  0.
        -24    2    1    2    0    0 -0.18450010205E+02  0.13109998816E+02  0.19979723469E+02  0.86669752148E+02  0.81241501968E+02 0.  0.
         11    1    4    4    0    0 -0.37026436251E+02  0.26779493976E+02  0.36347142451E+02  0.58388466698E+02  0.00000000000E+00 0. -1.
        -12    1    4    4    0    0  0.18576426046E+02 -0.13669495160E+02 -0.16367418982E+02  0.28281285450E+02  0.00000000000E+00 0.  1.
        -11    1    3    3    0    0 -0.31496236853E+02 -0.12493391072E+02 -0.13399223353E+02  0.36436752639E+02  0.00000000000E+00 0.  1.
         11    1    3    3    0    0  0.28423659950E+02 -0.27367012852E+02  0.66956885021E+02  0.77717966322E+02  0.00000000000E+00 0. -1.
          2    1    1    2  501    0  0.21522587108E+02  0.26750405108E+02 -0.11970949372E+03  0.12453581339E+03  0.00000000000E+00 0. -1.
<scales pt_clust_5="13000.00000" pt_clust_6="13000.00000" pt_clust_7="13000.00000" pt_clust_8="13000.00000" pt_clust_9="34.33374"></scales>
<clustering>
<clus scale="   34.334">  2  9  1 -1</clus>
<clus scale="   81.242">  5  6 -1 -1</clus>
<clus scale="   85.950">  2  5  1 -1</clus>
<clus scale="   92.545">  7  8 -1 -1</clus>
<clus scale="   34.334">  2  5  1 -1</clus>
</clustering>
</event>
<event>
 9    1  0.7835476E-005  0.1791621E+03  0.7546771E-02  0.1182909E+00
         21   -1    0    0  501  502  0.00000000000E+00  0.00000000000E+00  0.48305261669E+03  0.48305261669E+03  0.00000000000E+00 0. -1.
          1   -1    0    0  502    0 -0.00000000000E+00 -0.00000000000E+00 -0.27024238827E+03  0.27024238827E+03  0.00000000000E+00 0. -1.
         23    2    1    2    0    0 -0.75854091850E+02  0.51934360800E+02 -0.11282357265E+03  0.17184556903E+03  0.91382273810E+02 0.  0.
        -24    2    1    2    0    0 -0.11816375438E+03  0.81835283695E+02  0.30213205852E+03  0.34461705987E+03  0.82567854919E+02 0.  0.
         11    1    4    4    0    0 -0.12524707906E+03  0.89512956611E+02  0.29182942884E+03  0.32994517083E+03  0.00000000000E+00 0. -1.
        -12    1    4    4    0    0  0.70833246815E+01 -0.76776729164E+01  0.10302629675E+02  0.14671889046E+02  0.00000000000E+00 0.  1.
        -11    1    3    3    0    0 -0.27199217788E+02 -0.21545192160E+02 -0.93645653262E+01  0.35940058949E+02  0.00000000000E+00 0.  1.
         11    1    3    3    0    0 -0.48654874062E+02  0.73479552960E+02 -0.10345900733E+03  0.13590551008E+03  0.00000000000E+00 0. -1.
          2    1    1    2  501    0  0.19401784623E+03 -0.13376964450E+03  0.23501742557E+02  0.23683237605E+03  0.00000000000E+00 0. -1.
<scales pt_clust_5="13000.00000" pt_clust_6="13000.00000" pt_clust_7="13000.00000" pt_clust_8="13000.00000" pt_clust_9="159.00199"></scales>
<clustering>
<clus scale="   82.568">  5  6 -1 -1</clus>
<clus scale="   91.382">  7  8 -1 -1</clus>
<clus scale="  129.622">  2  7  1 -1</clus>
<clus scale="  159.002">  1  9  2 -1</clus>
<clus scale="  159.002">  1  5  2 -1</clus>
</clustering>
</event>
<event>
 9    1  0.7835476E-005  0.1544439E+03  0.7546771E-02  0.1210768E+00
         21   -1    0    0  501  502  0.00000000000E+00  0.00000000000E+00  0.13333692373E+04  0.13333692373E+04  0.00000000000E+00 0. -1.
          1   -1    0    0  502    0 -0.00000000000E+00 -0.00000000000E+00 -0.53760318393E+02  0.53760318393E+02  0.00000000000E+00 0. -1.
         23    2    1    2    0    0 -0.51927817681E+02 -0.12114289001E+02  0.42822154479E+03  0.44215396470E+03  0.96349275159E+02 0.  0.
        -24    2    1    2    0    0 -0.36385384189E+02  0.11328534752E+03  0.85858934389E+02  0.16775709100E+03  0.81321699571E+02 0.  0.
         11    1    4    4    0    0 -0.46953430815E+01  0.11231735348E+03  0.67056226381E+02  0.13089603369E+03  0.00000000000E+00 0. -1.
        -12    1    4    4    0    0 -0.31690041107E+02  0.96799404571E+00  0.18802708008E+02  0.36861057314E+02  0.00000000000E+00 0.  1.
        -13    1    3    3    0    0 -0.12019729939E+02 -0.49481732193E+02  0.14441176553E+03  0.15312633265E+03  0.00000000000E+00 0.  1.
         13    1    3    3    0    0 -0.39908087741E+02  0.37367443192E+02  0.28380977927E+03  0.28902763205E+03  0.00000000000E+00 0. -1.
          2    1    1    2  501    0  0.88313201869E+02 -0.10117105852E+03  0.76552843973E+03  0.77721850000E+03  0.00000000000E+00 0. -1.
<scales pt_clust_5="13000.00000" pt_clust_6="13000.00000" pt_clust_7="13000.00000" pt_clust_8="13000.00000" pt_clust_9="131.30004"></scales>
<clustering>
<clus scale="   81.322">  5  6 -1 -1</clus>
<clus scale="   96.349">  7  8 -1 -1</clus>
<clus scale="  110.120">  2  7  1 -1</clus>
<clus scale="  131.300">  1  9  2 -1</clus>
<clus scale="  131.300">  1  5  2 -1</clus>
</clustering>
</event>
<event>
 9    1  0.7835476E-005  0.1548530E+03  0.7546771E-02  0.1194798E+00
         -2   -1    0    0    0  501 -0.00000000000E+00  0.00000000000E+00  0.11152208312E+04  0.11152208312E+04  0.00000000000E+00 0.  1.
         21   -1    0    0  501  502  0.00000000000E+00 -0.00000000000E+00 -0.53372167421E+02  0.53372167421E+02  0.00000000000E+00 0.  1.
         23    2    1    2    0    0 -0.58419985003E+02  0.16383782340E+03  0.78470079973E+03  0.80843985656E+03  0.86970854599E+02 0.  0.
        -24    2    1    2    0    0  0.54584043766E+01 -0.72727469303E+02  0.19985964233E+03  0.22946460064E+03  0.85971200684E+02 0.  0.
         13    1    4    4    0    0  0.36866954479E+02 -0.15471210948E+02  0.11894036014E+03  0.12548043661E+03  0.00000000000E+00 0. -1.
        -14    1    4    4    0    0 -0.31408550103E+02 -0.57256258355E+02  0.80919282187E+02  0.10398416403E+03  0.00000000000E+00 0.  1.
        -13    1    3    3    0    0  0.27731471629E+01  0.85983932084E+02  0.24339976842E+03  0.25815571694E+03  0.00000000000E+00 0. -1.
         13    1    3    3    0    0 -0.61193132166E+02  0.77853891315E+02  0.54130103132E+03  0.55028413962E+03  0.00000000000E+00 0.  1.
         -1    1    1    2    0  502  0.52961580627E+02 -0.91110354095E+02  0.77288221758E+02  0.13068854146E+03  0.00000000000E+00 0.  1.
<scales pt_clust_5="13000.00000" pt_clust_6="13000.00000" pt_clust_7="13000.00000" pt_clust_8="13000.00000" pt_clust_9="105.38513"></scales>
<clustering>
<clus scale="   85.971">  5  6 -1 -1</clus>
<clus scale="   86.971">  7  8 -1 -1</clus>
<clus scale="  105.385">  2  9  1 -1</clus>
<clus scale="  154.294">  2  5  1 -1</clus>
<clus scale="  105.385">  2  5  1 -1</clus>
</clustering>
</event>
<event>
 9    1  0.7835476E-005  0.9106834E+02  0.7546771E-02  0.1305468E+00
          1   -1    0    0  502    0 -0.00000000000E+00  0.00000000000E+00  0.36528493778E+02  0.36528493778E+02  0.00000000000E+00 0. -1.
         21   -1    0    0  501  502  0.00000000000E+00 -0.00000000000E+00 -0.47501115389E+03  0.47501115389E+03  0.00000000000E+00 0.  1.
        -24    2    1    2    0    0 -0.23054328961E+02 -0.84234358506E+01 -0.47183531495E+02  0.97070798048E+02  0.81203434866E+02 0.  0.
         23    2    1    2    0    0 -0.11036721875E+02 -0.19697924718E+02 -0.26861950491E+03  0.28407214437E+03  0.89614325418E+02 0.  0.
         11    1    3    3    0    0 -0.51431662281E+02 -0.13681344317E+02 -0.41890885618E+02  0.67729176617E+02  0.00000000000E+00 0. -1.
        -12    1    3    3    0    0  0.28377333321E+02  0.52579084666E+01 -0.52926458777E+01  0.29341621432E+02  0.00000000000E+00 0.  1.
        -13    1    4    4    0    0 -0.43460386542E+02  0.13585336730E+02 -0.11951640897E+03  0.12789659333E+03  0.00000000000E+00 0. -1.
         13    1    4    4    0    0  0.32423664667E+02 -0.33283261449E+02 -0.14910309594E+03  0.15617555104E+03  0.00000000000E+00 0.  1.
          2    1    1    2  501    0  0.34091050836E+02  0.28121360569E+02 -0.12267962371E+03  0.13039670525E+03  0.00000000000E+00 0. -1.
<scales pt_clust_5="13000.00000" pt_clust_6="13000.00000" pt_clust_7="13000.00000" pt_clust_8="13000.00000" pt_clust_9="44.19288"></scales>
<clustering>
<clus scale="   44.193">  2  9  1 -1</clus>
<clus scale="   81.203">  5  6 -1 -1</clus>
<clus scale="   82.805">  1  5  2 -1</clus>
<clus scale="   89.614">  7  8 -1 -1</clus>
<clus scale="   44.193">  2  5  1 -1</clus>
</clustering>
</event>
<event>
 9    1  0.7835476E-005  0.2129510E+03  0.7546771E-02  0.1171563E+00
         21   -1    0    0  501  502  0.00000000000E+00  0.00000000000E+00  0.16852044372E+03  0.16852044372E+03  0.00000000000E+00 0.  1.
         -2   -1    0    0    0  501 -0.00000000000E+00 -0.00000000000E+00 -0.61149554956E+03  0.61149554956E+03  0.00000000000E+00 0.  1.
        -24    2    1    2    0    0  0.68859080765E+02  0.24998229702E+02  0.38763484763E+02  0.10701008728E+03  0.67690963481E+02 0.  0.
         23    2    1    2    0    0 -0.23701473398E+03  0.41127975630E+02 -0.39975174465E+03  0.47458503600E+03  0.86959786905E+02 0.  0.
         11    1    3    3    0    0  0.58433409918E+02  0.41787696518E+02  0.46732655055E+02  0.85700735256E+02  0.00000000000E+00 0. -1.
        -12    1    3    3    0    0  0.10425670847E+02 -0.16789466816E+02 -0.79691702926E+01  0.21309352025E+02  0.00000000000E+00 0.  1.
        -11    1    4    4    0    0 -0.20243753871E+03  0.61258593878E+02 -0.36370612112E+03  0.42073235547E+03  0.00000000000E+00 0.  1.
         11    1    4    4    0    0 -0.34577195278E+02 -0.20130618247E+02 -0.36045623533E+02  0.53852680529E+02  0.00000000000E+00 0. -1.
         -1    1    1    2    0  502  0.16815565322E+03 -0.66126205333E+02 -0.81986845950E+02  0.19842087000E+03  0.00000000000E+00 0.  1.
<scales pt_clust_5="13000.00000" pt_clust_6="13000.00000" pt_clust_7="13000.00000" pt_clust_8="13000.00000" pt_clust_9="194.38654"></scales>
<clustering>
<clus scale="   67.691">  5  6 -1 -1</clus>
<clus scale="   86.960">  7  8 -1 -1</clus>
<clus scale="   99.742">  2  5  1 -1</clus>
<clus scale="  194.387">  1  9  2 -1</clus>
<clus scale="  194.387">  1  5  2 -1</clus>
</clustering>
</event>
<event>
 9    1  0.7835476E-005  0.1263901E+03  0.7546771E-02  0.1234546E+00
          1   -1    0    0  502    0 -0.00000000000E+00  0.00000000000E+00  0.10656288973E+04  0.10656288973E+04  0.00000000000E+00 0. -1.
         21   -1    0    0  501  502  0.00000000000E+00 -0.00000000000E+00 -0.40492854627E+02  0.40492854627E+02  0.00000000000E+00 0. -1.
        -24    2    1    2    0    0 -0.86623911121E+02  0.25296352851E+02  0.23564919053E+03  0.26495873031E+03  0.80802105956E+02 0.  0.
         23    2    1    2    0    0  0.53978537268E+02 -0.11973050104E+03  0.24582328893E+03  0.28839399323E+03  0.74114307540E+02 0.  0.
         13    1    3    3    0    0 -0.12263959859E+02  0.42017883303E+02  0.10405126963E+03  0.11288300997E+03  0.00000000000E+00 0. -1.
        -14    1    3    3    0    0 -0.74359951262E+02 -0.16721530452E+02  0.13159792089E+03  0.15207572034E+03  0.00000000000E+00 0.  1.
        -11    1    4    4    0    0  0.22139162805E+02 -0.92106311122E+01  0.99123495721E+02  0.10198257527E+03  0.00000000000E+00 0.  1.
         11    1    4    4    0    0  0.31839374463E+02 -0.11051986993E+03  0.14669979321E+03  0.18641141796E+03  0.00000000000E+00 0. -1.
          2    1    1    2  501    0  0.32645373853E+02  0.94434148191E+02  0.54366356317E+03  0.55276902835E+03  0.00000000000E+00 0. -1.
<scales pt_clust_5="13000.00000" pt_clust_6="13000.00000" pt_clust_7="13000.00000" pt_clust_8="13000.00000" pt_clust_9="99.91766"></scales>
<clustering>
<clus scale="   74.114">  7  8 -1 -1</clus>
<clus scale="   80.802">  5  6 -1 -1</clus>
<clus scale="   99.918">  2  9  1 -1</clus>
<clus scale="  122.223">  2  7  1 -1</clus>
<clus scale="   99.918">  2  5  1 -1</clus>
</clustering>
</event>
<event>
 9    1  0.7835476E-005  0.1432415E+03  0.7546771E-02  0.1225098E+00
          1   -1    0    0  502    0 -0.00000000000E+00  0.00000000000E+00  0.14335962341E+03  0.14335962341E+03  0.00000000000E+00 0. -1.
         21   -1    0    0  501  502  0.00000000000E+00 -0.00000000000E+00 -0.41742224923E+03  0.41742224923E+03  0.00000000000E+00 0. -1.
         23    2    1    2    0    0 -0.96619438950E+01 -0.45672046217E+02 -0.25035107621E+03  0.27035418575E+03  0.90754809388E+02 0.  0.
        -24    2    1    2    0    0 -0.10838608783E+03  0.57951437571E+02  0.44091803609E+02  0.15374039431E+03  0.81154843010E+02 0.  0.
         11    1    4    4    0    0 -0.97130478251E+02  0.76296566276E+02  0.46727790471E+02  0.13205673869E+03  0.00000000000E+00 0. -1.
        -12    1    4    4    0    0 -0.11255609582E+02 -0.18345128705E+02 -0.26359868615E+01  0.21683655619E+02  0.00000000000E+00 0.  1.
        -11    1    3    3    0    0 -0.47739407830E+02 -0.88852700957E+01 -0.10578122787E+03  0.11639444684E+03  0.00000000000E+00 0.  1.
         11    1    3    3    0    0  0.38077463935E+02 -0.36786776121E+02 -0.14456984834E+03  0.15395973891E+03  0.00000000000E+00 0. -1.
          2    1    1    2  501    0  0.11804803173E+03 -0.12279391354E+02 -0.67803353222E+02  0.13668729259E+03  0.00000000000E+00 0. -1.
<scales pt_clust_5="13000.00000" pt_clust_6="13000.00000" pt_clust_7="13000.00000" pt_clust_8="13000.00000" pt_clust_9="118.03400"></scales>
<clustering>
<clus scale="   81.155">  5  6 -1 -1</clus>
<clus scale="   90.755">  7  8 -1 -1</clus>
<clus scale="  102.058">  1  7  2 -1</clus>
<clus scale="  118.034">  2  9  1 -1</clus>
<clus scale="  118.034">  2  5  1 -1</clus>
</clustering>
</event>
<event>
 9    1  0.7835476E-005  0.1139130E+03  0.7546771E-02  0.1258409E+00
          1   -1    0    0  502    0 -0.00000000000E+00  0.00000000000E+00  0.70846004709E+03  0.70846004709E+03  0.00000000000E+00 0. -1.
         21   -1    0    0  501  502  0.00000000000E+00 -0.00000000000E+00 -0.90438188830E+02  0.90438188830E+02  0.00000000000E+00 0. -1.
         23    2    1    2    0    0 -0.66022111962E+02 -0.45336525337E+02  0.55047594641E+03  0.56372975113E+03  0.91395541083E+02 0.  0.
        -24    2    1    2    0    0  0.53639794249E+02 -0.38300416440E+02  0.10165308539E+03  0.14399963536E+03  0.77835697387E+02 0.  0.
         11    1    4    4    0    0  0.13399711206E+02  0.17834514007E+02  0.58376379619E+02  0.62493390432E+02  0.00000000000E+00 0. -1.
        -12    1    4    4    0    0  0.40240083043E+02 -0.56134930447E+02  0.43276705767E+02  0.81506244924E+02  0.00000000000E+00 0.  1.
        -13    1    3    3    0    0 -0.87841108184E+02 -0.26410672760E+02  0.38699547062E+03  0.39771733455E+03  0.00000000000E+00 0. -1.
         13    1    3    3    0    0  0.21818996222E+02 -0.18925852577E+02  0.16348047580E+03  0.16601241658E+03  0.00000000000E+00 0.  1.
          2    1    1    2  501    0  0.12382317714E+02  0.83636941777E+02 -0.34107173536E+02  0.91168849441E+02  0.00000000000E+00 0. -1.
<scales pt_clust_5="13000.00000" pt_clust_6="13000.00000" pt_clust_7="13000.00000" pt_clust_8="13000.00000" pt_clust_9="84.54856"></scales>
<clustering>
<clus scale="   77.836">  5  6 -1 -1</clus>
<clus scale="   84.549">  2  9  1 -1</clus>
<clus scale="   91.396">  7  8 -1 -1</clus>
<clus scale="  103.351">  2  5  1 -1</clus>
<clus scale="   84.549">  2  5  1 -1</clus>
</clustering>
</event>
<event>
 9    1  0.7835476E-005  0.1284233E+03  0.7546771E-02  0.1252049E+00
         21   -1    0    0  501  502  0.00000000000E+00  0.00000000000E+00  0.69666874976E+02  0.69666874976E+02  0.00000000000E+00 0. -1.
         -2   -1    0    0    0  501 -0.00000000000E+00 -0.00000000000E+00 -0.48055269121E+03  0.48055269121E+03  0.00000000000E+00 0.  1.
         23    2    1    2    0    0 -0.16777266344E+02  0.49990020909E+01 -0.16466006844E+03  0.18386391297E+03  0.79915791077E+02 0.  0.
        -24    2    1    2    0    0 -0.29388525380E+02 -0.95481075361E+02 -0.36600815000E+02  0.13341596498E+03  0.80497694858E+02 0.  0.
         11    1    4    4    0    0 -0.44798968595E+02 -0.88819621068E+02 -0.74250976584E+01  0.99754722941E+02  0.00000000000E+00 0. -1.
        -12    1    4    4    0    0  0.15410443215E+02 -0.66614542931E+01 -0.29175717342E+02  0.33661242042E+02  0.00000000000E+00 0.  1.
        -13    1    3    3    0    0 -0.41606999562E+02  0.44837762574E+01 -0.44189736047E+02  0.60860327258E+02  0.00000000000E+00 0.  1.
         13    1    3    3    0    0  0.24829733218E+02  0.51522583343E+00 -0.12047033240E+03  0.12300358571E+03  0.00000000000E+00 0. -1.
         -1    1    1    2    0  502  0.46165791724E+02  0.90482073270E+02 -0.20962493279E+03  0.23293968823E+03  0.00000000000E+00 0.  1.
<scales pt_clust_5="13000.00000" pt_clust_6="13000.00000" pt_clust_7="13000.00000" pt_clust_8="13000.00000" pt_clust_9="100.06338"></scales>
<clustering>
<clus scale="   79.916">  7  8 -1 -1</clus>
<clus scale="   80.498">  5  6 -1 -1</clus>
<clus scale="   81.811">  2  7  1 -1</clus>
<clus scale="  100.063">  1  9  2 -1</clus>
<clus scale="  100.063">  1  5  2 -1</clus>
</clustering>
</event>
<event>
 9    1  0.1106589E-004  0.9143107E+02  0.7546771E-02  0.1307341E+00
         21   -1    0    0  501  502  0.00000000000E+00  0.00000000000E+00  0.13775497767E+03  0.13775497767E+03  0.00000000000E+00 0. -1.
          1   -1    0    0  502    0 -0.00000000000E+00 -0.00000000000E+00 -0.35297954106E+03  0.35297954106E+03  0.00000000000E+00 0. -1.
         23    2    1    2    0    0 -0.72966494090E+01  0.10275672994E+02 -0.31111522766E+03  0.32437141025E+03  0.90913675307E+02 0.  0.
        -24    2    1    2    0    0 -0.12521764375E+02  0.50132084011E+01  0.14146290559E+02  0.80872395209E+02  0.78474836278E+02 0.  0.
         13    1    4    4    0    0 -0.22364286433E+01  0.37261097084E+02 -0.10760142873E+02  0.38848058428E+02  0.00000000000E+00 0. -1.
        -14    1    4    4    0    0 -0.10285335732E+02 -0.32247888683E+02  0.24906433431E+02  0.42024336781E+02  0.00000000000E+00 0.  1.
        -11    1    3    3    0    0 -0.44916111145E+02 -0.77249295251E+01 -0.11166344777E+03  0.12060620690E+03  0.00000000000E+00 0.  1.
         11    1    3    3    0    0  0.37619461736E+02  0.18000602519E+02 -0.19945177990E+03  0.20376520335E+03  0.00000000000E+00 0. -1.
          2    1    1    2  501    0  0.19818413784E+02 -0.15288881395E+02  0.81744373717E+02  0.85490713259E+02  0.00000000000E+00 0. -1.
<scales pt_clust_5="13000.00000" pt_clust_6="13000.00000" pt_clust_7="13000.00000" pt_clust_8="13000.00000" pt_clust_9="25.03037"></scales>
<clustering>
<clus scale="   25.030">  1  9  2 -1</clus>
<clus scale="   78.475">  5  6 -1 -1</clus>
<clus scale="   79.074">  1  5  2 -1</clus>
<clus scale="   90.914">  7  8 -1 -1</clus>
<clus scale="   25.030">  1  5  2 -1</clus>
</clustering>
</event>
<event>
 9    1  0.7835476E-005  0.1684154E+03  0.7546771E-02  0.1180749E+00
         21   -1    0    0  501  502  0.00000000000E+00  0.00000000000E+00  0.78220832201E+02  0.78220832201E+02  0.00000000000E+00 0. -1.
          1   -1    0    0  502    0 -0.00000000000E+00 -0.00000000000E+00 -0.56176627283E+03  0.56176627283E+03  0.00000000000E+00 0. -1.
        -24    2    1    2    0    0  0.75581036977E+02  0.13401019170E+03 -0.25005909980E+03  0.30436291621E+03  0.80224726505E+02 0.  0.
         23    2    1    2    0    0 -0.83295630959E+01 -0.13397902838E+03 -0.11050850801E+03  0.19545889684E+03  0.89287671857E+02 0.  0.
         13    1    3    3    0    0  0.80509257794E+02  0.14159839950E+03 -0.22539300939E+03  0.27808965463E+03  0.00000000000E+00 0. -1.
        -14    1    3    3    0    0 -0.49282208176E+01 -0.75882077983E+01 -0.24666090409E+02  0.26273261581E+02  0.00000000000E+00 0.  1.
        -13    1    4    4    0    0 -0.23044460044E+01 -0.11472910264E+03 -0.39060149446E+02  0.12121787302E+03  0.00000000000E+00 0. -1.
         13    1    4    4    0    0 -0.60251170915E+01 -0.19249925738E+02 -0.71448358567E+02  0.74241023826E+02  0.00000000000E+00 0.  1.
          2    1    1    2  501    0 -0.67251473881E+02 -0.31163321067E-01 -0.12297783282E+03  0.14016529197E+03  0.00000000000E+00 0. -1.
<scales pt_clust_5="13000.00000" pt_clust_6="13000.00000" pt_clust_7="13000.00000" pt_clust_8="13000.00000" pt_clust_9="67.25151"></scales>
<clustering>
<clus scale="   67.252">  1  9  2 -1</clus>
<clus scale="   80.225">  5  6 -1 -1</clus>
<clus scale="   89.288">  7  8 -1 -1</clus>
<clus scale="  163.791">  2  5  1 -1</clus>
<clus scale="   67.252">  1  5  2 -1</clus>
</clustering>
</event>
<event>
 9    1  0.7835476E-005  0.2553504E+03  0.7546771E-02  0.1109969E+00
          1   -1    0    0  502    0 -0.00000000000E+00  0.00000000000E+00  0.41180247002E+03  0.41180247002E+03  0.00000000000E+00 0. -1.
         21   -1    0    0  501  502  0.00000000000E+00 -0.00000000000E+00 -0.13481428216E+03  0.13481428216E+03  0.00000000000E+00 0. -1.
        -24    2    1    2    0    0 -0.84898628254E+02 -0.58926600536E+02  0.11277468243E+03  0.16543404891E+03  0.63009318454E+02 0.  0.
         23    2    1    2    0    0 -0.20595307955E+02 -0.94356216670E+02  0.13941977437E+03  0.19346130936E+03  0.93070631253E+02 0.  0.
         13    1    3    3    0    0 -0.69081190593E+02 -0.72175306382E+02  0.87501820913E+02  0.13280833712E+03  0.00000000000E+00 0. -1.
        -14    1    3    3    0    0 -0.15817437661E+02  0.13248705846E+02  0.25272861521E+02  0.32625711796E+02  0.00000000000E+00 0.  1.
        -13    1    4    4    0    0 -0.37248939406E+02 -0.58549590264E+02  0.13738834708E+03  0.15391912136E+03  0.00000000000E+00 0.  1.
         13    1    4    4    0    0  0.16653631450E+02 -0.35806626406E+02  0.20314272844E+01  0.39542188000E+02  0.00000000000E+00 0. -1.
          2    1    1    2  501    0  0.10549393621E+03  0.15328281721E+03  0.24793731061E+02  0.18772139390E+03  0.00000000000E+00 0. -1.
<scales pt_clust_5="13000.00000" pt_clust_6="13000.00000" pt_clust_7="13000.00000" pt_clust_8="13000.00000" pt_clust_9="186.07685"></scales>
<clustering>
<clus scale="   63.009">  5  6 -1 -1</clus>
<clus scale="   93.071">  7  8 -1 -1</clus>
<clus scale="  117.870">  5  7 -1 -1</clus>
<clus scale="  186.077">  2  9  1 -1</clus>
<clus scale="  186.077">  2  5  1 -1</clus>
</clustering>
</event>
<event>
 9    1  0.7835476E-005  0.1813043E+03  0.7546771E-02  0.1167499E+00
          1   -1    0    0  502    0 -0.00000000000E+00  0.00000000000E+00  0.32112937326E+03  0.32112937326E+03  0.00000000000E+00 0. -1.
         21   -1    0    0  501  502  0.00000000000E+00 -0.00000000000E+00 -0.19855656676E+03  0.19855656676E+03  0.00000000000E+00 0. -1.
         23    2    1    2    0    0  0.14288966602E+03 -0.41530761975E+02  0.13033844584E+03  0.21796762414E+03  0.91539684633E+02 0.  0.
        -24    2    1    2    0    0 -0.15119349952E+03  0.11338893269E+03 -0.56866409657E+02  0.21429156943E+03  0.83489902536E+02 0.  0.
         13    1    4    4    0    0 -0.14515281724E+03  0.81783033771E+02 -0.24053929330E+02  0.16833418097E+03  0.00000000000E+00 0. -1.
        -14    1    4    4    0    0 -0.60406822840E+01  0.31605898919E+02 -0.32812480327E+02  0.45957388461E+02  0.00000000000E+00 0.  1.
        -13    1    3    3    0    0  0.32143612850E+02 -0.29267466376E+02 -0.37422586208E+01  0.43632567364E+02  0.00000000000E+00 0.  1.
         13    1    3    3    0    0  0.11074605317E+03 -0.12263295599E+02  0.13408070446E+03  0.17433505678E+03  0.00000000000E+00 0. -1.
          2    1    1    2  501    0  0.83038335011E+01 -0.71858170715E+02  0.49100770311E+02  0.87426746447E+02  0.00000000000E+00 0. -1.
<scales pt_clust_5="13000.00000" pt_clust_6="13000.00000" pt_clust_7="13000.00000" pt_clust_8="13000.00000" pt_clust_9="72.33641"></scales>
<clustering>
<clus scale="   72.336">  2  9  1 -1</clus>
<clus scale="   83.490">  5  6 -1 -1</clus>
<clus scale="   91.540">  7  8 -1 -1</clus>
<clus scale="  177.376">  2  5  1 -1</clus>
<clus scale="   72.336">  2  5  1 -1</clus>
</clustering>
</event>
<event>
 9    1  0.7835476E-005  0.1738575E+03  0.7546771E-02  0.1177939E+00
         -4   -1    0    0    0  501 -0.00000000000E+00  0.00000000000E+00  0.40124971013E+02  0.40124971013E+02  0.00000000000E+00 0.  1.
         21   -1    0    0  501  502  0.00000000000E+00 -0.00000000000E+00 -0.98129767481E+03  0.98129767481E+03  0.00000000000E+00 0.  1.
         23    2    1    2    0    0  0.26663659682E+02 -0.15317040530E+03 -0.37319464366E+03  0.41509156390E+03  0.94099099614E+02 0.  0.
        -24    2    1    2    0    0  0.18277988139E+02  0.13662623117E+03 -0.50582743864E+03  0.52786987394E+03  0.61517430378E+02 0.  0.
         11    1    4    4    0    0 -0.21948534112E+02  0.34779202993E+02 -0.12331048668E+03  0.12998771956E+03  0.00000000000E+00 0. -1.
        -12    1    4    4    0    0  0.40226522251E+02  0.10184702817E+03 -0.38251695195E+03  0.39788215438E+03  0.00000000000E+00 0.  1.
        -13    1    3    3    0    0 -0.22417027906E+02 -0.10838169901E+03 -0.18579641356E+03  0.21626239412E+03  0.00000000000E+00 0. -1.
         13    1    3    3    0    0  0.49080687588E+02 -0.44788706295E+02 -0.18739823011E+03  0.19882916977E+03  0.00000000000E+00 0.  1.
         -3    1    1    2    0  502 -0.44941647821E+02  0.16544174137E+02 -0.62150621494E+02  0.78461207987E+02  0.00000000000E+00 0.  1.
<scales pt_clust_5="13000.00000" pt_clust_6="13000.00000" pt_clust_7="13000.00000" pt_clust_8="13000.00000" pt_clust_9="47.89012"></scales>
<clustering>
<clus scale="   47.890">  2  9  1 -1</clus>
<clus scale="   61.517">  5  6 -1 -1</clus>
<clus scale="   94.099">  7  8 -1 -1</clus>
<clus scale="  158.607">  2  5  1 -1</clus>
<clus scale="   47.890">  2  5  1 -1</clus>
</clustering>
</event>
<event>
 9    1  0.7835476E-005  0.1174661E+03  0.7546771E-02  0.1251473E+00
         -4   -1    0    0    0  501 -0.00000000000E+00  0.00000000000E+00  0.12073278588E+03  0.12073278588E+03  0.00000000000E+00 0.  1.
         21   -1    0    0  501  502  0.00000000000E+00 -0.00000000000E+00 -0.19031443392E+03  0.19031443392E+03  0.00000000000E+00 0. -1.
         23    2    1    2    0    0 -0.59112083688E+02  0.54310055036E+02  0.26223263635E+02  0.12429325781E+03  0.91199418122E+02 0.  0.
        -24    2    1    2    0    0  0.34863296115E+02 -0.45750097911E+02 -0.11776398645E+03  0.15293861740E+03  0.78824763318E+02 0.  0.
         13    1    4    4    0    0  0.11269206916E+02 -0.45966563010E+02 -0.12023504300E+03  0.12921449417E+03  0.00000000000E+00 0. -1.
        -14    1    4    4    0    0  0.23594089199E+02  0.21646509959E+00  0.24710565492E+01  0.23724123224E+02  0.00000000000E+00 0.  1.
        -13    1    3    3    0    0 -0.79091738913E+02  0.42213274307E+02  0.64309656824E+00  0.89654209411E+02  0.00000000000E+00 0.  1.
         13    1    3    3    0    0  0.19979655225E+02  0.12096780730E+02  0.25580167067E+02  0.34639048401E+02  0.00000000000E+00 0. -1.
         -3    1    1    2    0  502  0.24248787572E+02 -0.85599571259E+01  0.21959074778E+02  0.33815344591E+02  0.00000000000E+00 0.  1.
<scales pt_clust_5="13000.00000" pt_clust_6="13000.00000" pt_clust_7="13000.00000" pt_clust_8="13000.00000" pt_clust_9="25.71531"></scales>
<clustering>
<clus scale="   25.715">  2  9  1 -1</clus>
<clus scale="   78.825">  5  6 -1 -1</clus>
<clus scale="   91.199">  7  8 -1 -1</clus>
<clus scale="  108.140">  2  5  1 -1</clus>
<clus scale="   25.715">  2  5  1 -1</clus>
</clustering>
</event>
<event>
 9    1  0.7835476E-005  0.9739214E+02  0.7546771E-02  0.1291968E+00
         21   -1    0    0  501  502  0.00000000000E+00  0.00000000000E+00  0.20109813564E+03  0.20109813564E+03  0.00000000000E+00 0.  1.
          1   -1    0    0  502    0 -0.00000000000E+00 -0.00000000000E+00 -0.32617994383E+03  0.32617994383E+03  0.00000000000E+00 0. -1.
         23    2    1    2    0    0  0.36713240329E+02 -0.17322908701E+02 -0.28964779333E+03  0.30623525914E+03  0.90753757933E+02 0.  0.
        -24    2    1    2    0    0  0.21496960194E+02 -0.27178842073E+01  0.69044416541E+02  0.10740114270E+03  0.79362256808E+02 0.  0.
         13    1    4    4    0    0 -0.22312298385E+02 -0.23936884900E+02  0.20272558921E+02  0.38494022434E+02  0.00000000000E+00 0. -1.
        -14    1    4    4    0    0  0.43809258579E+02  0.21219000693E+02  0.48771857621E+02  0.68907120266E+02  0.00000000000E+00 0.  1.
        -11    1    3    3    0    0 -0.25903060213E+02 -0.25406381519E+02 -0.10529200873E+03  0.11136812763E+03  0.00000000000E+00 0.  1.
         11    1    3    3    0    0  0.62616300542E+02  0.80834728183E+01 -0.18435578460E+03  0.19486713151E+03  0.00000000000E+00 0. -1.
          2    1    1    2  501    0 -0.58210200523E+02  0.20040792908E+02  0.95521568607E+02  0.11364167763E+03  0.00000000000E+00 0. -1.
<scales pt_clust_5="13000.00000" pt_clust_6="13000.00000" pt_clust_7="13000.00000" pt_clust_8="13000.00000" pt_clust_9="61.56347"></scales>
<clustering>
<clus scale="   61.563">  1  9  2 -1</clus>
<clus scale="   79.362">  5  6 -1 -1</clus>
<clus scale="   86.875">  1  5  2 -1</clus>
<clus scale="   90.754">  7  8 -1 -1</clus>
<clus scale="   61.563">  1  5  2 -1</clus>
</clustering>
</event>
<event>
 9    1  0.7835476E-005  0.1276047E+03  0.7546771E-02  0.1251449E+00
         21   -1    0    0  501  502  0.00000000000E+00  0.00000000000E+00  0.60505910531E+03  0.60505910531E+03  0.00000000000E+00 0. -1.
          3   -1    0    0  502    0 -0.00000000000E+00 -0.00000000000E+00 -0.66023599184E+02  0.66023599184E+02  0.00000000000E+00 0. -1.
        -24    2    1    2    0    0 -0.35197665117E+02  0.23251443678E+02 -0.58725073192E+00  0.84400098759E+02  0.73099429165E+02 0.  0.
         23    2    1    2    0    0 -0.10142049073E+02  0.74126220437E+02  0.33661029476E+03  0.35700422426E+03  0.92455220964E+02 0.  0.
         13    1    3    3    0    0 -0.10080730076E+02  0.46802273837E+02  0.88776412372E+01  0.48691749497E+02  0.00000000000E+00 0. -1.
        -14    1    3    3    0    0 -0.25116935041E+02 -0.23550830159E+02 -0.94648919691E+01  0.35708349262E+02  0.00000000000E+00 0.  1.
        -13    1    4    4    0    0 -0.42072990062E+02  0.51337365411E+01  0.10482070834E+03  0.11306578899E+03  0.00000000000E+00 0.  1.
         13    1    4    4    0    0  0.31930940989E+02  0.68992483896E+02  0.23178958642E+03  0.24393843527E+03  0.00000000000E+00 0. -1.
          4    1    1    2  501    0  0.45339714190E+02 -0.97377664115E+02  0.20301246210E+03  0.22967838148E+03  0.00000000000E+00 0. -1.
<scales pt_clust_5="13000.00000" pt_clust_6="13000.00000" pt_clust_7="13000.00000" pt_clust_8="13000.00000" pt_clust_9="87.94881"></scales>
<clustering>
<clus scale="   73.099">  5  6 -1 -1</clus>
<clus scale="   84.398">  2  5  1 -1</clus>
<clus scale="   87.949">  1  9  2 -1</clus>
<clus scale="   92.455">  7  8 -1 -1</clus>
<clus scale="   87.949">  1  5  2 -1</clus>
</clustering>
</event>
<event>
 9    1  0.7835476E-005  0.1061335E+03  0.7546771E-02  0.1271226E+00
         21   -1    0    0  501  502  0.00000000000E+00  0.00000000000E+00  0.37308777070E+03  0.37308777070E+03  0.00000000000E+00 0.  1.
          3   -1    0    0  502    0 -0.00000000000E+00 -0.00000000000E+00 -0.94962826159E+02  0.94962826159E+02  0.00000000000E+00 0. -1.
        -24    2    1    2    0    0 -0.63847391147E+02  0.16744517415E+02 -0.36671660076E+02  0.10995510544E+03  0.79927757007E+02 0.  0.
         23    2    1    2    0    0  0.36017955047E+02 -0.15527562378E+02  0.90902673819E+02  0.13247534440E+03  0.88022852071E+02 0.  0.
         13    1    3    3    0    0 -0.79809000188E+02 -0.65190117127E+00 -0.25122734766E+02  0.83672297019E+02  0.00000000000E+00 0. -1.
        -14    1    3    3    0    0  0.15961609041E+02  0.17396418586E+02 -0.11548925309E+02  0.26282808423E+02  0.00000000000E+00 0.  1.
        -13    1    4    4    0    0 -0.28238322567E+02 -0.11203259057E+02  0.18475252174E+02  0.35556304895E+02  0.00000000000E+00 0. -1.
         13    1    4    4    0    0  0.64256277614E+02 -0.43243033212E+01  0.72427421644E+02  0.96919039502E+02  0.00000000000E+00 0.  1.
          4    1    1    2  501    0  0.27829436100E+02 -0.12169550369E+01  0.22389393080E+03  0.22562014702E+03  0.00000000000E+00 0. -1.
<scales pt_clust_5="13000.00000" pt_clust_6="13000.00000" pt_clust_7="13000.00000" pt_clust_8="13000.00000" pt_clust_9="27.85603"></scales>
<clustering>
<clus scale="   27.856">  1  9  2 -1</clus>
<clus scale="   79.928">  5  6 -1 -1</clus>
<clus scale="   88.023">  7  8 -1 -1</clus>
<clus scale="   99.523">  2  5  1 -1</clus>
<clus scale="   27.856">  1  5  2 -1</clus>
</clustering>
</event>
<event>
 9    1  0.7835476E-005  0.1768225E+03  0.7546771E-02  0.1172015E+00
         21   -1    0    0  501  502  0.00000000000E+00  0.00000000000E+00  0.10398383786E+03  0.10398383786E+03  0.00000000000E+00 0. -1.
          1   -1    0    0  502    0 -0.00000000000E+00 -0.00000000000E+00 -0.56693883530E+03  0.56693883530E+03  0.00000000000E+00 0. -1.
         23    2    1    2    0    0  0.10269956210E+03 -0.41003828966E+02 -0.13551245601E+03  0.19712535970E+03  0.90919017033E+02 0.  0.
        -24    2    1    2    0    0 -0.20541567205E+03  0.18489267045E+02 -0.28292209621E+03  0.35960635593E+03  0.82063191406E+02 0.  0.
         11    1    4    4    0    0 -0.12218217850E+03 -0.29761711722E+02 -0.15860659258E+03  0.20241120383E+03  0.00000000000E+00 0. -1.
        -12    1    4    4    0    0 -0.83233493544E+02  0.48250978767E+02 -0.12431550364E+03  0.15719515210E+03  0.00000000000E+00 0.  1.
        -11    1    3    3    0    0  0.84955916911E+02 -0.91555163595E+01 -0.38943770215E+02  0.93903932488E+02  0.00000000000E+00 0. -1.
         11    1    3    3    0    0  0.17743645192E+02 -0.31848312607E+02 -0.96568685790E+02  0.10322142721E+03  0.00000000000E+00 0.  1.
          2    1    1    2  501    0  0.10271610994E+03  0.22514561921E+02 -0.44520445220E+02  0.11419095753E+03  0.00000000000E+00 0. -1.
<scales pt_clust_5="13000.00000" pt_clust_6="13000.00000" pt_clust_7="13000.00000" pt_clust_8="13000.00000" pt_clust_9="105.15467"></scales>
<clustering>
<clus scale="   82.063">  5  6 -1 -1</clus>
<clus scale="   90.919">  7  8 -1 -1</clus>
<clus scale="  105.155">  1  9  2 -1</clus>
<clus scale="  172.436">  1  5  2 -1</clus>
<clus scale="  105.155">  1  5  2 -1</clus>
</clustering>
</event>
<event>
 9    1  0.7835476E-005  0.1334416E+03  0.7546771E-02  0.1224572E+00
         21   -1    0    0  501  502  0.00000000000E+00  0.00000000000E+00  0.30990559543E+03  0.30990559543E+03  0.00000000000E+00 0.  1.
          1   -1    0    0  502    0 -0.00000000000E+00 -0.00000000000E+00 -0.14627553637E+03  0.14627553637E+03  0.00000000000E+00 0. -1.
        -24    2    1    2    0    0  0.54827859161E+02 -0.77140423920E+02 -0.69183073451E+02  0.14275670393E+03  0.81464346322E+02 0.  0.
         23    2    1    2    0    0 -0.75705484597E+02  0.82142787637E+02  0.91105226832E+02  0.17009951929E+03  0.90304629719E+02 0.  0.
         11    1    3    3    0    0  0.55136937624E+02 -0.89855766808E+02 -0.74375221923E+02  0.12901865894E+03  0.00000000000E+00 0. -1.
        -12    1    3    3    0    0 -0.30907846232E+00  0.12715342888E+02  0.51921484724E+01  0.13738044986E+02  0.00000000000E+00 0.  1.
        -13    1    4    4    0    0 -0.81032538985E+02  0.23128046769E+02  0.50039739021E+02  0.98005889634E+02  0.00000000000E+00 0. -1.
         13    1    4    4    0    0  0.53270543882E+01  0.59014740868E+02  0.41065487811E+02  0.72093629659E+02  0.00000000000E+00 0.  1.
          2    1    1    2  501    0  0.20877625436E+02 -0.50023637173E+01  0.14170790568E+03  0.14332490858E+03  0.00000000000E+00 0. -1.
<scales pt_clust_5="13000.00000" pt_clust_6="13000.00000" pt_clust_7="13000.00000" pt_clust_8="13000.00000" pt_clust_9="21.46856"></scales>
<clustering>
<clus scale="   21.469">  1  9  2 -1</clus>
<clus scale="   81.464">  5  6 -1 -1</clus>
<clus scale="   90.305">  7  8 -1 -1</clus>
<clus scale="  127.625">  2  5  1 -1</clus>
<clus scale="   21.469">  1  5  2 -1</clus>
</clustering>
</event>
<event>
 9    1  0.7835476E-005  0.1296229E+03  0.7546771E-02  0.1245873E+00
         21   -1    0    0  501  502  0.00000000000E+00  0.00000000000E+00  0.16016135156E+03  0.16016135156E+03  0.00000000000E+00 0. -1.
          1   -1    0    0  502    0 -0.00000000000E+00 -0.00000000000E+00 -0.25888922360E+03  0.25888922360E+03  0.00000000000E+00 0. -1.
         23    2    1    2    0    0  0.23176948183E+01  0.14590089519E+02  0.23547278462E+02  0.93056498150E+02  0.88807629760E+02 0.  0.
        -24    2    1    2    0    0  0.97800602701E+02  0.23732184273E+01 -0.17117044567E+03  0.21329014095E+03  0.81380419631E+02 0.  0.
         13    1    4    4    0    0  0.29717010085E+02  0.30131597477E+02 -0.10926566239E+03  0.11717507770E+03  0.00000000000E+00 0. -1.
        -14    1    4    4    0    0  0.68083592616E+02 -0.27758379050E+02 -0.61904783281E+02  0.96115063253E+02  0.00000000000E+00 0.  1.
        -11    1    3    3    0    0 -0.23161623763E+02  0.22816092840E+02 -0.22675962794E+02  0.39638796607E+02  0.00000000000E+00 0.  1.
         11    1    3    3    0    0  0.25479318581E+02 -0.82260033209E+01  0.46223241256E+02  0.53417701543E+02  0.00000000000E+00 0. -1.
          2    1    1    2  501    0 -0.10011829752E+03 -0.16963307946E+02  0.48895295164E+02  0.11270393606E+03  0.00000000000E+00 0. -1.
<scales pt_clust_5="13000.00000" pt_clust_6="13000.00000" pt_clust_7="13000.00000" pt_clust_8="13000.00000" pt_clust_9="100.89266"></scales>
<clustering>
<clus scale="   81.380">  5  6 -1 -1</clus>
<clus scale="   88.808">  7  8 -1 -1</clus>
<clus scale="   90.028">  2  7  1 -1</clus>
<clus scale="  100.893">  1  9  2 -1</clus>
<clus scale="  100.893">  1  5  2 -1</clus>
</clustering>
</event>
<event>
 9    1  0.7835476E-005  0.9631489E+02  0.7546771E-02  0.1295938E+00
         21   -1    0    0  501  502  0.00000000000E+00  0.00000000000E+00  0.16192766211E+03  0.16192766211E+03  0.00000000000E+00 0. -1.
          3   -1    0    0  502    0 -0.00000000000E+00 -0.00000000000E+00 -0.12304805126E+03  0.12304805126E+03  0.00000000000E+00 0. -1.
        -24    2    1    2    0    0 -0.10209394214E+02 -0.22301100606E+02 -0.75740852150E+02  0.11256294471E+03  0.79574927079E+02 0.  0.
         23    2    1    2    0    0  0.32755059892E+02  0.13500772560E+02  0.70067959450E+02  0.12171091084E+03  0.92999258426E+02 0.  0.
         13    1    3    3    0    0  0.11585467556E+02 -0.44030954161E+02 -0.66192292887E+02  0.80339079037E+02  0.00000000000E+00 0. -1.
        -14    1    3    3    0    0 -0.21794861770E+02  0.21729853555E+02 -0.95485592629E+01  0.32223865676E+02  0.00000000000E+00 0.  1.
        -13    1    4    4    0    0 -0.32430012467E+02 -0.20096186429E+01  0.24081374422E+02  0.40443254935E+02  0.00000000000E+00 0.  1.
         13    1    4    4    0    0  0.65185072359E+02  0.15510391203E+02  0.45986585028E+02  0.81267655905E+02  0.00000000000E+00 0. -1.
          4    1    1    2  501    0 -0.22545665678E+02  0.88003280453E+01  0.44552503549E+02  0.50701857826E+02  0.00000000000E+00 0. -1.
<scales pt_clust_5="13000.00000" pt_clust_6="13000.00000" pt_clust_7="13000.00000" pt_clust_8="13000.00000" pt_clust_9="24.20233"></scales>
<clustering>
<clus scale="   24.202">  1  9  2 -1</clus>
<clus scale="   79.575">  5  6 -1 -1</clus>
<clus scale="   83.426">  2  5  1 -1</clus>
<clus scale="   92.999">  7  8 -1 -1</clus>
<clus scale="   24.202">  1  5  2 -1</clus>
</clustering>
</event>
<event>
 9    1  0.7835476E-005  0.1006086E+03  0.7546771E-02  0.1283731E+00
         21   -1    0    0  501  502  0.00000000000E+00  0.00000000000E+00  0.29426392902E+03  0.29426392902E+03  0.00000000000E+00 0. -1.
          1   -1    0    0  502    0 -0.00000000000E+00 -0.00000000000E+00 -0.20177558206E+03  0.20177558206E+03  0.00000000000E+00 0. -1.
        -24    2    1    2    0    0  0.51945510966E+02 -0.25407656498E+02 -0.15205749337E+03  0.18108113556E+03  0.79529939318E+02 0.  0.
         23    2    1    2    0    0  0.31751775442E+02 -0.18885944255E+02  0.81696234774E+02  0.12657803457E+03  0.89346907757E+02 0.  0.
         13    1    3    3    0    0  0.43409758755E+02  0.15527031901E+02 -0.11950299236E+03  0.12808770846E+03  0.00000000000E+00 0. -1.
        -14    1    3    3    0    0  0.85357522113E+01 -0.40934688399E+02 -0.32554501009E+02  0.52993427103E+02  0.00000000000E+00 0.  1.
        -11    1    4    4    0    0  0.21233601243E+02  0.31397910039E+02  0.11535124091E+02  0.39620116915E+02  0.00000000000E+00 0. -1.
         11    1    4    4    0    0  0.10518174199E+02 -0.50283854293E+02  0.70161110682E+02  0.86957917657E+02  0.00000000000E+00 0.  1.
          2    1    1    2  501    0 -0.83697286408E+02  0.44293600753E+02  0.16284960556E+03  0.18838034094E+03  0.00000000000E+00 0. -1.
<scales pt_clust_5="13000.00000" pt_clust_6="13000.00000" pt_clust_7="13000.00000" pt_clust_8="13000.00000" pt_clust_9="94.69508"></scales>
<clustering>
<clus scale="   79.530">  5  6 -1 -1</clus>
<clus scale="   89.347">  7  8 -1 -1</clus>
<clus scale="   94.695">  1  9  2 -1</clus>
<clus scale="   92.001">  2  5  1 -1</clus>
<clus scale="   94.695">  1  5  2 -1</clus>
</clustering>
</event>
<event>
 9    1  0.7835476E-005  0.2970081E+03  0.7546771E-02  0.1108172E+00
         21   -1    0    0  501  502  0.00000000000E+00  0.00000000000E+00  0.91685370572E+03  0.91685370572E+03  0.00000000000E+00 0. -1.
         -4   -1    0    0    0  501 -0.00000000000E+00 -0.00000000000E+00 -0.39666575677E+03  0.39666575677E+03  0.00000000000E+00 0.  1.
         23    2    1    2    0    0  0.81574994058E+02 -0.11420280190E+03 -0.27128694231E+03  0.32008955114E+03  0.95728554074E+02 0.  0.
        -24    2    1    2    0    0 -0.25095781251E+03  0.26039221729E+03  0.54959322934E+03  0.66393238065E+03  0.89272380118E+02 0.  0.
         13    1    4    4    0    0 -0.22672296721E+03  0.25101769823E+03  0.46214480756E+03  0.57270499547E+03  0.00000000000E+00 0. -1.
        -14    1    4    4    0    0 -0.24234845300E+02  0.93745190656E+01  0.87448421784E+02  0.91227385180E+02  0.00000000000E+00 0.  1.
        -11    1    3    3    0    0  0.57369434685E+02 -0.10230310293E+03 -0.12529754810E+03  0.17162940443E+03  0.00000000000E+00 0.  1.
         11    1    3    3    0    0  0.24205559373E+02 -0.11899698974E+02 -0.14598939421E+03  0.14846014671E+03  0.00000000000E+00 0. -1.
         -3    1    1    2    0  502  0.16938281845E+03 -0.14618941539E+03  0.24188166192E+03  0.32949753069E+03  0.00000000000E+00 0.  1.
<scales pt_clust_5="13000.00000" pt_clust_6="13000.00000" pt_clust_7="13000.00000" pt_clust_8="13000.00000" pt_clust_9="283.27416"></scales>
<clustering>
<clus scale="   89.272">  5  6 -1 -1</clus>
<clus scale="   95.729">  7  8 -1 -1</clus>
<clus scale="  169.884">  2  7  1 -1</clus>
<clus scale="  283.274">  1  9  2 -1</clus>
<clus scale="  283.274">  1  5  2 -1</clus>
</clustering>
</event>
<event>
 9    1  0.7835476E-005  0.1104497E+03  0.7546771E-02  0.1263236E+00
         21   -1    0    0  501  502  0.00000000000E+00  0.00000000000E+00  0.15271161012E+03  0.15271161012E+03  0.00000000000E+00 0.  1.
          3   -1    0    0  502    0 -0.00000000000E+00 -0.00000000000E+00 -0.18318171368E+03  0.18318171368E+03  0.00000000000E+00 0. -1.
        -24    2    1    2    0    0  0.70471795087E+02  0.24169451056E+02 -0.11506707245E+03  0.15879042568E+03  0.80146939160E+02 0.  0.
         23    2    1    2    0    0 -0.18631074299E+02 -0.76340504454E+01  0.81476804859E+02  0.12259954749E+03  0.89368806974E+02 0.  0.
         13    1    3    3    0    0  0.45781023590E+02  0.85501957237E+01 -0.12039793535E+03  0.12909171470E+03  0.00000000000E+00 0. -1.
        -14    1    3    3    0    0  0.24690771497E+02  0.15619255333E+02  0.53308628997E+01  0.29698710974E+02  0.00000000000E+00 0.  1.
        -13    1    4    4    0    0  0.14320697993E+02 -0.41325865924E+02  0.47039446602E+02  0.64230982571E+02  0.00000000000E+00 0.  1.
         13    1    4    4    0    0 -0.32951772292E+02  0.33691815479E+02  0.34437358257E+02  0.58368564923E+02  0.00000000000E+00 0. -1.
          4    1    1    2  501    0 -0.51840720788E+02 -0.16535400611E+02  0.31201640334E+01  0.54503350620E+02  0.00000000000E+00 0. -1.
<scales pt_clust_5="13000.00000" pt_clust_6="13000.00000" pt_clust_7="13000.00000" pt_clust_8="13000.00000" pt_clust_9="54.41397"></scales>
<clustering>
<clus scale="   54.414">  1  9  2 -1</clus>
<clus scale="   80.147">  5  6 -1 -1</clus>
<clus scale="   89.369">  7  8 -1 -1</clus>
<clus scale="  103.130">  2  5  1 -1</clus>
<clus scale="   54.414">  1  5  2 -1</clus>
</clustering>
</event>
<event>
 9    1  0.7835476E-005  0.9328475E+02  0.7546771E-02  0.1303704E+00
          1   -1    0    0  502    0 -0.00000000000E+00  0.00000000000E+00  0.26216529026E+03  0.26216529026E+03  0.00000000000E+00 0. -1.
         21   -1    0    0  501  502  0.00000000000E+00 -0.00000000000E+00 -0.62209683229E+02  0.62209683229E+02  0.00000000000E+00 0. -1.
        -24    2    1    2    0    0  0.76910958684E+01  0.11600324584E+02  0.31432479031E+02  0.84975240547E+02  0.77711455281E+02 0.  0.
         23    2    1    2    0    0  0.31757856408E+02 -0.16349970463E+02  0.42390442402E+02  0.10715664863E+03  0.91704496952E+02 0.  0.
         11    1    3    3    0    0 -0.34490799790E+02 -0.21532247515E+00  0.19284604050E+02  0.39516548272E+02  0.00000000000E+00 0. -1.
        -12    1    3    3    0    0  0.42181895659E+02  0.11815647059E+02  0.12147874981E+02  0.45458692275E+02  0.00000000000E+00 0.  1.
        -11    1    4    4    0    0 -0.36144681242E+01  0.19702269812E+02  0.52016794064E+02  0.55740386438E+02  0.00000000000E+00 0.  1.
         11    1    4    4    0    0  0.35372324533E+02 -0.36052240275E+02 -0.96263516621E+01  0.51416262194E+02  0.00000000000E+00 0. -1.
          2    1    1    2  501    0 -0.39448952277E+02  0.47496458788E+01  0.12613268560E+03  0.13224308431E+03  0.00000000000E+00 0. -1.
<scales pt_clust_5="13000.00000" pt_clust_6="13000.00000" pt_clust_7="13000.00000" pt_clust_8="13000.00000" pt_clust_9="39.73387"></scales>
<clustering>
<clus scale="   39.734">  2  9  1 -1</clus>
<clus scale="   77.711">  5  6 -1 -1</clus>
<clus scale="   79.570">  1  5  2 -1</clus>
<clus scale="   91.704">  7  8 -1 -1</clus>
<clus scale="   39.734">  2  5  1 -1</clus>
</clustering>
</event>
<event>
 9    1  0.7835476E-005  0.9564786E+02  0.7546771E-02  0.1295688E+00
         21   -1    0    0  501  502  0.00000000000E+00  0.00000000000E+00  0.88975508657E+02  0.88975508657E+02  0.00000000000E+00 0.  1.
         -2   -1    0    0    0  501 -0.00000000000E+00 -0.00000000000E+00 -0.22730943846E+03  0.22730943846E+03  0.00000000000E+00 0.  1.
        -24    2    1    2    0    0 -0.41800395131E+02  0.23928521485E+01 -0.13902300561E+03  0.16601231447E+03  0.80496544591E+02 0.  0.
         23    2    1    2    0    0 -0.14662634689E+02  0.87517671747E+01 -0.14223418304E+00  0.92714250532E+02  0.91128073262E+02 0.  0.
         13    1    3    3    0    0 -0.29185295713E+02 -0.35892179881E+02 -0.98664498386E+02  0.10897115813E+03  0.00000000000E+00 0. -1.
        -14    1    3    3    0    0 -0.12615099418E+02  0.38285032029E+02 -0.40358507224E+02  0.57041156336E+02  0.00000000000E+00 0.  1.
        -11    1    4    4    0    0 -0.36984346965E+02 -0.87896135940E+01  0.32100171141E+02  0.49754599937E+02  0.00000000000E+00 0.  1.
         11    1    4    4    0    0  0.22321712277E+02  0.17541380769E+02 -0.32242405324E+02  0.42959650595E+02  0.00000000000E+00 0. -1.
         -1    1    1    2    0  502  0.56463029820E+02 -0.11144619323E+02  0.83130998572E+00  0.57558382123E+02  0.00000000000E+00 0.  1.
<scales pt_clust_5="13000.00000" pt_clust_6="13000.00000" pt_clust_7="13000.00000" pt_clust_8="13000.00000" pt_clust_9="57.55238"></scales>
<clustering>
<clus scale="   57.552">  1  9  2 -1</clus>
<clus scale="   80.497">  5  6 -1 -1</clus>
<clus scale="   85.580">  2  5  1 -1</clus>
<clus scale="   91.128">  7  8 -1 -1</clus>
<clus scale="   57.552">  1  5  2 -1</clus>
</clustering>
</event>
<event>
 9    1  0.7835476E-005  0.9452307E+02  0.7546771E-02  0.1297357E+00
          1   -1    0    0  502    0 -0.00000000000E+00  0.00000000000E+00  0.15112709670E+03  0.15112709670E+03  0.00000000000E+00 0. -1.
         21   -1    0    0  501  502  0.00000000000E+00 -0.00000000000E+00 -0.20413746278E+03  0.20413746278E+03  0.00000000000E+00 0. -1.
         23    2    1    2    0    0 -0.68388347814E+00 -0.27215320655E+02  0.66725936547E+02  0.11538165651E+03  0.90107905739E+02 0.  0.
        -24    2    1    2    0    0  0.84521256386E+02  0.11159199577E+02 -0.94377445002E+02  0.15083473745E+03  0.81090353196E+02 0.  0.
         13    1    4    4    0    0  0.87067897993E+02  0.33064608583E+02 -0.87354263271E+02  0.12769046367E+03  0.00000000000E+00 0. -1.
        -14    1    4    4    0    0 -0.25466416068E+01 -0.21905409006E+02 -0.70231817308E+01  0.23144273780E+02  0.00000000000E+00 0.  1.
        -13    1    3    3    0    0  0.14790218532E+02 -0.45562237445E+02  0.75845562264E+02  0.89706283840E+02  0.00000000000E+00 0. -1.
         13    1    3    3    0    0 -0.15474102010E+02  0.18346916790E+02 -0.91196257166E+01  0.25675372673E+02  0.00000000000E+00 0.  1.
          2    1    1    2  501    0 -0.83837372908E+02  0.16056121078E+02 -0.25358857624E+02  0.89048165507E+02  0.00000000000E+00 0. -1.
<scales pt_clust_5="13000.00000" pt_clust_6="13000.00000" pt_clust_7="13000.00000" pt_clust_8="13000.00000" pt_clust_9="85.36102"></scales>
<clustering>
<clus scale="   81.090">  5  6 -1 -1</clus>
<clus scale="   85.361">  2  9  1 -1</clus>
<clus scale="   85.970">  2  5  1 -1</clus>
<clus scale="   90.108">  7  8 -1 -1</clus>
<clus scale="   85.361">  2  5  1 -1</clus>
</clustering>
</event>
<event>
 9    1  0.7835476E-005  0.4137099E+03  0.7546771E-02  0.1064133E+00
         21   -1    0    0  501  502  0.00000000000E+00  0.00000000000E+00  0.36903741165E+03  0.36903741165E+03  0.00000000000E+00 0.  1.
         -2   -1    0    0    0  501 -0.00000000000E+00 -0.00000000000E+00 -0.77173479088E+03  0.77173479088E+03  0.00000000000E+00 0.  1.
         23    2    1    2    0    0  0.17747910412E+03  0.20223127521E+02 -0.16751246540E+03  0.26332222962E+03  0.96800636679E+02 0.  0.
        -24    2    1    2    0    0 -0.39132434871E+03 -0.26459942215E+03 -0.61665702787E+01  0.48008494716E+03  0.85416215103E+02 0.  0.
         11    1    4    4    0    0 -0.21131433759E+03 -0.12566478779E+03  0.37025245487E+02  0.24862875330E+03  0.00000000000E+00 0. -1.
        -12    1    4    4    0    0 -0.18001001112E+03 -0.13893463436E+03 -0.43191815766E+02  0.23145619386E+03  0.00000000000E+00 0.  1.
        -13    1    3    3    0    0  0.18813504880E+00  0.24094309106E+02 -0.32422405624E+02  0.40395340233E+02  0.00000000000E+00 0. -1.
         13    1    3    3    0    0  0.17729096907E+03 -0.38711815849E+01 -0.13509005978E+03  0.22292688939E+03  0.00000000000E+00 0.  1.
         -1    1    1    2    0  502  0.21384524459E+03  0.24437629462E+03 -0.22901834354E+03  0.39736502575E+03  0.00000000000E+00 0.  1.
<scales pt_clust_5="13000.00000" pt_clust_6="13000.00000" pt_clust_7="13000.00000" pt_clust_8="13000.00000" pt_clust_9="404.79640"></scales>
<clustering>
<clus scale="   85.416">  5  6 -1 -1</clus>
<clus scale="   96.801">  7  8 -1 -1</clus>
<clus scale="  203.170">  2  7  1 -1</clus>
<clus scale="  404.796">  1  9  2 -1</clus>
<clus scale="  404.796">  1  5  2 -1</clus>
</clustering>
</event>
<event>
 9    1  0.7835476E-005  0.1439630E+03  0.7546771E-02  0.1229553E+00
         21   -1    0    0  501  502  0.00000000000E+00  0.00000000000E+00  0.43430794744E+03  0.43430794744E+03  0.00000000000E+00 0.  1.
          3   -1    0    0  502    0 -0.00000000000E+00 -0.00000000000E+00 -0.13450350968E+03  0.13450350968E+03  0.00000000000E+00 0. -1.
         23    2    1    2    0    0 -0.11247421795E+02  0.53502962916E+01 -0.46869494951E+02  0.10294627483E+03  0.90807795792E+02 0.  0.
        -24    2    1    2    0    0  0.11336021232E+03  0.44543951448E+02  0.31617708019E+03  0.34819396253E+03  0.80227103611E+02 0.  0.
         13    1    4    4    0    0  0.12679689128E+02  0.38516418461E+02  0.55907899054E+02  0.69065057620E+02  0.00000000000E+00 0. -1.
        -14    1    4    4    0    0  0.10068052319E+03  0.60275329860E+01  0.26026918114E+03  0.27912890491E+03  0.00000000000E+00 0.  1.
        -13    1    3    3    0    0  0.38891680673E+02  0.46760434852E+01 -0.32180885794E+02  0.50695538450E+02  0.00000000000E+00 0. -1.
         13    1    3    3    0    0 -0.50139102468E+02  0.67425280644E+00 -0.14688609158E+02  0.52250736378E+02  0.00000000000E+00 0.  1.
          4    1    1    2  501    0 -0.10211279053E+03 -0.49894247739E+02  0.30496852523E+02  0.11767121976E+03  0.00000000000E+00 0. -1.
<scales pt_clust_5="13000.00000" pt_clust_6="13000.00000" pt_clust_7="13000.00000" pt_clust_8="13000.00000" pt_clust_9="119.53646"></scales>
<clustering>
<clus scale="   80.227">  5  6 -1 -1</clus>
<clus scale="   90.808">  7  8 -1 -1</clus>
<clus scale="   91.658">  2  7  1 -1</clus>
<clus scale="  119.536">  1  9  2 -1</clus>
<clus scale="  119.536">  1  5  2 -1</clus>
</clustering>
</event>
<event>
 9    1  0.7835476E-005  0.1033687E+03  0.7546771E-02  0.1279306E+00
         21   -1    0    0  501  502  0.00000000000E+00  0.00000000000E+00  0.11858492708E+03  0.11858492708E+03  0.00000000000E+00 0.  1.
          1   -1    0    0  502    0 -0.00000000000E+00 -0.00000000000E+00 -0.29524663863E+03  0.29524663863E+03  0.00000000000E+00 0. -1.
         23    2    1    2    0    0 -0.54507037228E+02  0.11411468826E+02 -0.99411738502E+02  0.14667550653E+03  0.92356763342E+02 0.  0.
        -24    2    1    2    0    0  0.48645490018E+01 -0.24264519389E+02  0.71436947772E+02  0.10987485251E+03  0.79729636707E+02 0.  0.
         11    1    4    4    0    0 -0.20016025922E+02 -0.20525158550E+02 -0.52677689902E+01  0.29149147798E+02  0.00000000000E+00 0. -1.
        -12    1    4    4    0    0  0.24880574924E+02 -0.37393608397E+01  0.76704716763E+02  0.80725704715E+02  0.00000000000E+00 0.  1.
        -13    1    3    3    0    0 -0.28491205671E+02  0.49832455768E+02 -0.34794463547E+02  0.67124340906E+02  0.00000000000E+00 0.  1.
         13    1    3    3    0    0 -0.26015831557E+02 -0.38420986942E+02 -0.64617274955E+02  0.79551165622E+02  0.00000000000E+00 0. -1.
          2    1    1    2  501    0  0.49642488226E+02  0.12853050563E+02 -0.14868692082E+03  0.15728120667E+03  0.00000000000E+00 0. -1.
<scales pt_clust_5="13000.00000" pt_clust_6="13000.00000" pt_clust_7="13000.00000" pt_clust_8="13000.00000" pt_clust_9="51.27943"></scales>
<clustering>
<clus scale="   51.279">  1  9  2 -1</clus>
<clus scale="   79.730">  5  6 -1 -1</clus>
<clus scale="   92.261">  1  5  2 -1</clus>
<clus scale="   92.357">  7  8 -1 -1</clus>
<clus scale="   51.279">  1  5  2 -1</clus>
</clustering>
</event>
<event>
 9    1  0.7835476E-005  0.3065946E+03  0.7546771E-02  0.1081990E+00
         21   -1    0    0  501  502  0.00000000000E+00  0.00000000000E+00  0.30314378093E+03  0.30314378093E+03  0.00000000000E+00 0. -1.
          1   -1    0    0  502    0 -0.00000000000E+00 -0.00000000000E+00 -0.55576402648E+03  0.55576402648E+03  0.00000000000E+00 0. -1.
        -24    2    1    2    0    0  0.13353091479E+03 -0.94805015487E+02 -0.36985192013E+03  0.41240108366E+03  0.80409668653E+02 0.  0.
         23    2    1    2    0    0  0.64502326063E+02 -0.31506334954E+02 -0.85284977132E+02  0.13637011521E+03  0.78549868163E+02 0.  0.
         13    1    3    3    0    0  0.11280990021E+03 -0.10934181439E+03 -0.32080244788E+03  0.35720570618E+03  0.00000000000E+00 0. -1.
        -14    1    3    3    0    0  0.20721014572E+02  0.14536798900E+02 -0.49049472254E+02  0.55195377484E+02  0.00000000000E+00 0.  1.
        -11    1    4    4    0    0  0.48831433357E+02  0.19770272701E+02 -0.39149977506E+02  0.65636067106E+02  0.00000000000E+00 0.  1.
         11    1    4    4    0    0  0.15670892705E+02 -0.51276607655E+02 -0.46134999626E+02  0.70734048104E+02  0.00000000000E+00 0. -1.
          2    1    1    2  501    0 -0.19803324085E+03  0.12631135044E+03  0.20251665172E+03  0.31013660854E+03  0.00000000000E+00 0. -1.
<scales pt_clust_5="13000.00000" pt_clust_6="13000.00000" pt_clust_7="13000.00000" pt_clust_8="13000.00000" pt_clust_9="234.88661"></scales>
<clustering>
<clus scale="   78.550">  7  8 -1 -1</clus>
<clus scale="   80.410">  5  6 -1 -1</clus>
<clus scale="   93.151">  5  7 -1 -1</clus>
<clus scale="  234.887">  1  9  2 -1</clus>
<clus scale="  234.887">  1  5  2 -1</clus>
</clustering>
</event>
<event>
 9    1  0.8469094E-005  0.9805451E+02  0.7546771E-02  0.1292429E+00
         21   -1    0    0  501  502  0.00000000000E+00  0.00000000000E+00  0.23878382015E+03  0.23878382015E+03  0.00000000000E+00 0. -1.
          3   -1    0    0  502    0 -0.00000000000E+00 -0.00000000000E+00 -0.27350781820E+03  0.27350781820E+03  0.00000000000E+00 0. -1.
        -24    2    1    2    0    0 -0.14494839864E+02 -0.38114690146E+02 -0.24591916706E+03  0.26025647391E+03  0.74795491176E+02 0.  0.
         23    2    1    2    0    0  0.20526478887E+02  0.34291849199E+01  0.10323823635E+03  0.13848269089E+03  0.89923448484E+02 0.  0.
         13    1    3    3    0    0  0.57830804220E+01 -0.56170271165E+02 -0.18784619656E+03  0.19614978191E+03  0.00000000000E+00 0. -1.
        -14    1    3    3    0    0 -0.20277920286E+02  0.18055581019E+02 -0.58072970498E+02  0.64106692002E+02  0.00000000000E+00 0.  1.
        -11    1    4    4    0    0  0.53285340630E+02 -0.13966415463E+02  0.65185016138E+02  0.85343275165E+02  0.00000000000E+00 0. -1.
         11    1    4    4    0    0 -0.32758861742E+02  0.17395600383E+02  0.38053220213E+02  0.53139415728E+02  0.00000000000E+00 0.  1.
          4    1    1    2  501    0 -0.60316390231E+01  0.34685505226E+02  0.10795693265E+03  0.11355247355E+03  0.00000000000E+00 0. -1.
<scales pt_clust_5="13000.00000" pt_clust_6="13000.00000" pt_clust_7="13000.00000" pt_clust_8="13000.00000" pt_clust_9="35.20604"></scales>
<clustering>
<clus scale="   35.206">  1  9  2 -1</clus>
<clus scale="   74.795">  5  6 -1 -1</clus>
<clus scale="   84.397">  2  5  1 -1</clus>
<clus scale="   89.923">  7  8 -1 -1</clus>
<clus scale="   35.206">  1  5  2 -1</clus>
</clustering>
</event>
<event>
 9    1  0.7835476E-005  0.1007282E+03  0.7546771E-02  0.1285942E+00
         21   -1    0    0  501  502  0.00000000000E+00  0.00000000000E+00  0.11487050690E+03  0.11487050690E+03  0.00000000000E+00 0.  1.
          1   -1    0    0  502    0 -0.00000000000E+00 -0.00000000000E+00 -0.38326967765E+03  0.38326967765E+03  0.00000000000E+00 0. -1.
         23    2    1    2    0    0 -0.26630152564E+02  0.19368369727E+02 -0.23402050726E+03  0.25379663633E+03  0.92535593283E+02 0.  0.
        -24    2    1    2    0    0 -0.44133254859E+00 -0.70268142203E+02 -0.10800427777E+03  0.15083214131E+03  0.78406659487E+02 0.  0.
         11    1    4    4    0    0 -0.21514752698E+02 -0.84350810658E+01 -0.73308210518E+02  0.76864353933E+02  0.00000000000E+00 0. -1.
        -12    1    4    4    0    0  0.21073420150E+02 -0.61833061137E+02 -0.34696067252E+02  0.73967787374E+02  0.00000000000E+00 0.  1.
        -13    1    3    3    0    0  0.34330323500E+02  0.51555610552E+00 -0.86699819276E+02  0.93250713522E+02  0.00000000000E+00 0.  1.
         13    1    3    3    0    0 -0.60960476064E+02  0.18852813621E+02 -0.14732068798E+03  0.16054592281E+03  0.00000000000E+00 0. -1.
          2    1    1    2  501    0  0.27071485113E+02  0.50899772476E+02  0.73625614283E+02  0.93511406913E+02  0.00000000000E+00 0. -1.
<scales pt_clust_5="13000.00000" pt_clust_6="13000.00000" pt_clust_7="13000.00000" pt_clust_8="13000.00000" pt_clust_9="57.65112"></scales>
<clustering>
<clus scale="   57.651">  1  9  2 -1</clus>
<clus scale="   78.407">  5  6 -1 -1</clus>
<clus scale="   87.926">  1  5  2 -1</clus>
<clus scale="   92.536">  7  8 -1 -1</clus>
<clus scale="   57.651">  1  5  2 -1</clus>
</clustering>
</event>
<event>
 9    1  0.7835476E-005  0.9618112E+02  0.7546771E-02  0.1293754E+00
         -4   -1    0    0    0  501 -0.00000000000E+00  0.00000000000E+00  0.17479969516E+03  0.17479969516E+03  0.00000000000E+00 0.  1.
         21   -1    0    0  501  502  0.00000000000E+00 -0.00000000000E+00 -0.25270686758E+03  0.25270686758E+03  0.00000000000E+00 0.  1.
         23    2    1    2    0    0 -0.39550427424E+01 -0.25510294115E+02  0.14093174328E+03  0.17086554229E+03  0.93095970957E+02 0.  0.
        -24    2    1    2    0    0  0.10466103759E+02 -0.18007124113E+01 -0.21130001310E+03  0.22757007198E+03  0.83831141184E+02 0.  0.
         11    1    4    4    0    0  0.29062682498E+02  0.20516598358E+02 -0.38797186600E+02  0.52638313140E+02  0.00000000000E+00 0. -1.
        -12    1    4    4    0    0 -0.18596578739E+02 -0.22317310769E+02 -0.17250282650E+03  0.17493175884E+03  0.00000000000E+00 0.  1.
        -13    1    3    3    0    0  0.13251578409E+02 -0.46131076945E+02  0.13511420663E+03  0.14338594570E+03  0.00000000000E+00 0.  1.
         13    1    3    3    0    0 -0.17206621151E+02  0.20620782830E+02  0.58175366470E+01  0.27479596587E+02  0.00000000000E+00 0. -1.
         -3    1    1    2    0  502 -0.65110610170E+01  0.27311006527E+02 -0.75389025977E+01  0.29070948479E+02  0.00000000000E+00 0.  1.
<scales pt_clust_5="13000.00000" pt_clust_6="13000.00000" pt_clust_7="13000.00000" pt_clust_8="13000.00000" pt_clust_9="28.07641"></scales>
<clustering>
<clus scale="   28.076">  2  9  1 -1</clus>
<clus scale="   83.831">  5  6 -1 -1</clus>
<clus scale="   87.245">  2  5  1 -1</clus>
<clus scale="   93.096">  7  8 -1 -1</clus>
<clus scale="   28.076">  2  5  1 -1</clus>
</clustering>
</event>
<event>
 9    1  0.7835476E-005  0.1309597E+03  0.7546771E-02  0.1228191E+00
          1   -1    0    0  502    0 -0.00000000000E+00  0.00000000000E+00  0.57446404749E+03  0.57446404749E+03  0.00000000000E+00 0. -1.
         21   -1    0    0  501  502  0.00000000000E+00 -0.00000000000E+00 -0.46020882853E+02  0.46020882853E+02  0.00000000000E+00 0. -1.
        -24    2    1    2    0    0 -0.44455990860E+02  0.10918237344E+03  0.32784539821E+03  0.35794925294E+03  0.82145826200E+02 0.  0.
         23    2    1    2    0    0  0.27745059949E+02 -0.53164385641E+02  0.10932782038E+03  0.15414991625E+03  0.90627722684E+02 0.  0.
         13    1    3    3    0    0  0.20228962967E+02  0.51407835846E+02  0.15528713338E+03  0.16482132848E+03  0.00000000000E+00 0. -1.
        -14    1    3    3    0    0 -0.64684953827E+02  0.57774537591E+02  0.17255826483E+03  0.19312792446E+03  0.00000000000E+00 0.  1.
        -11    1    4    4    0    0  0.46235391529E+02 -0.34025828286E+02  0.19759110777E+02  0.60711538270E+02  0.00000000000E+00 0. -1.
         11    1    4    4    0    0 -0.18490331580E+02 -0.19138557355E+02  0.89568709605E+02  0.93438377982E+02  0.00000000000E+00 0.  1.
          2    1    1    2  501    0  0.16710930911E+02 -0.56017987797E+02  0.91269946051E+02  0.10838576115E+03  0.00000000000E+00 0. -1.
<scales pt_clust_5="13000.00000" pt_clust_6="13000.00000" pt_clust_7="13000.00000" pt_clust_8="13000.00000" pt_clust_9="58.45742"></scales>
<clustering>
<clus scale="   58.457">  2  9  1 -1</clus>
<clus scale="   82.146">  5  6 -1 -1</clus>
<clus scale="   90.628">  7  8 -1 -1</clus>
<clus scale="  125.240">  1  5  2 -1</clus>
<clus scale="   58.457">  2  5  1 -1</clus>
</clustering>
</event>
<event>
 9    1  0.7835476E-005  0.9800148E+02  0.7546771E-02  0.1290174E+00
         21   -1    0    0  501  502  0.00000000000E+00  0.00000000000E+00  0.44970549498E+02  0.44970549498E+02  0.00000000000E+00 0. -1.
         -4   -1    0    0    0  501 -0.00000000000E+00 -0.00000000000E+00 -0.44701878106E+03  0.44701878106E+03  0.00000000000E+00 0.  1.
        -24    2    1    2    0    0  0.35256577500E+01 -0.46225512646E+02 -0.24751656092E+03  0.26416029216E+03  0.79793381578E+02 0.  0.
         23    2    1    2    0    0 -0.32850923527E+02 -0.60998244400E-01 -0.47058374096E+02  0.10719354704E+03  0.90536064957E+02 0.  0.
         11    1    3    3    0    0 -0.37907306708E+02 -0.23752029150E+02 -0.10805955900E+03  0.11695294388E+03  0.00000000000E+00 0. -1.
        -12    1    3    3    0    0  0.41432964458E+02 -0.22473483497E+02 -0.13945700191E+03  0.14720734828E+03  0.00000000000E+00 0.  1.
        -13    1    4    4    0    0 -0.80400157930E+01  0.40635974237E+02 -0.17954584495E+01  0.41462608784E+02  0.00000000000E+00 0.  1.
         13    1    4    4    0    0 -0.24810907734E+02 -0.40696972481E+02 -0.45262915646E+02  0.65730938260E+02  0.00000000000E+00 0. -1.
         -3    1    1    2    0  502  0.29325265777E+02  0.46286510890E+02 -0.10747329655E+03  0.12063549135E+03  0.00000000000E+00 0.  1.
<scales pt_clust_5="13000.00000" pt_clust_6="13000.00000" pt_clust_7="13000.00000" pt_clust_8="13000.00000" pt_clust_9="54.79430"></scales>
<clustering>
<clus scale="   54.794">  1  9  2 -1</clus>
<clus scale="   79.793">  5  6 -1 -1</clus>
<clus scale="   88.173">  2  5  1 -1</clus>
<clus scale="   90.536">  7  8 -1 -1</clus>
<clus scale="   54.794">  1  5  2 -1</clus>
</clustering>
</event>
<event>
 9    1  0.7835476E-005  0.1300860E+03  0.7546771E-02  0.1229683E+00
          1   -1    0    0  502    0 -0.00000000000E+00  0.00000000000E+00  0.58832396665E+03  0.58832396665E+03  0.00000000000E+00 0. -1.
         21   -1    0    0  501  502  0.00000000000E+00 -0.00000000000E+00 -0.11360910800E+03  0.11360910800E+03  0.00000000000E+00 0. -1.
         23    2    1    2    0    0  0.38080545943E+02 -0.54115322907E+02  0.25645308119E+03  0.27987321174E+03  0.90455710944E+02 0.  0.
        -24    2    1    2    0    0 -0.96362298822E+02  0.11855574475E+03  0.27017005223E+03  0.32084820511E+03  0.81305327937E+02 0.  0.
         13    1    4    4    0    0 -0.72802366835E+02  0.42635700732E+02  0.19029298234E+03  0.20815716831E+03  0.00000000000E+00 0. -1.
        -14    1    4    4    0    0 -0.23559931987E+02  0.75920044019E+02  0.79877069899E+02  0.11269103680E+03  0.00000000000E+00 0.  1.
        -11    1    3    3    0    0  0.19634206531E+02  0.21031538967E+02  0.11601250403E+03  0.11952710483E+03  0.00000000000E+00 0. -1.
         11    1    3    3    0    0  0.18446339412E+02 -0.75146861874E+02  0.14044057716E+03  0.16034610691E+03  0.00000000000E+00 0.  1.
          2    1    1    2  501    0  0.58281752878E+02 -0.64440421844E+02 -0.51908274777E+02  0.10121165781E+03  0.00000000000E+00 0. -1.
<scales pt_clust_5="13000.00000" pt_clust_6="13000.00000" pt_clust_7="13000.00000" pt_clust_8="13000.00000" pt_clust_9="86.88688"></scales>
<clustering>
<clus scale="   81.305">  5  6 -1 -1</clus>
<clus scale="   86.887">  2  9  1 -1</clus>
<clus scale="   90.456">  7  8 -1 -1</clus>
<clus scale="  123.898">  2  5  1 -1</clus>
<clus scale="   86.887">  2  5  1 -1</clus>
</clustering>
</event>
<event>
 9    1  0.7835476E-005  0.1227136E+03  0.7546771E-02  0.1242065E+00
          1   -1    0    0  502    0 -0.00000000000E+00  0.00000000000E+00  0.90415796867E+03  0.90415796867E+03  0.00000000000E+00 0. -1.
         21   -1    0    0  501  502  0.00000000000E+00 -0.00000000000E+00 -0.23079088133E+02  0.23079088133E+02  0.00000000000E+00 0.  1.
         23    2    1    2    0    0 -0.71028508025E+02 -0.34007449575E+02  0.41139163809E+03  0.42871012211E+03  0.91365930912E+02 0.  0.
        -24    2    1    2    0    0  0.57375284821E+02  0.71132588522E+02  0.28814377068E+03  0.31272403216E+03  0.80110668795E+02 0.  0.
         11    1    4    4    0    0 -0.19012069045E+02  0.88960572916E+01  0.31870781905E+02  0.38162093024E+02  0.00000000000E+00 0. -1.
        -12    1    4    4    0    0  0.76387353866E+02  0.62236531231E+02  0.25627298877E+03  0.27456193914E+03  0.00000000000E+00 0.  1.
        -13    1    3    3    0    0 -0.53569682821E+02 -0.65414785599E+02  0.29782644900E+03  0.30959554070E+03  0.00000000000E+00 0. -1.
         13    1    3    3    0    0 -0.17458825203E+02  0.31407336024E+02  0.11356518909E+03  0.11911458141E+03  0.00000000000E+00 0.  1.
          2    1    1    2  501    0  0.13653223204E+02 -0.37125138947E+02  0.18154347177E+03  0.18580290253E+03  0.00000000000E+00 0. -1.
<scales pt_clust_5="13000.00000" pt_clust_6="13000.00000" pt_clust_7="13000.00000" pt_clust_8="13000.00000" pt_clust_9="39.55614"></scales>
<clustering>
<clus scale="   39.556">  2  9  1 -1</clus>
<clus scale="   80.111">  5  6 -1 -1</clus>
<clus scale="   91.366">  7  8 -1 -1</clus>
<clus scale="  114.580">  2  5  1 -1</clus>
<clus scale="   39.556">  2  5  1 -1</clus>
</clustering>
</event>
<event>
 9    1  0.7835476E-005  0.1059898E+03  0.7546771E-02  0.1270735E+00
          1   -1    0    0  502    0 -0.00000000000E+00  0.00000000000E+00  0.56972551922E+03  0.56972551922E+03  0.00000000000E+00 0. -1.
         21   -1    0    0  501  502  0.00000000000E+00 -0.00000000000E+00 -0.63012683607E+02  0.63012683607E+02  0.00000000000E+00 0.  1.
         23    2    1    2    0    0 -0.48048004538E+02 -0.41407579967E+02  0.22791142096E+03  0.25358752475E+03  0.91322606665E+02 0.  0.
        -24    2    1    2    0    0  0.60381773543E+02 -0.58714373583E+02  0.47193587475E+02  0.12652701914E+03  0.81783345697E+02 0.  0.
         11    1    4    4    0    0  0.35185295167E+01 -0.47884694729E+02  0.49014571495E+02  0.68613061863E+02  0.00000000000E+00 0. -1.
        -12    1    4    4    0    0  0.56863244026E+02 -0.10829678853E+02 -0.18209840198E+01  0.57913957282E+02  0.00000000000E+00 0.  1.
        -13    1    3    3    0    0  0.12987475893E+02 -0.45620739858E+02  0.12711389031E+03  0.13567559672E+03  0.00000000000E+00 0.  1.
         13    1    3    3    0    0 -0.61035480431E+02  0.42131598912E+01  0.10079753065E+03  0.11791192803E+03  0.00000000000E+00 0. -1.
          2    1    1    2  501    0 -0.12333769005E+02  0.10012195355E+03  0.23160782718E+03  0.25262365893E+03  0.00000000000E+00 0. -1.
<scales pt_clust_5="13000.00000" pt_clust_6="13000.00000" pt_clust_7="13000.00000" pt_clust_8="13000.00000" pt_clust_9="100.87883"></scales>
<clustering>
<clus scale="   81.783">  5  6 -1 -1</clus>
<clus scale="   91.323">  7  8 -1 -1</clus>
<clus scale="  100.879">  2  9  1 -1</clus>
<clus scale="  100.879">  2  5  1 -1</clus>
<clus scale="  100.879">  2  5  1 -1</clus>
</clustering>
</event>
<event>
 9    1  0.7835476E-005  0.1092692E+03  0.7546771E-02  0.1264837E+00
         -2   -1    0    0    0  501 -0.00000000000E+00  0.00000000000E+00  0.50423364292E+03  0.50423364292E+03  0.00000000000E+00 0.  1.
         21   -1    0    0  501  502  0.00000000000E+00 -0.00000000000E+00 -0.15349004478E+03  0.15349004478E+03  0.00000000000E+00 0.  1.
        -24    2    1    2    0    0 -0.65258047018E+02  0.17096672616E+02  0.44819343130E+03  0.46023322382E+03  0.79914701626E+02 0.  0.
         23    2    1    2    0    0  0.48391538398E+02 -0.15464470752E+01 -0.28067415941E+01  0.10010666950E+03  0.87574739471E+02 0.  0.
         11    1    3    3    0    0  0.51316385308E+01 -0.20500724099E+02  0.52899874107E+02  0.56964989977E+02  0.00000000000E+00 0. -1.
        -12    1    3    3    0    0 -0.70389685549E+02  0.37597396716E+02  0.39529355719E+03  0.40326823385E+03  0.00000000000E+00 0.  1.
        -13    1    4    4    0    0 -0.20355825433E+02 -0.18677268768E+02 -0.88263784960E+01  0.29001809514E+02  0.00000000000E+00 0.  1.
         13    1    4    4    0    0  0.68747363832E+02  0.17130821693E+02  0.60196369019E+01  0.71104859989E+02  0.00000000000E+00 0. -1.
         -1    1    1    2    0  502  0.16866508620E+02 -0.15550225541E+02 -0.94643091562E+02  0.97383794380E+02  0.00000000000E+00 0.  1.
<scales pt_clust_5="13000.00000" pt_clust_6="13000.00000" pt_clust_7="13000.00000" pt_clust_8="13000.00000" pt_clust_9="22.94098"></scales>
<clustering>
<clus scale="   22.941">  2  9  1 -1</clus>
<clus scale="   79.915">  5  6 -1 -1</clus>
<clus scale="   87.575">  7  8 -1 -1</clus>
<clus scale="  103.232">  1  5  2 -1</clus>
<clus scale="   22.941">  2  5  1 -1</clus>
</clustering>
</event>
<event>
 9    1  0.7835476E-005  0.9489669E+02  0.7546771E-02  0.1298713E+00
          3   -1    0    0  502    0 -0.00000000000E+00  0.00000000000E+00  0.34922137249E+03  0.34922137249E+03  0.00000000000E+00 0. -1.
         21   -1    0    0  501  502  0.00000000000E+00 -0.00000000000E+00 -0.62664415768E+02  0.62664415768E+02  0.00000000000E+00 0. -1.
        -24    2    1    2    0    0 -0.18991969240E+02 -0.13789084071E+02  0.26671551233E+03  0.27939104851E+03  0.79820797621E+02 0.  0.
         23    2    1    2    0    0  0.22934306949E+02 -0.13206578991E+02 -0.42833646873E+01  0.96076141978E+02  0.92259859530E+02 0.  0.
         13    1    3    3    0    0  0.94025018352E+01  0.24510373216E+02  0.40920670084E+02  0.48617555225E+02  0.00000000000E+00 0. -1.
        -14    1    3    3    0    0 -0.28394471075E+02 -0.38299457287E+02  0.22579484225E+03  0.23077349328E+03  0.00000000000E+00 0.  1.
        -11    1    4    4    0    0 -0.21709689520E+02  0.27413995296E+02  0.38168806829E+01  0.35176786881E+02  0.00000000000E+00 0.  1.
         11    1    4    4    0    0  0.44643996469E+02 -0.40620574287E+02 -0.81002453702E+01  0.60899355097E+02  0.00000000000E+00 0. -1.
          4    1    1    2  501    0 -0.39423377087E+01  0.26995663062E+02  0.24124809082E+02  0.36418597777E+02  0.00000000000E+00 0. -1.
<scales pt_clust_5="13000.00000" pt_clust_6="13000.00000" pt_clust_7="13000.00000" pt_clust_8="13000.00000" pt_clust_9="27.28201"></scales>
<clustering>
<clus scale="   27.282">  2  9  1 -1</clus>
<clus scale="   79.821">  5  6 -1 -1</clus>
<clus scale="   82.854">  1  5  2 -1</clus>
<clus scale="   92.260">  7  8 -1 -1</clus>
<clus scale="   27.282">  2  5  1 -1</clus>
</clustering>
</event>
<event>
 9    1  0.7835476E-005  0.1261364E+03  0.7546771E-02  0.1242188E+00
         21   -1    0    0  501  502  0.00000000000E+00  0.00000000000E+00  0.23632698608E+03  0.23632698608E+03  0.00000000000E+00 0. -1.
          3   -1    0    0  502    0 -0.00000000000E+00 -0.00000000000E+00 -0.34778396649E+03  0.34778396649E+03  0.00000000000E+00 0. -1.
         23    2    1    2    0    0  0.33483973853E+02  0.40272602800E+02 -0.22594445301E+03  0.25665725678E+03  0.10990447022E+03 0.  0.
        -24    2    1    2    0    0 -0.13322346945E+03 -0.66913310760E+01 -0.19118750763E+02  0.15737638480E+03  0.81292884921E+02 0.  0.
         13    1    4    4    0    0 -0.10586960810E+03 -0.23015778061E+02 -0.44019970515E+02  0.11694382311E+03  0.00000000000E+00 0. -1.
        -14    1    4    4    0    0 -0.27353861356E+02  0.16324446985E+02  0.24901219752E+02  0.40432561700E+02  0.00000000000E+00 0.  1.
        -11    1    3    3    0    0 -0.27995102798E+02  0.52039742021E+02 -0.11370992218E+03  0.12814759823E+03  0.00000000000E+00 0.  1.
         11    1    3    3    0    0  0.61479076651E+02 -0.11767139221E+02 -0.11223453083E+03  0.12850965856E+03  0.00000000000E+00 0. -1.
          4    1    1    2  501    0  0.99739495600E+02 -0.33581271724E+02  0.13360622335E+03  0.17007731099E+03  0.00000000000E+00 0. -1.
<scales pt_clust_5="13000.00000" pt_clust_6="13000.00000" pt_clust_7="13000.00000" pt_clust_8="13000.00000" pt_clust_9="105.24100"></scales>
<clustering>
<clus scale="   81.293">  5  6 -1 -1</clus>
<clus scale="  105.241">  1  9  2 -1</clus>
<clus scale="  105.241">  1  5  2 -1</clus>
<clus scale="  109.904">  7  8 -1 -1</clus>
<clus scale="  105.241">  1  5  2 -1</clus>
</clustering>
</event>
<event>
 9    1  0.7835476E-005  0.1268143E+03  0.7546771E-02  0.1234928E+00
          1   -1    0    0  502    0 -0.00000000000E+00  0.00000000000E+00  0.45015045144E+03  0.45015045144E+03  0.00000000000E+00 0. -1.
         21   -1    0    0  501  502  0.00000000000E+00 -0.00000000000E+00 -0.14192278121E+03  0.14192278121E+03  0.00000000000E+00 0. -1.
         23    2    1    2    0    0 -0.65762901340E+02  0.55219851115E+02  0.27868655727E+03  0.30520118362E+03  0.90042068656E+02 0.  0.
        -24    2    1    2    0    0  0.52900909566E+02 -0.83677331845E+02  0.12977605863E+03  0.18188489090E+03  0.80248900598E+02 0.  0.
         11    1    4    4    0    0  0.12891984856E+02 -0.86098930591E+02  0.82988557326E+02  0.12027605651E+03  0.00000000000E+00 0. -1.
        -12    1    4    4    0    0  0.40008924710E+02  0.24215987456E+01  0.46787501299E+02  0.61608834389E+02  0.00000000000E+00 0.  1.
        -13    1    3    3    0    0 -0.66426755082E+02  0.16832478077E+02  0.92616080231E+02  0.11521104299E+03  0.00000000000E+00 0. -1.
         13    1    3    3    0    0  0.66385374190E+00  0.38387373037E+02  0.18607047704E+03  0.18999014063E+03  0.00000000000E+00 0.  1.
          2    1    1    2  501    0  0.12861991774E+02  0.28457480731E+02 -0.10023494566E+03  0.10498715814E+03  0.00000000000E+00 0. -1.
<scales pt_clust_5="13000.00000" pt_clust_6="13000.00000" pt_clust_7="13000.00000" pt_clust_8="13000.00000" pt_clust_9="31.22914"></scales>
<clustering>
<clus scale="   31.229">  2  9  1 -1</clus>
<clus scale="   80.249">  5  6 -1 -1</clus>
<clus scale="   90.042">  7  8 -1 -1</clus>
<clus scale="  120.059">  2  5  1 -1</clus>
<clus scale="   31.229">  2  5  1 -1</clus>
</clustering>
</event>
<event>
 9    1  0.7835476E-005  0.1130806E+03  0.7546771E-02  0.1257621E+00
         21   -1    0    0  501  502  0.00000000000E+00  0.00000000000E+00  0.49516694795E+02  0.49516694795E+02  0.00000000000E+00 0.  1.
          1   -1    0    0  502    0 -0.00000000000E+00 -0.00000000000E+00 -0.63029026015E+03  0.63029026015E+03  0.00000000000E+00 0. -1.
        -24    2    1    2    0    0  0.55396281032E+02  0.52929556085E+02 -0.52505763101E+03  0.53618944723E+03  0.77092941177E+02 0.  0.
         23    2    1    2    0    0 -0.30818809326E+02 -0.57486140300E+02 -0.48708665534E+02  0.11765760803E+03  0.84948945226E+02 0.  0.
         13    1    3    3    0    0  0.64034738216E+02  0.58111716246E+02 -0.51403316034E+03  0.52125570423E+03  0.00000000000E+00 0. -1.
        -14    1    3    3    0    0 -0.86384571840E+01 -0.51821601618E+01 -0.11024470675E+02  0.14933743005E+02  0.00000000000E+00 0.  1.
        -13    1    4    4    0    0 -0.30182157730E+02 -0.27481856064E+02  0.17921836368E+02  0.44580346306E+02  0.00000000000E+00 0.  1.
         13    1    4    4    0    0 -0.63665159647E+00 -0.30004284236E+02 -0.66630501902E+02  0.73077261727E+02  0.00000000000E+00 0. -1.
          2    1    1    2  501    0 -0.24577471706E+02  0.45565842157E+01 -0.70072688066E+01  0.25959899678E+02  0.00000000000E+00 0. -1.
<scales pt_clust_5="13000.00000" pt_clust_6="13000.00000" pt_clust_7="13000.00000" pt_clust_8="13000.00000" pt_clust_9="24.99629"></scales>
<clustering>
<clus scale="   24.996">  1  9  2 -1</clus>
<clus scale="   77.093">  5  6 -1 -1</clus>
<clus scale="   84.949">  7  8 -1 -1</clus>
<clus scale="  107.304">  2  5  1 -1</clus>
<clus scale="   24.996">  1  5  2 -1</clus>
</clustering>
</event>
<event>
 9    1  0.7835476E-005  0.9587456E+02  0.7546771E-02  0.1293014E+00
         21   -1    0    0  501  502  0.00000000000E+00  0.00000000000E+00  0.26103034338E+03  0.26103034338E+03  0.00000000000E+00 0.  1.
         -2   -1    0    0    0  501 -0.00000000000E+00 -0.00000000000E+00 -0.10816823246E+03  0.10816823246E+03  0.00000000000E+00 0.  1.
         23    2    1    2    0    0  0.31420933571E+02 -0.10769114960E+02 -0.52342701909E+02  0.10997101447E+03  0.90832905257E+02 0.  0.
        -24    2    1    2    0    0 -0.28119098344E+02 -0.19272829590E+02  0.54826230428E+02  0.10584197340E+03  0.83871819694E+02 0.  0.
         13    1    4    4    0    0 -0.43777514972E+02  0.19651987555E+02  0.35259161702E+02  0.59547291424E+02  0.00000000000E+00 0. -1.
        -14    1    4    4    0    0  0.15658416628E+02 -0.38924817144E+02  0.19567068726E+02  0.46294681979E+02  0.00000000000E+00 0.  1.
        -13    1    3    3    0    0  0.43419884389E+02 -0.35706108762E+02 -0.59014902129E+02  0.81504424645E+02  0.00000000000E+00 0.  1.
         13    1    3    3    0    0 -0.11998950818E+02  0.24936993803E+02  0.66722002203E+01  0.28466589828E+02  0.00000000000E+00 0. -1.
         -1    1    1    2    0  502 -0.33018352270E+01  0.30041944549E+02  0.15037858240E+03  0.15338558796E+03  0.00000000000E+00 0.  1.
<scales pt_clust_5="13000.00000" pt_clust_6="13000.00000" pt_clust_7="13000.00000" pt_clust_8="13000.00000" pt_clust_9="30.22285"></scales>
<clustering>
<clus scale="   30.223">  1  9  2 -1</clus>
<clus scale="   83.872">  5  6 -1 -1</clus>
<clus scale="   89.307">  1  5  2 -1</clus>
<clus scale="   90.833">  7  8 -1 -1</clus>
<clus scale="   30.223">  1  5  2 -1</clus>
</clustering>
</event>
<event>
 9    1  0.7835476E-005  0.1254988E+03  0.7546771E-02  0.1249111E+00
         -4   -1    0    0    0  501 -0.00000000000E+00  0.00000000000E+00  0.11337628723E+03  0.11337628723E+03  0.00000000000E+00 0.  1.
         21   -1    0    0  501  502  0.00000000000E+00 -0.00000000000E+00 -0.42200305710E+03  0.42200305710E+03  0.00000000000E+00 0.  1.
         23    2    1    2    0    0 -0.18100524189E+02 -0.81499815349E+01  0.53741614812E+02  0.10737520458E+03  0.90814218165E+02 0.  0.
        -24    2    1    2    0    0  0.58150164757E+01  0.10062290631E+03 -0.16654746992E+03  0.21109861613E+03  0.81644242318E+02 0.  0.
         11    1    4    4    0    0  0.34875642198E+02  0.15928828512E+02 -0.34645097470E+02  0.51675146591E+02  0.00000000000E+00 0. -1.
        -12    1    4    4    0    0 -0.29060625722E+02  0.84694077799E+02 -0.13190237245E+03  0.15942346954E+03  0.00000000000E+00 0.  1.
        -13    1    3    3    0    0 -0.49326268453E+02 -0.87226121709E+01  0.57107502040E+02  0.75963356376E+02  0.00000000000E+00 0.  1.
         13    1    3    3    0    0  0.31225744265E+02  0.57263063606E+00 -0.33658872280E+01  0.31411848203E+02  0.00000000000E+00 0. -1.
         -3    1    1    2    0  502  0.12285507713E+02 -0.92472924776E+02 -0.19582091476E+03  0.21690552362E+03  0.00000000000E+00 0.  1.
<scales pt_clust_5="13000.00000" pt_clust_6="13000.00000" pt_clust_7="13000.00000" pt_clust_8="13000.00000" pt_clust_9="95.31092"></scales>
<clustering>
<clus scale="   81.644">  5  6 -1 -1</clus>
<clus scale="   90.814">  7  8 -1 -1</clus>
<clus scale="   92.958">  1  7  2 -1</clus>
<clus scale="   95.311">  2  9  1 -1</clus>
<clus scale="   95.311">  2  5  1 -1</clus>
</clustering>
</event>
<event>
 9    1  0.7835476E-005  0.1179269E+03  0.7546771E-02  0.1248945E+00
         21   -1    0    0  501  502  0.00000000000E+00  0.00000000000E+00  0.40179844979E+02  0.40179844979E+02  0.00000000000E+00 0.  1.
          1   -1    0    0  502    0 -0.00000000000E+00 -0.00000000000E+00 -0.98457357838E+03  0.98457357838E+03  0.00000000000E+00 0. -1.
        -24    2    1    2    0    0  0.51096113772E+02 -0.64007501206E+02 -0.85250037149E+03  0.86011789241E+03  0.79612388486E+02 0.  0.
         23    2    1    2    0    0 -0.49176889230E+02  0.35690925202E+02 -0.60501438797E+02  0.12231573964E+03  0.87226759036E+02 0.  0.
         13    1    3    3    0    0  0.43914992637E+02 -0.74353862008E+02 -0.50069090492E+03  0.50808306963E+03  0.00000000000E+00 0. -1.
        -14    1    3    3    0    0  0.71811211348E+01  0.10346360802E+02 -0.35180946656E+03  0.35203482278E+03  0.00000000000E+00 0.  1.
        -13    1    4    4    0    0 -0.36854213725E+02 -0.14657565991E+02 -0.58200791794E+02  0.70430174468E+02  0.00000000000E+00 0. -1.
         13    1    4    4    0    0 -0.12322675505E+02  0.50348491192E+02 -0.23006470025E+01  0.51885565175E+02  0.00000000000E+00 0.  1.
          2    1    1    2  501    0 -0.19192245417E+01  0.28316576004E+02 -0.31391923115E+02  0.42319791307E+02  0.00000000000E+00 0. -1.
<scales pt_clust_5="13000.00000" pt_clust_6="13000.00000" pt_clust_7="13000.00000" pt_clust_8="13000.00000" pt_clust_9="28.38154"></scales>
<clustering>
<clus scale="   28.382">  1  9  2 -1</clus>
<clus scale="   79.612">  5  6 -1 -1</clus>
<clus scale="   87.227">  7  8 -1 -1</clus>
<clus scale="  112.412">  2  5  1 -1</clus>
<clus scale="   28.382">  1  5  2 -1</clus>
</clustering>
</event>
<event>
 9    1  0.7835476E-005  0.1151140E+03  0.7546771E-02  0.1255473E+00
         -2   -1    0    0    0  501 -0.00000000000E+00  0.00000000000E+00  0.45309928545E+03  0.45309928545E+03  0.00000000000E+00 0.  1.
         21   -1    0    0  501  502  0.00000000000E+00 -0.00000000000E+00 -0.17401667339E+03  0.17401667339E+03  0.00000000000E+00 0. -1.
         23    2    1    2    0    0 -0.16721594879E+02 -0.64537889814E+02  0.38200602242E+03  0.39835403514E+03  0.91173379837E+02 0.  0.
        -24    2    1    2    0    0  0.34607795421E+02  0.95276774156E+02 -0.99565853347E+01  0.12922486659E+03  0.79527161123E+02 0.  0.
         11    1    4    4    0    0  0.38894344901E+02  0.88895438333E+02 -0.34904954887E+02  0.10311898418E+03  0.00000000000E+00 0. -1.
        -12    1    4    4    0    0 -0.42865494797E+01  0.63813358227E+01  0.24948369552E+02  0.26105882415E+02  0.00000000000E+00 0.  1.
        -11    1    3    3    0    0 -0.10568604255E+02 -0.88017757643E+02  0.30333517564E+03  0.31602381213E+03  0.00000000000E+00 0.  1.
         11    1    3    3    0    0 -0.61529906246E+01  0.23479867830E+02  0.78670846785E+02  0.82330223010E+02  0.00000000000E+00 0. -1.
         -1    1    1    2    0  502 -0.17886200542E+02 -0.30738884342E+02 -0.92966825027E+02  0.99537057099E+02  0.00000000000E+00 0.  1.
<scales pt_clust_5="13000.00000" pt_clust_6="13000.00000" pt_clust_7="13000.00000" pt_clust_8="13000.00000" pt_clust_9="35.56396"></scales>
<clustering>
<clus scale="   35.564">  2  9  1 -1</clus>
<clus scale="   79.527">  5  6 -1 -1</clus>
<clus scale="   91.173">  7  8 -1 -1</clus>
<clus scale="  106.128">  2  5  1 -1</clus>
<clus scale="   35.564">  2  5  1 -1</clus>
</clustering>
</event>
<event>
 9    1  0.1246286E-004  0.9899236E+02  0.7546771E-02  0.1288599E+00
         21   -1    0    0  501  502  0.00000000000E+00  0.00000000000E+00  0.22530452280E+03  0.22530452280E+03  0.00000000000E+00 0. -1.
          1   -1    0    0  502    0 -0.00000000000E+00 -0.00000000000E+00 -0.27305688864E+03  0.27305688864E+03  0.00000000000E+00 0. -1.
         23    2    1    2    0    0  0.40379746422E+02 -0.11235828554E+02 -0.23728872126E+03  0.25794243298E+03  0.92041261039E+02 0.  0.
        -24    2    1    2    0    0  0.20823643933E+01 -0.13745642753E+02  0.58027790272E+02  0.99985337662E+02  0.80228201820E+02 0.  0.
         11    1    4    4    0    0  0.33640021777E+02  0.16629524439E+02  0.29211012390E+02  0.47554972328E+02  0.00000000000E+00 0. -1.
        -12    1    4    4    0    0 -0.31557657384E+02 -0.30375167193E+02  0.28816777882E+02  0.52430365334E+02  0.00000000000E+00 0.  1.
        -11    1    3    3    0    0 -0.66236359671E+01  0.30939514441E+02 -0.41277266507E+02  0.52009026501E+02  0.00000000000E+00 0.  1.
         11    1    3    3    0    0  0.47003382389E+02 -0.42175342995E+02 -0.19601145475E+03  0.20593340648E+03  0.00000000000E+00 0. -1.
          2    1    1    2  501    0 -0.42462110815E+02  0.24981471307E+02  0.13150856514E+03  0.14043364080E+03  0.00000000000E+00 0. -1.
<scales pt_clust_5="13000.00000" pt_clust_6="13000.00000" pt_clust_7="13000.00000" pt_clust_8="13000.00000" pt_clust_9="49.26566"></scales>
<clustering>
<clus scale="   49.266">  1  9  2 -1</clus>
<clus scale="   80.228">  5  6 -1 -1</clus>
<clus scale="   88.116">  1  5  2 -1</clus>
<clus scale="   92.041">  7  8 -1 -1</clus>
<clus scale="   49.266">  1  5  2 -1</clus>
</clustering>
</event>
<event>
 9    1  0.7835476E-005  0.2480983E+03  0.7546771E-02  0.1114705E+00
          1   -1    0    0  502    0 -0.00000000000E+00  0.00000000000E+00  0.33007243515E+03  0.33007243515E+03  0.00000000000E+00 0. -1.
         21   -1    0    0  501  502  0.00000000000E+00 -0.00000000000E+00 -0.31437537379E+03  0.31437537379E+03  0.00000000000E+00 0. -1.
        -24    2    1    2    0    0 -0.14257264191E+03 -0.17283285809E+03  0.73649704063E+02  0.24905650615E+03  0.80041922073E+02 0.  0.
         23    2    1    2    0    0  0.18510564785E+03  0.18054626878E+03 -0.13770648298E+03  0.30467620847E+03  0.83686680661E+02 0.  0.
         11    1    3    3    0    0 -0.11010701802E+03 -0.10957256783E+03  0.84967022540E+02  0.17705676479E+03  0.00000000000E+00 0. -1.
        -12    1    3    3    0    0 -0.32465623891E+02 -0.63260290257E+02 -0.11317318477E+02  0.71999741358E+02  0.00000000000E+00 0.  1.
        -13    1    4    4    0    0  0.16807108391E+03  0.11411978027E+03 -0.10037218469E+03  0.22659609210E+03  0.00000000000E+00 0.  1.
         13    1    4    4    0    0  0.17034563940E+02  0.66426488511E+02 -0.37334298289E+02  0.78080116376E+02  0.00000000000E+00 0. -1.
          2    1    1    2  501    0 -0.42533005933E+02 -0.77134106884E+01  0.79753840279E+02  0.90715094320E+02  0.00000000000E+00 0. -1.
<scales pt_clust_5="13000.00000" pt_clust_6="13000.00000" pt_clust_7="13000.00000" pt_clust_8="13000.00000" pt_clust_9="43.22679"></scales>
<clustering>
<clus scale="   43.227">  2  9  1 -1</clus>
<clus scale="   80.042">  5  6 -1 -1</clus>
<clus scale="   83.687">  7  8 -1 -1</clus>
<clus scale="  246.893">  1  5  2 -1</clus>
<clus scale="   43.227">  2  5  1 -1</clus>
</clustering>
</event>
<event>
 9    1  0.7835476E-005  0.2017852E+03  0.7546771E-02  0.1149061E+00
         21   -1    0    0  501  502  0.00000000000E+00  0.00000000000E+00  0.19669742168E+03  0.19669742168E+03  0.00000000000E+00 0. -1.
          1   -1    0    0  502    0 -0.00000000000E+00 -0.00000000000E+00 -0.66682133138E+03  0.66682133138E+03  0.00000000000E+00 0. -1.
         23    2    1    2    0    0  0.14243728129E+03 -0.10977244121E+03 -0.53803987509E+03  0.57419488842E+03  0.88738349954E+02 0.  0.
        -24    2    1    2    0    0 -0.12807241738E+03  0.15113196047E+03  0.99331997457E+02  0.23543577487E+03  0.79496822578E+02 0.  0.
         11    1    4    4    0    0 -0.67804331016E+02  0.10041707903E+03  0.18494069063E+02  0.12256854269E+03  0.00000000000E+00 0. -1.
        -12    1    4    4    0    0 -0.60268086368E+02  0.50714881436E+02  0.80837928394E+02  0.11286723218E+03  0.00000000000E+00 0.  1.
        -13    1    3    3    0    0  0.12056772560E+03 -0.44050437701E+02 -0.30063732708E+03  0.32689420300E+03  0.00000000000E+00 0.  1.
         13    1    3    3    0    0  0.21869555693E+02 -0.65722003513E+02 -0.23740254800E+03  0.24730068542E+03  0.00000000000E+00 0. -1.
          2    1    1    2  501    0 -0.14364863906E+02 -0.41359519252E+02 -0.31416032070E+02  0.53888089768E+02  0.00000000000E+00 0. -1.
<scales pt_clust_5="13000.00000" pt_clust_6="13000.00000" pt_clust_7="13000.00000" pt_clust_8="13000.00000" pt_clust_9="43.78311"></scales>
<clustering>
<clus scale="   43.783">  1  9  2 -1</clus>
<clus scale="   79.497">  5  6 -1 -1</clus>
<clus scale="   88.738">  7  8 -1 -1</clus>
<clus scale="  197.895">  1  5  2 -1</clus>
<clus scale="   43.783">  1  5  2 -1</clus>
</clustering>
</event>
<event>
 9    1  0.7835476E-005  0.2600107E+03  0.7546771E-02  0.1141950E+00
         -2   -1    0    0    0  501 -0.00000000000E+00  0.00000000000E+00  0.29125093999E+03  0.29125093999E+03  0.00000000000E+00 0.  1.
         21   -1    0    0  501  502  0.00000000000E+00 -0.00000000000E+00 -0.38152067341E+03  0.38152067341E+03  0.00000000000E+00 0.  1.
        -24    2    1    2    0    0  0.31151325925E+02 -0.66942004214E+02 -0.42191983122E+02  0.11745936687E+03  0.81024085254E+02 0.  0.
         23    2    1    2    0    0 -0.22560263354E+03 -0.92662162960E+02 -0.13011585639E+03  0.29070867123E+03  0.89992059300E+02 0.  0.
         11    1    3    3    0    0  0.74266886054E+01 -0.81248419542E+02 -0.27478114087E+02  0.86090116364E+02  0.00000000000E+00 0. -1.
        -12    1    3    3    0    0  0.23724637320E+02  0.14306415328E+02 -0.14713869036E+02  0.31369250509E+02  0.00000000000E+00 0.  1.
        -13    1    4    4    0    0 -0.24841971179E+02 -0.90881654756E+01 -0.54316760417E+02  0.60415467771E+02  0.00000000000E+00 0. -1.
         13    1    4    4    0    0 -0.20076066236E+03 -0.83573997484E+02 -0.75799095973E+02  0.23029320345E+03  0.00000000000E+00 0.  1.
         -1    1    1    2    0  502  0.19445130761E+03  0.15960416717E+03  0.82038106093E+02  0.26460357530E+03  0.00000000000E+00 0.  1.
<scales pt_clust_5="13000.00000" pt_clust_6="13000.00000" pt_clust_7="13000.00000" pt_clust_8="13000.00000" pt_clust_9="243.94069"></scales>
<clustering>
<clus scale="   81.024">  5  6 -1 -1</clus>
<clus scale="   89.992">  7  8 -1 -1</clus>
<clus scale="  109.620">  1  5  2 -1</clus>
<clus scale="  243.941">  2  9  1 -1</clus>
<clus scale="  243.941">  2  5  1 -1</clus>
</clustering>
</event>
<event>
 9    1  0.7835476E-005  0.1209116E+03  0.7546771E-02  0.1246419E+00
          3   -1    0    0  502    0 -0.00000000000E+00  0.00000000000E+00  0.54720910496E+03  0.54720910496E+03  0.00000000000E+00 0. -1.
         21   -1    0    0  501  502  0.00000000000E+00 -0.00000000000E+00 -0.55151255590E+02  0.55151255590E+02  0.00000000000E+00 0. -1.
        -24    2    1    2    0    0 -0.73852623782E+02 -0.73981169062E+02  0.24436610174E+03  0.27777990559E+03  0.80743178353E+02 0.  0.
         23    2    1    2    0    0  0.28830947973E+02  0.16364712052E+00  0.56077719479E+02  0.11436172692E+03  0.95407775474E+02 0.  0.
         11    1    3    3    0    0 -0.54022266642E+02 -0.13108236404E+01  0.75216020518E+02  0.92615189328E+02  0.00000000000E+00 0. -1.
        -12    1    3    3    0    0 -0.19830357140E+02 -0.72670345421E+02  0.16915008123E+03  0.18516471626E+03  0.00000000000E+00 0.  1.
        -11    1    4    4    0    0  0.41138180922E+02  0.32161729442E+02  0.60359288341E+02  0.79812094693E+02  0.00000000000E+00 0.  1.
         11    1    4    4    0    0 -0.12307232949E+02 -0.31998082322E+02 -0.42815688614E+01  0.34549632227E+02  0.00000000000E+00 0. -1.
          4    1    1    2  501    0  0.45021675809E+02  0.73817521941E+02  0.19161402815E+03  0.21021872805E+03  0.00000000000E+00 0. -1.
<scales pt_clust_5="13000.00000" pt_clust_6="13000.00000" pt_clust_7="13000.00000" pt_clust_8="13000.00000" pt_clust_9="86.46378"></scales>
<clustering>
<clus scale="   80.743">  5  6 -1 -1</clus>
<clus scale="   86.464">  2  9  1 -1</clus>
<clus scale="   95.408">  7  8 -1 -1</clus>
<clus scale="  109.711">  1  5  2 -1</clus>
<clus scale="   86.464">  2  5  1 -1</clus>
</clustering>
</event>
<event>
 9    1  0.7835476E-005  0.1484869E+03  0.7546771E-02  0.1206976E+00
          1   -1    0    0  502    0 -0.00000000000E+00  0.00000000000E+00  0.56614148874E+02  0.56614148874E+02  0.00000000000E+00 0. -1.
         21   -1    0    0  501  502  0.00000000000E+00 -0.00000000000E+00 -0.54737382838E+03  0.54737382838E+03  0.00000000000E+00 0.  1.
         23    2    1    2    0    0 -0.10837373465E+03 -0.41252196218E+02 -0.14778225526E+03  0.21378101491E+03  0.10205938131E+03 0.  0.
        -24    2    1    2    0    0  0.10249069266E+03 -0.12913873466E+02 -0.25836084449E+03  0.28956632017E+03  0.80169929516E+02 0.  0.
         13    1    4    4    0    0  0.25788467491E+02  0.16848032358E+02 -0.18373052804E+02  0.35867399114E+02  0.00000000000E+00 0. -1.
        -14    1    4    4    0    0  0.76702225171E+02 -0.29761905824E+02 -0.23998779169E+03  0.25369892106E+03  0.00000000000E+00 0.  1.
        -13    1    3    3    0    0 -0.82587484926E+02 -0.72681270877E+02 -0.12732509434E+03  0.16827043547E+03  0.00000000000E+00 0. -1.
         13    1    3    3    0    0 -0.25786249722E+02  0.31429074660E+02 -0.20457160920E+02  0.45510579447E+02  0.00000000000E+00 0.  1.
          2    1    1    2  501    0  0.58830419862E+01  0.54166069683E+02 -0.84616579748E+02  0.10064064217E+03  0.00000000000E+00 0. -1.
<scales pt_clust_5="13000.00000" pt_clust_6="13000.00000" pt_clust_7="13000.00000" pt_clust_8="13000.00000" pt_clust_9="54.48462"></scales>
<clustering>
<clus scale="   54.485">  2  9  1 -1</clus>
<clus scale="   80.170">  5  6 -1 -1</clus>
<clus scale="  102.059">  7  8 -1 -1</clus>
<clus scale="  134.385">  2  5  1 -1</clus>
<clus scale="   54.485">  2  5  1 -1</clus>
</clustering>
</event>
<event>
 9    1  0.7835476E-005  0.2032518E+03  0.7546771E-02  0.1148415E+00
         21   -1    0    0  501  502  0.00000000000E+00  0.00000000000E+00  0.39709976984E+03  0.39709976984E+03  0.00000000000E+00 0. -1.
         -2   -1    0    0    0  501 -0.00000000000E+00 -0.00000000000E+00 -0.58041705191E+03  0.58041705191E+03  0.00000000000E+00 0.  1.
        -24    2    1    2    0    0  0.12244856065E+03  0.13528854445E+03 -0.53450859500E+03  0.56988372813E+03  0.75969633415E+02 0.  0.
         23    2    1    2    0    0 -0.10790631686E+03 -0.11821834157E+03  0.31549318467E+03  0.36547594663E+03  0.91746217857E+02 0.  0.
         13    1    3    3    0    0  0.33168054710E+02  0.91769392868E+02 -0.24003298985E+03  0.25910920003E+03  0.00000000000E+00 0. -1.
        -14    1    3    3    0    0  0.89280505937E+02  0.43519151580E+02 -0.29447560515E+03  0.31077452811E+03  0.00000000000E+00 0.  1.
        -11    1    4    4    0    0 -0.75815516511E+02 -0.70263952452E+02  0.27817179958E+03  0.29675674489E+03  0.00000000000E+00 0. -1.
         11    1    4    4    0    0 -0.32090800344E+02 -0.47954389115E+02  0.37321385089E+02  0.68719201735E+02  0.00000000000E+00 0.  1.
         -1    1    1    2    0  502 -0.14542243791E+02 -0.17070202880E+02  0.35698128263E+02  0.42157146990E+02  0.00000000000E+00 0.  1.
<scales pt_clust_5="13000.00000" pt_clust_6="13000.00000" pt_clust_7="13000.00000" pt_clust_8="13000.00000" pt_clust_9="22.42473"></scales>
<clustering>
<clus scale="   22.425">  1  9  2 -1</clus>
<clus scale="   75.970">  5  6 -1 -1</clus>
<clus scale="   91.746">  7  8 -1 -1</clus>
<clus scale="  196.635">  2  5  1 -1</clus>
<clus scale="   22.425">  1  5  2 -1</clus>
</clustering>
</event>
<event>
 9    1  0.7835476E-005  0.1090320E+03  0.7546771E-02  0.1267401E+00
         21   -1    0    0  501  502  0.00000000000E+00  0.00000000000E+00  0.15011407807E+03  0.15011407807E+03  0.00000000000E+00 0.  1.
          1   -1    0    0  502    0 -0.00000000000E+00 -0.00000000000E+00 -0.17722702099E+03  0.17722702099E+03  0.00000000000E+00 0. -1.
        -24    2    1    2    0    0 -0.40220956896E+02  0.37582430244E+02 -0.99161470747E+02  0.13856513251E+03  0.79606119294E+02 0.  0.
         23    2    1    2    0    0  0.37193288782E+02 -0.60744410319E+02  0.35024650410E+01  0.11635907060E+03  0.91945320350E+02 0.  0.
         13    1    3    3    0    0 -0.16339513781E+02 -0.16216406690E+02 -0.68359655198E+02  0.72131782284E+02  0.00000000000E+00 0. -1.
        -14    1    3    3    0    0 -0.23881443115E+02  0.53798836934E+02 -0.30801815549E+02  0.66433350223E+02  0.00000000000E+00 0.  1.
        -11    1    4    4    0    0  0.16090570779E+02 -0.79388463855E+02 -0.15387174624E+02  0.82451196499E+02  0.00000000000E+00 0.  1.
         11    1    4    4    0    0  0.21102718003E+02  0.18644053536E+02  0.18889639665E+02  0.33907874101E+02  0.00000000000E+00 0. -1.
          2    1    1    2  501    0  0.30276681144E+01  0.23161980074E+02  0.68546062789E+02  0.72416895950E+02  0.00000000000E+00 0. -1.
<scales pt_clust_5="13000.00000" pt_clust_6="13000.00000" pt_clust_7="13000.00000" pt_clust_8="13000.00000" pt_clust_9="23.35903"></scales>
<clustering>
<clus scale="   23.359">  1  9  2 -1</clus>
<clus scale="   79.606">  5  6 -1 -1</clus>
<clus scale="   91.945">  7  8 -1 -1</clus>
<clus scale="   98.849">  2  5  1 -1</clus>
<clus scale="   23.359">  1  5  2 -1</clus>
</clustering>
</event>
<event>
 9    1  0.7835476E-005  0.9997638E+02  0.7546771E-02  0.1286328E+00
         21   -1    0    0  501  502  0.00000000000E+00  0.00000000000E+00  0.52140517184E+02  0.52140517184E+02  0.00000000000E+00 0. -1.
          3   -1    0    0  502    0 -0.00000000000E+00 -0.00000000000E+00 -0.38793316211E+03  0.38793316211E+03  0.00000000000E+00 0. -1.
         23    2    1    2    0    0  0.39580182460E+02 -0.13539437242E+02 -0.23660669372E+03  0.25750275231E+03  0.92601472595E+02 0.  0.
        -24    2    1    2    0    0 -0.94323272189E+01  0.34550700250E+02 -0.13740390125E+02  0.89558507082E+02  0.80927178287E+02 0.  0.
         11    1    4    4    0    0 -0.42549306391E+02  0.30550730356E+01 -0.91229612634E+01  0.43623449747E+02  0.00000000000E+00 0. -1.
        -12    1    4    4    0    0  0.33116979172E+02  0.31495627214E+02 -0.46174288620E+01  0.45935057335E+02  0.00000000000E+00 0.  1.
        -11    1    3    3    0    0 -0.28081957575E+02 -0.45416612674E+01 -0.37823748740E+02  0.47327148626E+02  0.00000000000E+00 0.  1.
         11    1    3    3    0    0  0.67662140035E+02 -0.89977759750E+01 -0.19878294498E+03  0.21017560368E+03  0.00000000000E+00 0. -1.
          4    1    1    2  501    0 -0.30147855241E+02 -0.21011263008E+02 -0.85445561075E+02  0.93012419903E+02  0.00000000000E+00 0. -1.
<scales pt_clust_5="13000.00000" pt_clust_6="13000.00000" pt_clust_7="13000.00000" pt_clust_8="13000.00000" pt_clust_9="36.74735"></scales>
<clustering>
<clus scale="   36.747">  1  9  2 -1</clus>
<clus scale="   80.927">  5  6 -1 -1</clus>
<clus scale="   89.272">  1  5  2 -1</clus>
<clus scale="   92.601">  7  8 -1 -1</clus>
<clus scale="   36.747">  1  5  2 -1</clus>
</clustering>
</event>
<event>
 9    1  0.7835476E-005  0.1234876E+03  0.7546771E-02  0.1254172E+00
         21   -1    0    0  501  502  0.00000000000E+00  0.00000000000E+00  0.28061288021E+03  0.28061288021E+03  0.00000000000E+00 0. -1.
         -2   -1    0    0    0  501 -0.00000000000E+00 -0.00000000000E+00 -0.14946286152E+03  0.14946286152E+03  0.00000000000E+00 0.  1.
        -24    2    1    2    0    0  0.23113407263E+02  0.26547999189E+02 -0.10882543944E+03  0.13958963237E+03  0.80020393284E+02 0.  0.
         23    2    1    2    0    0 -0.35587335095E+02 -0.51013294778E+02  0.17478822895E+03  0.21975051428E+03  0.11777329444E+03 0.  0.
         13    1    3    3    0    0  0.12571443043E+02 -0.19479446737E+02 -0.82145161602E+02  0.85354071959E+02  0.00000000000E+00 0. -1.
        -14    1    3    3    0    0  0.10541964220E+02  0.46027445926E+02 -0.26680277834E+02  0.54235560414E+02  0.00000000000E+00 0.  1.
        -13    1    4    4    0    0 -0.33045921744E+02 -0.85105009655E+02  0.89422293268E+02  0.12779374846E+03  0.00000000000E+00 0. -1.
         13    1    4    4    0    0 -0.25414133508E+01  0.34091714877E+02  0.85365935684E+02  0.91956765821E+02  0.00000000000E+00 0.  1.
         -1    1    1    2    0  502  0.12473927832E+02  0.24465295589E+02  0.65187229173E+02  0.70735595078E+02  0.00000000000E+00 0.  1.
<scales pt_clust_5="13000.00000" pt_clust_6="13000.00000" pt_clust_7="13000.00000" pt_clust_8="13000.00000" pt_clust_9="27.46178"></scales>
<clustering>
<clus scale="   27.462">  1  9  2 -1</clus>
<clus scale="   80.020">  5  6 -1 -1</clus>
<clus scale="   88.215">  2  5  1 -1</clus>
<clus scale="  117.773">  7  8 -1 -1</clus>
<clus scale="   27.462">  1  5  2 -1</clus>
</clustering>
</event>
<event>
 9    1  0.7835476E-005  0.1780028E+03  0.7546771E-02  0.1196182E+00
         -2   -1    0    0    0  501 -0.00000000000E+00  0.00000000000E+00  0.78447646922E+03  0.78447646922E+03  0.00000000000E+00 0.  1.
         21   -1    0    0  501  502  0.00000000000E+00 -0.00000000000E+00 -0.15219439627E+03  0.15219439627E+03  0.00000000000E+00 0.  1.
         23    2    1    2    0    0  0.41788949944E+02  0.30858799513E+02  0.10998809939E+03  0.14768381883E+03  0.83752889450E+02 0.  0.
        -24    2    1    2    0    0 -0.87742818383E+02 -0.17957269065E+03  0.58334534860E+03  0.62179000770E+03  0.79911604563E+02 0.  0.
         11    1    4    4    0    0 -0.41989040243E+01 -0.83937365242E+02  0.17461207339E+03  0.19378464401E+03  0.00000000000E+00 0. -1.
        -12    1    4    4    0    0 -0.83543914359E+02 -0.95635325413E+02  0.40873327521E+03  0.42800536370E+03  0.00000000000E+00 0.  1.
        -13    1    3    3    0    0  0.20812113836E+02  0.31463063298E+02  0.11900662649E+03  0.12484248308E+03  0.00000000000E+00 0. -1.
         13    1    3    3    0    0  0.20976836107E+02 -0.60426378496E+00 -0.90185270931E+01  0.22841335747E+02  0.00000000000E+00 0.  1.
         -1    1    1    2    0  502  0.45953868440E+02  0.14871389114E+03 -0.61051375036E+02  0.16719703896E+03  0.00000000000E+00 0.  1.
<scales pt_clust_5="13000.00000" pt_clust_6="13000.00000" pt_clust_7="13000.00000" pt_clust_8="13000.00000" pt_clust_9="159.05698"></scales>
<clustering>
<clus scale="   79.912">  5  6 -1 -1</clus>
<clus scale="   83.753">  7  8 -1 -1</clus>
<clus scale="   98.555">  1  7  2 -1</clus>
<clus scale="  159.057">  2  9  1 -1</clus>
<clus scale="  159.057">  2  5  1 -1</clus>
</clustering>
</event>
<event>
 9    1  0.7835476E-005  0.9525043E+02  0.7546771E-02  0.1296105E+00
          1   -1    0    0  502    0 -0.00000000000E+00  0.00000000000E+00  0.18648676215E+03  0.18648676215E+03  0.00000000000E+00 0. -1.
         21   -1    0    0  501  502  0.00000000000E+00 -0.00000000000E+00 -0.16059664431E+03  0.16059664431E+03  0.00000000000E+00 0. -1.
        -24    2    1    2    0    0 -0.33027771818E+02  0.35197694327E+02  0.41622242675E+02  0.10238551096E+03  0.80129085675E+02 0.  0.
         23    2    1    2    0    0 -0.47148655527E+01  0.40964166771E+02 -0.88513238917E+02  0.13279514161E+03  0.89998129183E+02 0.  0.
         11    1    3    3    0    0 -0.58034286038E+02  0.19869708319E+02  0.39541052412E+02  0.72981357143E+02  0.00000000000E+00 0. -1.
        -12    1    3    3    0    0  0.25006514220E+02  0.15327986008E+02  0.20811902630E+01  0.29404153812E+02  0.00000000000E+00 0.  1.
        -11    1    4    4    0    0 -0.20179310928E+02  0.63666704486E+02 -0.42368472328E+02  0.79093244320E+02  0.00000000000E+00 0.  1.
         11    1    4    4    0    0  0.15464445375E+02 -0.22702537715E+02 -0.46144766589E+02  0.53701897295E+02  0.00000000000E+00 0. -1.
          2    1    1    2  501    0  0.37742637371E+02 -0.76161861097E+02  0.72781114080E+02  0.11190275389E+03  0.00000000000E+00 0. -1.
<scales pt_clust_5="13000.00000" pt_clust_6="13000.00000" pt_clust_7="13000.00000" pt_clust_8="13000.00000" pt_clust_9="85.00084"></scales>
<clustering>
<clus scale="   80.129">  5  6 -1 -1</clus>
<clus scale="   85.001">  2  9  1 -1</clus>
<clus scale="   85.986">  1  5  2 -1</clus>
<clus scale="   89.998">  7  8 -1 -1</clus>
<clus scale="   85.001">  2  5  1 -1</clus>
</clustering>
</event>
<event>
 9    1  0.7835476E-005  0.9792844E+02  0.7546771E-02  0.1290352E+00
         21   -1    0    0  501  502  0.00000000000E+00  0.00000000000E+00  0.14875405095E+03  0.14875405095E+03  0.00000000000E+00 0.  1.
          1   -1    0    0  502    0 -0.00000000000E+00 -0.00000000000E+00 -0.11094711208E+03  0.11094711208E+03  0.00000000000E+00 0. -1.
        -24    2    1    2    0    0  0.31594090440E+02 -0.27419968151E+01 -0.41134213627E+02  0.95832657475E+02  0.80536759376E+02 0.  0.
         23    2    1    2    0    0 -0.51108659469E+02  0.12834026369E+02  0.90652710438E+02  0.13897215935E+03  0.91206029726E+02 0.  0.
         13    1    3    3    0    0 -0.82153084614E+01  0.31909161192E+02 -0.94641954646E+01  0.34282019440E+02  0.00000000000E+00 0. -1.
        -14    1    3    3    0    0  0.39809398902E+02 -0.34651158007E+02 -0.31670018163E+02  0.61550638035E+02  0.00000000000E+00 0.  1.
        -11    1    4    4    0    0 -0.71848171153E+02  0.10583869179E+02  0.92980854683E+02  0.11798142787E+03  0.00000000000E+00 0.  1.
         11    1    4    4    0    0  0.20739511685E+02  0.22501571899E+01 -0.23281442444E+01  0.20990731477E+02  0.00000000000E+00 0. -1.
          2    1    1    2  501    0  0.19514569028E+02 -0.10092029554E+02 -0.11711557948E+02  0.24896346207E+02  0.00000000000E+00 0. -1.
<scales pt_clust_5="13000.00000" pt_clust_6="13000.00000" pt_clust_7="13000.00000" pt_clust_8="13000.00000" pt_clust_9="21.96971"></scales>
<clustering>
<clus scale="   21.970">  1  9  2 -1</clus>
<clus scale="   80.537">  5  6 -1 -1</clus>
<clus scale="   88.077">  2  5  1 -1</clus>
<clus scale="   91.206">  7  8 -1 -1</clus>
<clus scale="   21.970">  1  5  2 -1</clus>
</clustering>
</event>
<event>
 9    1  0.7835476E-005  0.1565938E+03  0.7546771E-02  0.1208501E+00
         21   -1    0    0  501  502  0.00000000000E+00  0.00000000000E+00  0.96158398102E+03  0.96158398102E+03  0.00000000000E+00 0. -1.
          3   -1    0    0  502    0 -0.00000000000E+00 -0.00000000000E+00 -0.69864979255E+02  0.69864979255E+02  0.00000000000E+00 0. -1.
        -24    2    1    2    0    0  0.78726034099E+02 -0.21082592973E+01  0.14784243956E+03  0.18480863422E+03  0.78067990532E+02 0.  0.
         23    2    1    2    0    0  0.49194877477E+02 -0.45070199491E+02  0.26364397360E+02  0.11628885361E+03  0.91523533448E+02 0.  0.
         13    1    3    3    0    0  0.88261782743E+02  0.13984817634E+02  0.10385800711E+03  0.13701168949E+03  0.00000000000E+00 0. -1.
        -14    1    3    3    0    0 -0.95357486443E+01 -0.16093076931E+02  0.43984432451E+02  0.47796944728E+02  0.00000000000E+00 0.  1.
        -13    1    4    4    0    0  0.13135808699E+01  0.21852228117E+02  0.26015331615E+02  0.34000630104E+02  0.00000000000E+00 0.  1.
         13    1    4    4    0    0  0.47881296607E+02 -0.66922427608E+02  0.34906574464E+00  0.82288223511E+02  0.00000000000E+00 0. -1.
          4    1    1    2  501    0 -0.12792091158E+03  0.47178458788E+02  0.71751216485E+03  0.73035147244E+03  0.00000000000E+00 0. -1.
<scales pt_clust_5="13000.00000" pt_clust_6="13000.00000" pt_clust_7="13000.00000" pt_clust_8="13000.00000" pt_clust_9="127.06322"></scales>
<clustering>
<clus scale="   78.068">  5  6 -1 -1</clus>
<clus scale="   91.524">  7  8 -1 -1</clus>
<clus scale="  110.891">  2  5  1 -1</clus>
<clus scale="  127.063">  1  9  2 -1</clus>
<clus scale="  127.063">  1  5  2 -1</clus>
</clustering>
</event>
<event>
 9    1  0.7835476E-005  0.1228794E+03  0.7546771E-02  0.1241943E+00
         21   -1    0    0  501  502  0.00000000000E+00  0.00000000000E+00  0.40240713471E+02  0.40240713471E+02  0.00000000000E+00 0.  1.
          1   -1    0    0  502    0 -0.00000000000E+00 -0.00000000000E+00 -0.87991215490E+03  0.87991215490E+03  0.00000000000E+00 0. -1.
         23    2    1    2    0    0  0.25696075691E+02  0.58718622701E+02 -0.22515450483E+03  0.25140510457E+03  0.91661391001E+02 0.  0.
        -24    2    1    2    0    0 -0.10897384656E+03 -0.60992349351E+02 -0.21847858371E+03  0.26404202637E+03  0.79937064214E+02 0.  0.
         11    1    4    4    0    0 -0.13862581313E+02 -0.49727623299E+02 -0.90571750222E+02  0.10425089744E+03  0.00000000000E+00 0. -1.
        -12    1    4    4    0    0 -0.95111265245E+02 -0.11264726052E+02 -0.12790683349E+03  0.15979112892E+03  0.00000000000E+00 0.  1.
        -13    1    3    3    0    0  0.54859282934E+02  0.38069131272E+02 -0.92899156463E+02  0.11440739902E+03  0.00000000000E+00 0.  1.
         13    1    3    3    0    0 -0.29163207243E+02  0.20649491428E+02 -0.13225534837E+03  0.13699770554E+03  0.00000000000E+00 0. -1.
          2    1    1    2  501    0  0.83277770867E+02  0.22737266506E+01 -0.39603835289E+03  0.40470573743E+03  0.00000000000E+00 0. -1.
<scales pt_clust_5="13000.00000" pt_clust_6="13000.00000" pt_clust_7="13000.00000" pt_clust_8="13000.00000" pt_clust_9="83.30885"></scales>
<clustering>
<clus scale="   79.937">  5  6 -1 -1</clus>
<clus scale="   83.309">  1  9  2 -1</clus>
<clus scale="   91.661">  7  8 -1 -1</clus>
<clus scale="  114.401">  1  5  2 -1</clus>
<clus scale="   83.309">  1  5  2 -1</clus>
</clustering>
</event>
<event>
 9    1  0.7835476E-005  0.1473317E+03  0.7546771E-02  0.1207331E+00
         21   -1    0    0  501  502  0.00000000000E+00  0.00000000000E+00  0.37186467207E+02  0.37186467207E+02  0.00000000000E+00 0.  1.
          3   -1    0    0  502    0 -0.00000000000E+00 -0.00000000000E+00 -0.88729549324E+03  0.88729549324E+03  0.00000000000E+00 0. -1.
        -24    2    1    2    0    0 -0.10713246627E+03  0.38227037375E+02 -0.35748625502E+03  0.38379558135E+03  0.81018232646E+02 0.  0.
         23    2    1    2    0    0  0.11257720808E+03  0.28726851000E+02 -0.29392905146E+03  0.33094448396E+03  0.98138190465E+02 0.  0.
         13    1    3    3    0    0 -0.71497382683E+02  0.43050876501E+02 -0.32428499466E+03  0.33485222332E+03  0.00000000000E+00 0. -1.
        -14    1    3    3    0    0 -0.35635083589E+02 -0.48238391262E+01 -0.33201260358E+02  0.48943358034E+02  0.00000000000E+00 0.  1.
        -11    1    4    4    0    0  0.91557829090E+02  0.50472436970E+02 -0.27746836094E+03  0.29651137294E+03  0.00000000000E+00 0.  1.
         11    1    4    4    0    0  0.21019378993E+02 -0.21745585971E+02 -0.16460690521E+02  0.34433111025E+02  0.00000000000E+00 0. -1.
          4    1    1    2  501    0 -0.54447418102E+01 -0.66953888375E+02 -0.19869371956E+03  0.20974189513E+03  0.00000000000E+00 0. -1.
<scales pt_clust_5="13000.00000" pt_clust_6="13000.00000" pt_clust_7="13000.00000" pt_clust_8="13000.00000" pt_clust_9="67.17494"></scales>
<clustering>
<clus scale="   67.175">  1  9  2 -1</clus>
<clus scale="   81.018">  5  6 -1 -1</clus>
<clus scale="   98.138">  7  8 -1 -1</clus>
<clus scale="  136.527">  2  5  1 -1</clus>
<clus scale="   67.175">  1  5  2 -1</clus>
</clustering>
</event>
<event>
 9    1  0.7835476E-005  0.9263995E+02  0.7546771E-02  0.1302050E+00
         -4   -1    0    0    0  501 -0.00000000000E+00  0.00000000000E+00  0.89475439036E+02  0.89475439036E+02  0.00000000000E+00 0.  1.
         21   -1    0    0  501  502  0.00000000000E+00 -0.00000000000E+00 -0.14176663604E+03  0.14176663604E+03  0.00000000000E+00 0.  1.
        -24    2    1    2    0    0 -0.53464921179E+01 -0.26391485712E+02  0.27529350302E+02  0.89282310767E+02  0.80550421425E+02 0.  0.
         23    2    1    2    0    0 -0.14779214067E+02  0.12431803126E+02 -0.70476225937E+02  0.11574463263E+03  0.89760496112E+02 0.  0.
         13    1    3    3    0    0 -0.11299899066E+02  0.18868309855E+02 -0.15216102350E+02  0.26743795662E+02  0.00000000000E+00 0. -1.
        -14    1    3    3    0    0  0.59534069477E+01 -0.45259795567E+02  0.42745452652E+02  0.62538515105E+02  0.00000000000E+00 0.  1.
        -13    1    4    4    0    0 -0.44315849867E+02  0.32790025933E+02 -0.50079696254E+02  0.74478562869E+02  0.00000000000E+00 0.  1.
         13    1    4    4    0    0  0.29536635799E+02 -0.20358222807E+02 -0.20396529684E+02  0.41266069759E+02  0.00000000000E+00 0. -1.
         -3    1    1    2    0  502  0.20125706185E+02  0.13959682586E+02 -0.93443213718E+01  0.26215131685E+02  0.00000000000E+00 0.  1.
<scales pt_clust_5="13000.00000" pt_clust_6="13000.00000" pt_clust_7="13000.00000" pt_clust_8="13000.00000" pt_clust_9="24.49320"></scales>
<clustering>
<clus scale="   24.493">  2  9  1 -1</clus>
<clus scale="   80.550">  5  6 -1 -1</clus>
<clus scale="   83.747">  1  5  2 -1</clus>
<clus scale="   89.760">  7  8 -1 -1</clus>
<clus scale="   24.493">  2  5  1 -1</clus>
</clustering>
</event>
<event>
 9    1  0.7835476E-005  0.1434475E+03  0.7546771E-02  0.1226899E+00
          1   -1    0    0  502    0 -0.00000000000E+00  0.00000000000E+00  0.37879317719E+03  0.37879317719E+03  0.00000000000E+00 0. -1.
         21   -1    0    0  501  502  0.00000000000E+00 -0.00000000000E+00 -0.19204980802E+03  0.19204980802E+03  0.00000000000E+00 0. -1.
         23    2    1    2    0    0  0.33755638090E+02 -0.17267416795E+02  0.27308843424E+03  0.29010097950E+03  0.90242332671E+02 0.  0.
        -24    2    1    2    0    0 -0.10780130818E+03  0.84503733524E+02 -0.86481069844E+02  0.18072449703E+03  0.80127182408E+02 0.  0.
         13    1    4    4    0    0 -0.45325953612E+02  0.68014601414E+02 -0.82275937085E+02  0.11597309127E+03  0.00000000000E+00 0. -1.
        -14    1    4    4    0    0 -0.62475354564E+02  0.16489132110E+02 -0.42051327596E+01  0.64751405755E+02  0.00000000000E+00 0.  1.
        -13    1    3    3    0    0  0.51477584713E+02 -0.42621856186E+02  0.17994685720E+03  0.19195685914E+03  0.00000000000E+00 0. -1.
         13    1    3    3    0    0 -0.17721946623E+02  0.25354439391E+02  0.93141577039E+02  0.98144120365E+02  0.00000000000E+00 0.  1.
          2    1    1    2  501    0  0.74045670087E+02 -0.67236316729E+02  0.13600476789E+00  0.10001750868E+03  0.00000000000E+00 0. -1.
<scales pt_clust_5="13000.00000" pt_clust_6="13000.00000" pt_clust_7="13000.00000" pt_clust_8="13000.00000" pt_clust_9="118.98246"></scales>
<clustering>
<clus scale="   80.127">  5  6 -1 -1</clus>
<clus scale="   90.242">  7  8 -1 -1</clus>
<clus scale="   97.884">  1  7  2 -1</clus>
<clus scale="  118.982">  2  9  1 -1</clus>
<clus scale="  118.982">  2  5  1 -1</clus>
</clustering>
</event>
<event>
 9    1  0.7835476E-005  0.1462315E+03  0.7546771E-02  0.1206876E+00
          1   -1    0    0  502    0 -0.00000000000E+00  0.00000000000E+00  0.37411776804E+03  0.37411776804E+03  0.00000000000E+00 0. -1.
         21   -1    0    0  501  502  0.00000000000E+00 -0.00000000000E+00 -0.12699765850E+03  0.12699765850E+03  0.00000000000E+00 0. -1.
        -24    2    1    2    0    0 -0.11088839564E+03 -0.20962817115E+02  0.15565248088E+03  0.20855707096E+03  0.80825002642E+02 0.  0.
         23    2    1    2    0    0  0.12849104054E+03 -0.74156040029E+02  0.24851537438E+02  0.17510558337E+03  0.89639838488E+02 0.  0.
         13    1    3    3    0    0 -0.12052551515E+02  0.26541818366E+02  0.32976762373E+02  0.44013622627E+02  0.00000000000E+00 0. -1.
        -14    1    3    3    0    0 -0.98835844128E+02 -0.47504635482E+02  0.12267571851E+03  0.16454344833E+03  0.00000000000E+00 0.  1.
        -11    1    4    4    0    0  0.68753725027E+02 -0.65646681416E+02 -0.23338208380E+02  0.97883775246E+02  0.00000000000E+00 0. -1.
         11    1    4    4    0    0  0.59737315510E+02 -0.85093586132E+01  0.48189745818E+02  0.77221808127E+02  0.00000000000E+00 0.  1.
          2    1    1    2  501    0 -0.17602644894E+02  0.95118857144E+02  0.66616091217E+02  0.11745277221E+03  0.00000000000E+00 0. -1.
<scales pt_clust_5="13000.00000" pt_clust_6="13000.00000" pt_clust_7="13000.00000" pt_clust_8="13000.00000" pt_clust_9="96.73396"></scales>
<clustering>
<clus scale="   80.825">  5  6 -1 -1</clus>
<clus scale="   89.640">  7  8 -1 -1</clus>
<clus scale="   96.734">  2  9  1 -1</clus>
<clus scale="  141.000">  1  5  2 -1</clus>
<clus scale="   96.734">  2  5  1 -1</clus>
</clustering>
</event>
<event>
 9    1  0.7835476E-005  0.1311035E+03  0.7546771E-02  0.1226255E+00
          1   -1    0    0  502    0 -0.00000000000E+00  0.00000000000E+00  0.33687006824E+03  0.33687006824E+03  0.00000000000E+00 0. -1.
         21   -1    0    0  501  502  0.00000000000E+00 -0.00000000000E+00 -0.11260823397E+03  0.11260823397E+03  0.00000000000E+00 0. -1.
         23    2    1    2    0    0  0.12569000581E+03  0.36190255106E+02  0.19157149245E+03  0.24924372218E+03  0.91187083532E+02 0.  0.
        -24    2    1    2    0    0 -0.48353615588E+02 -0.26252242531E+02  0.55724935836E+02  0.11893098929E+03  0.89510107594E+02 0.  0.
         13    1    4    4    0    0 -0.25951095936E+02 -0.12254707767E+02 -0.22435146943E+02  0.36427641442E+02  0.00000000000E+00 0. -1.
        -14    1    4    4    0    0 -0.22402519652E+02 -0.13997534764E+02  0.78160082779E+02  0.82503347849E+02  0.00000000000E+00 0.  1.
        -13    1    3    3    0    0  0.27082374815E+02  0.24092051093E+00 -0.39136859870E+01  0.27364758473E+02  0.00000000000E+00 0.  1.
         13    1    3    3    0    0  0.98607630991E+02  0.35949334595E+02  0.19548517844E+03  0.22187896371E+03  0.00000000000E+00 0. -1.
          2    1    1    2  501    0 -0.77336390218E+02 -0.99380125747E+01 -0.23034594019E+02  0.81303590742E+02  0.00000000000E+00 0. -1.
<scales pt_clust_5="13000.00000" pt_clust_6="13000.00000" pt_clust_7="13000.00000" pt_clust_8="13000.00000" pt_clust_9="77.97231"></scales>
<clustering>
<clus scale="   77.972">  2  9  1 -1</clus>
<clus scale="   89.510">  5  6 -1 -1</clus>
<clus scale="   91.187">  7  8 -1 -1</clus>
<clus scale="  129.943">  2  5  1 -1</clus>
<clus scale="   77.972">  2  5  1 -1</clus>
</clustering>
</event>
<event>
 9    1  0.7835476E-005  0.1373509E+03  0.7546771E-02  0.1248130E+00
          1   -1    0    0  502    0 -0.00000000000E+00  0.00000000000E+00  0.25202289552E+03  0.25202289552E+03  0.00000000000E+00 0. -1.
         21   -1    0    0  501  502  0.00000000000E+00 -0.00000000000E+00 -0.11736873790E+03  0.11736873790E+03  0.00000000000E+00 0. -1.
        -24    2    1    2    0    0 -0.90929011912E+01  0.10792220779E+02  0.10269270194E+03  0.12560102188E+03  0.70927235828E+02 0.  0.
         23    2    1    2    0    0  0.10278202105E+03  0.24424016979E+02  0.31802005701E+02  0.14370135135E+03  0.92076242080E+02 0.  0.
         13    1    3    3    0    0  0.17440513585E+02 -0.18354448092E+02  0.69846251473E+02  0.74293715237E+02  0.00000000000E+00 0. -1.
        -14    1    3    3    0    0 -0.26533414776E+02  0.29146668871E+02  0.32846450471E+02  0.51307306639E+02  0.00000000000E+00 0.  1.
        -13    1    4    4    0    0  0.27485973102E+02  0.26475873795E+02  0.53130085842E+02  0.65416027334E+02  0.00000000000E+00 0.  1.
         13    1    4    4    0    0  0.75296047952E+02 -0.20518568158E+01 -0.21328080142E+02  0.78285324015E+02  0.00000000000E+00 0. -1.
          2    1    1    2  501    0 -0.93689119863E+02 -0.35216237759E+02  0.15944997457E+00  0.10008926020E+03  0.00000000000E+00 0. -1.
<scales pt_clust_5="13000.00000" pt_clust_6="13000.00000" pt_clust_7="13000.00000" pt_clust_8="13000.00000" pt_clust_9="101.91776"></scales>
<clustering>
<clus scale="   70.927">  5  6 -1 -1</clus>
<clus scale="   72.318">  1  5  2 -1</clus>
<clus scale="   92.076">  7  8 -1 -1</clus>
<clus scale="  101.918">  2  9  1 -1</clus>
<clus scale="  101.918">  2  5  1 -1</clus>
</clustering>
</event>
<event>
 9    1  0.7835476E-005  0.1006277E+03  0.7546771E-02  0.1282464E+00
         -2   -1    0    0    0  501 -0.00000000000E+00  0.00000000000E+00  0.33936335096E+03  0.33936335096E+03  0.00000000000E+00 0.  1.
         21   -1    0    0  501  502  0.00000000000E+00 -0.00000000000E+00 -0.63808347399E+02  0.63808347399E+02  0.00000000000E+00 0.  1.
         23    2    1    2    0    0 -0.38399357729E+02 -0.27390338577E+02  0.26439943879E+03  0.28325592005E+03  0.90011730851E+02 0.  0.
        -24    2    1    2    0    0  0.41480601111E+02  0.17237333641E+01  0.14996911258E+02  0.93781038465E+02  0.82742759822E+02 0.  0.
         11    1    4    4    0    0  0.37238049782E+02  0.36294338823E+02  0.24781619550E+02  0.57602778143E+02  0.00000000000E+00 0. -1.
        -12    1    4    4    0    0  0.42425513292E+01 -0.34570605459E+02 -0.97847082920E+01  0.36178260322E+02  0.00000000000E+00 0.  1.
        -13    1    3    3    0    0 -0.12848319124E+02  0.27646696842E+02  0.37216488598E+02  0.48109106977E+02  0.00000000000E+00 0. -1.
         13    1    3    3    0    0 -0.25551038605E+02 -0.55037035419E+02  0.22718295019E+03  0.23514681307E+03  0.00000000000E+00 0.  1.
         -1    1    1    2    0  502 -0.30812433822E+01  0.25666605213E+02 -0.38413464842E+01  0.26134739845E+02  0.00000000000E+00 0.  1.
<scales pt_clust_5="13000.00000" pt_clust_6="13000.00000" pt_clust_7="13000.00000" pt_clust_8="13000.00000" pt_clust_9="25.85089"></scales>
<clustering>
<clus scale="   25.851">  2  9  1 -1</clus>
<clus scale="   82.743">  5  6 -1 -1</clus>
<clus scale="   90.012">  7  8 -1 -1</clus>
<clus scale="   94.182">  2  5  1 -1</clus>
<clus scale="   25.851">  2  5  1 -1</clus>
</clustering>
</event>
<event>
 9    1  0.7835476E-005  0.1103508E+03  0.7546771E-02  0.1263564E+00
         -2   -1    0    0    0  501 -0.00000000000E+00  0.00000000000E+00  0.11267468595E+03  0.11267468595E+03  0.00000000000E+00 0.  1.
         21   -1    0    0  501  502  0.00000000000E+00 -0.00000000000E+00 -0.12864624489E+03  0.12864624489E+03  0.00000000000E+00 0. -1.
         23    2    1    2    0    0 -0.92883932813E+00 -0.57455197191E+02  0.25758776450E+00  0.10674308700E+03  0.89955866086E+02 0.  0.
        -24    2    1    2    0    0 -0.14646187193E+02  0.71608931053E+02 -0.25398076273E+02  0.11162182279E+03  0.80448861009E+02 0.  0.
         13    1    4    4    0    0 -0.17155537021E+02  0.12162695826E+02 -0.44427806779E+02  0.49153571950E+02  0.00000000000E+00 0. -1.
        -14    1    4    4    0    0  0.25093498282E+01  0.59446235227E+02  0.19029730506E+02  0.62468250835E+02  0.00000000000E+00 0.  1.
        -13    1    3    3    0    0  0.17961762237E+02 -0.27127622999E+02  0.41138323275E+02  0.52448970191E+02  0.00000000000E+00 0.  1.
         13    1    3    3    0    0 -0.18890601565E+02 -0.30327574192E+02 -0.40880735510E+02  0.54294116805E+02  0.00000000000E+00 0. -1.
         -1    1    1    2    0  502  0.15575026521E+02 -0.14153733862E+02  0.91689295634E+01  0.22956021056E+02  0.00000000000E+00 0.  1.
<scales pt_clust_5="13000.00000" pt_clust_6="13000.00000" pt_clust_7="13000.00000" pt_clust_8="13000.00000" pt_clust_9="21.04543"></scales>
<clustering>
<clus scale="   21.045">  2  9  1 -1</clus>
<clus scale="   80.449">  5  6 -1 -1</clus>
<clus scale="   89.956">  7  8 -1 -1</clus>
<clus scale="  102.749">  2  5  1 -1</clus>
<clus scale="   21.045">  2  5  1 -1</clus>
</clustering>
</event>
<event>
 9    1  0.7835476E-005  0.2578680E+03  0.7546771E-02  0.1108431E+00
         21   -1    0    0  501  502  0.00000000000E+00  0.00000000000E+00  0.54700913524E+03  0.54700913524E+03  0.00000000000E+00 0. -1.
          1   -1    0    0  502    0 -0.00000000000E+00 -0.00000000000E+00 -0.87551323841E+02  0.87551323841E+02  0.00000000000E+00 0. -1.
        -24    2    1    2    0    0  0.10484021917E+03  0.20485678791E+02  0.16376402176E+03  0.21125207709E+03  0.79985315275E+02 0.  0.
         23    2    1    2    0    0  0.66639264995E+02  0.97917260629E+01  0.59328094573E+02  0.12972589522E+03  0.93660640330E+02 0.  0.
         13    1    3    3    0    0  0.11369484461E+03  0.29217739182E+01  0.14157603032E+03  0.18160073462E+03  0.00000000000E+00 0. -1.
        -14    1    3    3    0    0 -0.88546254374E+01  0.17563904873E+02  0.22187991442E+02  0.29651342470E+02  0.00000000000E+00 0.  1.
        -13    1    4    4    0    0 -0.52701418839E+01 -0.31337877552E+02  0.23221811701E+02  0.39358474355E+02  0.00000000000E+00 0. -1.
         13    1    4    4    0    0  0.71909406879E+02  0.41129603614E+02  0.36106282872E+02  0.90367420866E+02  0.00000000000E+00 0.  1.
          2    1    1    2  501    0 -0.17147948417E+03 -0.30277404854E+02  0.23636569506E+03  0.29358248677E+03  0.00000000000E+00 0. -1.
<scales pt_clust_5="13000.00000" pt_clust_6="13000.00000" pt_clust_7="13000.00000" pt_clust_8="13000.00000" pt_clust_9="174.13195"></scales>
<clustering>
<clus scale="   79.985">  5  6 -1 -1</clus>
<clus scale="   93.661">  7  8 -1 -1</clus>
<clus scale="  110.156">  5  7 -1 -1</clus>
<clus scale="  174.132">  1  9  2 -1</clus>
<clus scale="  174.132">  1  5  2 -1</clus>
</clustering>
</event>
<event>
 9    1  0.7835476E-005  0.1448176E+03  0.7546771E-02  0.1208976E+00
          1   -1    0    0  502    0 -0.00000000000E+00  0.00000000000E+00  0.65716493073E+03  0.65716493073E+03  0.00000000000E+00 0. -1.
         21   -1    0    0  501  502  0.00000000000E+00 -0.00000000000E+00 -0.49037035943E+02  0.49037035943E+02  0.00000000000E+00 0. -1.
         23    2    1    2    0    0  0.32829720776E+02  0.88688125793E+02  0.16308911282E+03  0.20938653908E+03  0.91111414246E+02 0.  0.
        -24    2    1    2    0    0 -0.54079413340E+02 -0.11996342054E+03  0.22165014704E+03  0.27024937605E+03  0.81179630197E+02 0.  0.
         13    1    4    4    0    0 -0.60082358557E+02 -0.73990536200E+02  0.91644842180E+02  0.13222430319E+03  0.00000000000E+00 0. -1.
        -14    1    4    4    0    0  0.60029452169E+01 -0.45972884336E+02  0.13000530486E+03  0.13802507285E+03  0.00000000000E+00 0.  1.
        -11    1    3    3    0    0  0.42562667191E+02  0.46062108316E+02  0.30431464999E+02  0.69709199701E+02  0.00000000000E+00 0. -1.
         11    1    3    3    0    0 -0.97329464145E+01  0.42626017477E+02  0.13265764782E+03  0.13967733938E+03  0.00000000000E+00 0.  1.
          2    1    1    2  501    0  0.21249692563E+02  0.31275294743E+02  0.22338863494E+03  0.22656605155E+03  0.00000000000E+00 0. -1.
<scales pt_clust_5="13000.00000" pt_clust_6="13000.00000" pt_clust_7="13000.00000" pt_clust_8="13000.00000" pt_clust_9="37.81131"></scales>
<clustering>
<clus scale="   37.811">  2  9  1 -1</clus>
<clus scale="   81.180">  5  6 -1 -1</clus>
<clus scale="   91.111">  7  8 -1 -1</clus>
<clus scale="  138.784">  2  5  1 -1</clus>
<clus scale="   37.811">  2  5  1 -1</clus>
</clustering>
</event>
<event>
 9    1  0.7835476E-005  0.3066720E+03  0.7546771E-02  0.1082341E+00
         21   -1    0    0  501  502  0.00000000000E+00  0.00000000000E+00  0.79721870229E+03  0.79721870229E+03  0.00000000000E+00 0. -1.
          1   -1    0    0  502    0 -0.00000000000E+00 -0.00000000000E+00 -0.27435883387E+03  0.27435883387E+03  0.00000000000E+00 0. -1.
         23    2    1    2    0    0  0.19455616634E+03 -0.29718668589E+03 -0.30362503124E+00  0.36737158604E+03  0.93753730126E+02 0.  0.
        -24    2    1    2    0    0 -0.45285097756E+02  0.22755157851E+03  0.13131104285E+03  0.27914213945E+03  0.82748311683E+02 0.  0.
         11    1    4    4    0    0 -0.55610048082E+02  0.11786371995E+03  0.40810110322E+02  0.13656426705E+03  0.00000000000E+00 0. -1.
        -12    1    4    4    0    0  0.10324950326E+02  0.10968785855E+03  0.90500932524E+02  0.14257787241E+03  0.00000000000E+00 0.  1.
        -13    1    3    3    0    0  0.16795019165E+03 -0.29099831095E+03 -0.15060143431E+02  0.33632438474E+03  0.00000000000E+00 0. -1.
         13    1    3    3    0    0  0.26605974682E+02 -0.61883749397E+01  0.14756518400E+02  0.31047201299E+02  0.00000000000E+00 0.  1.
          2    1    1    2  501    0 -0.14927106858E+03  0.69635107380E+02  0.39185245061E+03  0.42506381067E+03  0.00000000000E+00 0. -1.
<scales pt_clust_5="13000.00000" pt_clust_6="13000.00000" pt_clust_7="13000.00000" pt_clust_8="13000.00000" pt_clust_9="164.71460"></scales>
<clustering>
<clus scale="   82.748">  5  6 -1 -1</clus>
<clus scale="   93.754">  7  8 -1 -1</clus>
<clus scale="  164.715">  1  9  2 -1</clus>
<clus scale="  303.488">  1  5  2 -1</clus>
<clus scale="  164.715">  1  5  2 -1</clus>
</clustering>
</event>
<event>
 9    1  0.7835476E-005  0.2011814E+03  0.7546771E-02  0.1149921E+00
         21   -1    0    0  501  502  0.00000000000E+00  0.00000000000E+00  0.16811750579E+03  0.16811750579E+03  0.00000000000E+00 0. -1.
          1   -1    0    0  502    0 -0.00000000000E+00 -0.00000000000E+00 -0.92228628719E+03  0.92228628719E+03  0.00000000000E+00 0. -1.
         23    2    1    2    0    0 -0.22558794023E+03 -0.51311003194E+02 -0.70719046082E+03  0.74983089660E+03  0.92764690403E+02 0.  0.
        -24    2    1    2    0    0  0.10607249363E+03  0.24183076556E+02 -0.13399411106E+03  0.19026782602E+03  0.80070148784E+02 0.  0.
         13    1    4    4    0    0  0.27068330659E+02 -0.16717001295E+02 -0.30479874662E+01  0.31960020097E+02  0.00000000000E+00 0. -1.
        -14    1    4    4    0    0  0.79004162968E+02  0.40900077851E+02 -0.13094612359E+03  0.15830780593E+03  0.00000000000E+00 0.  1.
        -11    1    3    3    0    0 -0.14676365734E+03  0.91048968172E+01 -0.47643934208E+03  0.49861499871E+03  0.00000000000E+00 0. -1.
         11    1    3    3    0    0 -0.78824282894E+02 -0.60415900012E+02 -0.23075111875E+03  0.25121589789E+03  0.00000000000E+00 0.  1.
          2    1    1    2  501    0  0.11951544661E+03  0.27127926638E+02  0.87015790478E+02  0.15030507035E+03  0.00000000000E+00 0. -1.
<scales pt_clust_5="13000.00000" pt_clust_6="13000.00000" pt_clust_7="13000.00000" pt_clust_8="13000.00000" pt_clust_9="122.55556"></scales>
<clustering>
<clus scale="   80.070">  5  6 -1 -1</clus>
<clus scale="   92.765">  7  8 -1 -1</clus>
<clus scale="  122.556">  1  9  2 -1</clus>
<clus scale="  195.652">  1  5  2 -1</clus>
<clus scale="  122.556">  1  5  2 -1</clus>
</clustering>
</event>
<event>
 9    1  0.7835476E-005  0.1216629E+03  0.7546771E-02  0.1243128E+00
         -2   -1    0    0    0  501 -0.00000000000E+00  0.00000000000E+00  0.20276490958E+03  0.20276490958E+03  0.00000000000E+00 0.  1.
         21   -1    0    0  501  502  0.00000000000E+00 -0.00000000000E+00 -0.18054880424E+03  0.18054880424E+03  0.00000000000E+00 0. -1.
         23    2    1    2    0    0  0.20582985547E+02  0.78579315011E+02  0.14331265017E+03  0.18737774246E+03  0.89294650616E+02 0.  0.
        -24    2    1    2    0    0 -0.20628476167E+01 -0.91328657975E+02 -0.70237565322E+02  0.14032862425E+03  0.80085130298E+02 0.  0.
         13    1    4    4    0    0  0.80758109232E+01 -0.43008298384E+02 -0.78880110292E+02  0.90205344917E+02  0.00000000000E+00 0. -1.
        -14    1    4    4    0    0 -0.10138658540E+02 -0.48320359591E+02  0.86425449692E+01  0.50123279338E+02  0.00000000000E+00 0.  1.
        -11    1    3    3    0    0  0.28522901684E+01  0.95461056937E+02  0.12187057224E+03  0.15483341154E+03  0.00000000000E+00 0.  1.
         11    1    3    3    0    0  0.17730695379E+02 -0.16881741927E+02  0.21442077938E+02  0.32544330925E+02  0.00000000000E+00 0. -1.
         -1    1    1    2    0  502 -0.18520137931E+02  0.12749342964E+02 -0.50858979517E+02  0.55607347109E+02  0.00000000000E+00 0.  1.
<scales pt_clust_5="13000.00000" pt_clust_6="13000.00000" pt_clust_7="13000.00000" pt_clust_8="13000.00000" pt_clust_9="22.48424"></scales>
<clustering>
<clus scale="   22.484">  2  9  1 -1</clus>
<clus scale="   80.085">  5  6 -1 -1</clus>
<clus scale="   89.295">  7  8 -1 -1</clus>
<clus scale="  115.074">  2  5  1 -1</clus>
<clus scale="   22.484">  2  5  1 -1</clus>
</clustering>
</event>
<event>
 9    1  0.7835476E-005  0.1590591E+03  0.7546771E-02  0.1215233E+00
         21   -1    0    0  501  502  0.00000000000E+00  0.00000000000E+00  0.32622302967E+02  0.32622302967E+02  0.00000000000E+00 0. -1.
          1   -1    0    0  502    0 -0.00000000000E+00 -0.00000000000E+00 -0.14063021681E+04  0.14063021681E+04  0.00000000000E+00 0. -1.
        -24    2    1    2    0    0 -0.44377419542E+02 -0.67560714213E+01 -0.57906843139E+03  0.58628205970E+03  0.79946265862E+02 0.  0.
         23    2    1    2    0    0 -0.10656915288E+02 -0.12463915295E+03 -0.29609854121E+03  0.33417487427E+03  0.91378401152E+02 0.  0.
         13    1    3    3    0    0  0.94807231438E+01  0.24490667160E+02 -0.10959983688E+03  0.11270226765E+03  0.00000000000E+00 0. -1.
        -14    1    3    3    0    0 -0.53858142685E+02 -0.31246738581E+02 -0.46946859451E+03  0.47357979205E+03  0.00000000000E+00 0.  1.
        -13    1    4    4    0    0  0.15168875696E+02 -0.12482078425E+03 -0.26787747555E+03  0.29592003122E+03  0.00000000000E+00 0. -1.
         13    1    4    4    0    0 -0.25825790984E+02  0.18163130140E+00 -0.28221065657E+02  0.38254843048E+02  0.00000000000E+00 0.  1.
          2    1    1    2  501    0  0.55034334829E+02  0.13139522437E+03 -0.49851289253E+03  0.51846753709E+03  0.00000000000E+00 0. -1.
<scales pt_clust_5="13000.00000" pt_clust_6="13000.00000" pt_clust_7="13000.00000" pt_clust_8="13000.00000" pt_clust_9="130.19135"></scales>
<clustering>
<clus scale="   79.946">  5  6 -1 -1</clus>
<clus scale="   91.378">  7  8 -1 -1</clus>
<clus scale="   91.686">  2  5  1 -1</clus>
<clus scale="  130.191">  1  9  2 -1</clus>
<clus scale="  130.191">  1  5  2 -1</clus>
</clustering>
</event>
<event>
 9    1  0.7835476E-005  0.1134146E+03  0.7546771E-02  0.1261284E+00
         -2   -1    0    0    0  501 -0.00000000000E+00  0.00000000000E+00  0.85646167034E+02  0.85646167034E+02  0.00000000000E+00 0.  1.
         21   -1    0    0  501  502  0.00000000000E+00 -0.00000000000E+00 -0.26742295551E+03  0.26742295551E+03  0.00000000000E+00 0.  1.
         23    2    1    2    0    0 -0.46037604651E+02  0.25186918068E+02 -0.44833310213E+02  0.11443848833E+03  0.91281433070E+02 0.  0.
        -24    2    1    2    0    0  0.41400529116E+02 -0.93342695629E+02 -0.10390873588E+03  0.16274910360E+03  0.72549174295E+02 0.  0.
         13    1    4    4    0    0  0.47332550503E+02 -0.78178313410E+02 -0.45456386820E+02  0.10207106411E+03  0.00000000000E+00 0. -1.
        -14    1    4    4    0    0 -0.59320213866E+01 -0.15164382219E+02 -0.58452349063E+02  0.60678039494E+02  0.00000000000E+00 0.  1.
        -11    1    3    3    0    0 -0.72241561246E+02  0.61984773743E+01 -0.26191927058E+02  0.77092680171E+02  0.00000000000E+00 0.  1.
         11    1    3    3    0    0  0.26203956595E+02  0.18988440694E+02 -0.18641383155E+02  0.37345808161E+02  0.00000000000E+00 0. -1.
         -1    1    1    2    0  502  0.46370755342E+01  0.68155777561E+02 -0.33034742381E+02  0.75881530616E+02  0.00000000000E+00 0.  1.
<scales pt_clust_5="13000.00000" pt_clust_6="13000.00000" pt_clust_7="13000.00000" pt_clust_8="13000.00000" pt_clust_9="68.31337"></scales>
<clustering>
<clus scale="   68.313">  2  9  1 -1</clus>
<clus scale="   72.549">  5  6 -1 -1</clus>
<clus scale="   91.281">  7  8 -1 -1</clus>
<clus scale="   98.964">  2  5  1 -1</clus>
<clus scale="   68.313">  2  5  1 -1</clus>
</clustering>
</event>
<event>
 9    1  0.7835476E-005  0.1053493E+03  0.7546771E-02  0.1275203E+00
         21   -1    0    0  501  502  0.00000000000E+00  0.00000000000E+00  0.54067864272E+02  0.54067864272E+02  0.00000000000E+00 0. -1.
          1   -1    0    0  502    0 -0.00000000000E+00 -0.00000000000E+00 -0.61551825422E+03  0.61551825422E+03  0.00000000000E+00 0. -1.
        -24    2    1    2    0    0 -0.82880233709E+01  0.59014276356E+02 -0.48236107336E+03  0.49206339285E+03  0.76829690516E+02 0.  0.
         23    2    1    2    0    0  0.25991437639E+02 -0.29470689785E+02 -0.97524269853E+02  0.13845762759E+03  0.90085820424E+02 0.  0.
         13    1    3    3    0    0 -0.39436632908E+02  0.52070033747E+02 -0.32324903860E+03  0.32978246979E+03  0.00000000000E+00 0. -1.
        -14    1    3    3    0    0  0.31148609537E+02  0.69442426087E+01 -0.15911203476E+03  0.16228092306E+03  0.00000000000E+00 0.  1.
        -11    1    4    4    0    0  0.16379512916E+02 -0.47642719790E+02 -0.10509814222E+03  0.11654928868E+03  0.00000000000E+00 0.  1.
         11    1    4    4    0    0  0.96119247227E+01  0.18172030005E+02  0.75738723704E+01  0.21908338916E+02  0.00000000000E+00 0. -1.
          2    1    1    2  501    0 -0.17703414268E+02 -0.29543586571E+02  0.18434953259E+02  0.39065098053E+02  0.00000000000E+00 0. -1.
<scales pt_clust_5="13000.00000" pt_clust_6="13000.00000" pt_clust_7="13000.00000" pt_clust_8="13000.00000" pt_clust_9="34.44175"></scales>
<clustering>
<clus scale="   34.442">  1  9  2 -1</clus>
<clus scale="   76.830">  5  6 -1 -1</clus>
<clus scale="   90.086">  7  8 -1 -1</clus>
<clus scale="   94.265">  2  5  1 -1</clus>
<clus scale="   34.442">  1  5  2 -1</clus>
</clustering>
</event>
<event>
 9    1  0.7835476E-005  0.1126297E+03  0.7546771E-02  0.1265850E+00
          1   -1    0    0  502    0 -0.00000000000E+00  0.00000000000E+00  0.64120496089E+03  0.64120496089E+03  0.00000000000E+00 0. -1.
         21   -1    0    0  501  502  0.00000000000E+00 -0.00000000000E+00 -0.25404168538E+02  0.25404168538E+02  0.00000000000E+00 0. -1.
        -24    2    1    2    0    0  0.28550614134E+02 -0.35559379452E+02  0.33922952108E+03  0.35161674539E+03  0.80486400316E+02 0.  0.
         23    2    1    2    0    0  0.99853836458E+00  0.53568112299E+02  0.21319782363E+03  0.24278670048E+03  0.10306080823E+03 0.  0.
         13    1    3    3    0    0 -0.12802761528E+02 -0.36490330166E+02  0.77216807988E+02  0.86359077892E+02  0.00000000000E+00 0. -1.
        -14    1    3    3    0    0  0.41353375662E+02  0.93095071405E+00  0.26201271309E+03  0.26525766750E+03  0.00000000000E+00 0.  1.
        -11    1    4    4    0    0 -0.46297563473E+02  0.10371435988E+02  0.58289880680E+02  0.75158108396E+02  0.00000000000E+00 0.  1.
         11    1    4    4    0    0  0.47296101838E+02  0.43196676311E+02  0.15490794295E+03  0.16762859208E+03  0.00000000000E+00 0. -1.
          2    1    1    2  501    0 -0.29549152498E+02 -0.18008732847E+02  0.63373447644E+02  0.72205683561E+02  0.00000000000E+00 0. -1.
<scales pt_clust_5="13000.00000" pt_clust_6="13000.00000" pt_clust_7="13000.00000" pt_clust_8="13000.00000" pt_clust_9="34.60443"></scales>
<clustering>
<clus scale="   34.604">  2  9  1 -1</clus>
<clus scale="   80.486">  5  6 -1 -1</clus>
<clus scale="   92.423">  1  5  2 -1</clus>
<clus scale="  103.061">  7  8 -1 -1</clus>
<clus scale="   34.604">  2  5  1 -1</clus>
</clustering>
</event>
<event>
 9    1  0.7835476E-005  0.1142236E+03  0.7546771E-02  0.1256383E+00
         -2   -1    0    0    0  501 -0.00000000000E+00  0.00000000000E+00  0.49373828684E+03  0.49373828684E+03  0.00000000000E+00 0.  1.
         21   -1    0    0  501  502  0.00000000000E+00 -0.00000000000E+00 -0.10513337838E+03  0.10513337838E+03  0.00000000000E+00 0.  1.
         23    2    1    2    0    0  0.29416913041E+02  0.61655211657E+02  0.33082831576E+03  0.34977066757E+03  0.90694131490E+02 0.  0.
        -24    2    1    2    0    0 -0.97497335029E+02 -0.37019141985E+02 -0.29900592990E+02  0.13539449530E+03  0.81002942444E+02 0.  0.
         11    1    4    4    0    0 -0.24474081151E+02  0.42372074306E+01 -0.43825402741E+02  0.50374601739E+02  0.00000000000E+00 0. -1.
        -12    1    4    4    0    0 -0.73023253878E+02 -0.41256349415E+02  0.13924809751E+02  0.85019893558E+02  0.00000000000E+00 0.  1.
        -11    1    3    3    0    0  0.29685576751E+02 -0.14269157043E+02  0.59368518080E+02  0.67893027983E+02  0.00000000000E+00 0. -1.
         11    1    3    3    0    0 -0.26866370992E+00  0.75924368700E+02  0.27145979768E+03  0.28187763958E+03  0.00000000000E+00 0.  1.
         -1    1    1    2    0  502  0.68080421988E+02 -0.24636069672E+02  0.87677185698E+02  0.11370650236E+03  0.00000000000E+00 0.  1.
<scales pt_clust_5="13000.00000" pt_clust_6="13000.00000" pt_clust_7="13000.00000" pt_clust_8="13000.00000" pt_clust_9="72.40086"></scales>
<clustering>
<clus scale="   72.401">  2  9  1 -1</clus>
<clus scale="   81.003">  5  6 -1 -1</clus>
<clus scale="   90.694">  7  8 -1 -1</clus>
<clus scale="  106.692">  2  5  1 -1</clus>
<clus scale="   72.401">  2  5  1 -1</clus>
</clustering>
</event>
<event>
 9    1  0.7835476E-005  0.1189764E+03  0.7546771E-02  0.1248330E+00
         21   -1    0    0  501  502  0.00000000000E+00  0.00000000000E+00  0.35257106793E+03  0.35257106793E+03  0.00000000000E+00 0.  1.
          1   -1    0    0  502    0 -0.00000000000E+00 -0.00000000000E+00 -0.10413488230E+03  0.10413488230E+03  0.00000000000E+00 0. -1.
         23    2    1    2    0    0 -0.43669062585E+02 -0.64615532195E+02 -0.46748512983E+02  0.12983526826E+03  0.92680199562E+02 0.  0.
        -24    2    1    2    0    0  0.13013147430E+02  0.61496908410E+02  0.17889040643E+03  0.20656327013E+03  0.81947515538E+02 0.  0.
         11    1    4    4    0    0 -0.19694840187E+02 -0.10408698970E+02  0.58215905840E+02  0.62332330592E+02  0.00000000000E+00 0. -1.
        -12    1    4    4    0    0  0.32707987616E+02  0.71905607380E+02  0.12067450059E+03  0.14423093954E+03  0.00000000000E+00 0.  1.
        -13    1    3    3    0    0 -0.38573108695E+02  0.11982903997E+02 -0.32303479692E+02  0.51720300684E+02  0.00000000000E+00 0.  1.
         13    1    3    3    0    0 -0.50959538897E+01 -0.76598436192E+02 -0.14445033291E+02  0.78114967579E+02  0.00000000000E+00 0. -1.
          2    1    1    2  501    0  0.30655915155E+02  0.31186237848E+01  0.11629429218E+03  0.12030741184E+03  0.00000000000E+00 0. -1.
<scales pt_clust_5="13000.00000" pt_clust_6="13000.00000" pt_clust_7="13000.00000" pt_clust_8="13000.00000" pt_clust_9="30.81414"></scales>
<clustering>
<clus scale="   30.814">  1  9  2 -1</clus>
<clus scale="   81.948">  5  6 -1 -1</clus>
<clus scale="   92.680">  7  8 -1 -1</clus>
<clus scale="  110.820">  1  5  2 -1</clus>
<clus scale="   30.814">  1  5  2 -1</clus>
</clustering>
</event>
<event>
 9    1  0.7835476E-005  0.1585868E+03  0.7546771E-02  0.1219875E+00
          1   -1    0    0  502    0 -0.00000000000E+00  0.00000000000E+00  0.76187824467E+03  0.76187824467E+03  0.00000000000E+00 0. -1.
         21   -1    0    0  501  502  0.00000000000E+00 -0.00000000000E+00 -0.47882878918E+02  0.47882878918E+02  0.00000000000E+00 0. -1.
        -24    2    1    2    0    0 -0.23833253434E+02  0.66184267061E+01  0.14767811696E+03  0.16983854201E+03  0.80152832658E+02 0.  0.
         23    2    1    2    0    0 -0.41127743774E+02 -0.12022716685E+03  0.22873337951E+03  0.27785940229E+03  0.93492382471E+02 0.  0.
         13    1    3    3    0    0  0.20849818384E+02 -0.21320244816E+02  0.39357041130E+02  0.49378582930E+02  0.00000000000E+00 0. -1.
        -14    1    3    3    0    0 -0.44683071818E+02  0.27938671522E+02  0.10832107583E+03  0.12045995908E+03  0.00000000000E+00 0.  1.
        -11    1    4    4    0    0 -0.34701703078E+02 -0.64459810667E+02  0.20358520292E+03  0.21634742946E+03  0.00000000000E+00 0.  1.
         11    1    4    4    0    0 -0.64260406957E+01 -0.55767356187E+02  0.25148176594E+02  0.61511972828E+02  0.00000000000E+00 0. -1.
          2    1    1    2  501    0  0.64960997208E+02  0.11360874015E+03  0.33758386928E+03  0.36206317929E+03  0.00000000000E+00 0. -1.
<scales pt_clust_5="13000.00000" pt_clust_6="13000.00000" pt_clust_7="13000.00000" pt_clust_8="13000.00000" pt_clust_9="128.09746"></scales>
<clustering>
<clus scale="   80.153">  5  6 -1 -1</clus>
<clus scale="   83.883">  1  5  2 -1</clus>
<clus scale="   93.492">  7  8 -1 -1</clus>
<clus scale="  128.097">  2  9  1 -1</clus>
<clus scale="  128.097">  2  5  1 -1</clus>
</clustering>
</event>
<event>
 9    1  0.7835476E-005  0.9724084E+02  0.7546771E-02  0.1292040E+00
         21   -1    0    0  501  502  0.00000000000E+00  0.00000000000E+00  0.29540951988E+03  0.29540951988E+03  0.00000000000E+00 0.  1.
          3   -1    0    0  502    0 -0.00000000000E+00 -0.00000000000E+00 -0.75678746561E+02  0.75678746561E+02  0.00000000000E+00 0. -1.
         23    2    1    2    0    0 -0.25603284898E+02  0.22298635185E+01 -0.12814374342E+02  0.96973760574E+02  0.92623979407E+02 0.  0.
        -24    2    1    2    0    0  0.49912740153E+02 -0.15900351386E+02  0.22513534166E+03  0.24525732169E+03  0.81982491898E+02 0.  0.
         13    1    4    4    0    0  0.12313598006E+02 -0.44238066201E+02  0.75281745661E+02  0.88181474397E+02  0.00000000000E+00 0. -1.
        -14    1    4    4    0    0  0.37599142148E+02  0.28337714815E+02  0.14985359600E+03  0.15707584730E+03  0.00000000000E+00 0.  1.
        -13    1    3    3    0    0 -0.55773315327E+01  0.36375784546E+02  0.23161731224E+02  0.43482986577E+02  0.00000000000E+00 0.  1.
         13    1    3    3    0    0 -0.20025953365E+02 -0.34145921028E+02 -0.35976105566E+02  0.53490773996E+02  0.00000000000E+00 0. -1.
          4    1    1    2  501    0 -0.24309455255E+02  0.13670487868E+02  0.74098060045E+01  0.28857184173E+02  0.00000000000E+00 0. -1.
<scales pt_clust_5="13000.00000" pt_clust_6="13000.00000" pt_clust_7="13000.00000" pt_clust_8="13000.00000" pt_clust_9="27.88965"></scales>
<clustering>
<clus scale="   27.890">  1  9  2 -1</clus>
<clus scale="   81.982">  5  6 -1 -1</clus>
<clus scale="   87.165">  1  5  2 -1</clus>
<clus scale="   92.624">  7  8 -1 -1</clus>
<clus scale="   27.890">  1  5  2 -1</clus>
</clustering>
</event>
<event>
 9    1  0.7835476E-005  0.1251249E+03  0.7546771E-02  0.1237598E+00
          1   -1    0    0  502    0 -0.00000000000E+00  0.00000000000E+00  0.71385577391E+03  0.71385577391E+03  0.00000000000E+00 0. -1.
         21   -1    0    0  501  502  0.00000000000E+00 -0.00000000000E+00 -0.60542734209E+02  0.60542734209E+02  0.00000000000E+00 0.  1.
         23    2    1    2    0    0  0.55407142355E+02 -0.59731371448E+02  0.39352711470E+03  0.41178880829E+03  0.89825633717E+02 0.  0.
        -24    2    1    2    0    0 -0.44730933222E+02  0.11466983302E+03  0.66197960976E+02  0.16109415249E+03  0.80119466661E+02 0.  0.
         11    1    4    4    0    0 -0.22588704377E+02  0.42836067007E+02  0.70807616968E+02  0.85784012629E+02  0.00000000000E+00 0. -1.
        -12    1    4    4    0    0 -0.22142228845E+02  0.71833766015E+02 -0.46096559918E+01  0.75310139865E+02  0.00000000000E+00 0.  1.
        -13    1    3    3    0    0  0.71435814735E+02 -0.71730909782E+02  0.32627533619E+03  0.34161966286E+03  0.00000000000E+00 0.  1.
         13    1    3    3    0    0 -0.16028672380E+02  0.11999538333E+02  0.67251778508E+02  0.70169145434E+02  0.00000000000E+00 0. -1.
          2    1    1    2  501    0 -0.10676209132E+02 -0.54938461573E+02  0.19358796403E+03  0.20151554733E+03  0.00000000000E+00 0. -1.
<scales pt_clust_5="13000.00000" pt_clust_6="13000.00000" pt_clust_7="13000.00000" pt_clust_8="13000.00000" pt_clust_9="55.96623"></scales>
<clustering>
<clus scale="   55.966">  2  9  1 -1</clus>
<clus scale="   80.119">  5  6 -1 -1</clus>
<clus scale="   89.826">  7  8 -1 -1</clus>
<clus scale="  118.350">  2  5  1 -1</clus>
<clus scale="   55.966">  2  5  1 -1</clus>
</clustering>
</event>
<event>
 9    1  0.7835476E-005  0.1339226E+03  0.7546771E-02  0.1228267E+00
         21   -1    0    0  501  502  0.00000000000E+00  0.00000000000E+00  0.25066226725E+03  0.25066226725E+03  0.00000000000E+00 0.  1.
          3   -1    0    0  502    0 -0.00000000000E+00 -0.00000000000E+00 -0.17302963427E+03  0.17302963427E+03  0.00000000000E+00 0. -1.
         23    2    1    2    0    0 -0.76661671090E+01  0.10233308022E+03 -0.11707218443E+03  0.18159248133E+03  0.93483172182E+02 0.  0.
        -24    2    1    2    0    0 -0.19717674787E+02 -0.69536941421E+02  0.11298277162E+03  0.14988253300E+03  0.66899133725E+02 0.  0.
         13    1    4    4    0    0  0.15973449258E+02 -0.47219392559E+02  0.87422723438E+02  0.10063575253E+03  0.00000000000E+00 0. -1.
        -14    1    4    4    0    0 -0.35691124045E+02 -0.22317548862E+02  0.25560048184E+02  0.49246780463E+02  0.00000000000E+00 0.  1.
        -13    1    3    3    0    0  0.21035790304E+02  0.10447633321E+03 -0.10720934882E+03  0.15116763262E+03  0.00000000000E+00 0. -1.
         13    1    3    3    0    0 -0.28701957413E+02 -0.21432529988E+01 -0.98628356119E+01  0.30424848710E+02  0.00000000000E+00 0.  1.
          4    1    1    2  501    0  0.27383841896E+02 -0.32796138794E+02  0.81722045794E+02  0.92216887203E+02  0.00000000000E+00 0. -1.
<scales pt_clust_5="13000.00000" pt_clust_6="13000.00000" pt_clust_7="13000.00000" pt_clust_8="13000.00000" pt_clust_9="42.72542"></scales>
<clustering>
<clus scale="   42.725">  1  9  2 -1</clus>
<clus scale="   66.899">  5  6 -1 -1</clus>
<clus scale="   93.483">  7  8 -1 -1</clus>
<clus scale="  116.926">  1  5  2 -1</clus>
<clus scale="   42.725">  1  5  2 -1</clus>
</clustering>
</event>
<event>
 9    1  0.7835476E-005  0.2794658E+03  0.7546771E-02  0.1095981E+00
         -2   -1    0    0    0  501 -0.00000000000E+00  0.00000000000E+00  0.60799815046E+03  0.60799815046E+03  0.00000000000E+00 0.  1.
         21   -1    0    0  501  502  0.00000000000E+00 -0.00000000000E+00 -0.10431923780E+03  0.10431923780E+03  0.00000000000E+00 0. -1.
        -24    2    1    2    0    0  0.14236625806E+03 -0.59954178886E+02  0.24379531184E+03  0.29947532326E+03  0.79916582557E+02 0.  0.
         23    2    1    2    0    0  0.50629582217E+02 -0.13853720200E+02  0.13552690517E+03  0.17167907429E+03  0.91383162387E+02 0.  0.
         13    1    3    3    0    0  0.13701206505E+03 -0.76044862730E+02  0.21477627284E+03  0.26586457924E+03  0.00000000000E+00 0. -1.
        -14    1    3    3    0    0  0.53541930025E+01  0.16090683844E+02  0.29019039000E+02  0.33610744023E+02  0.00000000000E+00 0.  1.
        -13    1    4    4    0    0  0.55376807631E+02  0.80819653998E+01  0.29421584570E+02  0.63226091345E+02  0.00000000000E+00 0. -1.
         13    1    4    4    0    0 -0.47472254142E+01 -0.21935685600E+02  0.10610532060E+03  0.10845298295E+03  0.00000000000E+00 0.  1.
         -1    1    1    2    0  502 -0.19299584027E+03  0.73807899086E+02  0.12435669565E+03  0.24116299070E+03  0.00000000000E+00 0.  1.
<scales pt_clust_5="13000.00000" pt_clust_6="13000.00000" pt_clust_7="13000.00000" pt_clust_8="13000.00000" pt_clust_9="206.62769"></scales>
<clustering>
<clus scale="   79.917">  5  6 -1 -1</clus>
<clus scale="   91.383">  7  8 -1 -1</clus>
<clus scale="   91.746">  5  7 -1 -1</clus>
<clus scale="  206.628">  2  9  1 -1</clus>
<clus scale="  206.628">  2  5  1 -1</clus>
</clustering>
</event>
<event>
 9    1  0.7835476E-005  0.2501251E+03  0.7546771E-02  0.1148484E+00
         21   -1    0    0  501  502  0.00000000000E+00  0.00000000000E+00  0.22072365735E+03  0.22072365735E+03  0.00000000000E+00 0.  1.
         -2   -1    0    0    0  501 -0.00000000000E+00 -0.00000000000E+00 -0.49074395906E+03  0.49074395906E+03  0.00000000000E+00 0.  1.
        -24    2    1    2    0    0  0.12244936888E+02 -0.65812366361E+02 -0.15796843690E+03  0.18986850991E+03  0.81331531114E+02 0.  0.
         23    2    1    2    0    0  0.66236423921E+02  0.24634832291E+03  0.38754933634E+02  0.27361675621E+03  0.91046275834E+02 0.  0.
         13    1    3    3    0    0 -0.29689868995E+02 -0.51395999102E+02 -0.10657562458E+03  0.12198934707E+03  0.00000000000E+00 0. -1.
        -14    1    3    3    0    0  0.41934805883E+02 -0.14416367259E+02 -0.51392812323E+02  0.67879162840E+02  0.00000000000E+00 0.  1.
        -13    1    4    4    0    0  0.29674268893E+02  0.51394777320E+02  0.46070135418E+02  0.75129506504E+02  0.00000000000E+00 0. -1.
         13    1    4    4    0    0  0.36562155029E+02  0.19495354559E+03 -0.73152017844E+01  0.19848724971E+03  0.00000000000E+00 0.  1.
         -1    1    1    2    0  502 -0.78481360809E+02 -0.18053595655E+03 -0.15080679844E+03  0.24798235030E+03  0.00000000000E+00 0.  1.
<scales pt_clust_5="13000.00000" pt_clust_6="13000.00000" pt_clust_7="13000.00000" pt_clust_8="13000.00000" pt_clust_9="232.96610"></scales>
<clustering>
<clus scale="   81.332">  5  6 -1 -1</clus>
<clus scale="   91.046">  7  8 -1 -1</clus>
<clus scale="  105.338">  2  5  1 -1</clus>
<clus scale="  232.966">  1  9  2 -1</clus>
<clus scale="  232.966">  1  5  2 -1</clus>
</clustering>
</event>
<event>
 9    1  0.7835476E-005  0.1147060E+03  0.7546771E-02  0.1254344E+00
          1   -1    0    0  502    0 -0.00000000000E+00  0.00000000000E+00  0.31344861938E+03  0.31344861938E+03  0.00000000000E+00 0. -1.
         21   -1    0    0  501  502  0.00000000000E+00 -0.00000000000E+00 -0.13611344436E+03  0.13611344436E+03  0.00000000000E+00 0. -1.
         23    2    1    2    0    0 -0.82369406243E+02  0.20300126789E+02  0.25472370788E+03  0.28226650739E+03  0.87140114770E+02 0.  0.
        -24    2    1    2    0    0  0.33059027925E+02  0.79370488757E+01 -0.27127190154E+02  0.91433483678E+02  0.80425750973E+02 0.  0.
         11    1    4    4    0    0 -0.79578004691E+00  0.35576051481E+02  0.66462204580E+01  0.36200289381E+02  0.00000000000E+00 0. -1.
        -12    1    4    4    0    0  0.33854807972E+02 -0.27639002606E+02 -0.33773410612E+02  0.55233194297E+02  0.00000000000E+00 0.  1.
        -11    1    3    3    0    0 -0.60611327817E+02  0.53272442824E+02  0.14979393499E+03  0.17014672840E+03  0.00000000000E+00 0.  1.
         11    1    3    3    0    0 -0.21758078427E+02 -0.32972316035E+02  0.10492977289E+03  0.11211977899E+03  0.00000000000E+00 0. -1.
          2    1    1    2  501    0  0.49310378318E+02 -0.28237175665E+02 -0.50261342715E+02  0.75862072677E+02  0.00000000000E+00 0. -1.
<scales pt_clust_5="13000.00000" pt_clust_6="13000.00000" pt_clust_7="13000.00000" pt_clust_8="13000.00000" pt_clust_9="56.82298"></scales>
<clustering>
<clus scale="   56.823">  2  9  1 -1</clus>
<clus scale="   80.426">  5  6 -1 -1</clus>
<clus scale="   87.140">  7  8 -1 -1</clus>
<clus scale="  109.692">  2  5  1 -1</clus>
<clus scale="   56.823">  2  5  1 -1</clus>
</clustering>
</event>
<event>
 9    1  0.7835476E-005  0.2007963E+03  0.7546771E-02  0.1150739E+00
          1   -1    0    0  502    0 -0.00000000000E+00  0.00000000000E+00  0.60143055284E+03  0.60143055284E+03  0.00000000000E+00 0. -1.
         21   -1    0    0  501  502  0.00000000000E+00 -0.00000000000E+00 -0.13187215438E+03  0.13187215438E+03  0.00000000000E+00 0.  1.
         23    2    1    2    0    0  0.12873196325E+03 -0.10320941058E+03  0.39005611435E+03  0.43464193592E+03  0.97702299464E+02 0.  0.
        -24    2    1    2    0    0 -0.16517320614E+03  0.14317968037E+03  0.55339533962E+02  0.23942037002E+03  0.80480063783E+02 0.  0.
         13    1    4    4    0    0 -0.72980211129E+02  0.51852823328E+02  0.62927784985E+02  0.10942912147E+03  0.00000000000E+00 0. -1.
        -14    1    4    4    0    0 -0.92192995009E+02  0.91326857041E+02 -0.75882510235E+01  0.12999124855E+03  0.00000000000E+00 0.  1.
        -11    1    3    3    0    0  0.83778319797E+02 -0.11758969391E+03  0.30178318816E+03  0.33454332401E+03  0.00000000000E+00 0. -1.
         11    1    3    3    0    0  0.44953643455E+02  0.14380283324E+02  0.88272926195E+02  0.10009861192E+03  0.00000000000E+00 0.  1.
          2    1    1    2  501    0  0.36441242886E+02 -0.39970269785E+02  0.24162750143E+02  0.59240401284E+02  0.00000000000E+00 0. -1.
<scales pt_clust_5="13000.00000" pt_clust_6="13000.00000" pt_clust_7="13000.00000" pt_clust_8="13000.00000" pt_clust_9="54.08869"></scales>
<clustering>
<clus scale="   54.089">  2  9  1 -1</clus>
<clus scale="   80.480">  5  6 -1 -1</clus>
<clus scale="   97.702">  7  8 -1 -1</clus>
<clus scale="  193.004">  2  5  1 -1</clus>
<clus scale="   54.089">  2  5  1 -1</clus>
</clustering>
</event>
<event>
 9    1  0.7835476E-005  0.9631681E+02  0.7546771E-02  0.1298723E+00
         21   -1    0    0  501  502  0.00000000000E+00  0.00000000000E+00  0.22302051452E+03  0.22302051452E+03  0.00000000000E+00 0. -1.
          3   -1    0    0  502    0 -0.00000000000E+00 -0.00000000000E+00 -0.14174889284E+03  0.14174889284E+03  0.00000000000E+00 0. -1.
         23    2    1    2    0    0 -0.23535844304E+02  0.83363037473E+01 -0.92648636465E+02  0.13428591611E+03  0.93944172243E+02 0.  0.
        -24    2    1    2    0    0  0.13177070438E+02  0.33710795774E+02  0.47630760281E+02  0.96975813410E+02  0.76325396328E+02 0.  0.
         13    1    4    4    0    0 -0.22819898646E+02  0.33244274742E+02  0.41646239395E+01  0.40537312070E+02  0.00000000000E+00 0. -1.
        -14    1    4    4    0    0  0.35996969084E+02  0.46652103178E+00  0.43466136341E+02  0.56438501340E+02  0.00000000000E+00 0.  1.
        -13    1    3    3    0    0  0.31941343106E+02  0.13182699235E+02 -0.12617713446E+02  0.36786405793E+02  0.00000000000E+00 0.  1.
         13    1    3    3    0    0 -0.55477187410E+02 -0.48463954876E+01 -0.80030923019E+02  0.97499510314E+02  0.00000000000E+00 0. -1.
          4    1    1    2  501    0  0.10358773866E+02 -0.42047099521E+02  0.12628949786E+03  0.13350767785E+03  0.00000000000E+00 0. -1.
<scales pt_clust_5="13000.00000" pt_clust_6="13000.00000" pt_clust_7="13000.00000" pt_clust_8="13000.00000" pt_clust_9="43.30430"></scales>
<clustering>
<clus scale="   43.304">  1  9  2 -1</clus>
<clus scale="   76.325">  5  6 -1 -1</clus>
<clus scale="   79.227">  1  5  2 -1</clus>
<clus scale="   93.944">  7  8 -1 -1</clus>
<clus scale="   43.304">  1  5  2 -1</clus>
</clustering>
</event>
<event>
 9    1  0.7835476E-005  0.1002321E+03  0.7546771E-02  0.1288853E+00
         21   -1    0    0  501  502  0.00000000000E+00  0.00000000000E+00  0.33944607927E+02  0.33944607927E+02  0.00000000000E+00 0.  1.
         -2   -1    0    0    0  501 -0.00000000000E+00 -0.00000000000E+00 -0.11603484712E+04  0.11603484712E+04  0.00000000000E+00 0.  1.
        -24    2    1    2    0    0  0.27303714027E+02  0.23149120581E+02 -0.87956967452E+03  0.88346244801E+03  0.74710843375E+02 0.  0.
         23    2    1    2    0    0 -0.22385515839E+02 -0.74891579806E+02 -0.22303810918E+03  0.25366662005E+03  0.92146057623E+02 0.  0.
         11    1    3    3    0    0  0.23525785006E+02  0.24598463948E+02 -0.14729519390E+03  0.15117678768E+03  0.00000000000E+00 0. -1.
        -12    1    3    3    0    0  0.37779290211E+01 -0.14493433670E+01 -0.73227448062E+03  0.73228566033E+03  0.00000000000E+00 0.  1.
        -13    1    4    4    0    0  0.22193431948E+02 -0.34813363642E+02 -0.16551201184E+03  0.17058354192E+03  0.00000000000E+00 0.  1.
         13    1    4    4    0    0 -0.44578947787E+02 -0.40078216164E+02 -0.57526097340E+02  0.83083078132E+02  0.00000000000E+00 0. -1.
         -1    1    1    2    0  502 -0.49181981880E+01  0.51742459226E+02 -0.23796079594E+02  0.57164011092E+02  0.00000000000E+00 0.  1.
<scales pt_clust_5="13000.00000" pt_clust_6="13000.00000" pt_clust_7="13000.00000" pt_clust_8="13000.00000" pt_clust_9="51.97567"></scales>
<clustering>
<clus scale="   51.976">  1  9  2 -1</clus>
<clus scale="   74.711">  5  6 -1 -1</clus>
<clus scale="   84.482">  2  5  1 -1</clus>
<clus scale="   92.146">  7  8 -1 -1</clus>
<clus scale="   51.976">  1  5  2 -1</clus>
</clustering>
</event>
<event>
 9    1  0.7835476E-005  0.2378106E+03  0.7546771E-02  0.1139116E+00
         21   -1    0    0  501  502  0.00000000000E+00  0.00000000000E+00  0.49048339645E+02  0.49048339645E+02  0.00000000000E+00 0. -1.
          1   -1    0    0  502    0 -0.00000000000E+00 -0.00000000000E+00 -0.21757313612E+04  0.21757313612E+04  0.00000000000E+00 0. -1.
        -24    2    1    2    0    0 -0.26637844712E+02 -0.12745289206E+03 -0.70617103249E+03  0.72264087185E+03  0.81107879294E+02 0.  0.
         23    2    1    2    0    0  0.23082396784E+03  0.12581149704E+03 -0.92187195668E+03  0.96330996102E+03  0.94920701505E+02 0.  0.
         11    1    3    3    0    0 -0.87988698220E-01 -0.12218368640E+03 -0.63158948814E+03  0.64329941901E+03  0.00000000000E+00 0. -1.
        -12    1    3    3    0    0 -0.26549856014E+02 -0.52692056567E+01 -0.74581544345E+02  0.79341452845E+02  0.00000000000E+00 0.  1.
        -11    1    4    4    0    0  0.65882627257E+01  0.31303390360E+02 -0.17181974530E+03  0.17477222986E+03  0.00000000000E+00 0.  1.
         11    1    4    4    0    0  0.22423570512E+03  0.94508106676E+02 -0.75005221137E+03  0.78853773116E+03  0.00000000000E+00 0. -1.
          2    1    1    2  501    0 -0.20418612313E+03  0.16413950254E+01 -0.49864003237E+03  0.53882886795E+03  0.00000000000E+00 0. -1.
<scales pt_clust_5="13000.00000" pt_clust_6="13000.00000" pt_clust_7="13000.00000" pt_clust_8="13000.00000" pt_clust_9="218.04570"></scales>
<clustering>
<clus scale="   81.108">  5  6 -1 -1</clus>
<clus scale="   94.921">  7  8 -1 -1</clus>
<clus scale="  153.402">  2  5  1 -1</clus>
<clus scale="  218.046">  1  9  2 -1</clus>
<clus scale="  218.046">  1  5  2 -1</clus>
</clustering>
</event>
<event>
 9    1  0.7835476E-005  0.1432456E+03  0.7546771E-02  0.1227209E+00
          1   -1    0    0  502    0 -0.00000000000E+00  0.00000000000E+00  0.18085459825E+03  0.18085459825E+03  0.00000000000E+00 0. -1.
         21   -1    0    0  501  502  0.00000000000E+00 -0.00000000000E+00 -0.59489831833E+03  0.59489831833E+03  0.00000000000E+00 0. -1.
        -24    2    1    2    0    0 -0.29723779359E+02  0.45967635431E+02 -0.22837867486E+03  0.24838652886E+03  0.80885857999E+02 0.  0.
         23    2    1    2    0    0 -0.44417256389E+02  0.38285313755E+02  0.14293465497E+03  0.18012984645E+03  0.92616348867E+02 0.  0.
         11    1    3    3    0    0 -0.39520456991E+02  0.39893672072E+02 -0.70702659133E+02  0.90289742500E+02  0.00000000000E+00 0. -1.
        -12    1    3    3    0    0  0.97966776327E+01  0.60739633584E+01 -0.15767601572E+03  0.15809678636E+03  0.00000000000E+00 0.  1.
        -13    1    4    4    0    0 -0.71687331447E+02  0.33976302863E+02  0.12181510407E+03  0.14536981195E+03  0.00000000000E+00 0. -1.
         13    1    4    4    0    0  0.27270075058E+02  0.43090108918E+01  0.21119550899E+02  0.34760034504E+02  0.00000000000E+00 0.  1.
          2    1    1    2  501    0  0.74141035748E+02 -0.84252949186E+02 -0.32859970019E+03  0.34723654127E+03  0.00000000000E+00 0. -1.
<scales pt_clust_5="13000.00000" pt_clust_6="13000.00000" pt_clust_7="13000.00000" pt_clust_8="13000.00000" pt_clust_9="109.27721"></scales>
<clustering>
<clus scale="   80.886">  5  6 -1 -1</clus>
<clus scale="   92.616">  7  8 -1 -1</clus>
<clus scale="   97.668">  1  5  2 -1</clus>
<clus scale="  109.277">  2  9  1 -1</clus>
<clus scale="  109.277">  2  5  1 -1</clus>
</clustering>
</event>
<event>
 9    1  0.7835476E-005  0.1197869E+03  0.7546771E-02  0.1244003E+00
         21   -1    0    0  501  502  0.00000000000E+00  0.00000000000E+00  0.95197858269E+02  0.95197858269E+02  0.00000000000E+00 0.  1.
         -4   -1    0    0    0  501 -0.00000000000E+00 -0.00000000000E+00 -0.20582583484E+03  0.20582583484E+03  0.00000000000E+00 0.  1.
        -24    2    1    2    0    0 -0.79269782193E+02 -0.40708495920E+01 -0.88537986511E+02  0.14390455498E+03  0.81051068482E+02 0.  0.
         23    2    1    2    0    0  0.10134582502E+03  0.92411168261E+01 -0.10702801466E+02  0.13174688175E+03  0.82983832176E+02 0.  0.
         11    1    3    3    0    0 -0.53433581345E+01 -0.30489952384E+02 -0.92045270094E+01  0.32294147922E+02  0.00000000000E+00 0. -1.
        -12    1    3    3    0    0 -0.73926424058E+02  0.26419102792E+02 -0.79333459502E+02  0.11161040705E+03  0.00000000000E+00 0.  1.
        -11    1    4    4    0    0  0.18597288965E+02 -0.33093941199E+02  0.15523487812E+01  0.37993129480E+02  0.00000000000E+00 0. -1.
         11    1    4    4    0    0  0.82748536052E+02  0.42335058025E+02 -0.12255150248E+02  0.93753752268E+02  0.00000000000E+00 0.  1.
         -3    1    1    2    0  502 -0.22076042824E+02 -0.51702672341E+01 -0.11387188594E+02  0.25372256386E+02  0.00000000000E+00 0.  1.
<scales pt_clust_5="13000.00000" pt_clust_6="13000.00000" pt_clust_7="13000.00000" pt_clust_8="13000.00000" pt_clust_9="22.67342"></scales>
<clustering>
<clus scale="   22.673">  1  9  2 -1</clus>
<clus scale="   81.051">  5  6 -1 -1</clus>
<clus scale="   82.984">  7  8 -1 -1</clus>
<clus scale="  118.456">  2  5  1 -1</clus>
<clus scale="   22.673">  1  5  2 -1</clus>
</clustering>
</event>
<event>
 9    1  0.7835476E-005  0.1182204E+03  0.7546771E-02  0.1246923E+00
         21   -1    0    0  501  502  0.00000000000E+00  0.00000000000E+00  0.19920855855E+03  0.19920855855E+03  0.00000000000E+00 0.  1.
         -4   -1    0    0    0  501 -0.00000000000E+00 -0.00000000000E+00 -0.35003664080E+03  0.35003664080E+03  0.00000000000E+00 0.  1.
        -24    2    1    2    0    0  0.68876568242E+02  0.35762269317E+02 -0.14367627488E+03  0.18242455802E+03  0.81319898202E+02 0.  0.
         23    2    1    2    0    0 -0.10409204100E+02 -0.12415354020E+03 -0.13408029035E+03  0.20146560140E+03  0.84192702858E+02 0.  0.
         13    1    3    3    0    0  0.22006471992E+02  0.54566205879E+02 -0.55902318372E+02  0.81159255991E+02  0.00000000000E+00 0. -1.
        -14    1    3    3    0    0  0.46870096250E+02 -0.18803936562E+02 -0.87773956510E+02  0.10126530202E+03  0.00000000000E+00 0.  1.
        -11    1    4    4    0    0  0.24455413072E+02 -0.52102942542E+02 -0.98032863309E+02  0.11368036831E+03  0.00000000000E+00 0.  1.
         11    1    4    4    0    0 -0.34864617173E+02 -0.72050597657E+02 -0.36047427042E+02  0.87785233096E+02  0.00000000000E+00 0. -1.
         -3    1    1    2    0  502 -0.58467364141E+02  0.88391270882E+02  0.12692848299E+03  0.16535503993E+03  0.00000000000E+00 0.  1.
<scales pt_clust_5="13000.00000" pt_clust_6="13000.00000" pt_clust_7="13000.00000" pt_clust_8="13000.00000" pt_clust_9="105.97853"></scales>
<clustering>
<clus scale="   81.320">  5  6 -1 -1</clus>
<clus scale="   84.193">  7  8 -1 -1</clus>
<clus scale="  105.979">  1  9  2 -1</clus>
<clus scale="  116.192">  2  5  1 -1</clus>
<clus scale="  105.979">  1  5  2 -1</clus>
</clustering>
</event>
<event>
 9    1  0.7835476E-005  0.1628574E+03  0.7546771E-02  0.1187133E+00
          1   -1    0    0  502    0 -0.00000000000E+00  0.00000000000E+00  0.20428157530E+03  0.20428157530E+03  0.00000000000E+00 0. -1.
         21   -1    0    0  501  502  0.00000000000E+00 -0.00000000000E+00 -0.19991576681E+03  0.19991576681E+03  0.00000000000E+00 0. -1.
         23    2    1    2    0    0 -0.12498615287E+03  0.17491479190E+02  0.26366312660E+02  0.15748474668E+03  0.90436567500E+02 0.  0.
        -24    2    1    2    0    0  0.13287429058E+03 -0.67858899016E+02  0.32395441884E+02  0.17216047512E+03  0.79557257779E+02 0.  0.
         11    1    4    4    0    0  0.85361501948E+02 -0.61300870516E+02  0.55583485885E+02  0.11888610787E+03  0.00000000000E+00 0. -1.
        -12    1    4    4    0    0  0.47512788629E+02 -0.65580285002E+01 -0.23188044001E+02  0.53274367248E+02  0.00000000000E+00 0.  1.
        -13    1    3    3    0    0 -0.94411415583E+02  0.31084954557E+02  0.54863996056E+02  0.11353346580E+03  0.00000000000E+00 0.  1.
         13    1    3    3    0    0 -0.30574737287E+02 -0.13593475367E+02 -0.28497683397E+02  0.43951280889E+02  0.00000000000E+00 0. -1.
          2    1    1    2  501    0 -0.78881377062E+01  0.50367419826E+02 -0.54395946048E+02  0.74552120311E+02  0.00000000000E+00 0. -1.
<scales pt_clust_5="13000.00000" pt_clust_6="13000.00000" pt_clust_7="13000.00000" pt_clust_8="13000.00000" pt_clust_9="50.98137"></scales>
<clustering>
<clus scale="   50.981">  2  9  1 -1</clus>
<clus scale="   79.557">  5  6 -1 -1</clus>
<clus scale="   90.437">  7  8 -1 -1</clus>
<clus scale="  157.077">  2  5  1 -1</clus>
<clus scale="   50.981">  2  5  1 -1</clus>
</clustering>
</event>
<event>
 9    1  0.7835476E-005  0.1892477E+03  0.7546771E-02  0.1183266E+00
         21   -1    0    0  501  502  0.00000000000E+00  0.00000000000E+00  0.19651808036E+03  0.19651808036E+03  0.00000000000E+00 0. -1.
          1   -1    0    0  502    0 -0.00000000000E+00 -0.00000000000E+00 -0.36309241221E+03  0.36309241221E+03  0.00000000000E+00 0. -1.
         23    2    1    2    0    0 -0.47375172724E+01  0.60032807507E+02  0.57594987435E+01  0.10926100352E+03  0.90985784702E+02 0.  0.
        -24    2    1    2    0    0 -0.13585517046E+03  0.46840268701E+02 -0.21066009263E+03  0.26963684250E+03  0.87611152782E+02 0.  0.
         11    1    4    4    0    0 -0.13880457867E+03  0.40548942312E+02 -0.21664074211E+03  0.26046907479E+03  0.00000000000E+00 0. -1.
        -12    1    4    4    0    0  0.29494082081E+01  0.62913263887E+01  0.59806494778E+01  0.91677677045E+01  0.00000000000E+00 0.  1.
        -11    1    3    3    0    0  0.35558604313E+00 -0.22912351053E+02  0.12108353718E+02  0.25917455545E+02  0.00000000000E+00 0.  1.
         11    1    3    3    0    0 -0.50931033155E+01  0.82945158559E+02 -0.63488549746E+01  0.83343547977E+02  0.00000000000E+00 0. -1.
          2    1    1    2  501    0  0.14059268773E+03 -0.10687307621E+03  0.38326262045E+02  0.18071264655E+03  0.00000000000E+00 0. -1.
<scales pt_clust_5="13000.00000" pt_clust_6="13000.00000" pt_clust_7="13000.00000" pt_clust_8="13000.00000" pt_clust_9="167.74676"></scales>
<clustering>
<clus scale="   87.611">  5  6 -1 -1</clus>
<clus scale="   90.986">  7  8 -1 -1</clus>
<clus scale="  109.109">  2  7  1 -1</clus>
<clus scale="  167.747">  1  9  2 -1</clus>
<clus scale="  167.747">  1  5  2 -1</clus>
</clustering>
</event>
<event>
 9    1  0.7835476E-005  0.1718557E+03  0.7546771E-02  0.1209569E+00
          1   -1    0    0  502    0 -0.00000000000E+00  0.00000000000E+00  0.71568261940E+03  0.71568261940E+03  0.00000000000E+00 0. -1.
         21   -1    0    0  501  502  0.00000000000E+00 -0.00000000000E+00 -0.13033752964E+03  0.13033752964E+03  0.00000000000E+00 0. -1.
        -24    2    1    2    0    0  0.11108010387E+02 -0.71851734245E+01  0.46320416333E+03  0.47040610967E+03  0.80924634569E+02 0.  0.
         23    2    1    2    0    0  0.19986046336E+02 -0.13707245842E+03  0.15184376059E+03  0.22508376645E+03  0.91748969378E+02 0.  0.
         11    1    3    3    0    0 -0.22354100338E+02  0.27027710219E+01  0.41113490860E+02  0.46875685636E+02  0.00000000000E+00 0. -1.
        -12    1    3    3    0    0  0.33462110725E+02 -0.98879444464E+01  0.42209067247E+03  0.42353042403E+03  0.00000000000E+00 0.  1.
        -11    1    4    4    0    0 -0.24531775911E+02 -0.39586512087E+02  0.90037616142E+02  0.10136899077E+03  0.00000000000E+00 0.  1.
         11    1    4    4    0    0  0.44517822248E+02 -0.97485946331E+02  0.61806144453E+02  0.12371477568E+03  0.00000000000E+00 0. -1.
          2    1    1    2  501    0 -0.31094056723E+02  0.14425763184E+03 -0.29702834171E+02  0.15053027292E+03  0.00000000000E+00 0. -1.
<scales pt_clust_5="13000.00000" pt_clust_6="13000.00000" pt_clust_7="13000.00000" pt_clust_8="13000.00000" pt_clust_9="145.31523"></scales>
<clustering>
<clus scale="   80.925">  5  6 -1 -1</clus>
<clus scale="   81.999">  1  5  2 -1</clus>
<clus scale="   91.749">  7  8 -1 -1</clus>
<clus scale="  145.315">  2  9  1 -1</clus>
<clus scale="  145.315">  2  5  1 -1</clus>
</clustering>
</event>
<event>
 9    1  0.7835476E-005  0.1035072E+03  0.7546771E-02  0.1278111E+00
         21   -1    0    0  501  502  0.00000000000E+00  0.00000000000E+00  0.58325005289E+03  0.58325005289E+03  0.00000000000E+00 0. -1.
         -4   -1    0    0    0  501 -0.00000000000E+00 -0.00000000000E+00 -0.51343709241E+02  0.51343709241E+02  0.00000000000E+00 0.  1.
         23    2    1    2    0    0 -0.91043042432E+01  0.45247301805E+02  0.21876409588E+02  0.10498271958E+03  0.91720158290E+02 0.  0.
        -24    2    1    2    0    0  0.45208208718E+02 -0.50131078816E+02  0.40365649101E+03  0.41717149176E+03  0.80849141030E+02 0.  0.
         13    1    4    4    0    0  0.21322253182E+02 -0.64181605950E+02  0.18904676598E+03  0.20077997099E+03  0.00000000000E+00 0. -1.
        -14    1    4    4    0    0  0.23885955536E+02  0.14050527134E+02  0.21460972503E+03  0.21639152077E+03  0.00000000000E+00 0.  1.
        -13    1    3    3    0    0  0.16321031943E+02  0.36142807115E+02  0.51432812505E+02  0.64946230006E+02  0.00000000000E+00 0. -1.
         13    1    3    3    0    0 -0.25425336186E+02  0.91044946905E+01 -0.29556402917E+02  0.40036489571E+02  0.00000000000E+00 0.  1.
         -3    1    1    2    0  502 -0.36103904475E+02  0.48837770108E+01  0.10637344305E+03  0.11243955079E+03  0.00000000000E+00 0.  1.
<scales pt_clust_5="13000.00000" pt_clust_6="13000.00000" pt_clust_7="13000.00000" pt_clust_8="13000.00000" pt_clust_9="36.43272"></scales>
<clustering>
<clus scale="   36.433">  1  9  2 -1</clus>
<clus scale="   80.849">  5  6 -1 -1</clus>
<clus scale="   91.720">  7  8 -1 -1</clus>
<clus scale="   94.009">  1  5  2 -1</clus>
<clus scale="   36.433">  1  5  2 -1</clus>
</clustering>
</event>
<event>
 9    1  0.7835476E-005  0.1347201E+03  0.7546771E-02  0.1223248E+00
         -2   -1    0    0    0  501 -0.00000000000E+00  0.00000000000E+00  0.19570056645E+03  0.19570056645E+03  0.00000000000E+00 0.  1.
         21   -1    0    0  501  502  0.00000000000E+00 -0.00000000000E+00 -0.25228350355E+03  0.25228350355E+03  0.00000000000E+00 0.  1.
        -24    2    1    2    0    0  0.50859040623E+02  0.12548060319E+03  0.89347492648E+02  0.18075478447E+03  0.79732639962E+02 0.  0.
         23    2    1    2    0    0  0.12219356609E+02 -0.55907740320E+02 -0.18513324196E+02  0.10894351158E+03  0.90834781004E+02 0.  0.
         13    1    3    3    0    0  0.21776208705E+02 -0.28212996446E+01  0.42123360535E+00  0.21962250226E+02  0.00000000000E+00 0. -1.
        -14    1    3    3    0    0  0.29082831918E+02  0.12830190284E+03  0.88926259042E+02  0.15879253424E+03  0.00000000000E+00 0.  1.
        -13    1    4    4    0    0  0.37027187008E+02  0.84826026362E+01 -0.10909099228E+02  0.39521836638E+02  0.00000000000E+00 0.  1.
         13    1    4    4    0    0 -0.24807830399E+02 -0.64390342956E+02 -0.76042249680E+01  0.69421674947E+02  0.00000000000E+00 0. -1.
         -1    1    1    2    0  502 -0.63078397232E+02 -0.69572862871E+02 -0.12741710555E+03  0.15828577394E+03  0.00000000000E+00 0.  1.
<scales pt_clust_5="13000.00000" pt_clust_6="13000.00000" pt_clust_7="13000.00000" pt_clust_8="13000.00000" pt_clust_9="93.91095"></scales>
<clustering>
<clus scale="   79.733">  5  6 -1 -1</clus>
<clus scale="   90.835">  7  8 -1 -1</clus>
<clus scale="   93.911">  2  9  1 -1</clus>
<clus scale="  127.498">  1  5  2 -1</clus>
<clus scale="   93.911">  2  5  1 -1</clus>
</clustering>
</event>
<event>
 9    1  0.7835476E-005  0.1337202E+03  0.7546771E-02  0.1222336E+00
         -2   -1    0    0    0  501 -0.00000000000E+00  0.00000000000E+00  0.16457646624E+03  0.16457646624E+03  0.00000000000E+00 0.  1.
         21   -1    0    0  501  502  0.00000000000E+00 -0.00000000000E+00 -0.93552874825E+03  0.93552874825E+03  0.00000000000E+00 0. -1.
         23    2    1    2    0    0 -0.97832707347E+02 -0.33456126820E+02 -0.25291863789E+03  0.28841302608E+03  0.92323806084E+02 0.  0.
        -24    2    1    2    0    0  0.91460549435E+02 -0.10053031988E+03 -0.62206064964E+03  0.64194357965E+03  0.81613297318E+02 0.  0.
         13    1    4    4    0    0  0.74710349983E+02 -0.10684023398E+03 -0.59747043236E+03  0.61152873157E+03  0.00000000000E+00 0. -1.
        -14    1    4    4    0    0  0.16750199452E+02  0.63099140959E+01 -0.24590217280E+02  0.30414848076E+02  0.00000000000E+00 0.  1.
        -11    1    3    3    0    0 -0.73921225198E+02  0.70692458737E+01 -0.79768122552E+02  0.10898291218E+03  0.00000000000E+00 0. -1.
         11    1    3    3    0    0 -0.23911482148E+02 -0.40525372694E+02 -0.17315051534E+03  0.17943011390E+03  0.00000000000E+00 0.  1.
         -1    1    1    2    0  502  0.63721579119E+01  0.13398644670E+03  0.10402700553E+03  0.16974860876E+03  0.00000000000E+00 0.  1.
<scales pt_clust_5="13000.00000" pt_clust_6="13000.00000" pt_clust_7="13000.00000" pt_clust_8="13000.00000" pt_clust_9="134.13795"></scales>
<clustering>
<clus scale="   81.613">  5  6 -1 -1</clus>
<clus scale="   92.324">  7  8 -1 -1</clus>
<clus scale="  134.138">  2  9  1 -1</clus>
<clus scale="  134.138">  2  5  1 -1</clus>
<clus scale="  133.720">  2  5  1 -1</clus>
</clustering>
</event>
<event>
 9    1  0.7835476E-005  0.1055018E+03  0.7546771E-02  0.1275316E+00
         21   -1    0    0  501  502  0.00000000000E+00  0.00000000000E+00  0.33922886944E+03  0.33922886944E+03  0.00000000000E+00 0. -1.
          1   -1    0    0  502    0 -0.00000000000E+00 -0.00000000000E+00 -0.80932846406E+02  0.80932846406E+02  0.00000000000E+00 0. -1.
        -24    2    1    2    0    0 -0.37284812038E+02  0.29534558289E+02  0.51218215042E+02  0.10499220338E+03  0.78342899339E+02 0.  0.
         23    2    1    2    0    0  0.84233976192E+02  0.34571347243E+02  0.19598097769E+03  0.23493902710E+03  0.92180594719E+02 0.  0.
         11    1    3    3    0    0 -0.18776363767E+02  0.43956616702E+02 -0.93040473838E+00  0.47807966294E+02  0.00000000000E+00 0. -1.
        -12    1    3    3    0    0 -0.18508448271E+02 -0.14422058413E+02  0.52148619780E+02  0.57184237087E+02  0.00000000000E+00 0.  1.
        -13    1    4    4    0    0 -0.13200408000E+02  0.29109113012E+02  0.46675814708E+02  0.56570512729E+02  0.00000000000E+00 0.  1.
         13    1    4    4    0    0  0.97434384192E+02  0.54622342302E+01  0.14930516298E+03  0.17836851437E+03  0.00000000000E+00 0. -1.
          2    1    1    2  501    0 -0.46949164154E+02 -0.64105905532E+02  0.11096830300E+02  0.80230485362E+02  0.00000000000E+00 0. -1.
<scales pt_clust_5="13000.00000" pt_clust_6="13000.00000" pt_clust_7="13000.00000" pt_clust_8="13000.00000" pt_clust_9="79.45941"></scales>
<clustering>
<clus scale="   78.343">  5  6 -1 -1</clus>
<clus scale="   79.459">  1  9  2 -1</clus>
<clus scale="   92.181">  7  8 -1 -1</clus>
<clus scale="   93.653">  2  5  1 -1</clus>
<clus scale="   79.459">  1  5  2 -1</clus>
</clustering>
</event>
<event>
 9    1  0.7835476E-005  0.1014635E+03  0.7546771E-02  0.1285195E+00
         21   -1    0    0  501  502  0.00000000000E+00  0.00000000000E+00  0.35467528424E+03  0.35467528424E+03  0.00000000000E+00 0. -1.
         -2   -1    0    0    0  501 -0.00000000000E+00 -0.00000000000E+00 -0.64551892032E+02  0.64551892032E+02  0.00000000000E+00 0.  1.
         23    2    1    2    0    0 -0.34733801318E+02  0.37775500737E+02 -0.68156625159E+00  0.10411201872E+03  0.90583787177E+02 0.  0.
        -24    2    1    2    0    0  0.22064704437E+02 -0.21089395506E+02  0.12908962406E+03  0.15204835681E+03  0.74316606386E+02 0.  0.
         11    1    4    4    0    0 -0.21298822451E+01 -0.23198708386E+02  0.12532512633E+03  0.12747197244E+03  0.00000000000E+00 0. -1.
        -12    1    4    4    0    0  0.24194586682E+02  0.21093128804E+01  0.37644977313E+01  0.24576384370E+02  0.00000000000E+00 0.  1.
        -11    1    3    3    0    0 -0.13347533823E+02  0.47843417681E+02 -0.36189455855E+02  0.61455886533E+02  0.00000000000E+00 0.  1.
         11    1    3    3    0    0 -0.21386267495E+02 -0.10067916944E+02  0.35507889603E+02  0.42656132186E+02  0.00000000000E+00 0. -1.
         -1    1    1    2    0  502  0.12669096881E+02 -0.16686105231E+02  0.16171533441E+03  0.16306680075E+03  0.00000000000E+00 0.  1.
<scales pt_clust_5="13000.00000" pt_clust_6="13000.00000" pt_clust_7="13000.00000" pt_clust_8="13000.00000" pt_clust_9="20.95071"></scales>
<clustering>
<clus scale="   20.951">  1  9  2 -1</clus>
<clus scale="   74.317">  5  6 -1 -1</clus>
<clus scale="   87.249">  1  5  2 -1</clus>
<clus scale="   90.584">  7  8 -1 -1</clus>
<clus scale="   20.951">  1  5  2 -1</clus>
</clustering>
</event>
<event>
 9    1  0.7835476E-005  0.2144401E+03  0.7546771E-02  0.1138097E+00
          1   -1    0    0  502    0 -0.00000000000E+00  0.00000000000E+00  0.35072023460E+03  0.35072023460E+03  0.00000000000E+00 0. -1.
         21   -1    0    0  501  502  0.00000000000E+00 -0.00000000000E+00 -0.10689712008E+03  0.10689712008E+03  0.00000000000E+00 0. -1.
        -24    2    1    2    0    0  0.75258971018E+02 -0.40318970899E+02  0.14489068758E+03  0.18377463301E+03  0.74096371425E+02 0.  0.
         23    2    1    2    0    0  0.42578425840E+02  0.33093005948E+01  0.11059791674E+03  0.14978043309E+03  0.91533628411E+02 0.  0.
         11    1    3    3    0    0  0.79348650337E+02 -0.53231321041E+02  0.13973974937E+03  0.16928372457E+03  0.00000000000E+00 0. -1.
        -12    1    3    3    0    0 -0.40896793191E+01  0.12912350142E+02  0.51509382143E+01  0.14490908446E+02  0.00000000000E+00 0.  1.
        -13    1    4    4    0    0  0.45798608197E+02  0.36412205413E+02  0.98153661963E+02  0.11426942974E+03  0.00000000000E+00 0. -1.
         13    1    4    4    0    0 -0.32201823567E+01 -0.33102904818E+02  0.12444254780E+02  0.35511003349E+02  0.00000000000E+00 0.  1.
          2    1    1    2  501    0 -0.11783739686E+03  0.37009670304E+02 -0.11665489800E+02  0.12406228858E+03  0.00000000000E+00 0. -1.
<scales pt_clust_5="13000.00000" pt_clust_6="13000.00000" pt_clust_7="13000.00000" pt_clust_8="13000.00000" pt_clust_9="123.51262"></scales>
<clustering>
<clus scale="   74.096">  5  6 -1 -1</clus>
<clus scale="   91.534">  7  8 -1 -1</clus>
<clus scale="   94.877">  5  7 -1 -1</clus>
<clus scale="  123.513">  2  9  1 -1</clus>
<clus scale="  123.513">  2  5  1 -1</clus>
</clustering>
</event>
<event>
 9    1  0.7835476E-005  0.1364605E+03  0.7546771E-02  0.1220057E+00
          1   -1    0    0  502    0 -0.00000000000E+00  0.00000000000E+00  0.13045362376E+04  0.13045362376E+04  0.00000000000E+00 0. -1.
         21   -1    0    0  501  502  0.00000000000E+00 -0.00000000000E+00 -0.25726360686E+02  0.25726360686E+02  0.00000000000E+00 0. -1.
        -24    2    1    2    0    0 -0.71076431235E+02  0.34866985870E+02  0.37985129393E+03  0.39643743679E+03  0.81290036321E+02 0.  0.
         23    2    1    2    0    0  0.75688523996E+02 -0.11569952090E+03  0.69779454982E+03  0.71697927531E+03  0.89593055885E+02 0.  0.
         11    1    3    3    0    0 -0.83938792851E+02  0.88569438572E+01  0.28770193429E+03  0.29982756610E+03  0.00000000000E+00 0. -1.
        -12    1    3    3    0    0  0.12862361617E+02  0.26010042013E+02  0.92149359638E+02  0.96609870684E+02  0.00000000000E+00 0.  1.
        -13    1    4    4    0    0  0.41939048393E+02 -0.16386950181E+02  0.95043343349E+02  0.10516963930E+03  0.00000000000E+00 0.  1.
         13    1    4    4    0    0  0.33749475603E+02 -0.99312570719E+02  0.60275120647E+03  0.61180963600E+03  0.00000000000E+00 0. -1.
          2    1    1    2  501    0 -0.46120927614E+01  0.80832535031E+02  0.20116403317E+03  0.21684588619E+03  0.00000000000E+00 0. -1.
<scales pt_clust_5="13000.00000" pt_clust_6="13000.00000" pt_clust_7="13000.00000" pt_clust_8="13000.00000" pt_clust_9="80.96401"></scales>
<clustering>
<clus scale="   80.964">  2  9  1 -1</clus>
<clus scale="   81.290">  5  6 -1 -1</clus>
<clus scale="   89.593">  7  8 -1 -1</clus>
<clus scale="  131.159">  1  5  2 -1</clus>
<clus scale="   80.964">  2  5  1 -1</clus>
</clustering>
</event>
<event>
 9    1  0.7835476E-005  0.1642757E+03  0.7546771E-02  0.1200098E+00
         -2   -1    0    0    0  501 -0.00000000000E+00  0.00000000000E+00  0.70537960603E+03  0.70537960603E+03  0.00000000000E+00 0.  1.
         21   -1    0    0  501  502  0.00000000000E+00 -0.00000000000E+00 -0.88210867470E+02  0.88210867470E+02  0.00000000000E+00 0.  1.
        -24    2    1    2    0    0  0.26419018244E+02  0.79074637694E+02  0.32957532553E+03  0.34910497864E+03  0.79395390682E+02 0.  0.
         23    2    1    2    0    0 -0.10637942138E+03  0.70038885532E+02  0.75803199179E+02  0.17340690190E+03  0.90010009670E+02 0.  0.
         11    1    3    3    0    0 -0.44584644984E+01  0.73362859379E+02  0.28663452256E+03  0.29590764871E+03  0.00000000000E+00 0. -1.
        -12    1    3    3    0    0  0.30877482742E+02  0.57117783155E+01  0.42940802974E+02  0.53197329933E+02  0.00000000000E+00 0.  1.
        -13    1    4    4    0    0 -0.10157261545E+03  0.89724819176E+02  0.68606973044E+02  0.15190278515E+03  0.00000000000E+00 0.  1.
         13    1    4    4    0    0 -0.48068059315E+01 -0.19685933644E+02  0.71962261349E+01  0.21504116752E+02  0.00000000000E+00 0. -1.
         -1    1    1    2    0  502  0.79960403135E+02 -0.14911352323E+03  0.21179021385E+03  0.27107859296E+03  0.00000000000E+00 0.  1.
<scales pt_clust_5="13000.00000" pt_clust_6="13000.00000" pt_clust_7="13000.00000" pt_clust_8="13000.00000" pt_clust_9="137.42168"></scales>
<clustering>
<clus scale="   79.395">  5  6 -1 -1</clus>
<clus scale="   90.010">  7  8 -1 -1</clus>
<clus scale="  115.128">  1  5  2 -1</clus>
<clus scale="  137.422">  2  9  1 -1</clus>
<clus scale="  137.422">  2  5  1 -1</clus>
</clustering>
</event>
<event>
 9    1  0.7835476E-005  0.9582960E+02  0.7546771E-02  0.1294074E+00
         -4   -1    0    0    0  501 -0.00000000000E+00  0.00000000000E+00  0.18101947488E+03  0.18101947488E+03  0.00000000000E+00 0.  1.
         21   -1    0    0  501  502  0.00000000000E+00 -0.00000000000E+00 -0.12531324881E+03  0.12531324881E+03  0.00000000000E+00 0.  1.
        -24    2    1    2    0    0 -0.17577405146E+02 -0.52958838224E+01  0.30078387847E+02  0.88883844713E+02  0.81600348519E+02 0.  0.
         23    2    1    2    0    0  0.31243815436E+02  0.74573759874E+02 -0.33057132134E+02  0.12563319063E+03  0.90296749325E+02 0.  0.
         11    1    3    3    0    0 -0.33833714429E+02  0.25618093834E+02  0.33107837634E+02  0.53825048784E+02  0.00000000000E+00 0. -1.
        -12    1    3    3    0    0  0.16256309283E+02 -0.30913977657E+02 -0.30294497864E+01  0.35058795930E+02  0.00000000000E+00 0.  1.
        -11    1    4    4    0    0 -0.65331745121E+01  0.82358616131E+02 -0.23543035095E+02  0.85906335749E+02  0.00000000000E+00 0.  1.
         11    1    4    4    0    0  0.37776989948E+02 -0.77848562569E+01 -0.95140970396E+01  0.39726854884E+02  0.00000000000E+00 0. -1.
         -3    1    1    2    0  502 -0.13666410290E+02 -0.69277876052E+02  0.58684970355E+02  0.91815688344E+02  0.00000000000E+00 0.  1.
<scales pt_clust_5="13000.00000" pt_clust_6="13000.00000" pt_clust_7="13000.00000" pt_clust_8="13000.00000" pt_clust_9="70.61303"></scales>
<clustering>
<clus scale="   70.613">  2  9  1 -1</clus>
<clus scale="   81.600">  5  6 -1 -1</clus>
<clus scale="   87.684">  1  5  2 -1</clus>
<clus scale="   90.297">  7  8 -1 -1</clus>
<clus scale="   70.613">  2  5  1 -1</clus>
</clustering>
</event>
<event>
 9    1  0.7835476E-005  0.9937139E+02  0.7546771E-02  0.1283880E+00
         21   -1    0    0  501  502  0.00000000000E+00  0.00000000000E+00  0.16194609686E+03  0.16194609686E+03  0.00000000000E+00 0.  1.
          1   -1    0    0  502    0 -0.00000000000E+00 -0.00000000000E+00 -0.16799567891E+03  0.16799567891E+03  0.00000000000E+00 0. -1.
         23    2    1    2    0    0 -0.11024054752E+02  0.44120551279E+01  0.33461301642E+02  0.98287429792E+02  0.91650227135E+02 0.  0.
        -24    2    1    2    0    0  0.11056479928E+02 -0.77089103360E+02  0.40394677067E+02  0.12364113831E+03  0.87123048278E+02 0.  0.
         13    1    4    4    0    0  0.24986651671E+02  0.10142994307E+02  0.11851108829E+01  0.26992917276E+02  0.00000000000E+00 0. -1.
        -14    1    4    4    0    0 -0.13930171743E+02 -0.87232097667E+02  0.39209566184E+02  0.96648221031E+02  0.00000000000E+00 0.  1.
        -11    1    3    3    0    0  0.18606725942E+02  0.19880879926E+02  0.52988814661E+02  0.59575784646E+02  0.00000000000E+00 0.  1.
         11    1    3    3    0    0 -0.29630780695E+02 -0.15468824798E+02 -0.19527513019E+02  0.38711645146E+02  0.00000000000E+00 0. -1.
          2    1    1    2  501    0 -0.32425175891E-01  0.72677048232E+02 -0.79905560763E+02  0.10801320767E+03  0.00000000000E+00 0. -1.
<scales pt_clust_5="13000.00000" pt_clust_6="13000.00000" pt_clust_7="13000.00000" pt_clust_8="13000.00000" pt_clust_9="72.67709"></scales>
<clustering>
<clus scale="   72.677">  1  9  2 -1</clus>
<clus scale="   87.123">  5  6 -1 -1</clus>
<clus scale="   91.650">  7  8 -1 -1</clus>
<clus scale="   95.212">  1  5  2 -1</clus>
<clus scale="   72.677">  1  5  2 -1</clus>
</clustering>
</event>
<event>
 9    1  0.7835476E-005  0.9439850E+02  0.7546771E-02  0.1300182E+00
         21   -1    0    0  501  502  0.00000000000E+00  0.00000000000E+00  0.49016988047E+02  0.49016988047E+02  0.00000000000E+00 0.  1.
         -2   -1    0    0    0  501 -0.00000000000E+00 -0.00000000000E+00 -0.30355109559E+03  0.30355109559E+03  0.00000000000E+00 0.  1.
         23    2    1    2    0    0  0.21283712016E+02  0.19115733162E+02 -0.11702360293E+03  0.15181231195E+03  0.92379904542E+02 0.  0.
        -24    2    1    2    0    0 -0.16436630162E+02  0.32528266159E+02 -0.55271649876E+02  0.10352498389E+03  0.79587788633E+02 0.  0.
         11    1    4    4    0    0  0.26802279060E+02 -0.78273445388E+01 -0.22826189597E+02  0.36064725382E+02  0.00000000000E+00 0. -1.
        -12    1    4    4    0    0 -0.43238909222E+02  0.40355610698E+02 -0.32445460279E+02  0.67460258510E+02  0.00000000000E+00 0.  1.
        -11    1    3    3    0    0  0.50778298963E+02  0.35530521682E+02 -0.65109535637E+02  0.89889405646E+02  0.00000000000E+00 0.  1.
         11    1    3    3    0    0 -0.29494586947E+02 -0.16414788520E+02 -0.51914067298E+02  0.61922906300E+02  0.00000000000E+00 0. -1.
         -1    1    1    2    0  502 -0.48470818545E+01 -0.51643999321E+02 -0.82238854730E+02  0.97230787797E+02  0.00000000000E+00 0.  1.
<scales pt_clust_5="13000.00000" pt_clust_6="13000.00000" pt_clust_7="13000.00000" pt_clust_8="13000.00000" pt_clust_9="51.87099"></scales>
<clustering>
<clus scale="   51.871">  1  9  2 -1</clus>
<clus scale="   79.588">  5  6 -1 -1</clus>
<clus scale="   81.922">  1  5  2 -1</clus>
<clus scale="   92.380">  7  8 -1 -1</clus>
<clus scale="   51.871">  1  5  2 -1</clus>
</clustering>
</event>
<event>
 9    1  0.7835476E-005  0.1127838E+03  0.7546771E-02  0.1258764E+00
          3   -1    0    0  502    0 -0.00000000000E+00  0.00000000000E+00  0.34412122534E+02  0.34412122534E+02  0.00000000000E+00 0. -1.
         21   -1    0    0  501  502  0.00000000000E+00 -0.00000000000E+00 -0.65750253796E+03  0.65750253796E+03  0.00000000000E+00 0.  1.
         23    2    1    2    0    0 -0.26509028737E+02  0.76158684105E+02 -0.22679589684E+03  0.25762491693E+03  0.91822356932E+02 0.  0.
        -24    2    1    2    0    0  0.13926107272E+02 -0.38894845669E+02 -0.38094513913E+03  0.39206975993E+03  0.83022600218E+02 0.  0.
         13    1    4    4    0    0  0.36716982198E+00 -0.29843223341E+02 -0.36101214867E+02  0.46840692863E+02  0.00000000000E+00 0. -1.
        -14    1    4    4    0    0  0.13558937450E+02 -0.90516223283E+01 -0.34484392426E+03  0.34522906707E+03  0.00000000000E+00 0.  1.
        -13    1    3    3    0    0  0.29958376797E+02  0.14727431959E+02 -0.10348298241E+03  0.10873421375E+03  0.00000000000E+00 0.  1.
         13    1    3    3    0    0 -0.56467405534E+02  0.61431252146E+02 -0.12331291443E+03  0.14889070318E+03  0.00000000000E+00 0. -1.
          4    1    1    2  501    0  0.12582921465E+02 -0.37263838436E+02 -0.15349379459E+02  0.42219983625E+02  0.00000000000E+00 0. -1.
<scales pt_clust_5="13000.00000" pt_clust_6="13000.00000" pt_clust_7="13000.00000" pt_clust_8="13000.00000" pt_clust_9="39.33097"></scales>
<clustering>
<clus scale="   39.331">  2  9  1 -1</clus>
<clus scale="   83.023">  5  6 -1 -1</clus>
<clus scale="   91.822">  7  8 -1 -1</clus>
<clus scale="  105.743">  2  5  1 -1</clus>
<clus scale="   39.331">  2  5  1 -1</clus>
</clustering>
</event>
<event>
 9    1  0.7835476E-005  0.1476223E+03  0.7546771E-02  0.1205628E+00
         21   -1    0    0  501  502  0.00000000000E+00  0.00000000000E+00  0.19928120767E+02  0.19928120767E+02  0.00000000000E+00 0. -1.
          1   -1    0    0  502    0 -0.00000000000E+00 -0.00000000000E+00 -0.15521398428E+04  0.15521398428E+04  0.00000000000E+00 0. -1.
        -24    2    1    2    0    0 -0.45445600235E+02 -0.11764356584E+03 -0.82622876480E+03  0.83983791315E+03  0.82270513728E+02 0.  0.
         23    2    1    2    0    0  0.24655964069E+01  0.98328983068E+02 -0.39418546110E+03  0.41689211671E+03  0.93499685315E+02 0.  0.
         13    1    3    3    0    0 -0.60515991596E+02 -0.12085033761E+03 -0.73803962129E+03  0.75031291601E+03  0.00000000000E+00 0. -1.
        -14    1    3    3    0    0  0.15070391361E+02  0.32067717711E+01 -0.88189143505E+02  0.89524997141E+02  0.00000000000E+00 0.  1.
        -13    1    4    4    0    0  0.42529888903E+02  0.81961002362E+02 -0.27542652945E+03  0.29049297837E+03  0.00000000000E+00 0. -1.
         13    1    4    4    0    0 -0.40064292496E+02  0.16367980706E+02 -0.11875893165E+03  0.12639913834E+03  0.00000000000E+00 0.  1.
          2    1    1    2  501    0  0.42980003828E+02  0.19314582772E+02 -0.31179749613E+03  0.31533793370E+03  0.00000000000E+00 0. -1.
<scales pt_clust_5="13000.00000" pt_clust_6="13000.00000" pt_clust_7="13000.00000" pt_clust_8="13000.00000" pt_clust_9="47.12044"></scales>
<clustering>
<clus scale="   47.120">  1  9  2 -1</clus>
<clus scale="   82.271">  5  6 -1 -1</clus>
<clus scale="   93.500">  7  8 -1 -1</clus>
<clus scale="  140.779">  2  5  1 -1</clus>
<clus scale="   47.120">  1  5  2 -1</clus>
</clustering>
</event>
<event>
 9    1  0.7835476E-005  0.1167972E+03  0.7546771E-02  0.1249502E+00
         21   -1    0    0  501  502  0.00000000000E+00  0.00000000000E+00  0.65385148812E+03  0.65385148812E+03  0.00000000000E+00 0. -1.
         -4   -1    0    0    0  501 -0.00000000000E+00 -0.00000000000E+00 -0.34348575369E+02  0.34348575369E+02  0.00000000000E+00 0.  1.
         23    2    1    2    0    0 -0.28415046597E+02  0.39327409803E+02  0.11053992697E+03  0.16032327172E+03  0.10550078656E+03 0.  0.
        -24    2    1    2    0    0  0.47477625647E+02 -0.32233802471E+02  0.39800143235E+03  0.41506647520E+03  0.10286834170E+03 0.  0.
         13    1    4    4    0    0  0.16683583899E+02 -0.60286925208E+02  0.32544777760E+03  0.33140475445E+03  0.00000000000E+00 0. -1.
        -14    1    4    4    0    0  0.30794041748E+02  0.28053122737E+02  0.72553654750E+02  0.83661720757E+02  0.00000000000E+00 0.  1.
        -13    1    3    3    0    0 -0.44319120401E+02 -0.23935265863E+02  0.55758357596E+02  0.75140374146E+02  0.00000000000E+00 0. -1.
         13    1    3    3    0    0  0.15904073803E+02  0.63262675666E+02  0.54781569377E+02  0.85182897575E+02  0.00000000000E+00 0.  1.
         -3    1    1    2    0  502 -0.19062579050E+02 -0.70936073317E+01  0.11096155342E+03  0.11281031656E+03  0.00000000000E+00 0.  1.
<scales pt_clust_5="13000.00000" pt_clust_6="13000.00000" pt_clust_7="13000.00000" pt_clust_8="13000.00000" pt_clust_9="20.33965"></scales>
<clustering>
<clus scale="   20.340">  1  9  2 -1</clus>
<clus scale="  102.868">  5  6 -1 -1</clus>
<clus scale="  105.501">  7  8 -1 -1</clus>
<clus scale="  114.425">  1  5  2 -1</clus>
<clus scale="   20.340">  1  5  2 -1</clus>
</clustering>
</event>
<event>
 9    1  0.7835476E-005  0.1674842E+03  0.7546771E-02  0.1207049E+00
         21   -1    0    0  501  502  0.00000000000E+00  0.00000000000E+00  0.49373908607E+03  0.49373908607E+03  0.00000000000E+00 0. -1.
          1   -1    0    0  502    0 -0.00000000000E+00 -0.00000000000E+00 -0.93831118093E+02  0.93831118093E+02  0.00000000000E+00 0. -1.
        -24    2    1    2    0    0  0.24514934210E+02 -0.50007323482E+02  0.12971159517E+03  0.15989796983E+03  0.75103584698E+02 0.  0.
         23    2    1    2    0    0  0.38130423142E+02  0.16443846828E+03  0.11010730767E+03  0.22115967666E+03  0.91071644099E+02 0.  0.
         13    1    3    3    0    0  0.48864917909E+02 -0.48779751309E+02  0.98604964813E+02  0.12037517778E+03  0.00000000000E+00 0. -1.
        -14    1    3    3    0    0 -0.24349983698E+02 -0.12275721721E+01  0.31106630356E+02  0.39522792053E+02  0.00000000000E+00 0.  1.
        -11    1    4    4    0    0  0.62022270640E+02  0.98848145175E+02  0.43106423765E+02  0.12440209657E+03  0.00000000000E+00 0. -1.
         11    1    4    4    0    0 -0.23891847498E+02  0.65590323106E+02  0.67000883906E+02  0.96757580097E+02  0.00000000000E+00 0.  1.
          2    1    1    2  501    0 -0.62645357353E+02 -0.11443114480E+03  0.16008906514E+03  0.20651255767E+03  0.00000000000E+00 0. -1.
<scales pt_clust_5="13000.00000" pt_clust_6="13000.00000" pt_clust_7="13000.00000" pt_clust_8="13000.00000" pt_clust_9="140.55928"></scales>
<clustering>
<clus scale="   75.104">  5  6 -1 -1</clus>
<clus scale="   91.072">  7  8 -1 -1</clus>
<clus scale="   93.500">  2  5  1 -1</clus>
<clus scale="  140.559">  1  9  2 -1</clus>
<clus scale="  140.559">  1  5  2 -1</clus>
</clustering>
</event>
<event>
 9    1  0.7835476E-005  0.1484443E+03  0.7546771E-02  0.1219774E+00
         21   -1    0    0  501  502  0.00000000000E+00  0.00000000000E+00  0.62824391626E+03  0.62824391626E+03  0.00000000000E+00 0. -1.
          1   -1    0    0  502    0 -0.00000000000E+00 -0.00000000000E+00 -0.13176910257E+03  0.13176910257E+03  0.00000000000E+00 0. -1.
         23    2    1    2    0    0  0.28240478419E+02  0.40336829322E+02 -0.53506918764E+02  0.11562170766E+03  0.89893295103E+02 0.  0.
        -24    2    1    2    0    0 -0.39687776935E+02  0.91268935588E+02  0.67900456184E+02  0.14453785771E+03  0.79847242414E+02 0.  0.
         11    1    4    4    0    0 -0.48142557929E+02  0.73524384574E+02  0.16382524146E+02  0.89397584466E+02  0.00000000000E+00 0. -1.
        -12    1    4    4    0    0  0.84547809944E+01  0.17744551014E+02  0.51517932038E+02  0.55140273248E+02  0.00000000000E+00 0.  1.
        -11    1    3    3    0    0 -0.14452101013E+02 -0.19244384849E+02  0.12958738935E+01  0.24101636066E+02  0.00000000000E+00 0. -1.
         11    1    3    3    0    0  0.42692579432E+02  0.59581214171E+02 -0.54802792658E+02  0.91520071589E+02  0.00000000000E+00 0.  1.
          2    1    1    2  501    0  0.11447298516E+02 -0.13160576491E+03  0.48208127627E+03  0.49985345346E+03  0.00000000000E+00 0. -1.
<scales pt_clust_5="13000.00000" pt_clust_6="13000.00000" pt_clust_7="13000.00000" pt_clust_8="13000.00000" pt_clust_9="125.14041"></scales>
<clustering>
<clus scale="   79.847">  5  6 -1 -1</clus>
<clus scale="   89.893">  7  8 -1 -1</clus>
<clus scale="  102.496">  2  7  1 -1</clus>
<clus scale="  125.140">  1  9  2 -1</clus>
<clus scale="  125.140">  1  5  2 -1</clus>
</clustering>
</event>
<event>
 9    1  0.7835476E-005  0.1187436E+03  0.7546771E-02  0.1246953E+00
         -2   -1    0    0    0  501 -0.00000000000E+00  0.00000000000E+00  0.14742885973E+03  0.14742885973E+03  0.00000000000E+00 0.  1.
         21   -1    0    0  501  502  0.00000000000E+00 -0.00000000000E+00 -0.20646406889E+03  0.20646406889E+03  0.00000000000E+00 0.  1.
        -24    2    1    2    0    0  0.63102250318E+02  0.78458456140E+02  0.70758766308E+02  0.14600657756E+03  0.78571587400E+02 0.  0.
         23    2    1    2    0    0 -0.34157872119E+02 -0.35357275716E+02 -0.43123860473E+02  0.10685567444E+03  0.84507814101E+02 0.  0.
         13    1    3    3    0    0  0.25188841781E+02  0.57162562449E+02 -0.56869656069E+00  0.62468869942E+02  0.00000000000E+00 0. -1.
        -14    1    3    3    0    0  0.37913408537E+02  0.21295893691E+02  0.71327462868E+02  0.83537707619E+02  0.00000000000E+00 0.  1.
        -13    1    4    4    0    0  0.19337041585E+02 -0.25843912723E+02 -0.41397996304E+02  0.52494029185E+02  0.00000000000E+00 0. -1.
         13    1    4    4    0    0 -0.53494913705E+02 -0.95133629936E+01 -0.17258641691E+01  0.54361645255E+02  0.00000000000E+00 0.  1.
         -1    1    1    2    0  502 -0.28944378198E+02 -0.43101180424E+02 -0.86670115004E+02  0.10103067662E+03  0.00000000000E+00 0.  1.
<scales pt_clust_5="13000.00000" pt_clust_6="13000.00000" pt_clust_7="13000.00000" pt_clust_8="13000.00000" pt_clust_9="51.91810"></scales>
<clustering>
<clus scale="   51.918">  2  9  1 -1</clus>
<clus scale="   78.572">  5  6 -1 -1</clus>
<clus scale="   84.508">  7  8 -1 -1</clus>
<clus scale="  114.595">  1  5  2 -1</clus>
<clus scale="   51.918">  2  5  1 -1</clus>
</clustering>
</event>
<event>
 9    1  0.7835476E-005  0.9323349E+02  0.7546771E-02  0.1297382E+00
          1   -1    0    0  502    0 -0.00000000000E+00  0.00000000000E+00  0.35754609757E+03  0.35754609757E+03  0.00000000000E+00 0. -1.
         21   -1    0    0  501  502  0.00000000000E+00 -0.00000000000E+00 -0.47580540128E+02  0.47580540128E+02  0.00000000000E+00 0. -1.
        -24    2    1    2    0    0  0.38018023697E+02  0.31422429532E+01  0.12645405143E+03  0.15352418318E+03  0.78254737121E+02 0.  0.
         23    2    1    2    0    0 -0.53638379564E+02 -0.23405503627E+02  0.44865892694E+02  0.11061592558E+03  0.82450235303E+02 0.  0.
         13    1    3    3    0    0  0.28968054558E+02 -0.34975766744E+02  0.85722008670E+02  0.97008840910E+02  0.00000000000E+00 0. -1.
        -14    1    3    3    0    0  0.90499691382E+01  0.38118009697E+02  0.40732042763E+02  0.56515342274E+02  0.00000000000E+00 0.  1.
        -13    1    4    4    0    0 -0.70225633139E+02  0.24693411879E+01  0.33508245191E+02  0.77849468152E+02  0.00000000000E+00 0. -1.
         13    1    4    4    0    0  0.16587253575E+02 -0.25874844814E+02  0.11357647504E+02  0.32766457425E+02  0.00000000000E+00 0.  1.
          2    1    1    2  501    0  0.15620355867E+02  0.20263260673E+02  0.13864561331E+03  0.14098652894E+03  0.00000000000E+00 0. -1.
<scales pt_clust_5="13000.00000" pt_clust_6="13000.00000" pt_clust_7="13000.00000" pt_clust_8="13000.00000" pt_clust_9="25.58507"></scales>
<clustering>
<clus scale="   25.585">  2  9  1 -1</clus>
<clus scale="   78.255">  5  6 -1 -1</clus>
<clus scale="   82.450">  7  8 -1 -1</clus>
<clus scale="   89.545">  1  5  2 -1</clus>
<clus scale="   25.585">  2  5  1 -1</clus>
</clustering>
</event>
<event>
 9    1  0.7835476E-005  0.9646310E+02  0.7546771E-02  0.1294315E+00
         21   -1    0    0  501  502  0.00000000000E+00  0.00000000000E+00  0.15342576380E+03  0.15342576380E+03  0.00000000000E+00 0. -1.
          3   -1    0    0  502    0 -0.00000000000E+00 -0.00000000000E+00 -0.12089919068E+03  0.12089919068E+03  0.00000000000E+00 0. -1.
         23    2    1    2    0    0 -0.79613970090E+01  0.10666914557E+02  0.38604589367E+01  0.93087120910E+02  0.92049671524E+02 0.  0.
        -24    2    1    2    0    0  0.36482175479E+01 -0.61107708897E+02  0.63791052581E+02  0.11962096455E+03  0.80575524767E+02 0.  0.
         11    1    4    4    0    0  0.28911556126E+02 -0.68923276728E+02  0.47694735452E+02  0.88662753975E+02  0.00000000000E+00 0. -1.
        -12    1    4    4    0    0 -0.25263338578E+02  0.78155678308E+01  0.16096317128E+02  0.30958210570E+02  0.00000000000E+00 0.  1.
        -13    1    3    3    0    0 -0.10042948289E+02 -0.38784565524E+02 -0.10749175097E+02  0.41480695492E+02  0.00000000000E+00 0.  1.
         13    1    3    3    0    0  0.20815512803E+01  0.49451480081E+02  0.14609634034E+02  0.51606425419E+02  0.00000000000E+00 0. -1.
          4    1    1    2  501    0  0.43131794611E+01  0.50440794340E+02 -0.35124938402E+02  0.61616869026E+02  0.00000000000E+00 0. -1.
<scales pt_clust_5="13000.00000" pt_clust_6="13000.00000" pt_clust_7="13000.00000" pt_clust_8="13000.00000" pt_clust_9="50.62489"></scales>
<clustering>
<clus scale="   50.625">  1  9  2 -1</clus>
<clus scale="   80.576">  5  6 -1 -1</clus>
<clus scale="   85.583">  1  5  2 -1</clus>
<clus scale="   92.050">  7  8 -1 -1</clus>
<clus scale="   50.625">  1  5  2 -1</clus>
</clustering>
</event>
<event>
 9    1  0.7835476E-005  0.1093031E+03  0.7546771E-02  0.1266490E+00
         21   -1    0    0  501  502  0.00000000000E+00  0.00000000000E+00  0.76074731122E+02  0.76074731122E+02  0.00000000000E+00 0. -1.
          1   -1    0    0  502    0 -0.00000000000E+00 -0.00000000000E+00 -0.50120176478E+03  0.50120176478E+03  0.00000000000E+00 0. -1.
         23    2    1    2    0    0 -0.90128105933E+01 -0.57146710595E+02 -0.40582288726E+03  0.41996405450E+03  0.91272197081E+02 0.  0.
        -24    2    1    2    0    0  0.33833475747E+02  0.66570640436E+02 -0.47022432331E+02  0.11893042416E+03  0.79730686686E+02 0.  0.
         11    1    4    4    0    0  0.41354518611E+02  0.73796687466E+02 -0.58933352876E+02  0.10309843535E+03  0.00000000000E+00 0. -1.
        -12    1    4    4    0    0 -0.75210428643E+01 -0.72260470299E+01  0.11910920545E+02  0.15831988810E+02  0.00000000000E+00 0.  1.
        -11    1    3    3    0    0  0.30229735048E+02 -0.48452240869E+02 -0.32172600971E+03  0.32675538534E+03  0.00000000000E+00 0. -1.
         11    1    3    3    0    0 -0.39242545641E+02 -0.86944697260E+01 -0.84096877554E+02  0.93208669160E+02  0.00000000000E+00 0.  1.
          2    1    1    2  501    0 -0.24820665153E+02 -0.94239298410E+01  0.27718285936E+02  0.38382017241E+02  0.00000000000E+00 0. -1.
<scales pt_clust_5="13000.00000" pt_clust_6="13000.00000" pt_clust_7="13000.00000" pt_clust_8="13000.00000" pt_clust_9="26.54950"></scales>
<clustering>
<clus scale="   26.549">  1  9  2 -1</clus>
<clus scale="   79.731">  5  6 -1 -1</clus>
<clus scale="   91.272">  7  8 -1 -1</clus>
<clus scale="   99.868">  1  5  2 -1</clus>
<clus scale="   26.549">  1  5  2 -1</clus>
</clustering>
</event>
<event>
 9    1  0.7835476E-005  0.1100669E+03  0.7546771E-02  0.1265890E+00
         21   -1    0    0  501  502  0.00000000000E+00  0.00000000000E+00  0.10590052550E+03  0.10590052550E+03  0.00000000000E+00 0.  1.
         -2   -1    0    0    0  501 -0.00000000000E+00 -0.00000000000E+00 -0.34355987850E+03  0.34355987850E+03  0.00000000000E+00 0.  1.
        -24    2    1    2    0    0  0.62060388964E+02  0.23767609271E+02 -0.19350999231E+03  0.21892990006E+03  0.77896038977E+02 0.  0.
         23    2    1    2    0    0 -0.55023757786E+02  0.72730271236E+02 -0.19898887952E+02  0.13078362154E+03  0.91602858290E+02 0.  0.
         11    1    3    3    0    0  0.13731869746E+02 -0.17603123847E+02 -0.95538502419E+01  0.24283950880E+02  0.00000000000E+00 0. -1.
        -12    1    3    3    0    0  0.48328519217E+02  0.41370733117E+02 -0.18395614206E+03  0.19464594918E+03  0.00000000000E+00 0.  1.
        -11    1    4    4    0    0 -0.67363658131E+01  0.79706715321E+02 -0.17813298677E+02  0.81950306293E+02  0.00000000000E+00 0.  1.
         11    1    4    4    0    0 -0.48287391973E+02 -0.69764440858E+01 -0.20855892746E+01  0.48833315249E+02  0.00000000000E+00 0. -1.
         -1    1    1    2    0  502 -0.70366311779E+01 -0.96497880506E+02 -0.24250472750E+02  0.99746882403E+02  0.00000000000E+00 0.  1.
<scales pt_clust_5="13000.00000" pt_clust_6="13000.00000" pt_clust_7="13000.00000" pt_clust_8="13000.00000" pt_clust_9="96.75410"></scales>
<clustering>
<clus scale="   77.896">  5  6 -1 -1</clus>
<clus scale="   91.603">  7  8 -1 -1</clus>
<clus scale="   96.754">  1  9  2 -1</clus>
<clus scale="   98.952">  2  5  1 -1</clus>
<clus scale="   96.754">  1  5  2 -1</clus>
</clustering>
</event>
<event>
 9    1  0.7835476E-005  0.1310452E+03  0.7546771E-02  0.1228167E+00
         21   -1    0    0  501  502  0.00000000000E+00  0.00000000000E+00  0.40946538784E+03  0.40946538784E+03  0.00000000000E+00 0. -1.
          1   -1    0    0  502    0 -0.00000000000E+00 -0.00000000000E+00 -0.13927911733E+03  0.13927911733E+03  0.00000000000E+00 0. -1.
         23    2    1    2    0    0  0.87545724140E+02 -0.48132739381E+02 -0.76184999406E+02  0.15411345401E+03  0.89251264175E+02 0.  0.
        -24    2    1    2    0    0 -0.45047010513E+02  0.76781427718E+02  0.15162423586E+03  0.19325256353E+03  0.80199897849E+02 0.  0.
         13    1    4    4    0    0 -0.38090677746E+02  0.82942741860E+02  0.15765902565E+03  0.18217235391E+03  0.00000000000E+00 0. -1.
        -14    1    4    4    0    0 -0.69563327667E+01 -0.61613141421E+01 -0.60347897955E+01  0.11080209628E+02  0.00000000000E+00 0.  1.
        -13    1    3    3    0    0  0.37043919876E+02 -0.10039671334E+02  0.16600253807E+02  0.41816449236E+02  0.00000000000E+00 0.  1.
         13    1    3    3    0    0  0.50501804264E+02 -0.38093068048E+02 -0.92785253214E+02  0.11229700477E+03  0.00000000000E+00 0. -1.
          2    1    1    2  501    0 -0.42498713628E+02 -0.28648688336E+02  0.19474703406E+03  0.20137848763E+03  0.00000000000E+00 0. -1.
<scales pt_clust_5="13000.00000" pt_clust_6="13000.00000" pt_clust_7="13000.00000" pt_clust_8="13000.00000" pt_clust_9="51.25318"></scales>
<clustering>
<clus scale="   51.253">  1  9  2 -1</clus>
<clus scale="   80.200">  5  6 -1 -1</clus>
<clus scale="   89.251">  7  8 -1 -1</clus>
<clus scale="  125.056">  1  5  2 -1</clus>
<clus scale="   51.253">  1  5  2 -1</clus>
</clustering>
</event>
<event>
 9    1  0.7835476E-005  0.1195621E+03  0.7546771E-02  0.1247415E+00
          1   -1    0    0  502    0 -0.00000000000E+00  0.00000000000E+00  0.37734674912E+03  0.37734674912E+03  0.00000000000E+00 0. -1.
         21   -1    0    0  501  502  0.00000000000E+00 -0.00000000000E+00 -0.14687500759E+03  0.14687500759E+03  0.00000000000E+00 0. -1.
        -24    2    1    2    0    0  0.14674507641E+02 -0.81735260323E+02  0.14274366249E+03  0.18454508453E+03  0.82371967844E+02 0.  0.
         23    2    1    2    0    0  0.37923327358E+01  0.27374503804E+02 -0.10227614595E+03  0.14118807918E+03  0.93326943720E+02 0.  0.
         13    1    3    3    0    0  0.31192934383E+02 -0.69597430296E+02  0.14508847492E+03  0.16391298611E+03  0.00000000000E+00 0. -1.
        -14    1    3    3    0    0 -0.16518426742E+02 -0.12137830026E+02 -0.23448124315E+01  0.20632098418E+02  0.00000000000E+00 0.  1.
        -13    1    4    4    0    0 -0.28847962872E+02  0.55929765307E+01 -0.97291347237E+02  0.10163214351E+03  0.00000000000E+00 0. -1.
         13    1    4    4    0    0  0.32640295608E+02  0.21781527274E+02 -0.49847987162E+01  0.39555935660E+02  0.00000000000E+00 0.  1.
          2    1    1    2  501    0 -0.18466840377E+02  0.54360756519E+02  0.19000422499E+03  0.19848859302E+03  0.00000000000E+00 0. -1.
<scales pt_clust_5="13000.00000" pt_clust_6="13000.00000" pt_clust_7="13000.00000" pt_clust_8="13000.00000" pt_clust_9="57.41184"></scales>
<clustering>
<clus scale="   57.412">  2  9  1 -1</clus>
<clus scale="   82.372">  5  6 -1 -1</clus>
<clus scale="   93.327">  7  8 -1 -1</clus>
<clus scale="  111.222">  1  5  2 -1</clus>
<clus scale="   57.412">  2  5  1 -1</clus>
</clustering>
</event>
<event>
 9    1  0.7835476E-005  0.1904157E+03  0.7546771E-02  0.1174597E+00
          1   -1    0    0  502    0 -0.00000000000E+00  0.00000000000E+00  0.23912438658E+04  0.23912438658E+04  0.00000000000E+00 0. -1.
         21   -1    0    0  501  502  0.00000000000E+00 -0.00000000000E+00 -0.30530771458E+02  0.30530771458E+02  0.00000000000E+00 0. -1.
         23    2    1    2    0    0 -0.91459463182E+02  0.12314144393E+02  0.41266112645E+03  0.43271528990E+03  0.91852301434E+02 0.  0.
        -24    2    1    2    0    0 -0.93540156633E+02 -0.12121923799E+03  0.64011743992E+03  0.66362435906E+03  0.84871010819E+02 0.  0.
         11    1    4    4    0    0 -0.89039895839E+02 -0.47062479770E+02  0.37672567337E+03  0.38995539877E+03  0.00000000000E+00 0. -1.
        -12    1    4    4    0    0 -0.45002607944E+01 -0.74156758217E+02  0.26339176656E+03  0.27366896029E+03  0.00000000000E+00 0.  1.
        -13    1    3    3    0    0 -0.28807844405E+02 -0.21896458282E+02  0.42881068317E+02  0.56108224037E+02  0.00000000000E+00 0.  1.
         13    1    3    3    0    0 -0.62651618777E+02  0.34210602675E+02  0.36978005813E+03  0.37660706587E+03  0.00000000000E+00 0. -1.
          2    1    1    2  501    0  0.18499961982E+03  0.10890509359E+03  0.13079345279E+04  0.13254349883E+04  0.00000000000E+00 0. -1.
<scales pt_clust_5="13000.00000" pt_clust_6="13000.00000" pt_clust_7="13000.00000" pt_clust_8="13000.00000" pt_clust_9="170.45554"></scales>
<clustering>
<clus scale="   84.871">  5  6 -1 -1</clus>
<clus scale="   91.852">  7  8 -1 -1</clus>
<clus scale="  130.205">  1  7  2 -1</clus>
<clus scale="  170.456">  2  9  1 -1</clus>
<clus scale="  170.456">  2  5  1 -1</clus>
</clustering>
</event>
<event>
 9    1  0.7835476E-005  0.9840720E+02  0.7546771E-02  0.1288855E+00
         21   -1    0    0  501  502  0.00000000000E+00  0.00000000000E+00  0.13041045850E+03  0.13041045850E+03  0.00000000000E+00 0. -1.
         -2   -1    0    0    0  501 -0.00000000000E+00 -0.00000000000E+00 -0.14009581421E+03  0.14009581421E+03  0.00000000000E+00 0.  1.
        -24    2    1    2    0    0 -0.32170381679E+02 -0.27156575106E+02 -0.28927257993E+02  0.95541934278E+02  0.80740707959E+02 0.  0.
         23    2    1    2    0    0 -0.25466089730E+02  0.53189454062E+02  0.26174962461E+02  0.11134247940E+03  0.90743480805E+02 0.  0.
         11    1    3    3    0    0 -0.31650957113E+01 -0.25800156986E+02  0.23867318893E+02  0.35289018724E+02  0.00000000000E+00 0. -1.
        -12    1    3    3    0    0 -0.29005285968E+02 -0.13564181204E+01 -0.52794576886E+02  0.60252915554E+02  0.00000000000E+00 0.  1.
        -13    1    4    4    0    0  0.34388751824E+02  0.19752809874E+02  0.99946278570E+01  0.40898072521E+02  0.00000000000E+00 0.  1.
         13    1    4    4    0    0 -0.59854841554E+02  0.33436644188E+02  0.16180334604E+02  0.70444406874E+02  0.00000000000E+00 0. -1.
         -1    1    1    2    0  502  0.57636471409E+02 -0.26032878956E+02 -0.69330601755E+01  0.63621859031E+02  0.00000000000E+00 0.  1.
<scales pt_clust_5="13000.00000" pt_clust_6="13000.00000" pt_clust_7="13000.00000" pt_clust_8="13000.00000" pt_clust_9="63.24300"></scales>
<clustering>
<clus scale="   63.243">  1  9  2 -1</clus>
<clus scale="   80.741">  5  6 -1 -1</clus>
<clus scale="   89.267">  2  5  1 -1</clus>
<clus scale="   90.743">  7  8 -1 -1</clus>
<clus scale="   63.243">  1  5  2 -1</clus>
</clustering>
</event>
<event>
 9    1  0.7835476E-005  0.1287016E+03  0.7546771E-02  0.1232862E+00
         21   -1    0    0  501  502  0.00000000000E+00  0.00000000000E+00  0.55221060529E+03  0.55221060529E+03  0.00000000000E+00 0. -1.
         -4   -1    0    0    0  501 -0.00000000000E+00 -0.00000000000E+00 -0.51668135409E+02  0.51668135409E+02  0.00000000000E+00 0.  1.
         23    2    1    2    0    0 -0.40448080249E+01  0.83173889709E+02  0.15355075964E+03  0.19761427609E+03  0.92408386668E+02 0.  0.
        -24    2    1    2    0    0 -0.61289436101E+02 -0.94145439385E+02  0.28017372970E+03  0.31217099575E+03  0.79584251212E+02 0.  0.
         11    1    4    4    0    0 -0.68545455147E+02 -0.73646905561E+02  0.27005413045E+03  0.28818670943E+03  0.00000000000E+00 0. -1.
        -12    1    4    4    0    0  0.72560190462E+01 -0.20498533824E+02  0.10119599249E+02  0.23984286320E+02  0.00000000000E+00 0.  1.
        -13    1    3    3    0    0  0.41815323613E+02  0.52966881212E+02  0.10194218597E+03  0.12225473845E+03  0.00000000000E+00 0.  1.
         13    1    3    3    0    0 -0.45860131638E+02  0.30207008497E+02  0.51608573673E+02  0.75359537636E+02  0.00000000000E+00 0. -1.
         -3    1    1    2    0  502  0.65334244126E+02  0.10971549676E+02  0.66817980535E+02  0.94093468851E+02  0.00000000000E+00 0.  1.
<scales pt_clust_5="13000.00000" pt_clust_6="13000.00000" pt_clust_7="13000.00000" pt_clust_8="13000.00000" pt_clust_9="66.24910"></scales>
<clustering>
<clus scale="   66.249">  1  9  2 -1</clus>
<clus scale="   79.584">  5  6 -1 -1</clus>
<clus scale="   92.408">  7  8 -1 -1</clus>
<clus scale="  119.827">  1  5  2 -1</clus>
<clus scale="   66.249">  1  5  2 -1</clus>
</clustering>
</event>
<event>
 9    1  0.7835476E-005  0.2685250E+03  0.7546771E-02  0.1102127E+00
         21   -1    0    0  501  502  0.00000000000E+00  0.00000000000E+00  0.27109879021E+03  0.27109879021E+03  0.00000000000E+00 0. -1.
          3   -1    0    0  502    0 -0.00000000000E+00 -0.00000000000E+00 -0.32058436428E+03  0.32058436428E+03  0.00000000000E+00 0. -1.
        -24    2    1    2    0    0  0.37229237662E+02  0.67206490279E+02 -0.45987691526E+02  0.12238437644E+03  0.83428648273E+02 0.  0.
         23    2    1    2    0    0  0.81054377814E+02  0.77352405517E+02 -0.16755320597E+03  0.22069781830E+03  0.89890173924E+02 0.  0.
         11    1    3    3    0    0  0.31651409128E+01  0.74608795623E+02 -0.45649718801E+02  0.87523638680E+02  0.00000000000E+00 0. -1.
        -12    1    3    3    0    0  0.34064096749E+02 -0.74023053433E+01 -0.33797272516E+00  0.34860737762E+02  0.00000000000E+00 0.  1.
        -11    1    4    4    0    0  0.63911618435E+02  0.56740076952E+02 -0.47683087554E+02  0.97866276839E+02  0.00000000000E+00 0. -1.
         11    1    4    4    0    0  0.17142759379E+02  0.20612328564E+02 -0.11987011842E+03  0.12283154146E+03  0.00000000000E+00 0.  1.
          4    1    1    2  501    0 -0.11828361548E+03 -0.14455889580E+03  0.16405532342E+03  0.24860095975E+03  0.00000000000E+00 0. -1.
<scales pt_clust_5="13000.00000" pt_clust_6="13000.00000" pt_clust_7="13000.00000" pt_clust_8="13000.00000" pt_clust_9="186.78407"></scales>
<clustering>
<clus scale="   83.429">  5  6 -1 -1</clus>
<clus scale="   89.890">  7  8 -1 -1</clus>
<clus scale="  105.769">  5  7 -1 -1</clus>
<clus scale="  186.784">  1  9  2 -1</clus>
<clus scale="  186.784">  1  5  2 -1</clus>
</clustering>
</event>
<event>
 9    1  0.7835476E-005  0.1176067E+03  0.7546771E-02  0.1249904E+00
         21   -1    0    0  501  502  0.00000000000E+00  0.00000000000E+00  0.66573778832E+03  0.66573778832E+03  0.00000000000E+00 0.  1.
          3   -1    0    0  502    0 -0.00000000000E+00 -0.00000000000E+00 -0.35650938575E+02  0.35650938575E+02  0.00000000000E+00 0. -1.
         23    2    1    2    0    0 -0.30225947568E+02  0.81007589690E+02  0.17738854989E+03  0.21668758392E+03  0.89504044056E+02 0.  0.
        -24    2    1    2    0    0  0.50076045152E+01 -0.54995065260E+02  0.43203006949E+03  0.44299032903E+03  0.80875938072E+02 0.  0.
         11    1    4    4    0    0 -0.27430828000E+02  0.44064659458E+01  0.85108178764E+02  0.89528036722E+02  0.00000000000E+00 0. -1.
        -12    1    4    4    0    0  0.32438432515E+02 -0.59401531206E+02  0.34692189073E+03  0.35346229230E+03  0.00000000000E+00 0.  1.
        -13    1    3    3    0    0 -0.54658471454E+02  0.56270256655E+02  0.74898284481E+02  0.10846033055E+03  0.00000000000E+00 0. -1.
         13    1    3    3    0    0  0.24432523887E+02  0.24737333035E+02  0.10249026540E+03  0.10822725337E+03  0.00000000000E+00 0.  1.
          4    1    1    2  501    0  0.25218343052E+02 -0.26012524430E+02  0.20668230368E+02  0.41710813946E+02  0.00000000000E+00 0. -1.
<scales pt_clust_5="13000.00000" pt_clust_6="13000.00000" pt_clust_7="13000.00000" pt_clust_8="13000.00000" pt_clust_9="36.23006"></scales>
<clustering>
<clus scale="   36.230">  1  9  2 -1</clus>
<clus scale="   80.876">  5  6 -1 -1</clus>
<clus scale="   89.504">  7  8 -1 -1</clus>
<clus scale="  111.181">  1  5  2 -1</clus>
<clus scale="   36.230">  1  5  2 -1</clus>
</clustering>
</event>
<event>
 9    1  0.7835476E-005  0.1745048E+03  0.7546771E-02  0.1184246E+00
         21   -1    0    0  501  502  0.00000000000E+00  0.00000000000E+00  0.69645161138E+03  0.69645161138E+03  0.00000000000E+00 0. -1.
         -4   -1    0    0    0  501 -0.00000000000E+00 -0.00000000000E+00 -0.11159809277E+03  0.11159809277E+03  0.00000000000E+00 0.  1.
        -24    2    1    2    0    0  0.22620400961E+02  0.10866687769E+03  0.75892722713E+02  0.15587614180E+03  0.78851083545E+02 0.  0.
         23    2    1    2    0    0  0.52948832247E+02  0.11015835933E+03  0.31552590020E+03  0.35049119257E+03  0.91373078121E+02 0.  0.
         13    1    3    3    0    0 -0.22719178415E+02  0.78360458036E+02  0.43887238091E+02  0.92642388348E+02  0.00000000000E+00 0. -1.
        -14    1    3    3    0    0  0.45339579376E+02  0.30306419654E+02  0.32005484622E+02  0.63233753456E+02  0.00000000000E+00 0.  1.
        -11    1    4    4    0    0  0.20046050756E+02  0.64149074024E+02  0.64429508283E+02  0.93102681952E+02  0.00000000000E+00 0.  1.
         11    1    4    4    0    0  0.32902781491E+02  0.46009285304E+02  0.25109639192E+03  0.25738851062E+03  0.00000000000E+00 0. -1.
         -3    1    1    2    0  502 -0.75569233208E+02 -0.21882523702E+03  0.19343489569E+03  0.30168236978E+03  0.00000000000E+00 0.  1.
<scales pt_clust_5="13000.00000" pt_clust_6="13000.00000" pt_clust_7="13000.00000" pt_clust_8="13000.00000" pt_clust_9="148.67048"></scales>
<clustering>
<clus scale="   78.851">  5  6 -1 -1</clus>
<clus scale="   91.373">  7  8 -1 -1</clus>
<clus scale="  136.153">  2  5  1 -1</clus>
<clus scale="  148.670">  1  9  2 -1</clus>
<clus scale="  148.670">  1  5  2 -1</clus>
</clustering>
</event>
<event>
 9    1  0.7835476E-005  0.5396340E+03  0.7546771E-02  0.1022872E+00
          1   -1    0    0  502    0 -0.00000000000E+00  0.00000000000E+00  0.41224915970E+03  0.41224915970E+03  0.00000000000E+00 0. -1.
         21   -1    0    0  501  502  0.00000000000E+00 -0.00000000000E+00 -0.28654659600E+04  0.28654659600E+04  0.00000000000E+00 0. -1.
        -24    2    1    2    0    0 -0.18169832337E+03 -0.22667554991E+03  0.13399118469E+03  0.33015416766E+03  0.81560107935E+02 0.  0.
         23    2    1    2    0    0 -0.35235764676E+03  0.36360707897E+03 -0.30177713744E+03  0.59656963308E+03  0.91977537066E+02 0.  0.
         13    1    3    3    0    0 -0.15495729195E+03 -0.16922331883E+03  0.13604205298E+03  0.26675032173E+03  0.00000000000E+00 0. -1.
        -14    1    3    3    0    0 -0.26741031417E+02 -0.57452231079E+02 -0.20508682967E+01  0.63403845925E+02  0.00000000000E+00 0.  1.
        -13    1    4    4    0    0 -0.10610075726E+03  0.54783773982E+02 -0.62816261619E+02  0.13492410943E+03  0.00000000000E+00 0.  1.
         13    1    4    4    0    0 -0.24625688950E+03  0.30882330499E+03 -0.23896087583E+03  0.46164552365E+03  0.00000000000E+00 0. -1.
          2    1    1    2  501    0  0.53405597013E+03 -0.13693152906E+03 -0.22854308475E+04  0.23509913189E+04  0.00000000000E+00 0. -1.
<scales pt_clust_5="13000.00000" pt_clust_6="13000.00000" pt_clust_7="13000.00000" pt_clust_8="13000.00000" pt_clust_9="531.73767"></scales>
<clustering>
<clus scale="   81.560">  5  6 -1 -1</clus>
<clus scale="   91.978">  7  8 -1 -1</clus>
<clus scale="  301.742">  1  5  2 -1</clus>
<clus scale="  531.738">  2  9  1 -1</clus>
<clus scale="  531.738">  2  5  1 -1</clus>
</clustering>
</event>
<event>
 9    1  0.7835476E-005  0.2469743E+03  0.7546771E-02  0.1115660E+00
         21   -1    0    0  501  502  0.00000000000E+00  0.00000000000E+00  0.17064991665E+03  0.17064991665E+03  0.00000000000E+00 0. -1.
          1   -1    0    0  502    0 -0.00000000000E+00 -0.00000000000E+00 -0.97143847968E+03  0.97143847968E+03  0.00000000000E+00 0. -1.
         23    2    1    2    0    0  0.19845763206E+03  0.17311853993E+03 -0.77783572590E+03  0.82628667011E+03  0.91464660559E+02 0.  0.
        -24    2    1    2    0    0 -0.59779795742E+02 -0.13165077548E+03 -0.33923552024E+02  0.17064155827E+03  0.84036797676E+02 0.  0.
         13    1    4    4    0    0 -0.13978080970E+02 -0.71345628506E+02  0.22613648402E+02  0.76137786601E+02  0.00000000000E+00 0. -1.
        -14    1    4    4    0    0 -0.45801714772E+02 -0.60305146969E+02 -0.56537200426E+02  0.94503771666E+02  0.00000000000E+00 0.  1.
        -13    1    3    3    0    0  0.15293030452E+03  0.15901365708E+03 -0.70921414347E+03  0.74273664409E+03  0.00000000000E+00 0. -1.
         13    1    3    3    0    0  0.45527327541E+02  0.14104882851E+02 -0.68621582433E+02  0.83550026026E+02  0.00000000000E+00 0.  1.
          2    1    1    2  501    0 -0.13867783631E+03 -0.41467764457E+02  0.10970714903E+02  0.14516016795E+03  0.00000000000E+00 0. -1.
<scales pt_clust_5="13000.00000" pt_clust_6="13000.00000" pt_clust_7="13000.00000" pt_clust_8="13000.00000" pt_clust_9="144.74501"></scales>
<clustering>
<clus scale="   84.037">  5  6 -1 -1</clus>
<clus scale="   91.465">  7  8 -1 -1</clus>
<clus scale="  144.745">  1  9  2 -1</clus>
<clus scale="  244.321">  1  5  2 -1</clus>
<clus scale="  144.745">  1  5  2 -1</clus>
</clustering>
</event>
<event>
 9    1  0.7835476E-005  0.9726730E+02  0.7546771E-02  0.1287828E+00
         21   -1    0    0  501  502  0.00000000000E+00  0.00000000000E+00  0.20699514786E+03  0.20699514786E+03  0.00000000000E+00 0. -1.
          1   -1    0    0  502    0 -0.00000000000E+00 -0.00000000000E+00 -0.17916571682E+03  0.17916571682E+03  0.00000000000E+00 0. -1.
         23    2    1    2    0    0  0.16844620075E+02 -0.31541132277E+02 -0.10211668501E+03  0.14268359431E+03  0.93017237520E+02 0.  0.
        -24    2    1    2    0    0  0.67431461267E+02 -0.20054799155E+02  0.66723145207E+02  0.12616681872E+03  0.80727263682E+02 0.  0.
         13    1    4    4    0    0  0.78879800243E+02 -0.36589886773E+02  0.55013627571E+02  0.10289480997E+03  0.00000000000E+00 0. -1.
        -14    1    4    4    0    0 -0.11448338977E+02  0.16535087618E+02  0.11709517636E+02  0.23272008747E+02  0.00000000000E+00 0.  1.
        -13    1    3    3    0    0  0.24972730064E+02 -0.67039502319E+01 -0.11184748903E+03  0.11479739107E+03  0.00000000000E+00 0. -1.
         13    1    3    3    0    0 -0.81281099890E+01 -0.24837182045E+02  0.97308040172E+01  0.27886203233E+02  0.00000000000E+00 0.  1.
          2    1    1    2  501    0 -0.84276081341E+02  0.51595931431E+02  0.63222970842E+02  0.11731045166E+03  0.00000000000E+00 0. -1.
<scales pt_clust_5="13000.00000" pt_clust_6="13000.00000" pt_clust_7="13000.00000" pt_clust_8="13000.00000" pt_clust_9="98.81598"></scales>
<clustering>
<clus scale="   80.727">  5  6 -1 -1</clus>
<clus scale="   93.017">  7  8 -1 -1</clus>
<clus scale="   98.816">  1  9  2 -1</clus>
<clus scale="   98.816">  1  5  2 -1</clus>
<clus scale="   97.267">  1  5  2 -1</clus>
</clustering>
</event>
<event>
 9    1  0.7835476E-005  0.1307283E+03  0.7546771E-02  0.1228659E+00
         21   -1    0    0  501  502  0.00000000000E+00  0.00000000000E+00  0.47449425188E+03  0.47449425188E+03  0.00000000000E+00 0. -1.
         -2   -1    0    0    0  501 -0.00000000000E+00 -0.00000000000E+00 -0.66250426615E+02  0.66250426615E+02  0.00000000000E+00 0.  1.
        -24    2    1    2    0    0 -0.64259463682E+02  0.52391359860E+02  0.60246224903E+02  0.13027598552E+03  0.80424446081E+02 0.  0.
         23    2    1    2    0    0  0.79339362977E+02 -0.93855018942E+02  0.17445038984E+03  0.23140090507E+03  0.89498275130E+02 0.  0.
         13    1    3    3    0    0  0.59709728318E+00  0.49266693574E+02  0.16406057858E+02  0.51929975499E+02  0.00000000000E+00 0. -1.
        -14    1    3    3    0    0 -0.64856560965E+02  0.31246662858E+01  0.43840167045E+02  0.78346010021E+02  0.00000000000E+00 0.  1.
        -13    1    4    4    0    0  0.54627593905E+02 -0.10896821719E+02  0.11061043022E+03  0.12384499188E+03  0.00000000000E+00 0. -1.
         13    1    4    4    0    0  0.24711769071E+02 -0.82958197223E+02  0.63839959617E+02  0.10755591319E+03  0.00000000000E+00 0.  1.
         -1    1    1    2    0  502 -0.15079899295E+02  0.41463659082E+02  0.17354721052E+03  0.17906778791E+03  0.00000000000E+00 0.  1.
<scales pt_clust_5="13000.00000" pt_clust_6="13000.00000" pt_clust_7="13000.00000" pt_clust_8="13000.00000" pt_clust_9="44.12073"></scales>
<clustering>
<clus scale="   44.121">  1  9  2 -1</clus>
<clus scale="   80.424">  5  6 -1 -1</clus>
<clus scale="   89.498">  7  8 -1 -1</clus>
<clus scale="  124.692">  2  5  1 -1</clus>
<clus scale="   44.121">  1  5  2 -1</clus>
</clustering>
</event>
<event>
 9    1  0.7835476E-005  0.1345134E+03  0.7546771E-02  0.1228313E+00
          3   -1    0    0  502    0 -0.00000000000E+00  0.00000000000E+00  0.37464136139E+03  0.37464136139E+03  0.00000000000E+00 0. -1.
         21   -1    0    0  501  502  0.00000000000E+00 -0.00000000000E+00 -0.16661912695E+03  0.16661912695E+03  0.00000000000E+00 0. -1.
        -24    2    1    2    0    0  0.38963194990E+02 -0.74226313080E+02 -0.93692285010E+02  0.14855396875E+03  0.79135082260E+02 0.  0.
         23    2    1    2    0    0  0.71697753607E+02  0.22937375415E+02  0.20826632461E+03  0.23905442625E+03  0.90030359758E+02 0.  0.
         11    1    3    3    0    0  0.13611846088E+01 -0.32578703217E+02 -0.85930119862E+02  0.91908705933E+02  0.00000000000E+00 0. -1.
        -12    1    3    3    0    0  0.37602010381E+02 -0.41647609863E+02 -0.77621651478E+01  0.56645262818E+02  0.00000000000E+00 0.  1.
        -13    1    4    4    0    0  0.33297104219E+02 -0.75409996613E+01  0.17842229829E+03  0.18165924241E+03  0.00000000000E+00 0.  1.
         13    1    4    4    0    0  0.38400649387E+02  0.30478375076E+02  0.29844026318E+02  0.57395183836E+02  0.00000000000E+00 0. -1.
          4    1    1    2  501    0 -0.11066094860E+03  0.51288937665E+02  0.93448194833E+02  0.15365209334E+03  0.00000000000E+00 0. -1.
<scales pt_clust_5="13000.00000" pt_clust_6="13000.00000" pt_clust_7="13000.00000" pt_clust_8="13000.00000" pt_clust_9="99.94193"></scales>
<clustering>
<clus scale="   79.135">  5  6 -1 -1</clus>
<clus scale="   90.030">  7  8 -1 -1</clus>
<clus scale="  115.282">  1  5  2 -1</clus>
<clus scale="   99.942">  2  9  1 -1</clus>
<clus scale="   99.942">  2  5  1 -1</clus>
</clustering>
</event>
<event>
 9    1  0.7835476E-005  0.1081520E+03  0.7546771E-02  0.1265186E+00
         21   -1    0    0  501  502  0.00000000000E+00  0.00000000000E+00  0.15629141127E+03  0.15629141127E+03  0.00000000000E+00 0. -1.
         -4   -1    0    0    0  501 -0.00000000000E+00 -0.00000000000E+00 -0.30875330636E+03  0.30875330636E+03  0.00000000000E+00 0.  1.
        -24    2    1    2    0    0  0.48755137522E+02 -0.22619814219E+02 -0.25552663970E+03  0.27698017878E+03  0.92387425611E+02 0.  0.
         23    2    1    2    0    0 -0.63292494677E+02  0.47181885824E+02  0.53396841622E+02  0.13077989255E+03  0.89554940503E+02 0.  0.
         13    1    3    3    0    0  0.56964813950E+02  0.17861482552E+02 -0.19316297441E+03  0.20217803360E+03  0.00000000000E+00 0. -1.
        -14    1    3    3    0    0 -0.82096764284E+01 -0.40481296771E+02 -0.62363665291E+02  0.74802145182E+02  0.00000000000E+00 0.  1.
        -13    1    4    4    0    0 -0.99660651865E+01  0.48325218089E+02  0.59268023805E+02  0.77119049556E+02  0.00000000000E+00 0. -1.
         13    1    4    4    0    0 -0.53326429490E+02 -0.11433322643E+01 -0.58711821833E+01  0.53660842996E+02  0.00000000000E+00 0.  1.
         -3    1    1    2    0  502  0.14537357155E+02 -0.24562071606E+02  0.49667902987E+02  0.57284646300E+02  0.00000000000E+00 0.  1.
<scales pt_clust_5="13000.00000" pt_clust_6="13000.00000" pt_clust_7="13000.00000" pt_clust_8="13000.00000" pt_clust_9="28.54173"></scales>
<clustering>
<clus scale="   28.542">  1  9  2 -1</clus>
<clus scale="   89.555">  7  8 -1 -1</clus>
<clus scale="   92.387">  5  6 -1 -1</clus>
<clus scale="  105.743">  1  7  2 -1</clus>
<clus scale="   28.542">  1  5  2 -1</clus>
</clustering>
</event>
<event>
 9    1  0.7835476E-005  0.1428913E+03  0.7546771E-02  0.1211713E+00
         -2   -1    0    0    0  501 -0.00000000000E+00  0.00000000000E+00  0.35759821117E+03  0.35759821117E+03  0.00000000000E+00 0.  1.
         21   -1    0    0  501  502  0.00000000000E+00 -0.00000000000E+00 -0.87010897485E+02  0.87010897485E+02  0.00000000000E+00 0. -1.
         23    2    1    2    0    0  0.57629116113E+02  0.93741147340E+02  0.23518318486E+03  0.27514345818E+03  0.91017989475E+02 0.  0.
        -24    2    1    2    0    0 -0.34883301501E+02 -0.10729863272E+03  0.23466359008E+02  0.14041934537E+03  0.80231423034E+02 0.  0.
         11    1    4    4    0    0 -0.19304678812E+02 -0.10816758212E+03 -0.27500831726E+01  0.10991114322E+03  0.00000000000E+00 0. -1.
        -12    1    4    4    0    0 -0.15578622689E+02  0.86894940217E+00  0.26216442180E+02  0.30508202152E+02  0.00000000000E+00 0.  1.
        -13    1    3    3    0    0 -0.69941827260E+01  0.58699569339E+02  0.15732275453E+03  0.16806250958E+03  0.00000000000E+00 0.  1.
         13    1    3    3    0    0  0.64623298839E+02  0.35041578002E+02  0.77860430326E+02  0.10708094860E+03  0.00000000000E+00 0. -1.
         -1    1    1    2    0  502 -0.22745814612E+02  0.13557485380E+02  0.11937769817E+02  0.29046305107E+02  0.00000000000E+00 0.  1.
<scales pt_clust_5="13000.00000" pt_clust_6="13000.00000" pt_clust_7="13000.00000" pt_clust_8="13000.00000" pt_clust_9="26.47976"></scales>
<clustering>
<clus scale="   26.480">  2  9  1 -1</clus>
<clus scale="   80.231">  5  6 -1 -1</clus>
<clus scale="   91.018">  7  8 -1 -1</clus>
<clus scale="  136.274">  2  5  1 -1</clus>
<clus scale="   26.480">  2  5  1 -1</clus>
</clustering>
</event>
<event>
 9    1  0.7835476E-005  0.1147118E+03  0.7546771E-02  0.1256050E+00
         21   -1    0    0  501  502  0.00000000000E+00  0.00000000000E+00  0.35876765295E+03  0.35876765295E+03  0.00000000000E+00 0.  1.
         -2   -1    0    0    0  501 -0.00000000000E+00 -0.00000000000E+00 -0.75958603576E+02  0.75958603576E+02  0.00000000000E+00 0.  1.
         23    2    1    2    0    0  0.70588704160E+02  0.50062348361E+02  0.43155215463E+02  0.13320277375E+03  0.91605689963E+02 0.  0.
        -24    2    1    2    0    0 -0.25406457698E+02 -0.53767233970E+01  0.21891464332E+03  0.23467773123E+03  0.80471232301E+02 0.  0.
         11    1    4    4    0    0  0.32038742796E+01 -0.39102783281E+02  0.84269023190E+02  0.92954616561E+02  0.00000000000E+00 0. -1.
        -12    1    4    4    0    0 -0.28610331978E+02  0.33726059884E+02  0.13464562013E+03  0.14172311467E+03  0.00000000000E+00 0.  1.
        -11    1    3    3    0    0  0.50674442939E+02  0.31871983111E+02 -0.21133840451E+02  0.63485129651E+02  0.00000000000E+00 0.  1.
         11    1    3    3    0    0  0.19914261221E+02  0.18190365250E+02  0.64289055914E+02  0.69717644095E+02  0.00000000000E+00 0. -1.
         -1    1    1    2    0  502 -0.45182246462E+02 -0.44685624964E+02  0.20739190590E+02  0.66845751549E+02  0.00000000000E+00 0.  1.
<scales pt_clust_5="13000.00000" pt_clust_6="13000.00000" pt_clust_7="13000.00000" pt_clust_8="13000.00000" pt_clust_9="63.54718"></scales>
<clustering>
<clus scale="   63.547">  1  9  2 -1</clus>
<clus scale="   80.471">  5  6 -1 -1</clus>
<clus scale="   91.606">  7  8 -1 -1</clus>
<clus scale="  106.032">  1  5  2 -1</clus>
<clus scale="   63.547">  1  5  2 -1</clus>
</clustering>
</event>
<event>
 9    1  0.7835476E-005  0.1228406E+03  0.7546771E-02  0.1242189E+00
         21   -1    0    0  501  502  0.00000000000E+00  0.00000000000E+00  0.92343226416E+02  0.92343226416E+02  0.00000000000E+00 0. -1.
          1   -1    0    0  502    0 -0.00000000000E+00 -0.00000000000E+00 -0.71299424015E+03  0.71299424015E+03  0.00000000000E+00 0. -1.
        -24    2    1    2    0    0  0.28184940158E+02  0.83075195163E+02 -0.25071593629E+03  0.27760584928E+03  0.80688586217E+02 0.  0.
         23    2    1    2    0    0 -0.91214610048E+02 -0.51533140692E+01  0.13936837408E+02  0.13099214880E+03  0.92833430816E+02 0.  0.
         11    1    3    3    0    0  0.36682088914E+02  0.19098089953E+02 -0.41204149478E+02  0.58378888488E+02  0.00000000000E+00 0. -1.
        -12    1    3    3    0    0 -0.84971487560E+01  0.63977105210E+02 -0.20951178681E+03  0.21922696079E+03  0.00000000000E+00 0.  1.
        -13    1    4    4    0    0 -0.55262552063E+02 -0.36228039637E+02  0.39548041872E+02  0.77009532737E+02  0.00000000000E+00 0. -1.
         13    1    4    4    0    0 -0.35952057985E+02  0.31074725568E+02 -0.25611204464E+02  0.53982616058E+02  0.00000000000E+00 0.  1.
          2    1    1    2  501    0  0.63029669890E+02 -0.77921881094E+02 -0.38387191486E+03  0.39673946849E+03  0.00000000000E+00 0. -1.
<scales pt_clust_5="13000.00000" pt_clust_6="13000.00000" pt_clust_7="13000.00000" pt_clust_8="13000.00000" pt_clust_9="100.22260"></scales>
<clustering>
<clus scale="   80.689">  5  6 -1 -1</clus>
<clus scale="   92.833">  7  8 -1 -1</clus>
<clus scale="  100.223">  1  9  2 -1</clus>
<clus scale="  113.940">  2  5  1 -1</clus>
<clus scale="  100.223">  1  5  2 -1</clus>
</clustering>
</event>
<event>
 9    1  0.7835476E-005  0.1270692E+03  0.7546771E-02  0.1235153E+00
          1   -1    0    0  502    0 -0.00000000000E+00  0.00000000000E+00  0.14139573949E+04  0.14139573949E+04  0.00000000000E+00 0. -1.
         21   -1    0    0  501  502  0.00000000000E+00 -0.00000000000E+00 -0.28775331841E+02  0.28775331841E+02  0.00000000000E+00 0. -1.
         23    2    1    2    0    0  0.89011751476E+02  0.84004831487E+02  0.50641677605E+03  0.52902468739E+03  0.91811029766E+02 0.  0.
        -24    2    1    2    0    0  0.13271911830E+02 -0.68243472282E+02  0.19294938132E+03  0.22012760082E+03  0.79958625157E+02 0.  0.
         11    1    4    4    0    0 -0.25862270060E+01 -0.81621798236E+02  0.17318532777E+03  0.19147314243E+03  0.00000000000E+00 0. -1.
        -12    1    4    4    0    0  0.15858138836E+02  0.13378325954E+02  0.19764053548E+02  0.28654458385E+02  0.00000000000E+00 0.  1.
        -13    1    3    3    0    0  0.18412196302E+02  0.72558816933E+02  0.33544291515E+03  0.34369425397E+03  0.00000000000E+00 0.  1.
         13    1    3    3    0    0  0.70599555174E+02  0.11446014554E+02  0.17097386090E+03  0.18533043342E+03  0.00000000000E+00 0. -1.
          2    1    1    2  501    0 -0.10228366331E+03 -0.15761359205E+02  0.68581590569E+03  0.69358043854E+03  0.00000000000E+00 0. -1.
<scales pt_clust_5="13000.00000" pt_clust_6="13000.00000" pt_clust_7="13000.00000" pt_clust_8="13000.00000" pt_clust_9="103.49096"></scales>
<clustering>
<clus scale="   79.959">  5  6 -1 -1</clus>
<clus scale="   91.811">  7  8 -1 -1</clus>
<clus scale="  103.491">  2  9  1 -1</clus>
<clus scale="  118.788">  2  5  1 -1</clus>
<clus scale="  103.491">  2  5  1 -1</clus>
</clustering>
</event>
<event>
 9    1  0.7835476E-005  0.2135293E+03  0.7546771E-02  0.1172127E+00
         21   -1    0    0  501  502  0.00000000000E+00  0.00000000000E+00  0.21651961692E+03  0.21651961692E+03  0.00000000000E+00 0. -1.
          3   -1    0    0  502    0 -0.00000000000E+00 -0.00000000000E+00 -0.36473418122E+03  0.36473418122E+03  0.00000000000E+00 0. -1.
         23    2    1    2    0    0 -0.61311886016E+01 -0.33371625907E+02 -0.96950383248E+02  0.13761805115E+03  0.91586539956E+02 0.  0.
        -24    2    1    2    0    0 -0.15038008602E+03 -0.11579935969E+03  0.39512411242E+02  0.20914022094E+03  0.78452147181E+02 0.  0.
         13    1    4    4    0    0 -0.12639872622E+03 -0.11298702987E+03  0.83827025606E+01  0.16974385589E+03  0.00000000000E+00 0. -1.
        -14    1    4    4    0    0 -0.23981359800E+02 -0.28123298177E+01  0.31129708682E+02  0.39396365054E+02  0.00000000000E+00 0.  1.
        -13    1    3    3    0    0 -0.71778914019E+01  0.24316901282E+02 -0.65811760892E+00  0.25362707500E+02  0.00000000000E+00 0. -1.
         13    1    3    3    0    0  0.10467028004E+01 -0.57688527189E+02 -0.96292265639E+02  0.11225534365E+03  0.00000000000E+00 0.  1.
          4    1    1    2  501    0  0.15651127462E+03  0.14917098560E+03 -0.90776592289E+02  0.23449552604E+03  0.00000000000E+00 0. -1.
<scales pt_clust_5="13000.00000" pt_clust_6="13000.00000" pt_clust_7="13000.00000" pt_clust_8="13000.00000" pt_clust_9="198.59521"></scales>
<clustering>
<clus scale="   78.452">  5  6 -1 -1</clus>
<clus scale="   91.587">  7  8 -1 -1</clus>
<clus scale="   97.670">  2  7  1 -1</clus>
<clus scale="  198.595">  1  9  2 -1</clus>
<clus scale="  198.595">  1  5  2 -1</clus>
</clustering>
</event>
<event>
 9    1  0.7835476E-005  0.3097375E+03  0.7546771E-02  0.1080794E+00
         21   -1    0    0  501  502  0.00000000000E+00  0.00000000000E+00  0.18511487005E+03  0.18511487005E+03  0.00000000000E+00 0. -1.
          1   -1    0    0  502    0 -0.00000000000E+00 -0.00000000000E+00 -0.77563454198E+03  0.77563454198E+03  0.00000000000E+00 0. -1.
        -24    2    1    2    0    0 -0.27807518477E+03 -0.12781692526E+03 -0.53009580641E+03  0.61731344301E+03  0.80070894696E+02 0.  0.
         23    2    1    2    0    0  0.23394901735E+03  0.14058972853E+03 -0.71680529014E+02  0.29613929233E+03  0.89792915822E+02 0.  0.
         11    1    3    3    0    0 -0.14406388254E+03 -0.10609347603E+03 -0.33239615748E+03  0.37748832222E+03  0.00000000000E+00 0. -1.
        -12    1    3    3    0    0 -0.13401130223E+03 -0.21723449236E+02 -0.19769964893E+03  0.23982512078E+03  0.00000000000E+00 0.  1.
        -13    1    4    4    0    0  0.11940471968E+03  0.11447301349E+03 -0.67281188869E+02  0.17857299985E+03  0.00000000000E+00 0. -1.
         13    1    4    4    0    0  0.11454429767E+03  0.26116715044E+02 -0.43993401456E+01  0.11756629248E+03  0.00000000000E+00 0.  1.
          2    1    1    2  501    0  0.44126167414E+02 -0.12772803270E+02  0.11256663493E+02  0.47296676702E+02  0.00000000000E+00 0. -1.
<scales pt_clust_5="13000.00000" pt_clust_6="13000.00000" pt_clust_7="13000.00000" pt_clust_8="13000.00000" pt_clust_9="45.93760"></scales>
<clustering>
<clus scale="   45.938">  1  9  2 -1</clus>
<clus scale="   80.071">  5  6 -1 -1</clus>
<clus scale="   89.793">  7  8 -1 -1</clus>
<clus scale="  307.060">  2  5  1 -1</clus>
<clus scale="   45.938">  1  5  2 -1</clus>
</clustering>
</event>
<event>
 9    1  0.7835476E-005  0.1898863E+03  0.7546771E-02  0.1167239E+00
         21   -1    0    0  501  502  0.00000000000E+00  0.00000000000E+00  0.32224540104E+03  0.32224540104E+03  0.00000000000E+00 0. -1.
          3   -1    0    0  502    0 -0.00000000000E+00 -0.00000000000E+00 -0.27112948428E+03  0.27112948428E+03  0.00000000000E+00 0. -1.
        -24    2    1    2    0    0  0.45657863242E+02  0.12856643321E+03 -0.32617136261E+02  0.15871152598E+03  0.74239495393E+02 0.  0.
         23    2    1    2    0    0  0.12097370703E+03  0.60239675233E+02  0.81285153942E+02  0.18283044051E+03  0.92499932227E+02 0.  0.
         11    1    3    3    0    0  0.49012206658E+02  0.10337607569E+03 -0.53045785434E+02  0.12610576822E+03  0.00000000000E+00 0. -1.
        -12    1    3    3    0    0 -0.33543434159E+01  0.25190357518E+02  0.20428649174E+02  0.32605757754E+02  0.00000000000E+00 0.  1.
        -13    1    4    4    0    0  0.91818859445E+02  0.21116697057E+02  0.76880086450E+01  0.94528954936E+02  0.00000000000E+00 0. -1.
         13    1    4    4    0    0  0.29154847583E+02  0.39122978175E+02  0.73597145297E+02  0.88301485575E+02  0.00000000000E+00 0.  1.
          4    1    1    2  501    0 -0.16663157027E+03 -0.18880610844E+03  0.24478990735E+01  0.25183291883E+03  0.00000000000E+00 0. -1.
<scales pt_clust_5="13000.00000" pt_clust_6="13000.00000" pt_clust_7="13000.00000" pt_clust_8="13000.00000" pt_clust_9="165.83305"></scales>
<clustering>
<clus scale="   74.239">  5  6 -1 -1</clus>
<clus scale="   92.500">  7  8 -1 -1</clus>
<clus scale="  155.324">  2  5  1 -1</clus>
<clus scale="  165.833">  1  9  2 -1</clus>
<clus scale="  165.833">  1  5  2 -1</clus>
</clustering>
</event>
<event>
 9    1  0.7835476E-005  0.8889042E+02  0.7546771E-02  0.1310701E+00
          1   -1    0    0  502    0 -0.00000000000E+00  0.00000000000E+00  0.31817928293E+03  0.31817928293E+03  0.00000000000E+00 0. -1.
         21   -1    0    0  501  502  0.00000000000E+00 -0.00000000000E+00 -0.37807983025E+02  0.37807983025E+02  0.00000000000E+00 0.  1.
         23    2    1    2    0    0  0.53685576507E+01  0.20325025481E+01  0.17659256108E+03  0.19749517735E+03  0.88240920030E+02 0.  0.
        -24    2    1    2    0    0 -0.22085760179E+02  0.14981360378E+02  0.46626923273E+02  0.96562560815E+02  0.80237374183E+02 0.  0.
         13    1    4    4    0    0 -0.56471699090E+01 -0.20106211102E+02  0.53299320885E+02  0.57244806399E+02  0.00000000000E+00 0. -1.
        -14    1    4    4    0    0 -0.16438590271E+02  0.35087571480E+02 -0.66723976122E+01  0.39317754416E+02  0.00000000000E+00 0.  1.
        -11    1    3    3    0    0 -0.40631347724E+02 -0.77929424457E+01  0.84626750425E+02  0.94198318761E+02  0.00000000000E+00 0.  1.
         11    1    3    3    0    0  0.45999905375E+02  0.98254449938E+01  0.91965810656E+02  0.10329685858E+03  0.00000000000E+00 0. -1.
          2    1    1    2  501    0  0.16717202529E+02 -0.17013862926E+02  0.57151815549E+02  0.61929527792E+02  0.00000000000E+00 0. -1.
<scales pt_clust_5="13000.00000" pt_clust_6="13000.00000" pt_clust_7="13000.00000" pt_clust_8="13000.00000" pt_clust_9="23.85240"></scales>
<clustering>
<clus scale="   23.852">  2  9  1 -1</clus>
<clus scale="   80.237">  5  6 -1 -1</clus>
<clus scale="   80.951">  2  5  1 -1</clus>
<clus scale="   88.241">  7  8 -1 -1</clus>
<clus scale="   23.852">  2  5  1 -1</clus>
</clustering>
</event>
<event>
 9    1  0.7835476E-005  0.2423734E+03  0.7546771E-02  0.1140626E+00
         21   -1    0    0  501  502  0.00000000000E+00  0.00000000000E+00  0.16992667796E+03  0.16992667796E+03  0.00000000000E+00 0. -1.
          1   -1    0    0  502    0 -0.00000000000E+00 -0.00000000000E+00 -0.75101524699E+03  0.75101524699E+03  0.00000000000E+00 0. -1.
        -24    2    1    2    0    0 -0.11158516961E+03  0.27520506941E+02 -0.35044987145E+03  0.37727471892E+03  0.79451071458E+02 0.  0.
         23    2    1    2    0    0 -0.75858595285E+02 -0.18815314331E+03 -0.19214004018E+03  0.29382694608E+03  0.90886453251E+02 0.  0.
         13    1    3    3    0    0 -0.12282399038E+03  0.33031236478E+02 -0.32048007432E+03  0.34479598784E+03  0.00000000000E+00 0. -1.
        -14    1    3    3    0    0  0.11238820767E+02 -0.55107295374E+01 -0.29969797134E+02  0.32478731079E+02  0.00000000000E+00 0.  1.
        -11    1    4    4    0    0 -0.52396383797E+02 -0.18391098990E+03 -0.14160858574E+03  0.23795298863E+03  0.00000000000E+00 0. -1.
         11    1    4    4    0    0 -0.23462211488E+02 -0.42421534113E+01 -0.50531454439E+02  0.55873957450E+02  0.00000000000E+00 0.  1.
          2    1    1    2  501    0  0.18744376490E+03  0.16063263637E+03 -0.38498657404E+02  0.24984025995E+03  0.00000000000E+00 0. -1.
<scales pt_clust_5="13000.00000" pt_clust_6="13000.00000" pt_clust_7="13000.00000" pt_clust_8="13000.00000" pt_clust_9="224.68760"></scales>
<clustering>
<clus scale="   79.451">  5  6 -1 -1</clus>
<clus scale="   90.886">  7  8 -1 -1</clus>
<clus scale="  139.718">  2  5  1 -1</clus>
<clus scale="  224.688">  1  9  2 -1</clus>
<clus scale="  224.688">  1  5  2 -1</clus>
</clustering>
</event>
<event>
 9    1  0.7835476E-005  0.1168966E+03  0.7546771E-02  0.1252185E+00
         21   -1    0    0  501  502  0.00000000000E+00  0.00000000000E+00  0.35685172515E+03  0.35685172515E+03  0.00000000000E+00 0.  1.
          1   -1    0    0  502    0 -0.00000000000E+00 -0.00000000000E+00 -0.12303141340E+03  0.12303141340E+03  0.00000000000E+00 0. -1.
         23    2    1    2    0    0  0.41615611284E+02 -0.55189512934E+02 -0.27338921364E+02  0.11822077585E+03  0.91929286854E+02 0.  0.
        -24    2    1    2    0    0 -0.44830973959E+02  0.82473300562E+02  0.29393047611E+03  0.31889908416E+03  0.80559540438E+02 0.  0.
         11    1    4    4    0    0  0.22700973809E+02  0.22603621597E+02  0.99809200669E+02  0.10482430281E+03  0.00000000000E+00 0. -1.
        -12    1    4    4    0    0 -0.67531947768E+02  0.59869678965E+02  0.19412127544E+03  0.21407478135E+03  0.00000000000E+00 0.  1.
        -11    1    3    3    0    0 -0.32545645340E+01  0.19749512849E+02 -0.23391588367E+02  0.30786390734E+02  0.00000000000E+00 0.  1.
         11    1    3    3    0    0  0.44870175818E+02 -0.74939025783E+02 -0.39473329966E+01  0.87434385119E+02  0.00000000000E+00 0. -1.
          2    1    1    2  501    0  0.32153626751E+01 -0.27283787628E+02 -0.32771242997E+02  0.42763278546E+02  0.00000000000E+00 0. -1.
<scales pt_clust_5="13000.00000" pt_clust_6="13000.00000" pt_clust_7="13000.00000" pt_clust_8="13000.00000" pt_clust_9="27.47261"></scales>
<clustering>
<clus scale="   27.473">  1  9  2 -1</clus>
<clus scale="   80.560">  5  6 -1 -1</clus>
<clus scale="   91.929">  7  8 -1 -1</clus>
<clus scale="  108.183">  1  5  2 -1</clus>
<clus scale="   27.473">  1  5  2 -1</clus>
</clustering>
</event>
<event>
 9    1  0.7835476E-005  0.1135163E+03  0.7546771E-02  0.1260676E+00
          1   -1    0    0  502    0 -0.00000000000E+00  0.00000000000E+00  0.34519977934E+03  0.34519977934E+03  0.00000000000E+00 0. -1.
         21   -1    0    0  501  502  0.00000000000E+00 -0.00000000000E+00 -0.46399947501E+02  0.46399947501E+02  0.00000000000E+00 0.  1.
        -24    2    1    2    0    0 -0.31650907858E+02  0.54643767263E+02  0.18077100746E+03  0.20634181417E+03  0.76883456397E+02 0.  0.
         23    2    1    2    0    0  0.12626216173E+02 -0.66146196430E+02  0.11461996872E+03  0.16276646836E+03  0.93917226086E+02 0.  0.
         13    1    3    3    0    0 -0.32320699123E+02  0.23053098664E+02  0.16737995277E+03  0.17202360751E+03  0.00000000000E+00 0. -1.
        -14    1    3    3    0    0  0.66979126509E+00  0.31590668599E+02  0.13391054689E+02  0.34318206663E+02  0.00000000000E+00 0.  1.
        -11    1    4    4    0    0 -0.10401094911E+02 -0.48210411123E+02  0.52844162325E+01  0.49601931121E+02  0.00000000000E+00 0.  1.
         11    1    4    4    0    0  0.23027311084E+02 -0.17935785306E+02  0.10933555249E+03  0.11316453724E+03  0.00000000000E+00 0. -1.
          2    1    1    2  501    0  0.19024691685E+02  0.11502429167E+02  0.34088556584E+01  0.22491444314E+02  0.00000000000E+00 0. -1.
<scales pt_clust_5="13000.00000" pt_clust_6="13000.00000" pt_clust_7="13000.00000" pt_clust_8="13000.00000" pt_clust_9="22.23162"></scales>
<clustering>
<clus scale="   22.232">  2  9  1 -1</clus>
<clus scale="   76.883">  5  6 -1 -1</clus>
<clus scale="   93.917">  7  8 -1 -1</clus>
<clus scale="   99.883">  1  5  2 -1</clus>
<clus scale="   22.232">  2  5  1 -1</clus>
</clustering>
</event>
<event>
 9    1  0.7835476E-005  0.1036280E+03  0.7546771E-02  0.1274527E+00
          1   -1    0    0  502    0 -0.00000000000E+00  0.00000000000E+00  0.88591162379E+02  0.88591162379E+02  0.00000000000E+00 0. -1.
         21   -1    0    0  501  502  0.00000000000E+00 -0.00000000000E+00 -0.28134889747E+03  0.28134889747E+03  0.00000000000E+00 0. -1.
         23    2    1    2    0    0  0.50973709705E+02 -0.31937232729E+02  0.35907033628E+02  0.11055396877E+03  0.85525195300E+02 0.  0.
        -24    2    1    2    0    0 -0.52893811790E+02  0.10308990452E+02 -0.16106546357E+03  0.18838514945E+03  0.81503683158E+02 0.  0.
         13    1    4    4    0    0 -0.57694625597E+02  0.37385089832E+02 -0.99309507258E+02  0.12078366196E+03  0.00000000000E+00 0. -1.
        -14    1    4    4    0    0  0.48008138071E+01 -0.27076099380E+02 -0.61755956317E+02  0.67601487494E+02  0.00000000000E+00 0.  1.
        -13    1    3    3    0    0  0.37383699951E+02  0.22926429155E+02  0.49776667964E+00  0.43856697864E+02  0.00000000000E+00 0.  1.
         13    1    3    3    0    0  0.13590009754E+02 -0.54863661883E+02  0.35409266948E+02  0.66697270905E+02  0.00000000000E+00 0. -1.
          2    1    1    2  501    0  0.19201020848E+01  0.21628242277E+02 -0.67599305147E+02  0.71000941630E+02  0.00000000000E+00 0. -1.
<scales pt_clust_5="13000.00000" pt_clust_6="13000.00000" pt_clust_7="13000.00000" pt_clust_8="13000.00000" pt_clust_9="21.71331"></scales>
<clustering>
<clus scale="   21.713">  2  9  1 -1</clus>
<clus scale="   81.504">  5  6 -1 -1</clus>
<clus scale="   85.525">  7  8 -1 -1</clus>
<clus scale="  100.335">  2  5  1 -1</clus>
<clus scale="   21.713">  2  5  1 -1</clus>
</clustering>
</event>
<event>
 9    1  0.7835476E-005  0.2292382E+03  0.7546771E-02  0.1127672E+00
         21   -1    0    0  501  502  0.00000000000E+00  0.00000000000E+00  0.19952920048E+03  0.19952920048E+03  0.00000000000E+00 0.  1.
         -2   -1    0    0    0  501 -0.00000000000E+00 -0.00000000000E+00 -0.45826507198E+03  0.45826507198E+03  0.00000000000E+00 0.  1.
         23    2    1    2    0    0 -0.94501071473E+02 -0.16872304935E+03 -0.17825398038E+03  0.27752551178E+03  0.88588985076E+02 0.  0.
        -24    2    1    2    0    0  0.11227522839E+03  0.23624231844E+03 -0.17513105263E+00  0.27385471995E+03  0.81118536929E+02 0.  0.
         13    1    4    4    0    0  0.92651904128E+02  0.16722448166E+03  0.34332834399E+02  0.19423477064E+03  0.00000000000E+00 0. -1.
        -14    1    4    4    0    0  0.19623324263E+02  0.69017836779E+02 -0.34507965452E+02  0.79619949312E+02  0.00000000000E+00 0.  1.
        -13    1    3    3    0    0 -0.74749381302E+02 -0.52679326853E+02 -0.53249064833E+02  0.10582081264E+03  0.00000000000E+00 0.  1.
         13    1    3    3    0    0 -0.19751690171E+02 -0.11604372250E+03 -0.12500491555E+03  0.17170469914E+03  0.00000000000E+00 0. -1.
         -1    1    1    2    0  502 -0.17774156918E+02 -0.67519269089E+02 -0.80306760069E+02  0.10641404073E+03  0.00000000000E+00 0.  1.
<scales pt_clust_5="13000.00000" pt_clust_6="13000.00000" pt_clust_7="13000.00000" pt_clust_8="13000.00000" pt_clust_9="69.81960"></scales>
<clustering>
<clus scale="   69.820">  1  9  2 -1</clus>
<clus scale="   81.119">  5  6 -1 -1</clus>
<clus scale="   88.589">  7  8 -1 -1</clus>
<clus scale="  226.456">  1  5  2 -1</clus>
<clus scale="   69.820">  1  5  2 -1</clus>
</clustering>
</event>
<event>
 9    1  0.7835476E-005  0.1189002E+03  0.7546771E-02  0.1248883E+00
         21   -1    0    0  501  502  0.00000000000E+00  0.00000000000E+00  0.56380478724E+02  0.56380478724E+02  0.00000000000E+00 0.  1.
          1   -1    0    0  502    0 -0.00000000000E+00 -0.00000000000E+00 -0.36789096111E+03  0.36789096111E+03  0.00000000000E+00 0. -1.
        -24    2    1    2    0    0  0.32023504444E+02 -0.85889717276E+02 -0.14001495633E+03  0.18568546195E+03  0.80450944148E+02 0.  0.
         23    2    1    2    0    0 -0.20360256936E+02  0.48375345089E+02 -0.63922532835E+02  0.12406389122E+03  0.92471859639E+02 0.  0.
         13    1    3    3    0    0  0.25623131215E+02  0.72601717140E+01 -0.46196006877E+02  0.53322846867E+02  0.00000000000E+00 0. -1.
        -14    1    3    3    0    0  0.64003732285E+01 -0.93149888990E+02 -0.93818949454E+02  0.13236261509E+03  0.00000000000E+00 0.  1.
        -13    1    4    4    0    0 -0.57315244175E+02  0.33203266551E+02 -0.42959871404E+02  0.78949633790E+02  0.00000000000E+00 0. -1.
         13    1    4    4    0    0  0.36954987239E+02  0.15172078538E+02 -0.20962661431E+02  0.45114257428E+02  0.00000000000E+00 0.  1.
          2    1    1    2  501    0 -0.11663247508E+02  0.37514372187E+02 -0.10757299322E+03  0.11452208666E+03  0.00000000000E+00 0. -1.
<scales pt_clust_5="13000.00000" pt_clust_6="13000.00000" pt_clust_7="13000.00000" pt_clust_8="13000.00000" pt_clust_9="39.28563"></scales>
<clustering>
<clus scale="   39.286">  1  9  2 -1</clus>
<clus scale="   80.451">  5  6 -1 -1</clus>
<clus scale="   92.472">  7  8 -1 -1</clus>
<clus scale="  109.811">  2  5  1 -1</clus>
<clus scale="   39.286">  1  5  2 -1</clus>
</clustering>
</event>
<event>
 9    1  0.7835476E-005  0.9669228E+02  0.7546771E-02  0.1294116E+00
         21   -1    0    0  501  502  0.00000000000E+00  0.00000000000E+00  0.25861298090E+03  0.25861298090E+03  0.00000000000E+00 0. -1.
          3   -1    0    0  502    0 -0.00000000000E+00 -0.00000000000E+00 -0.51125143207E+02  0.51125143207E+02  0.00000000000E+00 0. -1.
         23    2    1    2    0    0  0.43818913196E+01 -0.16144759855E+02  0.70970913953E+02  0.11847390071E+03  0.93377407759E+02 0.  0.
        -24    2    1    2    0    0 -0.43852388159E+02  0.45864839924E+01  0.90237915334E+02  0.12935089300E+03  0.81515056115E+02 0.  0.
         13    1    4    4    0    0 -0.65220204266E+02  0.11791494255E+02  0.49262245900E+02  0.82580162584E+02  0.00000000000E+00 0. -1.
        -14    1    4    4    0    0  0.21367816108E+02 -0.72050102621E+01  0.40975669434E+02  0.46770730416E+02  0.00000000000E+00 0.  1.
        -13    1    3    3    0    0 -0.11706427084E+02 -0.48821832386E+02  0.16308128270E+02  0.52787941808E+02  0.00000000000E+00 0.  1.
         13    1    3    3    0    0  0.16088318403E+02  0.32677072531E+02  0.54662785683E+02  0.65685958902E+02  0.00000000000E+00 0. -1.
          4    1    1    2  501    0  0.39470496839E+02  0.11558275862E+02  0.46279008402E+02  0.61913330393E+02  0.00000000000E+00 0. -1.
<scales pt_clust_5="13000.00000" pt_clust_6="13000.00000" pt_clust_7="13000.00000" pt_clust_8="13000.00000" pt_clust_9="41.12802"></scales>
<clustering>
<clus scale="   41.128">  1  9  2 -1</clus>
<clus scale="   81.515">  5  6 -1 -1</clus>
<clus scale="   85.292">  1  5  2 -1</clus>
<clus scale="   93.377">  7  8 -1 -1</clus>
<clus scale="   41.128">  1  5  2 -1</clus>
</clustering>
</event>
<event>
 9    1  0.7835476E-005  0.1081414E+03  0.7546771E-02  0.1267842E+00
         -4   -1    0    0    0  501 -0.00000000000E+00  0.00000000000E+00  0.63108666083E+03  0.63108666083E+03  0.00000000000E+00 0.  1.
         21   -1    0    0  501  502  0.00000000000E+00 -0.00000000000E+00 -0.88209027402E+02  0.88209027402E+02  0.00000000000E+00 0.  1.
        -24    2    1    2    0    0  0.60260932397E+02  0.27998962300E+02  0.52485750339E+03  0.53521860249E+03  0.81044627976E+02 0.  0.
         23    2    1    2    0    0 -0.23424647392E+02 -0.13667792118E+02  0.70906786823E+02  0.11805214501E+03  0.90404722644E+02 0.  0.
         11    1    3    3    0    0 -0.12013377198E+02  0.20266627151E+02  0.55907126450E+02  0.60668477776E+02  0.00000000000E+00 0. -1.
        -12    1    3    3    0    0  0.72274309594E+02  0.77323351495E+01  0.46895037694E+03  0.47455012472E+03  0.00000000000E+00 0.  1.
        -11    1    4    4    0    0  0.22091171334E+02  0.24611890886E+02  0.14594600319E+02  0.36149237646E+02  0.00000000000E+00 0.  1.
         11    1    4    4    0    0 -0.45515818726E+02 -0.38279683004E+02  0.56312186504E+02  0.81902907360E+02  0.00000000000E+00 0. -1.
         -3    1    1    2    0  502 -0.36836285005E+02 -0.14331170183E+02 -0.52886656791E+02  0.66024940729E+02  0.00000000000E+00 0.  1.
<scales pt_clust_5="13000.00000" pt_clust_6="13000.00000" pt_clust_7="13000.00000" pt_clust_8="13000.00000" pt_clust_9="39.52587"></scales>
<clustering>
<clus scale="   39.526">  2  9  1 -1</clus>
<clus scale="   81.045">  5  6 -1 -1</clus>
<clus scale="   90.405">  7  8 -1 -1</clus>
<clus scale="  100.448">  1  5  2 -1</clus>
<clus scale="   39.526">  2  5  1 -1</clus>
</clustering>
</event>
<event>
 9    1  0.7835476E-005  0.3166308E+03  0.7546771E-02  0.1077248E+00
         21   -1    0    0  501  502  0.00000000000E+00  0.00000000000E+00  0.74105454544E+03  0.74105454544E+03  0.00000000000E+00 0. -1.
         -4   -1    0    0    0  501 -0.00000000000E+00 -0.00000000000E+00 -0.22863015802E+03  0.22863015802E+03  0.00000000000E+00 0.  1.
        -24    2    1    2    0    0  0.30843526260E+03  0.35052427858E+02 -0.38448785973E+02  0.32331154262E+03  0.81798903003E+02 0.  0.
         23    2    1    2    0    0 -0.28900495164E+03 -0.65665449935E+01  0.46451937796E+03  0.55338950371E+03  0.83034382809E+02 0.  0.
         11    1    3    3    0    0  0.70853530612E+02  0.43713487772E+02 -0.11723336090E+02  0.84074540870E+02  0.00000000000E+00 0. -1.
        -12    1    3    3    0    0  0.23758173199E+03 -0.86610599144E+01 -0.26725449883E+02  0.23923700175E+03  0.00000000000E+00 0.  1.
        -13    1    4    4    0    0 -0.56271225762E+02  0.25702558998E+02  0.13687284800E+03  0.15020402427E+03  0.00000000000E+00 0.  1.
         13    1    4    4    0    0 -0.23273372587E+03 -0.32269103991E+02  0.32764652996E+03  0.40318547943E+03  0.00000000000E+00 0. -1.
         -3    1    1    2    0  502 -0.19430310966E+02 -0.28485882864E+02  0.86353795435E+02  0.92983657128E+02  0.00000000000E+00 0.  1.
<scales pt_clust_5="13000.00000" pt_clust_6="13000.00000" pt_clust_7="13000.00000" pt_clust_8="13000.00000" pt_clust_9="34.48163"></scales>
<clustering>
<clus scale="   34.482">  1  9  2 -1</clus>
<clus scale="   81.799">  5  6 -1 -1</clus>
<clus scale="   83.034">  7  8 -1 -1</clus>
<clus scale="  316.309">  2  5  1 -1</clus>
<clus scale="   34.482">  1  5  2 -1</clus>
</clustering>
</event>
<event>
 9    1  0.7835476E-005  0.1192777E+03  0.7546771E-02  0.1247640E+00
          3   -1    0    0  502    0 -0.00000000000E+00  0.00000000000E+00  0.66415390213E+02  0.66415390213E+02  0.00000000000E+00 0. -1.
         21   -1    0    0  501  502  0.00000000000E+00 -0.00000000000E+00 -0.93443416423E+03  0.93443416423E+03  0.00000000000E+00 0.  1.
         23    2    1    2    0    0  0.93161293134E+01  0.71778564380E+02 -0.37058367405E+02  0.12207967669E+03  0.91055874587E+02 0.  0.
        -24    2    1    2    0    0 -0.81505631687E+02 -0.10861190467E+03 -0.74119825698E+03  0.75783492533E+03  0.80617641174E+02 0.  0.
         11    1    4    4    0    0 -0.44428815432E+02 -0.31293067459E+01 -0.16604466235E+03  0.17191434523E+03  0.00000000000E+00 0. -1.
        -12    1    4    4    0    0 -0.37076816255E+02 -0.10548259792E+03 -0.57515359463E+03  0.58592058010E+03  0.00000000000E+00 0.  1.
        -11    1    3    3    0    0  0.35316174498E+01  0.39382396871E+02 -0.66863635315E+02  0.77680056853E+02  0.00000000000E+00 0.  1.
         11    1    3    3    0    0  0.57845118636E+01  0.32396167509E+02  0.29805267910E+02  0.44399619840E+02  0.00000000000E+00 0. -1.
          4    1    1    2  501    0  0.72189502373E+02  0.36833340290E+02 -0.89762149631E+02  0.12093495242E+03  0.00000000000E+00 0. -1.
<scales pt_clust_5="13000.00000" pt_clust_6="13000.00000" pt_clust_7="13000.00000" pt_clust_8="13000.00000" pt_clust_9="81.04336"></scales>
<clustering>
<clus scale="   80.618">  5  6 -1 -1</clus>
<clus scale="   81.043">  2  9  1 -1</clus>
<clus scale="   91.056">  7  8 -1 -1</clus>
<clus scale="  111.513">  2  5  1 -1</clus>
<clus scale="   81.043">  2  5  1 -1</clus>
</clustering>
</event>
<event>
 9    1  0.7835476E-005  0.1119324E+03  0.7546771E-02  0.1260059E+00
         -2   -1    0    0    0  501 -0.00000000000E+00  0.00000000000E+00  0.14359066535E+03  0.14359066535E+03  0.00000000000E+00 0.  1.
         21   -1    0    0  501  502  0.00000000000E+00 -0.00000000000E+00 -0.15060227410E+03  0.15060227410E+03  0.00000000000E+00 0. -1.
         23    2    1    2    0    0 -0.73833438515E+02 -0.29225410075E+02  0.63267302162E+02  0.13482499206E+03  0.88710347330E+02 0.  0.
        -24    2    1    2    0    0  0.35894741174E+02  0.38620531485E+02 -0.24556194676E+02  0.99216639483E+02  0.80380078112E+02 0.  0.
         13    1    4    4    0    0  0.33102192166E+02  0.44066956675E+02 -0.49165707249E+02  0.73857420521E+02  0.00000000000E+00 0. -1.
        -14    1    4    4    0    0  0.27925490083E+01 -0.54464251897E+01  0.24609512573E+02  0.25359218962E+02  0.00000000000E+00 0.  1.
        -11    1    3    3    0    0 -0.75032963187E+02  0.88066664388E+01  0.21986184972E+02  0.78682242393E+02  0.00000000000E+00 0. -1.
         11    1    3    3    0    0  0.11995246721E+01 -0.38032076514E+02  0.41281117191E+02  0.56142749665E+02  0.00000000000E+00 0.  1.
         -1    1    1    2    0  502  0.37938697341E+02 -0.93951214102E+01 -0.45722716240E+02  0.60151307904E+02  0.00000000000E+00 0.  1.
<scales pt_clust_5="13000.00000" pt_clust_6="13000.00000" pt_clust_7="13000.00000" pt_clust_8="13000.00000" pt_clust_9="39.08469"></scales>
<clustering>
<clus scale="   39.085">  2  9  1 -1</clus>
<clus scale="   80.380">  5  6 -1 -1</clus>
<clus scale="   88.710">  7  8 -1 -1</clus>
<clus scale="  105.453">  2  5  1 -1</clus>
<clus scale="   39.085">  2  5  1 -1</clus>
</clustering>
</event>
<event>
 9    1  0.7835476E-005  0.1155401E+03  0.7546771E-02  0.1254668E+00
          3   -1    0    0  502    0 -0.00000000000E+00  0.00000000000E+00  0.20539514939E+03  0.20539514939E+03  0.00000000000E+00 0. -1.
         21   -1    0    0  501  502  0.00000000000E+00 -0.00000000000E+00 -0.10368454213E+03  0.10368454213E+03  0.00000000000E+00 0. -1.
         23    2    1    2    0    0  0.63580131022E+02 -0.31578076277E+02  0.10802550878E+03  0.15839616465E+03  0.91543576872E+02 0.  0.
        -24    2    1    2    0    0 -0.76133953448E+02 -0.40125253717E+01 -0.16102950977E+02  0.11169512737E+03  0.80025103693E+02 0.  0.
         13    1    4    4    0    0 -0.78024243551E+02 -0.30348002516E+02 -0.81193393762E+01  0.84111280517E+02  0.00000000000E+00 0. -1.
        -14    1    4    4    0    0  0.18902901024E+01  0.26335477145E+02 -0.79836116013E+01  0.27583846855E+02  0.00000000000E+00 0.  1.
        -13    1    3    3    0    0 -0.21848291617E+02 -0.16038080906E+02  0.14349623809E+02  0.30667239673E+02  0.00000000000E+00 0.  1.
         13    1    3    3    0    0  0.85428422639E+02 -0.15539995372E+02  0.93675884970E+02  0.12772892498E+03  0.00000000000E+00 0. -1.
          4    1    1    2  501    0  0.12553822426E+02  0.35590601649E+02  0.97880494554E+01  0.38988399498E+02  0.00000000000E+00 0. -1.
<scales pt_clust_5="13000.00000" pt_clust_6="13000.00000" pt_clust_7="13000.00000" pt_clust_8="13000.00000" pt_clust_9="37.73976"></scales>
<clustering>
<clus scale="   37.740">  2  9  1 -1</clus>
<clus scale="   80.025">  5  6 -1 -1</clus>
<clus scale="   91.544">  7  8 -1 -1</clus>
<clus scale="  106.646">  2  5  1 -1</clus>
<clus scale="   37.740">  2  5  1 -1</clus>
</clustering>
</event>
<event>
 9    1  0.7835476E-005  0.1075652E+03  0.7546771E-02  0.1268725E+00
         21   -1    0    0  501  502  0.00000000000E+00  0.00000000000E+00  0.31360601862E+02  0.31360601862E+02  0.00000000000E+00 0. -1.
          1   -1    0    0  502    0 -0.00000000000E+00 -0.00000000000E+00 -0.55194920780E+03  0.55194920780E+03  0.00000000000E+00 0. -1.
        -24    2    1    2    0    0  0.45129784648E+02  0.16038658775E+02 -0.20536801725E+03  0.22656149999E+03  0.82826051048E+02 0.  0.
         23    2    1    2    0    0 -0.69196223646E+02 -0.23156402662E+02 -0.15303071768E+03  0.19262820114E+03  0.91448821598E+02 0.  0.
         11    1    3    3    0    0  0.23784438294E+02 -0.29513399703E+02 -0.46909562649E+02  0.60309595712E+02  0.00000000000E+00 0. -1.
        -12    1    3    3    0    0  0.21345346354E+02  0.45552058478E+02 -0.15845845460E+03  0.16625190428E+03  0.00000000000E+00 0.  1.
        -11    1    4    4    0    0 -0.90229212041E+01 -0.50082125881E+02 -0.72010825400E+02  0.88177045848E+02  0.00000000000E+00 0.  1.
         11    1    4    4    0    0 -0.60173302442E+02  0.26925723219E+02 -0.81019892276E+02  0.10445115529E+03  0.00000000000E+00 0. -1.
          2    1    1    2  501    0  0.24066438998E+02  0.71177438871E+01 -0.16218987102E+03  0.16412010853E+03  0.00000000000E+00 0. -1.
<scales pt_clust_5="13000.00000" pt_clust_6="13000.00000" pt_clust_7="13000.00000" pt_clust_8="13000.00000" pt_clust_9="25.09694"></scales>
<clustering>
<clus scale="   25.097">  1  9  2 -1</clus>
<clus scale="   82.826">  5  6 -1 -1</clus>
<clus scale="   91.449">  7  8 -1 -1</clus>
<clus scale="  100.337">  2  5  1 -1</clus>
<clus scale="   25.097">  1  5  2 -1</clus>
</clustering>
</event>
<event>
 9    1  0.7835476E-005  0.1293625E+03  0.7546771E-02  0.1231555E+00
         21   -1    0    0  501  502  0.00000000000E+00  0.00000000000E+00  0.44068684269E+02  0.44068684269E+02  0.00000000000E+00 0. -1.
          3   -1    0    0  502    0 -0.00000000000E+00 -0.00000000000E+00 -0.49153715297E+03  0.49153715297E+03  0.00000000000E+00 0. -1.
        -24    2    1    2    0    0 -0.61815859542E+02  0.76593675105E+02 -0.30675757567E+03  0.33215902778E+03  0.80880269217E+02 0.  0.
         23    2    1    2    0    0  0.36334671650E+02 -0.65479860446E+02 -0.11510739277E+03  0.16565333068E+03  0.92647145701E+02 0.  0.
         11    1    3    3    0    0 -0.49513077553E+01  0.57975910286E+02 -0.21406088039E+03  0.22182827172E+03  0.00000000000E+00 0. -1.
        -12    1    3    3    0    0 -0.56864551787E+02  0.18617764819E+02 -0.92696695284E+02  0.11033075606E+03  0.00000000000E+00 0.  1.
        -13    1    4    4    0    0  0.34065964089E+02  0.16613615430E+01 -0.85854694675E+02  0.92381159493E+02  0.00000000000E+00 0.  1.
         13    1    4    4    0    0  0.22687075608E+01 -0.67141221989E+02 -0.29252698091E+02  0.73272171183E+02  0.00000000000E+00 0. -1.
          4    1    1    2  501    0  0.25481187892E+02 -0.11113814659E+02 -0.25603500269E+02  0.37793478785E+02  0.00000000000E+00 0. -1.
<scales pt_clust_5="13000.00000" pt_clust_6="13000.00000" pt_clust_7="13000.00000" pt_clust_8="13000.00000" pt_clust_9="27.79942"></scales>
<clustering>
<clus scale="   27.799">  1  9  2 -1</clus>
<clus scale="   80.880">  5  6 -1 -1</clus>
<clus scale="   92.647">  7  8 -1 -1</clus>
<clus scale="  121.214">  2  5  1 -1</clus>
<clus scale="   27.799">  1  5  2 -1</clus>
</clustering>
</event>
<event>
 9    1  0.7835476E-005  0.1160677E+03  0.7546771E-02  0.1252803E+00
         21   -1    0    0  501  502  0.00000000000E+00  0.00000000000E+00  0.24359909945E+03  0.24359909945E+03  0.00000000000E+00 0. -1.
          1   -1    0    0  502    0 -0.00000000000E+00 -0.00000000000E+00 -0.17767794097E+03  0.17767794097E+03  0.00000000000E+00 0. -1.
        -24    2    1    2    0    0 -0.52384158283E+02 -0.65591475834E+02 -0.11783623236E+03  0.16630535135E+03  0.82010673015E+02 0.  0.
         23    2    1    2    0    0 -0.16588296914E+02  0.23899620460E+02  0.11035630051E+03  0.14596191684E+03  0.90994530896E+02 0.  0.
         11    1    3    3    0    0 -0.59880394307E+02 -0.19827483322E+02 -0.96432650805E+02  0.11523040770E+03  0.00000000000E+00 0. -1.
        -12    1    3    3    0    0  0.74962360241E+01 -0.45763992512E+02 -0.21403581556E+02  0.51074943647E+02  0.00000000000E+00 0.  1.
        -11    1    4    4    0    0 -0.40237995449E+02  0.40820578229E+02  0.40179299227E+02  0.69998514064E+02  0.00000000000E+00 0.  1.
         11    1    4    4    0    0  0.23649698535E+02 -0.16920957769E+02  0.70177001278E+02  0.75963402774E+02  0.00000000000E+00 0. -1.
          2    1    1    2  501    0  0.68972455197E+02  0.41691855374E+02  0.73401090333E+02  0.10900977223E+03  0.00000000000E+00 0. -1.
<scales pt_clust_5="13000.00000" pt_clust_6="13000.00000" pt_clust_7="13000.00000" pt_clust_8="13000.00000" pt_clust_9="80.59411"></scales>
<clustering>
<clus scale="   80.594">  1  9  2 -1</clus>
<clus scale="   82.011">  5  6 -1 -1</clus>
<clus scale="   90.995">  7  8 -1 -1</clus>
<clus scale="  109.167">  2  5  1 -1</clus>
<clus scale="   80.594">  1  5  2 -1</clus>
</clustering>
</event>
<event>
 9    1  0.7835476E-005  0.9676274E+02  0.7546771E-02  0.1292035E+00
         21   -1    0    0  501  502  0.00000000000E+00  0.00000000000E+00  0.85664507025E+02  0.85664507025E+02  0.00000000000E+00 0. -1.
         -2   -1    0    0    0  501 -0.00000000000E+00 -0.00000000000E+00 -0.16369706959E+03  0.16369706959E+03  0.00000000000E+00 0.  1.
         23    2    1    2    0    0 -0.42615034559E+02  0.85252358496E+01 -0.77163162276E+02  0.12487547620E+03  0.88039821261E+02 0.  0.
        -24    2    1    2    0    0  0.22854148973E+02 -0.36049424918E+02  0.62348523906E+01  0.89866106350E+02  0.78836352808E+02 0.  0.
         13    1    4    4    0    0 -0.11673437552E+02 -0.38118075549E+02  0.28254198116E+02  0.48862629268E+02  0.00000000000E+00 0. -1.
        -14    1    4    4    0    0  0.34527586525E+02  0.20686506311E+01 -0.22019345725E+02  0.41003477082E+02  0.00000000000E+00 0.  1.
        -13    1    3    3    0    0 -0.34069788095E+02 -0.20591439264E+02  0.22395771478E+01  0.39871964306E+02  0.00000000000E+00 0.  1.
         13    1    3    3    0    0 -0.85452464636E+01  0.29116675113E+02 -0.79402739424E+02  0.85003511897E+02  0.00000000000E+00 0. -1.
         -1    1    1    2    0  502  0.19760885586E+02  0.27524189068E+02 -0.71042526844E+01  0.34619994067E+02  0.00000000000E+00 0.  1.
<scales pt_clust_5="13000.00000" pt_clust_6="13000.00000" pt_clust_7="13000.00000" pt_clust_8="13000.00000" pt_clust_9="33.88323"></scales>
<clustering>
<clus scale="   33.883">  1  9  2 -1</clus>
<clus scale="   78.836">  5  6 -1 -1</clus>
<clus scale="   88.040">  7  8 -1 -1</clus>
<clus scale="   88.471">  1  5  2 -1</clus>
<clus scale="   33.883">  1  5  2 -1</clus>
</clustering>
</event>
<event>
 9    1  0.7835476E-005  0.9726859E+02  0.7546771E-02  0.1286225E+00
         -4   -1    0    0    0  501 -0.00000000000E+00  0.00000000000E+00  0.50640353967E+03  0.50640353967E+03  0.00000000000E+00 0.  1.
         21   -1    0    0  501  502  0.00000000000E+00 -0.00000000000E+00 -0.47498835716E+03  0.47498835716E+03  0.00000000000E+00 0.  1.
         23    2    1    2    0    0 -0.17986019882E+02 -0.32503111293E+02  0.46977735321E+03  0.48008538089E+03  0.91712933651E+02 0.  0.
        -24    2    1    2    0    0 -0.18154288614E+02 -0.57647341170E+02 -0.74300252868E+02  0.12451173626E+03  0.79560359167E+02 0.  0.
         13    1    4    4    0    0 -0.35214953070E+02 -0.11102641240E+01 -0.48792322841E+02  0.60183190131E+02  0.00000000000E+00 0. -1.
        -14    1    4    4    0    0  0.17060664456E+02 -0.56537077046E+02 -0.25507930027E+02  0.64328546127E+02  0.00000000000E+00 0.  1.
        -13    1    3    3    0    0 -0.53645355447E+02 -0.62432961912E+01  0.28531827851E+03  0.29038478431E+03  0.00000000000E+00 0.  1.
         13    1    3    3    0    0  0.35659335565E+02 -0.26259815102E+02  0.18445907471E+03  0.18970059658E+03  0.00000000000E+00 0. -1.
         -3    1    1    2    0  502  0.36140308496E+02  0.90150452463E+02 -0.36406191783E+03  0.37679477968E+03  0.00000000000E+00 0.  1.
<scales pt_clust_5="13000.00000" pt_clust_6="13000.00000" pt_clust_7="13000.00000" pt_clust_8="13000.00000" pt_clust_9="97.12480"></scales>
<clustering>
<clus scale="   79.560">  5  6 -1 -1</clus>
<clus scale="   91.713">  7  8 -1 -1</clus>
<clus scale="   97.125">  2  9  1 -1</clus>
<clus scale="   97.125">  2  5  1 -1</clus>
<clus scale="   97.125">  2  5  1 -1</clus>
</clustering>
</event>
<event>
 9    1  0.7835476E-005  0.1681783E+03  0.7546771E-02  0.1182862E+00
         -2   -1    0    0    0  501 -0.00000000000E+00  0.00000000000E+00  0.27272953632E+03  0.27272953632E+03  0.00000000000E+00 0.  1.
         21   -1    0    0  501  502  0.00000000000E+00 -0.00000000000E+00 -0.25620309071E+03  0.25620309071E+03  0.00000000000E+00 0.  1.
        -24    2    1    2    0    0 -0.11734670000E+03 -0.24196838057E+02  0.68825025180E+02  0.15509598580E+03  0.70442499581E+02 0.  0.
         23    2    1    2    0    0  0.21632766390E+03  0.59334182093E+02 -0.94632565829E+02  0.26059340499E+03  0.92926836133E+02 0.  0.
         11    1    3    3    0    0 -0.96658900382E+01 -0.19639828547E+02  0.36526394188E+02  0.42583209930E+02  0.00000000000E+00 0. -1.
        -12    1    3    3    0    0 -0.10768080997E+03 -0.45570095106E+01  0.32298630992E+02  0.11251277587E+03  0.00000000000E+00 0.  1.
        -11    1    4    4    0    0  0.17318188700E+03  0.69332316289E+02 -0.10641633169E+03  0.21476352511E+03  0.00000000000E+00 0.  1.
         11    1    4    4    0    0  0.43145776899E+02 -0.99981341961E+01  0.11783765861E+02  0.45829879876E+02  0.00000000000E+00 0. -1.
         -1    1    1    2    0  502 -0.98980963899E+02 -0.35137344036E+02  0.42333986261E+02  0.11324323624E+03  0.00000000000E+00 0.  1.
<scales pt_clust_5="13000.00000" pt_clust_6="13000.00000" pt_clust_7="13000.00000" pt_clust_8="13000.00000" pt_clust_9="105.03273"></scales>
<clustering>
<clus scale="   70.442">  5  6 -1 -1</clus>
<clus scale="   92.927">  7  8 -1 -1</clus>
<clus scale="  105.033">  2  9  1 -1</clus>
<clus scale="  156.878">  1  5  2 -1</clus>
<clus scale="  105.033">  2  5  1 -1</clus>
</clustering>
</event>
<event>
 9    1  0.7835476E-005  0.1195382E+03  0.7546771E-02  0.1245745E+00
         21   -1    0    0  501  502  0.00000000000E+00  0.00000000000E+00  0.26644141129E+02  0.26644141129E+02  0.00000000000E+00 0. -1.
          1   -1    0    0  502    0 -0.00000000000E+00 -0.00000000000E+00 -0.99114930939E+03  0.99114930939E+03  0.00000000000E+00 0. -1.
        -24    2    1    2    0    0  0.50617177533E+02  0.78585975171E+02 -0.67781197135E+03  0.68860207588E+03  0.77497717678E+02 0.  0.
         23    2    1    2    0    0 -0.30466371693E+02 -0.46089626296E+02 -0.11254567679E+03  0.15089547892E+03  0.83967033638E+02 0.  0.
         13    1    3    3    0    0  0.62219658866E+02  0.86384975793E+02 -0.56658422877E+03  0.57649920926E+03  0.00000000000E+00 0. -1.
        -14    1    3    3    0    0 -0.11602481333E+02 -0.77990006216E+01 -0.11122774258E+03  0.11210286662E+03  0.00000000000E+00 0.  1.
        -13    1    4    4    0    0 -0.38215044061E+02  0.26590067719E+01 -0.14194613645E+02  0.40852747351E+02  0.00000000000E+00 0. -1.
         13    1    4    4    0    0  0.77486723683E+01 -0.48748633068E+02 -0.98351063140E+02  0.11004273156E+03  0.00000000000E+00 0.  1.
          2    1    1    2  501    0 -0.20150805840E+02 -0.32496348875E+02 -0.17414752012E+03  0.17829589572E+03  0.00000000000E+00 0. -1.
<scales pt_clust_5="13000.00000" pt_clust_6="13000.00000" pt_clust_7="13000.00000" pt_clust_8="13000.00000" pt_clust_9="38.23701"></scales>
<clustering>
<clus scale="   38.237">  1  9  2 -1</clus>
<clus scale="   77.498">  5  6 -1 -1</clus>
<clus scale="   83.967">  7  8 -1 -1</clus>
<clus scale="  115.086">  2  5  1 -1</clus>
<clus scale="   38.237">  1  5  2 -1</clus>
</clustering>
</event>
<event>
 9    1  0.7835476E-005  0.1270974E+03  0.7546771E-02  0.1245407E+00
         -2   -1    0    0    0  501 -0.00000000000E+00  0.00000000000E+00  0.63702731247E+03  0.63702731247E+03  0.00000000000E+00 0.  1.
         21   -1    0    0  501  502  0.00000000000E+00 -0.00000000000E+00 -0.78345428589E+02  0.78345428589E+02  0.00000000000E+00 0. -1.
         23    2    1    2    0    0  0.17668373201E+02  0.24400128506E+02  0.35879324810E+03  0.37151822776E+03  0.91573254813E+02 0.  0.
        -24    2    1    2    0    0  0.90959587890E+02  0.18002495820E+02  0.12839614012E+02  0.12343365896E+03  0.80456671518E+02 0.  0.
         13    1    4    4    0    0  0.15997142518E+02  0.28216555277E+02 -0.22956258648E+02  0.39737543602E+02  0.00000000000E+00 0. -1.
        -14    1    4    4    0    0  0.74962445372E+02 -0.10214059457E+02  0.35795872660E+02  0.83696115359E+02  0.00000000000E+00 0.  1.
        -13    1    3    3    0    0 -0.54895810071E+01 -0.29084006833E+02  0.57834235522E+02  0.64967790108E+02  0.00000000000E+00 0. -1.
         13    1    3    3    0    0  0.23157954208E+02  0.53484135339E+02  0.30095901258E+03  0.30655043765E+03  0.00000000000E+00 0.  1.
         -1    1    1    2    0  502 -0.10862796109E+03 -0.42402624326E+02  0.18704902177E+03  0.22042085434E+03  0.00000000000E+00 0.  1.
<scales pt_clust_5="13000.00000" pt_clust_6="13000.00000" pt_clust_7="13000.00000" pt_clust_8="13000.00000" pt_clust_9="98.38941"></scales>
<clustering>
<clus scale="   80.457">  5  6 -1 -1</clus>
<clus scale="   91.573">  7  8 -1 -1</clus>
<clus scale="   96.401">  1  7  2 -1</clus>
<clus scale="   98.389">  2  9  1 -1</clus>
<clus scale="   98.389">  2  5  1 -1</clus>
</clustering>
</event>
<event>
 9    1  0.7835476E-005  0.1050421E+03  0.7546771E-02  0.1274038E+00
         -2   -1    0    0    0  501 -0.00000000000E+00  0.00000000000E+00  0.17270077748E+03  0.17270077748E+03  0.00000000000E+00 0.  1.
         21   -1    0    0  501  502  0.00000000000E+00 -0.00000000000E+00 -0.16535341855E+03  0.16535341855E+03  0.00000000000E+00 0. -1.
         23    2    1    2    0    0 -0.54426051004E+02  0.27025136365E+01 -0.22127291533E+02  0.10749345922E+03  0.89976264297E+02 0.  0.
        -24    2    1    2    0    0  0.39831426570E+02  0.62220063212E+02 -0.55440284026E+02  0.12267890264E+03  0.80737904670E+02 0.  0.
         13    1    4    4    0    0  0.63352277301E+02  0.48640093488E+02 -0.51989344904E+02  0.95300900926E+02  0.00000000000E+00 0. -1.
        -14    1    4    4    0    0 -0.23520850732E+02  0.13579969725E+02 -0.34509391226E+01  0.27378001711E+02  0.00000000000E+00 0.  1.
        -11    1    3    3    0    0 -0.76322814970E+02  0.13733611124E+02 -0.27704345795E+02  0.82348739731E+02  0.00000000000E+00 0. -1.
         11    1    3    3    0    0  0.21896763966E+02 -0.11031097487E+02  0.55770542623E+01  0.25144719489E+02  0.00000000000E+00 0.  1.
         -1    1    1    2    0  502  0.14594624434E+02 -0.64922576849E+02  0.84914934487E+02  0.10788183418E+03  0.00000000000E+00 0.  1.
<scales pt_clust_5="13000.00000" pt_clust_6="13000.00000" pt_clust_7="13000.00000" pt_clust_8="13000.00000" pt_clust_9="66.54283"></scales>
<clustering>
<clus scale="   66.543">  2  9  1 -1</clus>
<clus scale="   80.738">  5  6 -1 -1</clus>
<clus scale="   89.976">  7  8 -1 -1</clus>
<clus scale="   97.246">  2  5  1 -1</clus>
<clus scale="   66.543">  2  5  1 -1</clus>
</clustering>
</event>
<event>
 9    1  0.7835476E-005  0.1002576E+03  0.7546771E-02  0.1284859E+00
          3   -1    0    0  502    0 -0.00000000000E+00  0.00000000000E+00  0.55399357799E+03  0.55399357799E+03  0.00000000000E+00 0. -1.
         21   -1    0    0  501  502  0.00000000000E+00 -0.00000000000E+00 -0.28919259589E+02  0.28919259589E+02  0.00000000000E+00 0.  1.
        -24    2    1    2    0    0 -0.17460911365E+02 -0.53524543131E+02  0.33544946940E+03  0.34961245432E+03  0.80825500647E+02 0.  0.
         23    2    1    2    0    0  0.61026092708E+01  0.11298932867E+02  0.13390924088E+03  0.16247494872E+03  0.91112657986E+02 0.  0.
         11    1    3    3    0    0  0.24029715139E+02 -0.47867382781E+02  0.22997563369E+03  0.23613027260E+03  0.00000000000E+00 0. -1.
        -12    1    3    3    0    0 -0.41490626504E+02 -0.56571603497E+01  0.10547383570E+03  0.11348218172E+03  0.00000000000E+00 0.  1.
        -11    1    4    4    0    0 -0.10877330316E+02 -0.36766411027E+02  0.38697329143E+02  0.54475394238E+02  0.00000000000E+00 0.  1.
         11    1    4    4    0    0  0.16979939587E+02  0.48065343894E+02  0.95211911736E+02  0.10799955448E+03  0.00000000000E+00 0. -1.
          4    1    1    2  501    0  0.11358302094E+02  0.42225610264E+02  0.55715608124E+02  0.70825434536E+02  0.00000000000E+00 0. -1.
<scales pt_clust_5="13000.00000" pt_clust_6="13000.00000" pt_clust_7="13000.00000" pt_clust_8="13000.00000" pt_clust_9="43.72657"></scales>
<clustering>
<clus scale="   43.727">  2  9  1 -1</clus>
<clus scale="   80.826">  5  6 -1 -1</clus>
<clus scale="   91.010">  1  5  2 -1</clus>
<clus scale="   91.113">  7  8 -1 -1</clus>
<clus scale="   43.727">  2  5  1 -1</clus>
</clustering>
</event>
<event>
 9    1  0.7835476E-005  0.2136912E+03  0.7546771E-02  0.1166263E+00
         21   -1    0    0  501  502  0.00000000000E+00  0.00000000000E+00  0.48926957160E+03  0.48926957160E+03  0.00000000000E+00 0. -1.
          1   -1    0    0  502    0 -0.00000000000E+00 -0.00000000000E+00 -0.33207239527E+03  0.33207239527E+03  0.00000000000E+00 0. -1.
        -24    2    1    2    0    0 -0.24742552666E+02 -0.67091350729E+02  0.71863770651E+02  0.13261684765E+03  0.85494932553E+02 0.  0.
         23    2    1    2    0    0  0.21122467431E+03  0.18285402433E+02 -0.22579032043E+03  0.32272569951E+03  0.90666362821E+02 0.  0.
         13    1    3    3    0    0 -0.45463397530E+02 -0.74257220671E+02  0.45219428428E+02  0.98111426675E+02  0.00000000000E+00 0. -1.
        -14    1    3    3    0    0  0.20720844864E+02  0.71658699421E+01  0.26644342223E+02  0.34505420971E+02  0.00000000000E+00 0.  1.
        -13    1    4    4    0    0  0.93052213202E+02 -0.15038161868E+02 -0.15382675416E+03  0.18040934286E+03  0.00000000000E+00 0.  1.
         13    1    4    4    0    0  0.11817246110E+03  0.33323564300E+02 -0.71963566266E+02  0.14231635665E+03  0.00000000000E+00 0. -1.
          2    1    1    2  501    0 -0.18648212164E+03  0.48805948296E+02  0.31112372611E+03  0.36599941971E+03  0.00000000000E+00 0. -1.
<scales pt_clust_5="13000.00000" pt_clust_6="13000.00000" pt_clust_7="13000.00000" pt_clust_8="13000.00000" pt_clust_9="193.50337"></scales>
<clustering>
<clus scale="   85.495">  5  6 -1 -1</clus>
<clus scale="   90.666">  7  8 -1 -1</clus>
<clus scale="  111.458">  2  5  1 -1</clus>
<clus scale="  193.503">  1  9  2 -1</clus>
<clus scale="  193.503">  1  5  2 -1</clus>
</clustering>
</event>
<event>
 9    1  0.7835476E-005  0.1191842E+03  0.7546771E-02  0.1247381E+00
          1   -1    0    0  502    0 -0.00000000000E+00  0.00000000000E+00  0.23399037898E+03  0.23399037898E+03  0.00000000000E+00 0. -1.
         21   -1    0    0  501  502  0.00000000000E+00 -0.00000000000E+00 -0.18749563453E+03  0.18749563453E+03  0.00000000000E+00 0. -1.
         23    2    1    2    0    0 -0.11421563728E+02 -0.79508678906E+02  0.16675694867E+03  0.20645874614E+03  0.91461750415E+02 0.  0.
        -24    2    1    2    0    0  0.57354450183E+00  0.45640782860E+02 -0.14415104493E+03  0.17218580831E+03  0.82371225667E+02 0.  0.
         11    1    4    4    0    0 -0.26803013087E+02  0.49384669305E+02 -0.12892396143E+03  0.14063653474E+03  0.00000000000E+00 0. -1.
        -12    1    4    4    0    0  0.27376557589E+02 -0.37438864459E+01 -0.15227083495E+02  0.31549273572E+02  0.00000000000E+00 0.  1.
        -11    1    3    3    0    0  0.38345293967E+02 -0.43207318791E+02  0.10101505058E+03  0.11636698161E+03  0.00000000000E+00 0.  1.
         11    1    3    3    0    0 -0.49766857695E+02 -0.36301360115E+02  0.65741898097E+02  0.90091764532E+02  0.00000000000E+00 0. -1.
          2    1    1    2  501    0  0.10848019227E+02  0.33867896046E+02  0.23888840706E+02  0.42841459056E+02  0.00000000000E+00 0. -1.
<scales pt_clust_5="13000.00000" pt_clust_6="13000.00000" pt_clust_7="13000.00000" pt_clust_8="13000.00000" pt_clust_9="35.56283"></scales>
<clustering>
<clus scale="   35.563">  2  9  1 -1</clus>
<clus scale="   82.371">  5  6 -1 -1</clus>
<clus scale="   91.462">  7  8 -1 -1</clus>
<clus scale="  112.359">  2  5  1 -1</clus>
<clus scale="   35.563">  2  5  1 -1</clus>
</clustering>
</event>
<event>
 9    1  0.7835476E-005  0.1105174E+03  0.7546771E-02  0.1262882E+00
         21   -1    0    0  501  502  0.00000000000E+00  0.00000000000E+00  0.46264583385E+03  0.46264583385E+03  0.00000000000E+00 0.  1.
         -4   -1    0    0    0  501 -0.00000000000E+00 -0.00000000000E+00 -0.48025143572E+02  0.48025143572E+02  0.00000000000E+00 0.  1.
        -24    2    1    2    0    0 -0.60224947802E+02 -0.16140268822E+02  0.71390652911E+02  0.12608592669E+03  0.83147356974E+02 0.  0.
         23    2    1    2    0    0  0.38292079187E+02  0.65398763269E+02  0.21940078766E+03  0.24952531178E+03  0.91558145621E+02 0.  0.
         13    1    3    3    0    0 -0.14740994235E+02  0.26798392319E+02  0.52475817319E+02  0.60738473352E+02  0.00000000000E+00 0. -1.
        -14    1    3    3    0    0 -0.45483953567E+02 -0.42938661141E+02  0.18914835592E+02  0.65347453341E+02  0.00000000000E+00 0.  1.
        -13    1    4    4    0    0  0.52236012946E+02  0.19291587116E+02  0.55212025991E+02  0.78416415348E+02  0.00000000000E+00 0. -1.
         13    1    4    4    0    0 -0.13943933759E+02  0.46107176153E+02  0.16418876167E+03  0.17110889643E+03  0.00000000000E+00 0.  1.
         -3    1    1    2    0  502  0.21932868615E+02 -0.49258494447E+02  0.12382924971E+03  0.13505973894E+03  0.00000000000E+00 0.  1.
<scales pt_clust_5="13000.00000" pt_clust_6="13000.00000" pt_clust_7="13000.00000" pt_clust_8="13000.00000" pt_clust_9="53.92078"></scales>
<clustering>
<clus scale="   53.921">  1  9  2 -1</clus>
<clus scale="   83.147">  5  6 -1 -1</clus>
<clus scale="   91.558">  7  8 -1 -1</clus>
<clus scale="  103.657">  2  5  1 -1</clus>
<clus scale="   53.921">  1  5  2 -1</clus>
</clustering>
</event>
<event>
 9    1  0.7835476E-005  0.1879161E+03  0.7546771E-02  0.1161796E+00
          1   -1    0    0  502    0 -0.00000000000E+00  0.00000000000E+00  0.66177232646E+03  0.66177232646E+03  0.00000000000E+00 0. -1.
         21   -1    0    0  501  502  0.00000000000E+00 -0.00000000000E+00 -0.10435197483E+03  0.10435197483E+03  0.00000000000E+00 0.  1.
         23    2    1    2    0    0 -0.86932319234E+02 -0.13652070681E+03  0.47526032237E+03  0.50985473709E+03  0.88793847757E+02 0.  0.
        -24    2    1    2    0    0  0.81336937286E+02  0.15899155121E+03  0.10788884102E+03  0.22165426553E+03  0.74810431674E+02 0.  0.
         11    1    4    4    0    0  0.18246360700E+02  0.10045090590E+03  0.84336573279E+02  0.13242345626E+03  0.00000000000E+00 0. -1.
        -12    1    4    4    0    0  0.63090576586E+02  0.58540645305E+02  0.23552267741E+02  0.89230809267E+02  0.00000000000E+00 0.  1.
        -11    1    3    3    0    0 -0.58410323587E+02 -0.12477527360E+03  0.44794587774E+03  0.46865354387E+03  0.00000000000E+00 0. -1.
         11    1    3    3    0    0 -0.28521995647E+02 -0.11745433213E+02  0.27314444635E+02  0.41201193221E+02  0.00000000000E+00 0.  1.
          2    1    1    2  501    0  0.55953819483E+01 -0.22470844398E+02 -0.25728811764E+02  0.34615298668E+02  0.00000000000E+00 0. -1.
<scales pt_clust_5="13000.00000" pt_clust_6="13000.00000" pt_clust_7="13000.00000" pt_clust_8="13000.00000" pt_clust_9="23.15701"></scales>
<clustering>
<clus scale="   23.157">  2  9  1 -1</clus>
<clus scale="   74.810">  5  6 -1 -1</clus>
<clus scale="   88.794">  7  8 -1 -1</clus>
<clus scale="  181.727">  2  5  1 -1</clus>
<clus scale="   23.157">  2  5  1 -1</clus>
</clustering>
</event>
<event>
 9    1  0.7835476E-005  0.1406102E+03  0.7546771E-02  0.1232846E+00
          1   -1    0    0  502    0 -0.00000000000E+00  0.00000000000E+00  0.10000958294E+03  0.10000958294E+03  0.00000000000E+00 0. -1.
         21   -1    0    0  501  502  0.00000000000E+00 -0.00000000000E+00 -0.56957472941E+03  0.56957472941E+03  0.00000000000E+00 0. -1.
        -24    2    1    2    0    0 -0.12886856857E+02 -0.43893883167E+02 -0.15548860680E+03  0.18062545562E+03  0.79725179921E+02 0.  0.
         23    2    1    2    0    0 -0.60338330966E+01 -0.65061405409E+02  0.38565886875E+02  0.11938352150E+03  0.92172143073E+02 0.  0.
         11    1    3    3    0    0  0.62930875105E+00 -0.62445486240E+02 -0.13893881012E+03  0.15232802677E+03  0.00000000000E+00 0. -1.
        -12    1    3    3    0    0 -0.13516165608E+02  0.18551603073E+02 -0.16549796676E+02  0.28297428847E+02  0.00000000000E+00 0.  1.
        -11    1    4    4    0    0 -0.33229499287E+02 -0.29654718837E+02 -0.17378677594E+02  0.47808162557E+02  0.00000000000E+00 0.  1.
         11    1    4    4    0    0  0.27195666190E+02 -0.35406686572E+02  0.55944564469E+02  0.71575358939E+02  0.00000000000E+00 0. -1.
          2    1    1    2  501    0  0.18920689954E+02  0.10895528858E+03 -0.35264242655E+03  0.36957533524E+03  0.00000000000E+00 0. -1.
<scales pt_clust_5="13000.00000" pt_clust_6="13000.00000" pt_clust_7="13000.00000" pt_clust_8="13000.00000" pt_clust_9="106.18629"></scales>
<clustering>
<clus scale="   79.725">  5  6 -1 -1</clus>
<clus scale="   91.918">  1  5  2 -1</clus>
<clus scale="   92.172">  7  8 -1 -1</clus>
<clus scale="  106.186">  2  9  1 -1</clus>
<clus scale="  106.186">  2  5  1 -1</clus>
</clustering>
</event>
<event>
 9    1  0.7835476E-005  0.1168470E+03  0.7546771E-02  0.1253079E+00
          1   -1    0    0  502    0 -0.00000000000E+00  0.00000000000E+00  0.53936637017E+03  0.53936637017E+03  0.00000000000E+00 0. -1.
         21   -1    0    0  501  502  0.00000000000E+00 -0.00000000000E+00 -0.80024948616E+02  0.80024948616E+02  0.00000000000E+00 0. -1.
         23    2    1    2    0    0  0.63535225279E+02  0.15866539820E+02  0.38810400065E+03  0.40453658806E+03  0.93470122646E+02 0.  0.
        -24    2    1    2    0    0 -0.73018168137E+02 -0.51506407100E+02  0.10898729225E+03  0.16207993435E+03  0.80044440126E+02 0.  0.
         11    1    4    4    0    0 -0.58864689052E+02  0.58998437710E+01  0.40992384493E+02  0.71973851920E+02  0.00000000000E+00 0. -1.
        -12    1    4    4    0    0 -0.14153479085E+02 -0.57406250871E+02  0.67994907761E+02  0.90106082429E+02  0.00000000000E+00 0.  1.
        -13    1    3    3    0    0  0.26399953288E+01  0.42758563357E+02  0.21167739712E+03  0.21596894399E+03  0.00000000000E+00 0. -1.
         13    1    3    3    0    0  0.60895229950E+02 -0.26892023536E+02  0.17642660353E+03  0.18856764408E+03  0.00000000000E+00 0.  1.
          2    1    1    2  501    0  0.94829428586E+01  0.35639867280E+02 -0.37749871350E+02  0.52774796370E+02  0.00000000000E+00 0. -1.
<scales pt_clust_5="13000.00000" pt_clust_6="13000.00000" pt_clust_7="13000.00000" pt_clust_8="13000.00000" pt_clust_9="36.87989"></scales>
<clustering>
<clus scale="   36.880">  2  9  1 -1</clus>
<clus scale="   80.044">  5  6 -1 -1</clus>
<clus scale="   93.470">  7  8 -1 -1</clus>
<clus scale="  106.413">  2  5  1 -1</clus>
<clus scale="   36.880">  2  5  1 -1</clus>
</clustering>
</event>
<event>
 9    1  0.7835476E-005  0.1079450E+03  0.7546771E-02  0.1268656E+00
         21   -1    0    0  501  502  0.00000000000E+00  0.00000000000E+00  0.30922067272E+03  0.30922067272E+03  0.00000000000E+00 0.  1.
         -4   -1    0    0    0  501 -0.00000000000E+00 -0.00000000000E+00 -0.15312926650E+03  0.15312926650E+03  0.00000000000E+00 0.  1.
         23    2    1    2    0    0 -0.32857696558E+02 -0.55668034049E+02 -0.11374371365E+03  0.15923812581E+03  0.90777695931E+02 0.  0.
        -24    2    1    2    0    0  0.24393053006E+02  0.79732424617E+01  0.12900981826E+03  0.15418831323E+03  0.80448176489E+02 0.  0.
         13    1    4    4    0    0 -0.10669279231E+02  0.37256279060E+02  0.58280530973E+02  0.69989171586E+02  0.00000000000E+00 0. -1.
        -14    1    4    4    0    0  0.35062332237E+02 -0.29283036598E+02  0.70729287284E+02  0.84199141647E+02  0.00000000000E+00 0.  1.
        -13    1    3    3    0    0  0.27014167314E+02 -0.19132956231E+01 -0.12262021651E+02  0.29728489884E+02  0.00000000000E+00 0. -1.
         13    1    3    3    0    0 -0.59871863872E+02 -0.53754738426E+02 -0.10148169200E+03  0.12950963592E+03  0.00000000000E+00 0.  1.
         -3    1    1    2    0  502  0.84646435525E+01  0.47694791587E+02  0.14082530161E+03  0.14892350019E+03  0.00000000000E+00 0.  1.
<scales pt_clust_5="13000.00000" pt_clust_6="13000.00000" pt_clust_7="13000.00000" pt_clust_8="13000.00000" pt_clust_9="48.44010"></scales>
<clustering>
<clus scale="   48.440">  1  9  2 -1</clus>
<clus scale="   80.448">  5  6 -1 -1</clus>
<clus scale="   90.778">  7  8 -1 -1</clus>
<clus scale="   99.416">  1  5  2 -1</clus>
<clus scale="   48.440">  1  5  2 -1</clus>
</clustering>
</event>
<event>
 9    1  0.7835476E-005  0.9463437E+02  0.7546771E-02  0.1298005E+00
          1   -1    0    0  502    0 -0.00000000000E+00  0.00000000000E+00  0.29015644580E+03  0.29015644580E+03  0.00000000000E+00 0. -1.
         21   -1    0    0  501  502  0.00000000000E+00 -0.00000000000E+00 -0.60684157037E+02  0.60684157037E+02  0.00000000000E+00 0.  1.
         23    2    1    2    0    0  0.13659224468E+02 -0.19095738318E+02  0.21551674419E+03  0.23547322333E+03  0.91918171477E+02 0.  0.
        -24    2    1    2    0    0 -0.28990880702E+02 -0.73709108385E+00  0.21429076392E+02  0.89209121095E+02  0.81596859647E+02 0.  0.
         11    1    4    4    0    0 -0.65036358688E+01 -0.34383556460E+02  0.31960520273E+02  0.47391993949E+02  0.00000000000E+00 0. -1.
        -12    1    4    4    0    0 -0.22487244833E+02  0.33646465376E+02 -0.10531443881E+02  0.41817127146E+02  0.00000000000E+00 0.  1.
        -13    1    3    3    0    0  0.44521990394E+02  0.89712443571E+01  0.15815048466E+03  0.16454259829E+03  0.00000000000E+00 0. -1.
         13    1    3    3    0    0 -0.30862765927E+02 -0.28066982675E+02  0.57366259530E+02  0.70930625047E+02  0.00000000000E+00 0.  1.
          2    1    1    2  501    0  0.15331656235E+02  0.19832829401E+02 -0.74735318177E+01  0.26158258405E+02  0.00000000000E+00 0. -1.
<scales pt_clust_5="13000.00000" pt_clust_6="13000.00000" pt_clust_7="13000.00000" pt_clust_8="13000.00000" pt_clust_9="25.06792"></scales>
<clustering>
<clus scale="   25.068">  2  9  1 -1</clus>
<clus scale="   81.597">  5  6 -1 -1</clus>
<clus scale="   84.645">  2  5  1 -1</clus>
<clus scale="   91.918">  7  8 -1 -1</clus>
<clus scale="   25.068">  2  5  1 -1</clus>
</clustering>
</event>
<event>
 9    1  0.7835476E-005  0.1164562E+03  0.7546771E-02  0.1253710E+00
          1   -1    0    0  502    0 -0.00000000000E+00  0.00000000000E+00  0.32398875505E+03  0.32398875505E+03  0.00000000000E+00 0. -1.
         21   -1    0    0  501  502  0.00000000000E+00 -0.00000000000E+00 -0.69434543944E+02  0.69434543944E+02  0.00000000000E+00 0.  1.
         23    2    1    2    0    0  0.49736496441E+02  0.26689100464E+02  0.12681838948E+03  0.16678311299E+03  0.92453640858E+02 0.  0.
        -24    2    1    2    0    0 -0.94509030320E+02 -0.38099288701E+02  0.54450076325E+02  0.14000547789E+03  0.79077243345E+02 0.  0.
         11    1    4    4    0    0 -0.44217697318E+02 -0.28466374518E+01  0.64009761645E+02  0.77849583728E+02  0.00000000000E+00 0. -1.
        -12    1    4    4    0    0 -0.50291333002E+02 -0.35252651249E+02 -0.95596853202E+01  0.62155894159E+02  0.00000000000E+00 0.  1.
        -13    1    3    3    0    0  0.48545917367E+02  0.53771737313E+02  0.11765123919E+03  0.13816627631E+03  0.00000000000E+00 0. -1.
         13    1    3    3    0    0  0.11905790737E+01 -0.27082636849E+02  0.91671502874E+01  0.28616836681E+02  0.00000000000E+00 0.  1.
          2    1    1    2  501    0  0.44772533879E+02  0.11410188237E+02  0.73285745308E+02  0.86634708119E+02  0.00000000000E+00 0. -1.
<scales pt_clust_5="13000.00000" pt_clust_6="13000.00000" pt_clust_7="13000.00000" pt_clust_8="13000.00000" pt_clust_9="46.20362"></scales>
<clustering>
<clus scale="   46.204">  2  9  1 -1</clus>
<clus scale="   79.077">  5  6 -1 -1</clus>
<clus scale="   92.454">  7  8 -1 -1</clus>
<clus scale="  106.149">  2  5  1 -1</clus>
<clus scale="   46.204">  2  5  1 -1</clus>
</clustering>
</event>
<event>
 9    1  0.7835476E-005  0.1112077E+03  0.7546771E-02  0.1264177E+00
         21   -1    0    0  501  502  0.00000000000E+00  0.00000000000E+00  0.16304873877E+03  0.16304873877E+03  0.00000000000E+00 0. -1.
          1   -1    0    0  502    0 -0.00000000000E+00 -0.00000000000E+00 -0.24474226984E+03  0.24474226984E+03  0.00000000000E+00 0. -1.
        -24    2    1    2    0    0  0.27595975732E+01  0.36231840866E+02 -0.19704868576E+03  0.22639424432E+03  0.10538409571E+03 0.  0.
         23    2    1    2    0    0 -0.29561169295E+02 -0.27014394023E+02  0.55481269452E+02  0.11515351778E+03  0.92620306537E+02 0.  0.
         11    1    3    3    0    0 -0.26097561279E+02  0.50113330041E+02 -0.18282190384E+03  0.19135380079E+03  0.00000000000E+00 0. -1.
        -12    1    3    3    0    0  0.28857158852E+02 -0.13881489175E+02 -0.14226781918E+02  0.35040443526E+02  0.00000000000E+00 0.  1.
        -11    1    4    4    0    0 -0.42388188298E+02  0.16763163779E+02  0.52370782980E+02  0.69429540377E+02  0.00000000000E+00 0. -1.
         11    1    4    4    0    0  0.12827019003E+02 -0.43777557802E+02  0.31104864723E+01  0.45723977404E+02  0.00000000000E+00 0.  1.
          2    1    1    2  501    0  0.26801571722E+02 -0.92174468437E+01  0.59873885243E+02  0.66243246503E+02  0.00000000000E+00 0. -1.
<scales pt_clust_5="13000.00000" pt_clust_6="13000.00000" pt_clust_7="13000.00000" pt_clust_8="13000.00000" pt_clust_9="28.34229"></scales>
<clustering>
<clus scale="   28.342">  1  9  2 -1</clus>
<clus scale="   92.620">  7  8 -1 -1</clus>
<clus scale="   99.196">  1  7  2 -1</clus>
<clus scale="  105.384">  5  6 -1 -1</clus>
<clus scale="   28.342">  1  5  2 -1</clus>
</clustering>
</event>
<event>
 9    1  0.7835476E-005  0.1104522E+03  0.7546771E-02  0.1272454E+00
         -4   -1    0    0    0  501 -0.00000000000E+00  0.00000000000E+00  0.12371989314E+03  0.12371989314E+03  0.00000000000E+00 0.  1.
         21   -1    0    0  501  502  0.00000000000E+00 -0.00000000000E+00 -0.26754019544E+03  0.26754019544E+03  0.00000000000E+00 0.  1.
        -24    2    1    2    0    0  0.37672052556E+02  0.17786660825E+02  0.65037212215E+02  0.11059577635E+03  0.79158309266E+02 0.  0.
         23    2    1    2    0    0  0.22718172748E+02 -0.33748473518E+02 -0.82174025934E+02  0.13941819705E+03  0.10502279892E+03 0.  0.
         11    1    3    3    0    0  0.34279945304E+02  0.47996708024E+02  0.40822886129E+02  0.71730792991E+02  0.00000000000E+00 0. -1.
        -12    1    3    3    0    0  0.33921072514E+01 -0.30210047199E+02  0.24214326086E+02  0.38864983355E+02  0.00000000000E+00 0.  1.
        -13    1    4    4    0    0  0.62746000197E+02 -0.72075814452E+01 -0.57550583074E+02  0.85446353832E+02  0.00000000000E+00 0.  1.
         13    1    4    4    0    0 -0.40027827449E+02 -0.26540892072E+02 -0.24623442860E+02  0.53971843220E+02  0.00000000000E+00 0. -1.
         -3    1    1    2    0  502 -0.60390225303E+02  0.15961812693E+02 -0.12668348857E+03  0.14124611518E+03  0.00000000000E+00 0.  1.
<scales pt_clust_5="13000.00000" pt_clust_6="13000.00000" pt_clust_7="13000.00000" pt_clust_8="13000.00000" pt_clust_9="62.46406"></scales>
<clustering>
<clus scale="   62.464">  2  9  1 -1</clus>
<clus scale="   79.158">  5  6 -1 -1</clus>
<clus scale="   86.232">  1  5  2 -1</clus>
<clus scale="  105.023">  7  8 -1 -1</clus>
<clus scale="   62.464">  2  5  1 -1</clus>
</clustering>
</event>
<event>
 9    1  0.7835476E-005  0.1127274E+03  0.7546771E-02  0.1259101E+00
         21   -1    0    0  501  502  0.00000000000E+00  0.00000000000E+00  0.16478669099E+03  0.16478669099E+03  0.00000000000E+00 0. -1.
          1   -1    0    0  502    0 -0.00000000000E+00 -0.00000000000E+00 -0.12854764383E+03  0.12854764383E+03  0.00000000000E+00 0. -1.
         23    2    1    2    0    0  0.35806004290E+02  0.40280350476E+02  0.25955197793E+02  0.91288120798E+02  0.68958481194E+02 0.  0.
        -24    2    1    2    0    0 -0.97834819002E+02 -0.54904669989E+02  0.20617043332E+01  0.13778854332E+03  0.79970353564E+02 0.  0.
         11    1    4    4    0    0 -0.39216388736E+02 -0.34358211612E+02  0.39367596568E+02  0.65331611875E+02  0.00000000000E+00 0. -1.
        -12    1    4    4    0    0 -0.58618430266E+02 -0.20546458377E+02 -0.37305892234E+02  0.72456931443E+02  0.00000000000E+00 0.  1.
        -13    1    3    3    0    0  0.32235808432E+01  0.41699131161E+02 -0.97346848250E+01  0.42941507911E+02  0.00000000000E+00 0. -1.
         13    1    3    3    0    0  0.32582423447E+02 -0.14187806842E+01  0.35689882618E+02  0.48346612887E+02  0.00000000000E+00 0.  1.
          2    1    1    2  501    0  0.62028814712E+02  0.14624319513E+02  0.82221450342E+01  0.64257670707E+02  0.00000000000E+00 0. -1.
<scales pt_clust_5="13000.00000" pt_clust_6="13000.00000" pt_clust_7="13000.00000" pt_clust_8="13000.00000" pt_clust_9="63.72946"></scales>
<clustering>
<clus scale="   63.729">  1  9  2 -1</clus>
<clus scale="   68.958">  7  8 -1 -1</clus>
<clus scale="   79.970">  5  6 -1 -1</clus>
<clus scale="  105.202">  2  7  1 -1</clus>
<clus scale="   63.729">  1  5  2 -1</clus>
</clustering>
</event>
<event>
 9    1  0.7835476E-005  0.2776916E+03  0.7546771E-02  0.1131367E+00
          1   -1    0    0  502    0 -0.00000000000E+00  0.00000000000E+00  0.15396597989E+04  0.15396597989E+04  0.00000000000E+00 0. -1.
         21   -1    0    0  501  502  0.00000000000E+00 -0.00000000000E+00 -0.79846276811E+02  0.79846276811E+02  0.00000000000E+00 0. -1.
        -24    2    1    2    0    0 -0.68871694481E+02  0.46644432289E+02  0.39565693568E+03  0.41240576915E+03  0.81333230075E+02 0.  0.
         23    2    1    2    0    0  0.30481511120E+03  0.73893549900E+01  0.71114482184E+03  0.77907431203E+03  0.90900888101E+02 0.  0.
         11    1    3    3    0    0 -0.76319360131E+02  0.57175274139E+02  0.38157079431E+03  0.39330640444E+03  0.00000000000E+00 0. -1.
        -12    1    3    3    0    0  0.74476656495E+01 -0.10530841850E+02  0.14086141369E+02  0.19099364711E+02  0.00000000000E+00 0.  1.
        -13    1    4    4    0    0  0.70823153732E+02  0.13858861800E+02  0.27231972653E+03  0.28171975545E+03  0.00000000000E+00 0.  1.
         13    1    4    4    0    0  0.23399195746E+03 -0.64695068104E+01  0.43882509531E+03  0.49735455658E+03  0.00000000000E+00 0. -1.
          2    1    1    2  501    0 -0.23594341671E+03 -0.54033787279E+02  0.35301176452E+03  0.42802599448E+03  0.00000000000E+00 0. -1.
<scales pt_clust_5="13000.00000" pt_clust_6="13000.00000" pt_clust_7="13000.00000" pt_clust_8="13000.00000" pt_clust_9="262.39222"></scales>
<clustering>
<clus scale="   81.333">  5  6 -1 -1</clus>
<clus scale="   90.901">  7  8 -1 -1</clus>
<clus scale="  116.336">  1  5  2 -1</clus>
<clus scale="  262.392">  2  9  1 -1</clus>
<clus scale="  262.392">  2  5  1 -1</clus>
</clustering>
</event>
<event>
 9    1  0.7835476E-005  0.1831193E+03  0.7546771E-02  0.1199749E+00
          1   -1    0    0  502    0 -0.00000000000E+00  0.00000000000E+00  0.11983040831E+04  0.11983040831E+04  0.00000000000E+00 0. -1.
         21   -1    0    0  501  502  0.00000000000E+00 -0.00000000000E+00 -0.40178381078E+02  0.40178381078E+02  0.00000000000E+00 0. -1.
        -24    2    1    2    0    0 -0.12828344102E+02  0.19118529381E+02  0.12669244393E+03  0.15187211524E+03  0.80523781956E+02 0.  0.
         23    2    1    2    0    0  0.96016926917E+02  0.11989624252E+03  0.56793047696E+03  0.59561108699E+03  0.92807225273E+02 0.  0.
         13    1    3    3    0    0  0.29101362126E+02 -0.34859265469E+01  0.79871805004E+02  0.85079646192E+02  0.00000000000E+00 0. -1.
        -14    1    3    3    0    0 -0.41929706229E+02  0.22604455928E+02  0.46820638927E+02  0.66792469050E+02  0.00000000000E+00 0.  1.
        -11    1    4    4    0    0  0.34490777870E+02  0.79872969040E+00  0.50934902572E+02  0.61519232986E+02  0.00000000000E+00 0.  1.
         11    1    4    4    0    0  0.61526149047E+02  0.11909751283E+03  0.51699557439E+03  0.53409185401E+03  0.00000000000E+00 0. -1.
          2    1    1    2  501    0 -0.83188582814E+02 -0.13901477190E+03  0.46350278115E+03  0.49099926197E+03  0.00000000000E+00 0. -1.
<scales pt_clust_5="13000.00000" pt_clust_6="13000.00000" pt_clust_7="13000.00000" pt_clust_8="13000.00000" pt_clust_9="157.85910"></scales>
<clustering>
<clus scale="   80.524">  5  6 -1 -1</clus>
<clus scale="   83.751">  1  5  2 -1</clus>
<clus scale="   92.807">  7  8 -1 -1</clus>
<clus scale="  157.859">  2  9  1 -1</clus>
<clus scale="  157.859">  2  5  1 -1</clus>
</clustering>
</event>
<event>
 9    1  0.7835476E-005  0.9648374E+02  0.7546771E-02  0.1293267E+00
         -4   -1    0    0    0  501 -0.00000000000E+00  0.00000000000E+00  0.55284296014E+02  0.55284296014E+02  0.00000000000E+00 0.  1.
         21   -1    0    0  501  502  0.00000000000E+00 -0.00000000000E+00 -0.49739502160E+03  0.49739502160E+03  0.00000000000E+00 0. -1.
         23    2    1    2    0    0 -0.31045922766E+02  0.10324389140E+02 -0.49675946181E+02  0.10899373616E+03  0.91331771916E+02 0.  0.
        -24    2    1    2    0    0  0.31173938632E+02  0.40961354407E+02 -0.37844785567E+03  0.39052659431E+03  0.81477569886E+02 0.  0.
         13    1    4    4    0    0 -0.23951996149E+02 -0.43979939990E+01 -0.11700435005E+03  0.11951175005E+03  0.00000000000E+00 0. -1.
        -14    1    4    4    0    0  0.55125934781E+02  0.45359348406E+02 -0.26144350562E+03  0.27101484426E+03  0.00000000000E+00 0.  1.
        -11    1    3    3    0    0 -0.11017792802E+02 -0.34759740404E+02 -0.47138559562E+02  0.59595931981E+02  0.00000000000E+00 0.  1.
         11    1    3    3    0    0 -0.20028129965E+02  0.45084129545E+02 -0.25373866194E+01  0.49397804177E+02  0.00000000000E+00 0. -1.
         -3    1    1    2    0  502 -0.12801586548E+00 -0.51285743547E+02 -0.13986923735E+02  0.53158987150E+02  0.00000000000E+00 0.  1.
<scales pt_clust_5="13000.00000" pt_clust_6="13000.00000" pt_clust_7="13000.00000" pt_clust_8="13000.00000" pt_clust_9="51.28593"></scales>
<clustering>
<clus scale="   51.286">  2  9  1 -1</clus>
<clus scale="   81.478">  5  6 -1 -1</clus>
<clus scale="   87.214">  2  5  1 -1</clus>
<clus scale="   91.332">  7  8 -1 -1</clus>
<clus scale="   51.286">  2  5  1 -1</clus>
</clustering>
</event>
<event>
 9    1  0.7835476E-005  0.2131061E+03  0.7546771E-02  0.1159364E+00
         21   -1    0    0  501  502  0.00000000000E+00  0.00000000000E+00  0.64162713128E+03  0.64162713128E+03  0.00000000000E+00 0. -1.
          1   -1    0    0  502    0 -0.00000000000E+00 -0.00000000000E+00 -0.17537660195E+03  0.17537660195E+03  0.00000000000E+00 0. -1.
        -24    2    1    2    0    0 -0.90450698784E+02 -0.53675698529E+02  0.73447994697E+01  0.13205416865E+03  0.79510677613E+02 0.  0.
         23    2    1    2    0    0 -0.17089599048E+03  0.28805383020E+02  0.34889821303E+03  0.40030543880E+03  0.92083069153E+02 0.  0.
         13    1    3    3    0    0 -0.80541137542E+02 -0.71408201234E+01 -0.98701043456E+01  0.81457259397E+02  0.00000000000E+00 0. -1.
        -14    1    3    3    0    0 -0.99095612418E+01 -0.46534878406E+02  0.17214903815E+02  0.50596909250E+02  0.00000000000E+00 0.  1.
        -13    1    4    4    0    0 -0.12382592835E+03  0.57356541641E+02  0.20531223414E+03  0.24652737554E+03  0.00000000000E+00 0. -1.
         13    1    4    4    0    0 -0.47070062124E+02 -0.28551158621E+02  0.14358597889E+03  0.15377806326E+03  0.00000000000E+00 0.  1.
          2    1    1    2  501    0  0.26134668926E+03  0.24870315509E+02  0.11000751683E+03  0.28464412578E+03  0.00000000000E+00 0. -1.
<scales pt_clust_5="13000.00000" pt_clust_6="13000.00000" pt_clust_7="13000.00000" pt_clust_8="13000.00000" pt_clust_9="192.18464"></scales>
<clustering>
<clus scale="   79.511">  5  6 -1 -1</clus>
<clus scale="   92.083">  7  8 -1 -1</clus>
<clus scale="  131.850">  2  5  1 -1</clus>
<clus scale="  192.185">  1  9  2 -1</clus>
<clus scale="  192.185">  1  5  2 -1</clus>
</clustering>
</event>
<event>
 9    1  0.7835476E-005  0.1558876E+03  0.7546771E-02  0.1194817E+00
         21   -1    0    0  501  502  0.00000000000E+00  0.00000000000E+00  0.10127549531E+04  0.10127549531E+04  0.00000000000E+00 0. -1.
          3   -1    0    0  502    0 -0.00000000000E+00 -0.00000000000E+00 -0.60783004336E+02  0.60783004336E+02  0.00000000000E+00 0. -1.
         23    2    1    2    0    0 -0.98813235575E+02 -0.12040190730E+03  0.12497977163E+03  0.21849828476E+03  0.88661616956E+02 0.  0.
        -24    2    1    2    0    0  0.69797484774E+02  0.44587012484E+02  0.29174941982E+03  0.31367600440E+03  0.80095076040E+02 0.  0.
         11    1    4    4    0    0  0.29087950691E+02 -0.19832133086E+02  0.13304873228E+03  0.13762771356E+03  0.00000000000E+00 0. -1.
        -12    1    4    4    0    0  0.40709534082E+02  0.64419145569E+02  0.15870068754E+03  0.17604829084E+03  0.00000000000E+00 0.  1.
        -13    1    3    3    0    0 -0.75698717696E+02 -0.68926318286E+02  0.27734508172E+02  0.10606760182E+03  0.00000000000E+00 0. -1.
         13    1    3    3    0    0 -0.23114517879E+02 -0.51475589015E+02  0.97245263456E+02  0.11243068294E+03  0.00000000000E+00 0.  1.
          4    1    1    2  501    0  0.29015750802E+02  0.75814894818E+02  0.53524275733E+03  0.54136366829E+03  0.00000000000E+00 0. -1.
<scales pt_clust_5="13000.00000" pt_clust_6="13000.00000" pt_clust_7="13000.00000" pt_clust_8="13000.00000" pt_clust_9="81.17766"></scales>
<clustering>
<clus scale="   80.095">  5  6 -1 -1</clus>
<clus scale="   81.178">  1  9  2 -1</clus>
<clus scale="   88.662">  7  8 -1 -1</clus>
<clus scale="  151.180">  1  5  2 -1</clus>
<clus scale="   81.178">  1  5  2 -1</clus>
</clustering>
</event>
<event>
 9    1  0.7835476E-005  0.1135161E+03  0.7546771E-02  0.1260274E+00
         -2   -1    0    0    0  501 -0.00000000000E+00  0.00000000000E+00  0.10939270278E+03  0.10939270278E+03  0.00000000000E+00 0.  1.
         21   -1    0    0  501  502  0.00000000000E+00 -0.00000000000E+00 -0.22853302342E+03  0.22853302342E+03  0.00000000000E+00 0. -1.
         23    2    1    2    0    0 -0.50476367648E+02  0.43984910725E+02  0.51776550403E+02  0.12505272738E+03  0.92058880027E+02 0.  0.
        -24    2    1    2    0    0  0.32799142219E+02 -0.59080183953E+02 -0.12164452286E+03  0.15839258152E+03  0.75660875440E+02 0.  0.
         11    1    4    4    0    0  0.30125876305E+02 -0.34942439297E+02 -0.12558341747E+03  0.13378989958E+03  0.00000000000E+00 0. -1.
        -12    1    4    4    0    0  0.26732659147E+01 -0.24137744656E+02  0.39388946091E+01  0.24602681937E+02  0.00000000000E+00 0.  1.
        -13    1    3    3    0    0 -0.38056215540E+02  0.52178435552E+01  0.70468955315E+02  0.80258177750E+02  0.00000000000E+00 0.  1.
         13    1    3    3    0    0 -0.12420152108E+02  0.38767067170E+02 -0.18692404913E+02  0.44794549633E+02  0.00000000000E+00 0. -1.
         -1    1    1    2    0  502  0.17677225429E+02  0.15095273228E+02 -0.49272348190E+02  0.54480417297E+02  0.00000000000E+00 0.  1.
<scales pt_clust_5="13000.00000" pt_clust_6="13000.00000" pt_clust_7="13000.00000" pt_clust_8="13000.00000" pt_clust_9="23.24546"></scales>
<clustering>
<clus scale="   23.245">  2  9  1 -1</clus>
<clus scale="   75.661">  5  6 -1 -1</clus>
<clus scale="   92.059">  7  8 -1 -1</clus>
<clus scale="  100.676">  2  5  1 -1</clus>
<clus scale="   23.245">  2  5  1 -1</clus>
</clustering>
</event>
<event>
 9    1  0.7835476E-005  0.1327003E+03  0.7546771E-02  0.1227317E+00
          1   -1    0    0  502    0 -0.00000000000E+00  0.00000000000E+00  0.70209747643E+03  0.70209747643E+03  0.00000000000E+00 0. -1.
         21   -1    0    0  501  502  0.00000000000E+00 -0.00000000000E+00 -0.11941033381E+03  0.11941033381E+03  0.00000000000E+00 0. -1.
        -24    2    1    2    0    0  0.10566370150E+03 -0.23731082656E+02  0.60990217704E+03  0.62390228756E+03  0.74467555081E+02 0.  0.
         23    2    1    2    0    0 -0.43162221735E+02 -0.13482192205E+00  0.35327130623E+02  0.10602201552E+03  0.90164660782E+02 0.  0.
         13    1    3    3    0    0  0.10409526257E+03 -0.25676936949E+01  0.41564616207E+03  0.42849054690E+03  0.00000000000E+00 0. -1.
        -14    1    3    3    0    0  0.15684389285E+01 -0.21163388961E+02  0.19425601498E+03  0.19541174066E+03  0.00000000000E+00 0.  1.
        -11    1    4    4    0    0 -0.10273238720E+02 -0.43025773698E+02  0.63306846388E+01  0.44685950858E+02  0.00000000000E+00 0. -1.
         11    1    4    4    0    0 -0.32888983016E+02  0.42890951776E+02  0.28996445984E+02  0.61336064658E+02  0.00000000000E+00 0.  1.
          2    1    1    2  501    0 -0.62501479768E+02  0.23865904578E+02 -0.62542165052E+02  0.91583507161E+02  0.00000000000E+00 0. -1.
<scales pt_clust_5="13000.00000" pt_clust_6="13000.00000" pt_clust_7="13000.00000" pt_clust_8="13000.00000" pt_clust_9="66.90304"></scales>
<clustering>
<clus scale="   66.903">  2  9  1 -1</clus>
<clus scale="   74.468">  5  6 -1 -1</clus>
<clus scale="   90.165">  7  8 -1 -1</clus>
<clus scale="  122.577">  1  5  2 -1</clus>
<clus scale="   66.903">  2  5  1 -1</clus>
</clustering>
</event>
<event>
 9    1  0.7835476E-005  0.1142088E+03  0.7546771E-02  0.1253306E+00
         21   -1    0    0  501  502  0.00000000000E+00  0.00000000000E+00  0.17490014632E+03  0.17490014632E+03  0.00000000000E+00 0. -1.
          1   -1    0    0  502    0 -0.00000000000E+00 -0.00000000000E+00 -0.22932660144E+03  0.22932660144E+03  0.00000000000E+00 0. -1.
         23    2    1    2    0    0 -0.86133424047E+02  0.47156686333E+01 -0.10734186716E+03  0.16561166196E+03  0.91998597077E+02 0.  0.
        -24    2    1    2    0    0  0.54356316051E+01 -0.84450701372E+02  0.98775398863E+01  0.11728055819E+03  0.80595883772E+02 0.  0.
         11    1    4    4    0    0  0.32631418898E+02 -0.80842909531E+02  0.17256085872E+02  0.88871581624E+02  0.00000000000E+00 0. -1.
        -12    1    4    4    0    0 -0.27195787293E+02 -0.36077918412E+01 -0.73785459855E+01  0.28408976562E+02  0.00000000000E+00 0.  1.
        -13    1    3    3    0    0 -0.44356953110E+02  0.48412141709E+02 -0.55597542471E+02  0.86036977416E+02  0.00000000000E+00 0. -1.
         13    1    3    3    0    0 -0.41776470937E+02 -0.43696473076E+02 -0.51744324685E+02  0.79574684544E+02  0.00000000000E+00 0.  1.
          2    1    1    2  501    0  0.80697792441E+02  0.79735032738E+02  0.43037872152E+02  0.12133452761E+03  0.00000000000E+00 0. -1.
<scales pt_clust_5="13000.00000" pt_clust_6="13000.00000" pt_clust_7="13000.00000" pt_clust_8="13000.00000" pt_clust_9="113.44518"></scales>
<clustering>
<clus scale="   80.596">  5  6 -1 -1</clus>
<clus scale="   91.999">  7  8 -1 -1</clus>
<clus scale="  113.445">  1  9  2 -1</clus>
<clus scale="  113.445">  1  5  2 -1</clus>
<clus scale="  113.445">  1  5  2 -1</clus>
</clustering>
</event>
<event>
 9    1  0.7835476E-005  0.1571134E+03  0.7546771E-02  0.1193012E+00
         21   -1    0    0  501  502  0.00000000000E+00  0.00000000000E+00  0.29955811846E+03  0.29955811846E+03  0.00000000000E+00 0. -1.
          1   -1    0    0  502    0 -0.00000000000E+00 -0.00000000000E+00 -0.24836177586E+03  0.24836177586E+03  0.00000000000E+00 0. -1.
        -24    2    1    2    0    0 -0.72784775116E+02 -0.78346361050E+02 -0.70675145854E+02  0.15215251525E+03  0.81973385182E+02 0.  0.
         23    2    1    2    0    0  0.10318577036E+03  0.20513646541E+03  0.74772202209E+02  0.25713731797E+03  0.88320130319E+02 0.  0.
         13    1    3    3    0    0  0.17938906023E+02 -0.13328780453E+02 -0.59478045891E+01  0.23126545723E+02  0.00000000000E+00 0. -1.
        -14    1    3    3    0    0 -0.90723681139E+02 -0.65017580597E+02 -0.64727341265E+02  0.12902596953E+03  0.00000000000E+00 0.  1.
        -13    1    4    4    0    0  0.57262901591E+01  0.49951480096E+02  0.52243190901E+02  0.72507184184E+02  0.00000000000E+00 0.  1.
         13    1    4    4    0    0  0.97459480205E+02  0.15518498532E+03  0.22529011308E+02  0.18463013378E+03  0.00000000000E+00 0. -1.
          2    1    1    2  501    0 -0.30400995248E+02 -0.12679010436E+03  0.47099286241E+02  0.13863006110E+03  0.00000000000E+00 0. -1.
<scales pt_clust_5="13000.00000" pt_clust_6="13000.00000" pt_clust_7="13000.00000" pt_clust_8="13000.00000" pt_clust_9="130.38386"></scales>
<clustering>
<clus scale="   81.973">  5  6 -1 -1</clus>
<clus scale="   88.320">  7  8 -1 -1</clus>
<clus scale="  130.384">  1  9  2 -1</clus>
<clus scale="  153.635">  2  5  1 -1</clus>
<clus scale="  130.384">  1  5  2 -1</clus>
</clustering>
</event>
<event>
 9    1  0.7835476E-005  0.1685630E+03  0.7546771E-02  0.1197990E+00
          1   -1    0    0  502    0 -0.00000000000E+00  0.00000000000E+00  0.12078679914E+03  0.12078679914E+03  0.00000000000E+00 0. -1.
         21   -1    0    0  501  502  0.00000000000E+00 -0.00000000000E+00 -0.97907236837E+03  0.97907236837E+03  0.00000000000E+00 0. -1.
        -24    2    1    2    0    0  0.31389750338E+02  0.72954887870E+02 -0.12161712799E+03  0.16503887866E+03  0.78354154706E+02 0.  0.
         23    2    1    2    0    0 -0.13056119112E+03 -0.16749585262E+03 -0.52209486875E+02  0.23678230356E+03  0.90768626115E+02 0.  0.
         11    1    3    3    0    0 -0.23893491291E+02  0.36499924051E+02 -0.34545004065E+02  0.55646210003E+02  0.00000000000E+00 0. -1.
        -12    1    3    3    0    0  0.55283241629E+02  0.36454963819E+02 -0.87072123925E+02  0.10939266866E+03  0.00000000000E+00 0.  1.
        -11    1    4    4    0    0 -0.31740132941E+02  0.26282419188E+01 -0.19484690391E+02  0.37336267279E+02  0.00000000000E+00 0.  1.
         11    1    4    4    0    0 -0.98821058182E+02 -0.17012409454E+03 -0.32724796484E+02  0.19944603628E+03  0.00000000000E+00 0. -1.
          2    1    1    2  501    0  0.99171440786E+02  0.94540964752E+02 -0.68445895437E+03  0.69803798528E+03  0.00000000000E+00 0. -1.
<scales pt_clust_5="13000.00000" pt_clust_6="13000.00000" pt_clust_7="13000.00000" pt_clust_8="13000.00000" pt_clust_9="142.03716"></scales>
<clustering>
<clus scale="   78.354">  5  6 -1 -1</clus>
<clus scale="   90.769">  7  8 -1 -1</clus>
<clus scale="  111.567">  1  5  2 -1</clus>
<clus scale="  142.037">  2  9  1 -1</clus>
<clus scale="  142.037">  2  5  1 -1</clus>
</clustering>
</event>
<event>
 9    1  0.7835476E-005  0.1197718E+03  0.7546771E-02  0.1247039E+00
          3   -1    0    0  502    0 -0.00000000000E+00  0.00000000000E+00  0.14631139013E+03  0.14631139013E+03  0.00000000000E+00 0. -1.
         21   -1    0    0  501  502  0.00000000000E+00 -0.00000000000E+00 -0.34718263310E+03  0.34718263310E+03  0.00000000000E+00 0. -1.
         23    2    1    2    0    0 -0.87521591265E+02  0.22451713043E+01  0.76214097424E+02  0.14836302035E+03  0.92400905998E+02 0.  0.
        -24    2    1    2    0    0  0.17633716241E+02 -0.69731389631E+02 -0.14409238842E+03  0.18043179215E+03  0.81360927771E+02 0.  0.
         11    1    4    4    0    0  0.27027222343E+02 -0.85055998984E+02 -0.12952727385E+03  0.15729687976E+03  0.00000000000E+00 0. -1.
        -12    1    4    4    0    0 -0.93935061016E+01  0.15324609353E+02 -0.14565114572E+02  0.23134912388E+02  0.00000000000E+00 0.  1.
        -11    1    3    3    0    0 -0.34904570257E+02 -0.39785170946E+01  0.87413333098E+02  0.94208536909E+02  0.00000000000E+00 0. -1.
         11    1    3    3    0    0 -0.52617021008E+02  0.62236883988E+01 -0.11199235674E+02  0.54154483441E+02  0.00000000000E+00 0.  1.
          4    1    1    2  501    0  0.69887875024E+02  0.67486218327E+02 -0.13299295198E+03  0.16469921073E+03  0.00000000000E+00 0. -1.
<scales pt_clust_5="13000.00000" pt_clust_6="13000.00000" pt_clust_7="13000.00000" pt_clust_8="13000.00000" pt_clust_9="97.15300"></scales>
<clustering>
<clus scale="   81.361">  5  6 -1 -1</clus>
<clus scale="   92.401">  7  8 -1 -1</clus>
<clus scale="   97.153">  2  9  1 -1</clus>
<clus scale="  111.476">  2  5  1 -1</clus>
<clus scale="   97.153">  2  5  1 -1</clus>
</clustering>
</event>
<event>
 9    1  0.7835476E-005  0.1119538E+03  0.7546771E-02  0.1262511E+00
         21   -1    0    0  501  502  0.00000000000E+00  0.00000000000E+00  0.35938857386E+03  0.35938857386E+03  0.00000000000E+00 0. -1.
          1   -1    0    0  502    0 -0.00000000000E+00 -0.00000000000E+00 -0.90366126558E+02  0.90366126558E+02  0.00000000000E+00 0. -1.
         23    2    1    2    0    0  0.21453909018E+02  0.45550279296E+02  0.19860655021E+02  0.10937149203E+03  0.95039883703E+02 0.  0.
        -24    2    1    2    0    0 -0.59754680967E+01 -0.10043018163E+03  0.25207554488E+03  0.28328788663E+03  0.81166611243E+02 0.  0.
         13    1    4    4    0    0 -0.17375280099E+01 -0.88477360553E+02  0.25530006535E+03  0.27020249018E+03  0.00000000000E+00 0. -1.
        -14    1    4    4    0    0 -0.42379400867E+01 -0.11952821075E+02 -0.32245204669E+01  0.13085396443E+02  0.00000000000E+00 0.  1.
        -13    1    3    3    0    0  0.58425644991E+02  0.35131957761E+02  0.19683455789E+02  0.70959487601E+02  0.00000000000E+00 0. -1.
         13    1    3    3    0    0 -0.36971735973E+02  0.10418321535E+02  0.17719923196E+00  0.38412004426E+02  0.00000000000E+00 0.  1.
          2    1    1    2  501    0 -0.15478440922E+02  0.54879902332E+02 -0.29137526015E+01  0.57095321766E+02  0.00000000000E+00 0. -1.
<scales pt_clust_5="13000.00000" pt_clust_6="13000.00000" pt_clust_7="13000.00000" pt_clust_8="13000.00000" pt_clust_9="57.02095"></scales>
<clustering>
<clus scale="   57.021">  1  9  2 -1</clus>
<clus scale="   81.167">  5  6 -1 -1</clus>
<clus scale="   95.040">  7  8 -1 -1</clus>
<clus scale="  100.444">  1  5  2 -1</clus>
<clus scale="   57.021">  1  5  2 -1</clus>
</clustering>
</event>
<event>
 9    1  0.7835476E-005  0.1339018E+03  0.7546771E-02  0.1234587E+00
         21   -1    0    0  501  502  0.00000000000E+00  0.00000000000E+00  0.30882959782E+03  0.30882959782E+03  0.00000000000E+00 0. -1.
          3   -1    0    0  502    0 -0.00000000000E+00 -0.00000000000E+00 -0.12697272861E+03  0.12697272861E+03  0.00000000000E+00 0. -1.
         23    2    1    2    0    0 -0.39794600967E+01  0.48975660724E+02 -0.20222932044E+01  0.10271947737E+03  0.90181760439E+02 0.  0.
        -24    2    1    2    0    0  0.19831509991E+02  0.92896617281E+02  0.13554191231E+03  0.18236615954E+03  0.76568504388E+02 0.  0.
         11    1    4    4    0    0 -0.18454259194E+02  0.76087292949E+02  0.72419316616E+02  0.10665080051E+03  0.00000000000E+00 0. -1.
        -12    1    4    4    0    0  0.38285769185E+02  0.16809324332E+02  0.63122595690E+02  0.75715359031E+02  0.00000000000E+00 0.  1.
        -13    1    3    3    0    0  0.40796043695E+02  0.15740091614E+02  0.11756218449E+02  0.45279977224E+02  0.00000000000E+00 0.  1.
         13    1    3    3    0    0 -0.44775503792E+02  0.33235569110E+02 -0.13778511654E+02  0.57439500148E+02  0.00000000000E+00 0. -1.
          4    1    1    2  501    0 -0.15852049894E+02 -0.14187227801E+03  0.48337250105E+02  0.15071668952E+03  0.00000000000E+00 0. -1.
<scales pt_clust_5="13000.00000" pt_clust_6="13000.00000" pt_clust_7="13000.00000" pt_clust_8="13000.00000" pt_clust_9="109.84976"></scales>
<clustering>
<clus scale="   76.569">  5  6 -1 -1</clus>
<clus scale="   90.182">  7  8 -1 -1</clus>
<clus scale="  102.700">  2  7  1 -1</clus>
<clus scale="  109.850">  1  9  2 -1</clus>
<clus scale="  109.850">  1  5  2 -1</clus>
</clustering>
</event>
<event>
 9    1  0.7835476E-005  0.9022831E+02  0.7546771E-02  0.1307486E+00
          1   -1    0    0  502    0 -0.00000000000E+00  0.00000000000E+00  0.28613337134E+03  0.28613337134E+03  0.00000000000E+00 0. -1.
         21   -1    0    0  501  502  0.00000000000E+00 -0.00000000000E+00 -0.10400240516E+03  0.10400240516E+03  0.00000000000E+00 0.  1.
        -24    2    1    2    0    0 -0.73590384732E+01  0.37058761959E+01  0.17635072367E+03  0.19389773882E+03  0.80180212108E+02 0.  0.
         23    2    1    2    0    0  0.72209089305E+02  0.29926727043E+02  0.24978787631E+02  0.12070483155E+03  0.88520929495E+02 0.  0.
         11    1    3    3    0    0 -0.85106651611E+01 -0.34173766551E+02  0.12630043082E+03  0.13111855920E+03  0.00000000000E+00 0. -1.
        -12    1    3    3    0    0  0.11516266879E+01  0.37879642747E+02  0.50050292847E+02  0.62779179612E+02  0.00000000000E+00 0.  1.
        -13    1    4    4    0    0  0.45270684621E+02  0.35373425389E+02  0.55327447383E+02  0.79761146831E+02  0.00000000000E+00 0. -1.
         13    1    4    4    0    0  0.26938404684E+02 -0.54466983465E+01 -0.30348659752E+02  0.40943684721E+02  0.00000000000E+00 0.  1.
          2    1    1    2  501    0 -0.64850050832E+02 -0.33632603238E+02 -0.19198545118E+02  0.75533206129E+02  0.00000000000E+00 0. -1.
<scales pt_clust_5="13000.00000" pt_clust_6="13000.00000" pt_clust_7="13000.00000" pt_clust_8="13000.00000" pt_clust_9="73.05259"></scales>
<clustering>
<clus scale="   73.053">  2  9  1 -1</clus>
<clus scale="   80.180">  5  6 -1 -1</clus>
<clus scale="   82.061">  1  5  2 -1</clus>
<clus scale="   88.521">  7  8 -1 -1</clus>
<clus scale="   73.053">  2  5  1 -1</clus>
</clustering>
</event>
<event>
 9    1  0.7835476E-005  0.1570954E+03  0.7546771E-02  0.1206171E+00
          1   -1    0    0  502    0 -0.00000000000E+00  0.00000000000E+00  0.76424772684E+02  0.76424772684E+02  0.00000000000E+00 0. -1.
         21   -1    0    0  501  502  0.00000000000E+00 -0.00000000000E+00 -0.75956667167E+03  0.75956667167E+03  0.00000000000E+00 0. -1.
        -24    2    1    2    0    0 -0.15331354788E+02 -0.79642996644E+02 -0.54436967199E+02  0.12764853986E+03  0.82174868282E+02 0.  0.
         23    2    1    2    0    0  0.11305932618E+03 -0.28257359048E+02 -0.46219290662E+03  0.48716537924E+03  0.10063266978E+03 0.  0.
         13    1    3    3    0    0 -0.34841973693E+02 -0.30311370857E+02  0.67433512266E+01  0.46671352239E+02  0.00000000000E+00 0. -1.
        -14    1    3    3    0    0  0.19510618904E+02 -0.49331625787E+02 -0.61180318425E+02  0.80977187624E+02  0.00000000000E+00 0.  1.
        -13    1    4    4    0    0  0.62783533073E+02 -0.56831930621E+02 -0.35920257507E+03  0.36905030863E+03  0.00000000000E+00 0.  1.
         13    1    4    4    0    0  0.50275793105E+02  0.28574571573E+02 -0.10299033155E+03  0.11811507061E+03  0.00000000000E+00 0. -1.
          2    1    1    2  501    0 -0.97727971390E+02  0.10790035569E+03 -0.16651202517E+03  0.22117752525E+03  0.00000000000E+00 0. -1.
<scales pt_clust_5="13000.00000" pt_clust_6="13000.00000" pt_clust_7="13000.00000" pt_clust_8="13000.00000" pt_clust_9="120.63187"></scales>
<clustering>
<clus scale="   82.175">  5  6 -1 -1</clus>
<clus scale="  100.633">  7  8 -1 -1</clus>
<clus scale="  115.459">  1  5  2 -1</clus>
<clus scale="  120.632">  2  9  1 -1</clus>
<clus scale="  120.632">  2  5  1 -1</clus>
</clustering>
</event>
<event>
 9    1  0.7835476E-005  0.3798354E+03  0.7546771E-02  0.1063733E+00
          1   -1    0    0  502    0 -0.00000000000E+00  0.00000000000E+00  0.31857953927E+03  0.31857953927E+03  0.00000000000E+00 0. -1.
         21   -1    0    0  501  502  0.00000000000E+00 -0.00000000000E+00 -0.10067759675E+04  0.10067759675E+04  0.00000000000E+00 0. -1.
         23    2    1    2    0    0 -0.14439417936E+03 -0.20312611222E+03 -0.74511481896E+02  0.27570971569E+03  0.91400163522E+02 0.  0.
        -24    2    1    2    0    0  0.42149206180E+03  0.32876730370E+03 -0.32797424178E+03  0.63227359252E+03  0.80369735477E+02 0.  0.
         11    1    4    4    0    0  0.32397165920E+03  0.29146386628E+03 -0.27357426667E+03  0.51454028093E+03  0.00000000000E+00 0. -1.
        -12    1    4    4    0    0  0.97520402595E+02  0.37303437426E+02 -0.54399975108E+02  0.11773331159E+03  0.00000000000E+00 0.  1.
        -13    1    3    3    0    0 -0.79945904553E+02 -0.42057834237E+02 -0.40156015420E+02  0.98857041479E+02  0.00000000000E+00 0.  1.
         13    1    3    3    0    0 -0.64448274808E+02 -0.16106827799E+03 -0.34355466475E+02  0.17685267421E+03  0.00000000000E+00 0. -1.
          2    1    1    2  501    0 -0.27709788243E+03 -0.12564119148E+03 -0.28571070457E+03  0.41737219858E+03  0.00000000000E+00 0. -1.
<scales pt_clust_5="13000.00000" pt_clust_6="13000.00000" pt_clust_7="13000.00000" pt_clust_8="13000.00000" pt_clust_9="371.23531"></scales>
<clustering>
<clus scale="   80.370">  5  6 -1 -1</clus>
<clus scale="   91.400">  7  8 -1 -1</clus>
<clus scale="  265.450">  1  7  2 -1</clus>
<clus scale="  371.235">  2  9  1 -1</clus>
<clus scale="  371.235">  2  5  1 -1</clus>
</clustering>
</event>
<event>
 9    1  0.7835476E-005  0.1035505E+03  0.7546771E-02  0.1278172E+00
         21   -1    0    0  501  502  0.00000000000E+00  0.00000000000E+00  0.28908984324E+03  0.28908984324E+03  0.00000000000E+00 0. -1.
          1   -1    0    0  502    0 -0.00000000000E+00 -0.00000000000E+00 -0.15590801699E+03  0.15590801699E+03  0.00000000000E+00 0. -1.
         23    2    1    2    0    0  0.52375973524E+02  0.16304497639E+02 -0.10969879994E+03  0.15266675883E+03  0.90907828587E+02 0.  0.
        -24    2    1    2    0    0 -0.31994781802E+02  0.51334467715E+00  0.53484055085E+02  0.10110010512E+03  0.79603753184E+02 0.  0.
         11    1    4    4    0    0 -0.63073569858E+01  0.30530766589E+02  0.53117378490E+02  0.61590310588E+02  0.00000000000E+00 0. -1.
        -12    1    4    4    0    0 -0.25687424817E+02 -0.30017421912E+02  0.36667659429E+00  0.39509794529E+02  0.00000000000E+00 0.  1.
        -11    1    3    3    0    0 -0.20610455056E+02  0.10181358395E+02 -0.29063589818E+01  0.23171056059E+02  0.00000000000E+00 0.  1.
         11    1    3    3    0    0  0.72986428580E+02  0.61231392433E+01 -0.10679244095E+03  0.12949570277E+03  0.00000000000E+00 0. -1.
          2    1    1    2  501    0 -0.20381191722E+02 -0.16817842316E+02  0.18939657110E+03  0.19123099628E+03  0.00000000000E+00 0. -1.
<scales pt_clust_5="13000.00000" pt_clust_6="13000.00000" pt_clust_7="13000.00000" pt_clust_8="13000.00000" pt_clust_9="26.42409"></scales>
<clustering>
<clus scale="   26.424">  1  9  2 -1</clus>
<clus scale="   79.604">  5  6 -1 -1</clus>
<clus scale="   90.908">  7  8 -1 -1</clus>
<clus scale="   93.783">  1  5  2 -1</clus>
<clus scale="   26.424">  1  5  2 -1</clus>
</clustering>
</event>
<event>
 9    1  0.7835476E-005  0.1357983E+03  0.7546771E-02  0.1231814E+00
         21   -1    0    0  501  502  0.00000000000E+00  0.00000000000E+00  0.52500748612E+03  0.52500748612E+03  0.00000000000E+00 0.  1.
         -2   -1    0    0    0  501 -0.00000000000E+00 -0.00000000000E+00 -0.95695705331E+02  0.95695705331E+02  0.00000000000E+00 0.  1.
        -24    2    1    2    0    0  0.46206519125E+02 -0.45674877651E+02 -0.24867057901E+02  0.10715295428E+03  0.81499375363E+02 0.  0.
         23    2    1    2    0    0 -0.43982855241E+02 -0.67206967112E+02  0.22598004590E+03  0.25894869635E+03  0.97653357397E+02 0.  0.
         11    1    3    3    0    0  0.48853026981E+02  0.46562926172E+01  0.37098449662E+01  0.49214451696E+02  0.00000000000E+00 0. -1.
        -12    1    3    3    0    0 -0.26465078554E+01 -0.50331170268E+02 -0.28576902867E+02  0.57938502586E+02  0.00000000000E+00 0.  1.
        -13    1    4    4    0    0 -0.71001978239E+02 -0.68928076598E+02  0.16843266947E+03  0.19535077375E+03  0.00000000000E+00 0.  1.
         13    1    4    4    0    0  0.27019122998E+02  0.17211094862E+01  0.57547376429E+02  0.63597922603E+02  0.00000000000E+00 0. -1.
         -1    1    1    2    0  502 -0.22236638846E+01  0.11288184476E+03  0.22819879279E+03  0.25460154082E+03  0.00000000000E+00 0.  1.
<scales pt_clust_5="13000.00000" pt_clust_6="13000.00000" pt_clust_7="13000.00000" pt_clust_8="13000.00000" pt_clust_9="94.36634"></scales>
<clustering>
<clus scale="   81.499">  5  6 -1 -1</clus>
<clus scale="   97.653">  7  8 -1 -1</clus>
<clus scale="  104.228">  2  5  1 -1</clus>
<clus scale="   94.366">  1  9  2 -1</clus>
<clus scale="   94.366">  1  5  2 -1</clus>
</clustering>
</event>
<event>
 9    1  0.8634373E-005  0.1662576E+03  0.7546771E-02  0.1184631E+00
         21   -1    0    0  501  502  0.00000000000E+00  0.00000000000E+00  0.65064760398E+02  0.65064760398E+02  0.00000000000E+00 0.  1.
          1   -1    0    0  502    0 -0.00000000000E+00 -0.00000000000E+00 -0.93516975483E+03  0.93516975483E+03  0.00000000000E+00 0. -1.
         23    2    1    2    0    0 -0.12118754428E+03  0.41994581610E+02 -0.43954100038E+03  0.46795419100E+03  0.96617121080E+02 0.  0.
        -24    2    1    2    0    0  0.14274843530E+03 -0.75012523731E+02 -0.11181328415E+03  0.21109957825E+03  0.77825618703E+02 0.  0.
         13    1    4    4    0    0  0.29951966485E+02 -0.93842295242E+01 -0.65488433309E+02  0.72621752646E+02  0.00000000000E+00 0. -1.
        -14    1    4    4    0    0  0.11279646882E+03 -0.65628294207E+02 -0.46324850839E+02  0.13847782560E+03  0.00000000000E+00 0.  1.
        -13    1    3    3    0    0 -0.11895817058E+03  0.66235616531E+02 -0.36748617750E+03  0.39189832087E+03  0.00000000000E+00 0.  1.
         13    1    3    3    0    0 -0.22293736961E+01 -0.24241034922E+02 -0.72054822877E+02  0.76055870129E+02  0.00000000000E+00 0. -1.
          2    1    1    2  501    0 -0.21560891024E+02  0.33017942122E+02 -0.31875070991E+03  0.32118074598E+03  0.00000000000E+00 0. -1.
<scales pt_clust_5="13000.00000" pt_clust_6="13000.00000" pt_clust_7="13000.00000" pt_clust_8="13000.00000" pt_clust_9="39.43422"></scales>
<clustering>
<clus scale="   39.434">  1  9  2 -1</clus>
<clus scale="   77.826">  5  6 -1 -1</clus>
<clus scale="   96.617">  7  8 -1 -1</clus>
<clus scale="  156.088">  1  5  2 -1</clus>
<clus scale="   39.434">  1  5  2 -1</clus>
</clustering>
</event>
<event>
 9    1  0.7835476E-005  0.1619298E+03  0.7546771E-02  0.1187955E+00
         21   -1    0    0  501  502  0.00000000000E+00  0.00000000000E+00  0.95799364723E+03  0.95799364723E+03  0.00000000000E+00 0. -1.
          3   -1    0    0  502    0 -0.00000000000E+00 -0.00000000000E+00 -0.55994323908E+02  0.55994323908E+02  0.00000000000E+00 0. -1.
        -24    2    1    2    0    0  0.74672213564E+02  0.51895916135E+02  0.25739430407E+03  0.28465799745E+03  0.80679750578E+02 0.  0.
         23    2    1    2    0    0 -0.14424179378E+03 -0.14540667621E+03  0.39826463286E+03  0.45680882826E+03  0.90059931286E+02 0.  0.
         11    1    3    3    0    0  0.60410180978E+02  0.80969231592E+01  0.75552449940E+02  0.97072770757E+02  0.00000000000E+00 0. -1.
        -12    1    3    3    0    0  0.14262032586E+02  0.43798992976E+02  0.18184185413E+03  0.18758522670E+03  0.00000000000E+00 0.  1.
        -11    1    4    4    0    0 -0.51929843643E+02 -0.84044917425E+02  0.10939672691E+03  0.14740386923E+03  0.00000000000E+00 0.  1.
         11    1    4    4    0    0 -0.92311950140E+02 -0.61361758785E+02  0.28886790595E+03  0.30940495902E+03  0.00000000000E+00 0. -1.
          4    1    1    2  501    0  0.69569580220E+02  0.93510760075E+02  0.24634038638E+03  0.27252114543E+03  0.00000000000E+00 0. -1.
<scales pt_clust_5="13000.00000" pt_clust_6="13000.00000" pt_clust_7="13000.00000" pt_clust_8="13000.00000" pt_clust_9="116.55123"></scales>
<clustering>
<clus scale="   80.680">  5  6 -1 -1</clus>
<clus scale="   90.060">  7  8 -1 -1</clus>
<clus scale="  116.551">  1  9  2 -1</clus>
<clus scale="  156.907">  2  5  1 -1</clus>
<clus scale="  116.551">  1  5  2 -1</clus>
</clustering>
</event>
<event>
 9    1  0.7835476E-005  0.1330905E+03  0.7546771E-02  0.1224715E+00
         21   -1    0    0  501  502  0.00000000000E+00  0.00000000000E+00  0.52366818536E+03  0.52366818536E+03  0.00000000000E+00 0.  1.
          1   -1    0    0  502    0 -0.00000000000E+00 -0.00000000000E+00 -0.15184925449E+03  0.15184925449E+03  0.00000000000E+00 0. -1.
        -24    2    1    2    0    0 -0.84330333568E+02  0.50358726662E+02  0.12099696967E+02  0.12806749267E+03  0.81285137024E+02 0.  0.
         23    2    1    2    0    0  0.10771769734E+03 -0.23814448378E+02  0.43866321764E+03  0.46094145014E+03  0.88720751097E+02 0.  0.
         11    1    3    3    0    0 -0.38016341309E+02 -0.16821661679E+02  0.19916132874E+02  0.46096234736E+02  0.00000000000E+00 0. -1.
        -12    1    3    3    0    0 -0.46313992258E+02  0.67180388341E+02 -0.78164359077E+01  0.81971257932E+02  0.00000000000E+00 0.  1.
        -11    1    4    4    0    0  0.22436462150E+02  0.19972045826E+02  0.35336343638E+02  0.46378169757E+02  0.00000000000E+00 0. -1.
         11    1    4    4    0    0  0.85281235186E+02 -0.43786494204E+02  0.40332687400E+03  0.41456328038E+03  0.00000000000E+00 0.  1.
          2    1    1    2  501    0 -0.23387363768E+02 -0.26544278284E+02 -0.78943983734E+02  0.86508497048E+02  0.00000000000E+00 0. -1.
<scales pt_clust_5="13000.00000" pt_clust_6="13000.00000" pt_clust_7="13000.00000" pt_clust_8="13000.00000" pt_clust_9="35.37752"></scales>
<clustering>
<clus scale="   35.378">  1  9  2 -1</clus>
<clus scale="   81.285">  5  6 -1 -1</clus>
<clus scale="   88.721">  7  8 -1 -1</clus>
<clus scale="  128.254">  2  5  1 -1</clus>
<clus scale="   35.378">  1  5  2 -1</clus>
</clustering>
</event>
<event>
 9    1  0.7835476E-005  0.1025674E+03  0.7546771E-02  0.1281627E+00
         21   -1    0    0  501  502  0.00000000000E+00  0.00000000000E+00  0.35756634812E+02  0.35756634812E+02  0.00000000000E+00 0.  1.
          1   -1    0    0  502    0 -0.00000000000E+00 -0.00000000000E+00 -0.70110335205E+03  0.70110335205E+03  0.00000000000E+00 0. -1.
        -24    2    1    2    0    0  0.49644133719E+02  0.12071103483E+02 -0.44985973447E+03  0.45987545391E+03  0.80631264802E+02 0.  0.
         23    2    1    2    0    0 -0.21678425019E+02  0.17319601676E+02 -0.21509351125E+03  0.23641300065E+03  0.94106139971E+02 0.  0.
         11    1    3    3    0    0  0.25965962851E+01  0.40405244683E+02 -0.18391458580E+03  0.18831861559E+03  0.00000000000E+00 0. -1.
        -12    1    3    3    0    0  0.47047537434E+02 -0.28334141200E+02 -0.26594514867E+03  0.27155683832E+03  0.00000000000E+00 0.  1.
        -13    1    4    4    0    0 -0.47718446378E+02  0.33118758857E+02 -0.86021500300E+02  0.10379595766E+03  0.00000000000E+00 0.  1.
         13    1    4    4    0    0  0.26040021359E+02 -0.15799157181E+02 -0.12907201096E+03  0.13261704299E+03  0.00000000000E+00 0. -1.
          2    1    1    2  501    0 -0.27965708700E+02 -0.29390705159E+02 -0.39347151219E+00  0.40571532294E+02  0.00000000000E+00 0. -1.
<scales pt_clust_5="13000.00000" pt_clust_6="13000.00000" pt_clust_7="13000.00000" pt_clust_8="13000.00000" pt_clust_9="40.56962"></scales>
<clustering>
<clus scale="   40.570">  1  9  2 -1</clus>
<clus scale="   80.631">  5  6 -1 -1</clus>
<clus scale="   90.363">  2  5  1 -1</clus>
<clus scale="   94.106">  7  8 -1 -1</clus>
<clus scale="   40.570">  1  5  2 -1</clus>
</clustering>
</event>
<event>
 9    1  0.7849909E-005  0.9914394E+02  0.7546771E-02  0.1282339E+00
         21   -1    0    0  501  502  0.00000000000E+00  0.00000000000E+00  0.31438905353E+03  0.31438905353E+03  0.00000000000E+00 0.  1.
          1   -1    0    0  502    0 -0.00000000000E+00 -0.00000000000E+00 -0.23814933035E+03  0.23814933035E+03  0.00000000000E+00 0. -1.
        -24    2    1    2    0    0 -0.43482052477E+01 -0.59059246142E+02 -0.21128015865E+03  0.23396142701E+03  0.81189546404E+02 0.  0.
         23    2    1    2    0    0 -0.63262147049E+01  0.52165522936E+01  0.18024491307E+03  0.19807426875E+03  0.81718748417E+02 0.  0.
         13    1    3    3    0    0 -0.24417237743E+02 -0.47040961681E+02 -0.20192978430E+03  0.20876946942E+03  0.00000000000E+00 0. -1.
        -14    1    3    3    0    0  0.20069032496E+02 -0.12018284461E+02 -0.93503743522E+01  0.25191957590E+02  0.00000000000E+00 0.  1.
        -13    1    4    4    0    0  0.21987304665E+02  0.19136944620E+02  0.15486012625E+03  0.15757957646E+03  0.00000000000E+00 0. -1.
         13    1    4    4    0    0 -0.28313519370E+02 -0.13920392326E+02  0.25384786822E+02  0.40494692289E+02  0.00000000000E+00 0.  1.
          2    1    1    2  501    0  0.10674419953E+02  0.53842693848E+02  0.10727496876E+03  0.12050268812E+03  0.00000000000E+00 0. -1.
<scales pt_clust_5="13000.00000" pt_clust_6="13000.00000" pt_clust_7="13000.00000" pt_clust_8="13000.00000" pt_clust_9="54.89061"></scales>
<clustering>
<clus scale="   54.891">  1  9  2 -1</clus>
<clus scale="   81.190">  5  6 -1 -1</clus>
<clus scale="   81.719">  7  8 -1 -1</clus>
<clus scale="   98.708">  2  5  1 -1</clus>
<clus scale="   54.891">  1  5  2 -1</clus>
</clustering>
</event>
<event>
 9    1  0.7835476E-005  0.1618909E+03  0.7546771E-02  0.1189248E+00
         21   -1    0    0  501  502  0.00000000000E+00  0.00000000000E+00  0.12942566429E+03  0.12942566429E+03  0.00000000000E+00 0. -1.
          3   -1    0    0  502    0 -0.00000000000E+00 -0.00000000000E+00 -0.33641052052E+03  0.33641052052E+03  0.00000000000E+00 0. -1.
         23    2    1    2    0    0 -0.27982579531E+02 -0.12500333132E+03 -0.12157955920E+03  0.20305075281E+03  0.10019561569E+03 0.  0.
        -24    2    1    2    0    0 -0.26493231509E+02  0.13032722717E+03  0.44836206937E+01  0.15754297199E+03  0.84336277564E+02 0.  0.
         13    1    4    4    0    0  0.22614601061E+02  0.91146177005E+02 -0.48270004149E+01  0.94033747649E+02  0.00000000000E+00 0. -1.
        -14    1    4    4    0    0 -0.49107832570E+02  0.39181050162E+02  0.93106211086E+01  0.63509224346E+02  0.00000000000E+00 0.  1.
        -11    1    3    3    0    0 -0.11339419908E+02 -0.13899863242E+03 -0.11365159282E+03  0.17990521618E+03  0.00000000000E+00 0. -1.
         11    1    3    3    0    0 -0.16643159623E+02  0.13995301098E+02 -0.79279663767E+01  0.23145536630E+02  0.00000000000E+00 0.  1.
          4    1    1    2  501    0  0.54475811040E+02 -0.53238958432E+01 -0.89888917728E+02  0.10524245999E+03  0.00000000000E+00 0. -1.
<scales pt_clust_5="13000.00000" pt_clust_6="13000.00000" pt_clust_7="13000.00000" pt_clust_8="13000.00000" pt_clust_9="54.73537"></scales>
<clustering>
<clus scale="   54.735">  1  9  2 -1</clus>
<clus scale="   84.336">  5  6 -1 -1</clus>
<clus scale="  100.196">  7  8 -1 -1</clus>
<clus scale="  152.585">  1  5  2 -1</clus>
<clus scale="   54.735">  1  5  2 -1</clus>
</clustering>
</event>
<event>
 9    1  0.7835476E-005  0.1076071E+03  0.7546771E-02  0.1271134E+00
         21   -1    0    0  501  502  0.00000000000E+00  0.00000000000E+00  0.65575046535E+03  0.65575046535E+03  0.00000000000E+00 0.  1.
          1   -1    0    0  502    0 -0.00000000000E+00 -0.00000000000E+00 -0.95870075662E+02  0.95870075662E+02  0.00000000000E+00 0. -1.
        -24    2    1    2    0    0  0.46905254846E+02 -0.37420934911E+02 -0.53346710063E+02  0.10990871684E+03  0.75057479719E+02 0.  0.
         23    2    1    2    0    0 -0.74940315027E+02 -0.20706810891E+02  0.46717567806E+03  0.48203772731E+03  0.89791054901E+02 0.  0.
         11    1    3    3    0    0  0.37998620016E+02  0.16046222465E+02 -0.16815642584E+02  0.44543711274E+02  0.00000000000E+00 0. -1.
        -12    1    3    3    0    0  0.89066348298E+01 -0.53467157376E+02 -0.36531067479E+02  0.65365005569E+02  0.00000000000E+00 0.  1.
        -11    1    4    4    0    0 -0.20096484684E+02  0.33597917062E+02  0.20641146503E+03  0.21009136494E+03  0.00000000000E+00 0.  1.
         11    1    4    4    0    0 -0.54843830343E+02 -0.54304727953E+02  0.26076421304E+03  0.27194636237E+03  0.00000000000E+00 0. -1.
          2    1    1    2  501    0  0.28035060181E+02  0.58127745802E+02  0.14605142169E+03  0.15967409686E+03  0.00000000000E+00 0. -1.
<scales pt_clust_5="13000.00000" pt_clust_6="13000.00000" pt_clust_7="13000.00000" pt_clust_8="13000.00000" pt_clust_9="64.53526"></scales>
<clustering>
<clus scale="   64.535">  1  9  2 -1</clus>
<clus scale="   75.057">  5  6 -1 -1</clus>
<clus scale="   89.791">  7  8 -1 -1</clus>
<clus scale="   95.658">  2  5  1 -1</clus>
<clus scale="   64.535">  1  5  2 -1</clus>
</clustering>
</event>
<event>
 9    1  0.7835476E-005  0.9145932E+02  0.7546771E-02  0.1307429E+00
         -2   -1    0    0    0  501 -0.00000000000E+00  0.00000000000E+00  0.10265861991E+03  0.10265861991E+03  0.00000000000E+00 0.  1.
         21   -1    0    0  501  502  0.00000000000E+00 -0.00000000000E+00 -0.35743423158E+03  0.35743423158E+03  0.00000000000E+00 0.  1.
         23    2    1    2    0    0  0.80611598638E+01 -0.98951781779E+01  0.62559391061E+02  0.11111499523E+03  0.90939363899E+02 0.  0.
        -24    2    1    2    0    0  0.23117937870E+02  0.70026250582E+01 -0.99391267037E+02  0.12879617008E+03  0.78271026925E+02 0.  0.
         11    1    4    4    0    0 -0.26939469933E+02  0.72101950809E+00 -0.16026569564E+02  0.31354518676E+02  0.00000000000E+00 0. -1.
        -12    1    4    4    0    0  0.50057407803E+02  0.62816055501E+01 -0.83364697473E+02  0.97441651407E+02  0.00000000000E+00 0.  1.
        -13    1    3    3    0    0  0.35131255977E+02  0.27856361030E+02  0.24707192244E+02  0.51192063301E+02  0.00000000000E+00 0.  1.
         13    1    3    3    0    0 -0.27070096114E+02 -0.37751539208E+02  0.37852198817E+02  0.59922931933E+02  0.00000000000E+00 0. -1.
         -1    1    1    2    0  502 -0.31179097734E+02  0.28925531197E+01 -0.21794373570E+03  0.22018168618E+03  0.00000000000E+00 0.  1.
<scales pt_clust_5="13000.00000" pt_clust_6="13000.00000" pt_clust_7="13000.00000" pt_clust_8="13000.00000" pt_clust_9="31.31298"></scales>
<clustering>
<clus scale="   31.313">  2  9  1 -1</clus>
<clus scale="   78.271">  5  6 -1 -1</clus>
<clus scale="   78.875">  2  5  1 -1</clus>
<clus scale="   90.939">  7  8 -1 -1</clus>
<clus scale="   31.313">  2  5  1 -1</clus>
</clustering>
</event>
<event>
 9    1  0.7835476E-005  0.1683441E+03  0.7546771E-02  0.1181276E+00
         21   -1    0    0  501  502  0.00000000000E+00  0.00000000000E+00  0.37720572719E+03  0.37720572719E+03  0.00000000000E+00 0. -1.
          1   -1    0    0  502    0 -0.00000000000E+00 -0.00000000000E+00 -0.28050270839E+03  0.28050270839E+03  0.00000000000E+00 0. -1.
        -24    2    1    2    0    0  0.21304769566E+02 -0.14150010196E+03 -0.20133924700E+03  0.25959088583E+03  0.79835853849E+02 0.  0.
         23    2    1    2    0    0 -0.61046494217E+02  0.12222867501E+03  0.94525714614E+02  0.18986342811E+03  0.91904772228E+02 0.  0.
         13    1    3    3    0    0  0.33419178464E+02 -0.84450728313E+02 -0.17153457174E+03  0.19409501875E+03  0.00000000000E+00 0. -1.
        -14    1    3    3    0    0 -0.12114408898E+02 -0.57049373648E+02 -0.29804675263E+02  0.65495867076E+02  0.00000000000E+00 0.  1.
        -13    1    4    4    0    0 -0.32756847900E+02  0.10021060269E+03  0.10859412971E+03  0.15135343069E+03  0.00000000000E+00 0.  1.
         13    1    4    4    0    0 -0.28289646317E+02  0.22018072324E+02 -0.14068415094E+02  0.38509997414E+02  0.00000000000E+00 0. -1.
          2    1    1    2  501    0  0.39741724651E+02  0.19271426947E+02  0.20351655119E+03  0.20825412164E+03  0.00000000000E+00 0. -1.
<scales pt_clust_5="13000.00000" pt_clust_6="13000.00000" pt_clust_7="13000.00000" pt_clust_8="13000.00000" pt_clust_9="44.16778"></scales>
<clustering>
<clus scale="   44.168">  1  9  2 -1</clus>
<clus scale="   79.836">  5  6 -1 -1</clus>
<clus scale="   91.905">  7  8 -1 -1</clus>
<clus scale="  162.071">  2  5  1 -1</clus>
<clus scale="   44.168">  1  5  2 -1</clus>
</clustering>
</event>
<event>
 9    1  0.7835476E-005  0.1664864E+03  0.7546771E-02  0.1193914E+00
         -2   -1    0    0    0  501 -0.00000000000E+00  0.00000000000E+00  0.57899853009E+03  0.57899853009E+03  0.00000000000E+00 0.  1.
         21   -1    0    0  501  502  0.00000000000E+00 -0.00000000000E+00 -0.23000963649E+03  0.23000963649E+03  0.00000000000E+00 0.  1.
         23    2    1    2    0    0  0.56108260873E+02  0.71257430158E+02  0.81823752181E+02  0.15073171296E+03  0.88312878905E+02 0.  0.
        -24    2    1    2    0    0 -0.14252377109E+03  0.48544814107E+02  0.41542191246E+03  0.44899126948E+03  0.79675406588E+02 0.  0.
         13    1    4    4    0    0 -0.11435014892E+03  0.71598132687E+01  0.23040234768E+03  0.25731782157E+03  0.00000000000E+00 0. -1.
        -14    1    4    4    0    0 -0.28173622176E+02  0.41385000838E+02  0.18501956478E+03  0.19167344791E+03  0.00000000000E+00 0.  1.
        -13    1    3    3    0    0  0.61175821864E+02  0.16823877168E+02  0.16513933931E+02  0.65560918523E+02  0.00000000000E+00 0. -1.
         13    1    3    3    0    0 -0.50675609910E+01  0.54433552990E+02  0.65309818250E+02  0.85170794439E+02  0.00000000000E+00 0.  1.
         -1    1    1    2    0  502  0.86415510220E+02 -0.11980224426E+03 -0.14825677104E+03  0.20928518413E+03  0.00000000000E+00 0.  1.
<scales pt_clust_5="13000.00000" pt_clust_6="13000.00000" pt_clust_7="13000.00000" pt_clust_8="13000.00000" pt_clust_9="146.18329"></scales>
<clustering>
<clus scale="   79.675">  5  6 -1 -1</clus>
<clus scale="   88.313">  7  8 -1 -1</clus>
<clus scale="  126.590">  1  7  2 -1</clus>
<clus scale="  146.183">  2  9  1 -1</clus>
<clus scale="  146.183">  2  5  1 -1</clus>
</clustering>
</event>
<event>
 9    1  0.7835476E-005  0.1229988E+03  0.7546771E-02  0.1240651E+00
         21   -1    0    0  501  502  0.00000000000E+00  0.00000000000E+00  0.60231289594E+02  0.60231289594E+02  0.00000000000E+00 0. -1.
          1   -1    0    0  502    0 -0.00000000000E+00 -0.00000000000E+00 -0.51752584006E+03  0.51752584006E+03  0.00000000000E+00 0. -1.
        -24    2    1    2    0    0 -0.11343837118E+02  0.99092751831E+02 -0.29447586195E+03  0.32138843284E+03  0.81402920022E+02 0.  0.
         23    2    1    2    0    0  0.32317720187E+02 -0.34647217342E+02 -0.27612560895E+02  0.10512773796E+03  0.89691265253E+02 0.  0.
         13    1    3    3    0    0  0.29924601019E+02  0.21602264692E+02 -0.54176818096E+02  0.65553544565E+02  0.00000000000E+00 0. -1.
        -14    1    3    3    0    0 -0.41268438137E+02  0.77490487138E+02 -0.24029904385E+03  0.25583488828E+03  0.00000000000E+00 0.  1.
        -11    1    4    4    0    0  0.54727392260E+02 -0.48621095230E+02 -0.11263654654E+02  0.74067322627E+02  0.00000000000E+00 0.  1.
         11    1    4    4    0    0 -0.22409672073E+02  0.13973877888E+02 -0.16348906241E+02  0.31060415337E+02  0.00000000000E+00 0. -1.
          2    1    1    2  501    0 -0.20973883069E+02 -0.64445534488E+02 -0.13520612762E+03  0.15124095885E+03  0.00000000000E+00 0. -1.
<scales pt_clust_5="13000.00000" pt_clust_6="13000.00000" pt_clust_7="13000.00000" pt_clust_8="13000.00000" pt_clust_9="67.77267"></scales>
<clustering>
<clus scale="   67.773">  1  9  2 -1</clus>
<clus scale="   81.403">  5  6 -1 -1</clus>
<clus scale="   89.691">  7  8 -1 -1</clus>
<clus scale="  117.092">  2  5  1 -1</clus>
<clus scale="   67.773">  1  5  2 -1</clus>
</clustering>
</event>
<event>
 9    1  0.7835476E-005  0.1315883E+03  0.7546771E-02  0.1225472E+00
          3   -1    0    0  502    0 -0.00000000000E+00  0.00000000000E+00  0.87899390422E+03  0.87899390422E+03  0.00000000000E+00 0. -1.
         21   -1    0    0  501  502  0.00000000000E+00 -0.00000000000E+00 -0.58490037495E+02  0.58490037495E+02  0.00000000000E+00 0.  1.
        -24    2    1    2    0    0  0.18616318400E+02  0.10658891930E+03  0.69056321430E+03  0.70356070250E+03  0.80077113636E+02 0.  0.
         23    2    1    2    0    0 -0.67708672155E+02 -0.68130020749E+02  0.11301102569E+03  0.16930313138E+03  0.81644928529E+02 0.  0.
         11    1    3    3    0    0  0.20271811611E+02  0.11868214055E+03  0.58269463802E+03  0.59500372941E+03  0.00000000000E+00 0. -1.
        -12    1    3    3    0    0 -0.16554932112E+01 -0.12093221252E+02  0.10786857628E+03  0.10855697309E+03  0.00000000000E+00 0.  1.
        -11    1    4    4    0    0 -0.80514919779E+02 -0.44547818352E+02  0.10820615912E+03  0.14204130842E+03  0.00000000000E+00 0. -1.
         11    1    4    4    0    0  0.12806247625E+02 -0.23582202397E+02  0.48048665729E+01  0.27261822956E+02  0.00000000000E+00 0.  1.
          4    1    1    2  501    0  0.49092353755E+02 -0.38458898553E+02  0.16929626729E+02  0.64620107832E+02  0.00000000000E+00 0. -1.
<scales pt_clust_5="13000.00000" pt_clust_6="13000.00000" pt_clust_7="13000.00000" pt_clust_8="13000.00000" pt_clust_9="62.36302"></scales>
<clustering>
<clus scale="   62.363">  2  9  1 -1</clus>
<clus scale="   80.077">  5  6 -1 -1</clus>
<clus scale="   81.645">  7  8 -1 -1</clus>
<clus scale="  130.621">  1  5  2 -1</clus>
<clus scale="   62.363">  2  5  1 -1</clus>
</clustering>
</event>
<event>
 9    1  0.7835476E-005  0.2968274E+03  0.7546771E-02  0.1099830E+00
         21   -1    0    0  501  502  0.00000000000E+00  0.00000000000E+00  0.31629182117E+03  0.31629182117E+03  0.00000000000E+00 0.  1.
         -4   -1    0    0    0  501 -0.00000000000E+00 -0.00000000000E+00 -0.69048405204E+03  0.69048405204E+03  0.00000000000E+00 0.  1.
        -24    2    1    2    0    0  0.13185436542E+03  0.14464153226E+03 -0.33087315293E+03  0.39241955621E+03  0.78799227395E+02 0.  0.
         23    2    1    2    0    0  0.79380121150E+02  0.17548544829E+03 -0.82028885388E+02  0.22886994735E+03  0.92500640889E+02 0.  0.
         11    1    3    3    0    0  0.12255135185E+03  0.83585515187E+02 -0.21666425742E+03  0.26258098299E+03  0.00000000000E+00 0. -1.
        -12    1    3    3    0    0  0.93030135722E+01  0.61056017074E+02 -0.11420889551E+03  0.12983857322E+03  0.00000000000E+00 0.  1.
        -13    1    4    4    0    0  0.44228556648E+02  0.98174865238E+02  0.43085032913E+01  0.10776378143E+03  0.00000000000E+00 0.  1.
         13    1    4    4    0    0  0.35151564502E+02  0.77310583052E+02 -0.86337388679E+02  0.12110616592E+03  0.00000000000E+00 0. -1.
         -3    1    1    2    0  502 -0.21123448657E+03 -0.32012698055E+03  0.38709807452E+02  0.38548636965E+03  0.00000000000E+00 0.  1.
<scales pt_clust_5="13000.00000" pt_clust_6="13000.00000" pt_clust_7="13000.00000" pt_clust_8="13000.00000" pt_clust_9="282.04645"></scales>
<clustering>
<clus scale="   78.799">  5  6 -1 -1</clus>
<clus scale="   92.501">  7  8 -1 -1</clus>
<clus scale="  210.988">  2  5  1 -1</clus>
<clus scale="  282.046">  1  9  2 -1</clus>
<clus scale="  282.046">  1  5  2 -1</clus>
</clustering>
</event>
<event>
 9    1  0.7835476E-005  0.1020513E+03  0.7546771E-02  0.1279965E+00
          1   -1    0    0  502    0 -0.00000000000E+00  0.00000000000E+00  0.11097804869E+04  0.11097804869E+04  0.00000000000E+00 0. -1.
         21   -1    0    0  501  502  0.00000000000E+00 -0.00000000000E+00 -0.14420355577E+02  0.14420355577E+02  0.00000000000E+00 0. -1.
        -24    2    1    2    0    0  0.37536200688E+02 -0.11153497585E+02  0.52343701171E+03  0.53139832518E+03  0.82852325908E+02 0.  0.
         23    2    1    2    0    0 -0.37324023057E+02  0.54363036825E+02  0.42661678666E+03  0.44120753157E+03  0.91179936299E+02 0.  0.
         11    1    3    3    0    0  0.53660188282E+02 -0.33959671397E+02  0.37950231362E+03  0.38477874309E+03  0.00000000000E+00 0. -1.
        -12    1    3    3    0    0 -0.16123987594E+02  0.22806173812E+02  0.14393469808E+03  0.14661958209E+03  0.00000000000E+00 0.  1.
        -13    1    4    4    0    0 -0.52986762412E+02  0.71704778187E+02  0.33751318834E+03  0.34909071100E+03  0.00000000000E+00 0.  1.
         13    1    4    4    0    0  0.15662739354E+02 -0.17341741362E+02  0.89103598318E+02  0.92116820564E+02  0.00000000000E+00 0. -1.
          2    1    1    2  501    0 -0.21217763088E+00 -0.43209539240E+02  0.14530633295E+03  0.15159498573E+03  0.00000000000E+00 0. -1.
<scales pt_clust_5="13000.00000" pt_clust_6="13000.00000" pt_clust_7="13000.00000" pt_clust_8="13000.00000" pt_clust_9="43.21006"></scales>
<clustering>
<clus scale="   43.210">  2  9  1 -1</clus>
<clus scale="   82.852">  5  6 -1 -1</clus>
<clus scale="   91.180">  7  8 -1 -1</clus>
<clus scale="   94.685">  1  5  2 -1</clus>
<clus scale="   43.210">  2  5  1 -1</clus>
</clustering>
</event>
<event>
 9    1  0.7835476E-005  0.1682798E+03  0.7546771E-02  0.1181115E+00
         21   -1    0    0  501  502  0.00000000000E+00  0.00000000000E+00  0.72479080567E+03  0.72479080567E+03  0.00000000000E+00 0.  1.
         -4   -1    0    0    0  501 -0.00000000000E+00 -0.00000000000E+00 -0.80940776553E+02  0.80940776553E+02  0.00000000000E+00 0.  1.
        -24    2    1    2    0    0 -0.15268876793E+03 -0.60085356521E+02  0.11307454273E+03  0.21487174202E+03  0.80373524162E+02 0.  0.
         23    2    1    2    0    0  0.11008522914E+03  0.35562596425E+02  0.16203231304E+03  0.21885452414E+03  0.90881110971E+02 0.  0.
         11    1    3    3    0    0 -0.32631525276E+02  0.10456888028E+02 -0.18611807914E+01  0.34316569511E+02  0.00000000000E+00 0. -1.
        -12    1    3    3    0    0 -0.12005724265E+03 -0.70542244549E+02  0.11493572352E+03  0.18055517251E+03  0.00000000000E+00 0.  1.
        -13    1    4    4    0    0  0.64211707511E+02 -0.26344829109E+01  0.24235889980E+02  0.68683784438E+02  0.00000000000E+00 0.  1.
         13    1    4    4    0    0  0.45873521627E+02  0.38197079336E+02  0.13779642306E+03  0.15017073971E+03  0.00000000000E+00 0. -1.
         -3    1    1    2    0  502  0.42603538793E+02  0.24522760096E+02  0.36874317335E+03  0.37200531606E+03  0.00000000000E+00 0.  1.
<scales pt_clust_5="13000.00000" pt_clust_6="13000.00000" pt_clust_7="13000.00000" pt_clust_8="13000.00000" pt_clust_9="49.15717"></scales>
<clustering>
<clus scale="   49.157">  1  9  2 -1</clus>
<clus scale="   80.374">  5  6 -1 -1</clus>
<clus scale="   90.881">  7  8 -1 -1</clus>
<clus scale="  162.845">  2  5  1 -1</clus>
<clus scale="   49.157">  1  5  2 -1</clus>
</clustering>
</event>
<event>
 9    1  0.7835476E-005  0.1071934E+03  0.7546771E-02  0.1271434E+00
         21   -1    0    0  501  502  0.00000000000E+00  0.00000000000E+00  0.96247866792E+02  0.96247866792E+02  0.00000000000E+00 0. -1.
         -4   -1    0    0    0  501 -0.00000000000E+00 -0.00000000000E+00 -0.33563081745E+03  0.33563081745E+03  0.00000000000E+00 0.  1.
        -24    2    1    2    0    0 -0.48573714419E+02 -0.36938976006E+02 -0.26604187081E+03  0.28398183001E+03  0.78380540145E+02 0.  0.
         23    2    1    2    0    0  0.21906150264E+02  0.22699483031E+02 -0.13375059219E+02  0.97730713836E+02  0.91527341644E+02 0.  0.
         13    1    3    3    0    0 -0.56937448801E+02 -0.41544994901E+02 -0.26518880732E+03  0.27439563263E+03  0.00000000000E+00 0. -1.
        -14    1    3    3    0    0  0.83637343821E+01  0.46060188953E+01 -0.85306348126E+00  0.95861973786E+01  0.00000000000E+00 0.  1.
        -11    1    4    4    0    0  0.46719659095E+02  0.32603767698E+02  0.14840986730E+02  0.58872634570E+02  0.00000000000E+00 0.  1.
         11    1    4    4    0    0 -0.24813508831E+02 -0.99042846671E+01 -0.28216045949E+02  0.38858079266E+02  0.00000000000E+00 0. -1.
         -3    1    1    2    0  502  0.26667564155E+02  0.14239492975E+02  0.40033979368E+02  0.50166140395E+02  0.00000000000E+00 0.  1.
<scales pt_clust_5="13000.00000" pt_clust_6="13000.00000" pt_clust_7="13000.00000" pt_clust_8="13000.00000" pt_clust_9="30.23115"></scales>
<clustering>
<clus scale="   30.231">  1  9  2 -1</clus>
<clus scale="   78.381">  5  6 -1 -1</clus>
<clus scale="   91.527">  7  8 -1 -1</clus>
<clus scale="   96.212">  2  5  1 -1</clus>
<clus scale="   30.231">  1  5  2 -1</clus>
</clustering>
</event>
<event>
 9    1  0.7835476E-005  0.2174401E+03  0.7546771E-02  0.1136686E+00
         21   -1    0    0  501  502  0.00000000000E+00  0.00000000000E+00  0.52866248808E+03  0.52866248808E+03  0.00000000000E+00 0. -1.
         -2   -1    0    0    0  501 -0.00000000000E+00 -0.00000000000E+00 -0.19703028284E+03  0.19703028284E+03  0.00000000000E+00 0.  1.
         23    2    1    2    0    0 -0.19045302355E+03  0.10496044455E+03  0.24564014127E+02  0.23727113032E+03  0.91679601833E+02 0.  0.
        -24    2    1    2    0    0  0.11715244617E+03 -0.74925994514E+02  0.35930717342E+03  0.39353247312E+03  0.80172078886E+02 0.  0.
         13    1    4    4    0    0  0.59220471374E+02 -0.44104003653E+02  0.28494471690E+03  0.29435644898E+03  0.00000000000E+00 0. -1.
        -14    1    4    4    0    0  0.57931974797E+02 -0.30821990860E+02  0.74362456517E+02  0.99176024137E+02  0.00000000000E+00 0.  1.
        -13    1    3    3    0    0 -0.77516492848E+02  0.94833244425E+02  0.89244720339E+01  0.12280796844E+03  0.00000000000E+00 0.  1.
         13    1    3    3    0    0 -0.11293653071E+03  0.10127200124E+02  0.15639542093E+02  0.11446316188E+03  0.00000000000E+00 0. -1.
         -1    1    1    2    0  502  0.73300577384E+02 -0.30034450035E+02 -0.52238982300E+02  0.94889167482E+02  0.00000000000E+00 0.  1.
<scales pt_clust_5="13000.00000" pt_clust_6="13000.00000" pt_clust_7="13000.00000" pt_clust_8="13000.00000" pt_clust_9="79.21521"></scales>
<clustering>
<clus scale="   79.215">  1  9  2 -1</clus>
<clus scale="   80.172">  5  6 -1 -1</clus>
<clus scale="   91.680">  7  8 -1 -1</clus>
<clus scale="  212.844">  1  5  2 -1</clus>
<clus scale="   79.215">  1  5  2 -1</clus>
</clustering>
</event>
<event>
 9    1  0.7835476E-005  0.1020548E+03  0.7546771E-02  0.1284809E+00
         21   -1    0    0  501  502  0.00000000000E+00  0.00000000000E+00  0.20603718168E+03  0.20603718168E+03  0.00000000000E+00 0. -1.
          1   -1    0    0  502    0 -0.00000000000E+00 -0.00000000000E+00 -0.32714471996E+03  0.32714471996E+03  0.00000000000E+00 0. -1.
         23    2    1    2    0    0 -0.16096002546E+01  0.31250659109E+02 -0.25896278965E+03  0.27892904889E+03  0.98795209338E+02 0.  0.
        -24    2    1    2    0    0 -0.81651987488E+01 -0.83434433691E+01 -0.26960696191E+02  0.87565769269E+02  0.82490007217E+02 0.  0.
         11    1    4    4    0    0 -0.26317863351E+02  0.20623140902E+02  0.12192451488E+02  0.35589320664E+02  0.00000000000E+00 0. -1.
        -12    1    4    4    0    0  0.18152664602E+02 -0.28966584271E+02 -0.39153147678E+02  0.51976448605E+02  0.00000000000E+00 0.  1.
        -13    1    3    3    0    0  0.24446742587E+02  0.52449369217E+02 -0.22001223783E+03  0.22749497654E+03  0.00000000000E+00 0. -1.
         13    1    3    3    0    0 -0.26056342842E+02 -0.21198710108E+02 -0.38950551815E+02  0.51434072357E+02  0.00000000000E+00 0.  1.
          2    1    1    2  501    0  0.97747990034E+01 -0.22907215740E+02  0.16481594756E+03  0.16668708348E+03  0.00000000000E+00 0. -1.
<scales pt_clust_5="13000.00000" pt_clust_6="13000.00000" pt_clust_7="13000.00000" pt_clust_8="13000.00000" pt_clust_9="24.90557"></scales>
<clustering>
<clus scale="   24.906">  1  9  2 -1</clus>
<clus scale="   82.490">  5  6 -1 -1</clus>
<clus scale="   86.367">  1  5  2 -1</clus>
<clus scale="   98.795">  7  8 -1 -1</clus>
<clus scale="   24.906">  1  5  2 -1</clus>
</clustering>
</event>
<event>
 9    1  0.7835476E-005  0.9961233E+02  0.7546771E-02  0.1286904E+00
         21   -1    0    0  501  502  0.00000000000E+00  0.00000000000E+00  0.10915760902E+03  0.10915760902E+03  0.00000000000E+00 0.  1.
         -4   -1    0    0    0  501 -0.00000000000E+00 -0.00000000000E+00 -0.19637277469E+03  0.19637277469E+03  0.00000000000E+00 0.  1.
         23    2    1    2    0    0 -0.12564958531E+02 -0.29003926682E+02 -0.10087532769E+03  0.13969773243E+03  0.91326440666E+02 0.  0.
        -24    2    1    2    0    0  0.18270440972E+02  0.70902186215E+02  0.40537101930E+02  0.11572889313E+03  0.79931164434E+02 0.  0.
         11    1    4    4    0    0  0.49566877388E+02  0.48530665242E+02  0.20398039058E+02  0.72306160182E+02  0.00000000000E+00 0. -1.
        -12    1    4    4    0    0 -0.31296436416E+02  0.22371520973E+02  0.20139062872E+02  0.43422732944E+02  0.00000000000E+00 0.  1.
        -13    1    3    3    0    0  0.95978826078E+01  0.29633468906E+02 -0.18659832525E+02  0.36310483057E+02  0.00000000000E+00 0.  1.
         13    1    3    3    0    0 -0.22162841139E+02 -0.58637395587E+02 -0.82215495162E+02  0.10338724938E+03  0.00000000000E+00 0. -1.
         -3    1    1    2    0  502 -0.57054824405E+01 -0.41898259533E+02 -0.26876939909E+02  0.50103758149E+02  0.00000000000E+00 0.  1.
<scales pt_clust_5="13000.00000" pt_clust_6="13000.00000" pt_clust_7="13000.00000" pt_clust_8="13000.00000" pt_clust_9="42.28497"></scales>
<clustering>
<clus scale="   42.285">  1  9  2 -1</clus>
<clus scale="   79.931">  5  6 -1 -1</clus>
<clus scale="   89.281">  1  5  2 -1</clus>
<clus scale="   91.326">  7  8 -1 -1</clus>
<clus scale="   42.285">  1  5  2 -1</clus>
</clustering>
</event>
<event>
 9    1  0.7835476E-005  0.9948534E+02  0.7546771E-02  0.1287129E+00
         21   -1    0    0  501  502  0.00000000000E+00  0.00000000000E+00  0.84143086406E+02  0.84143086406E+02  0.00000000000E+00 0.  1.
          1   -1    0    0  502    0 -0.00000000000E+00 -0.00000000000E+00 -0.24932306607E+03  0.24932306607E+03  0.00000000000E+00 0. -1.
        -24    2    1    2    0    0 -0.26407873871E+02 -0.57592018052E+01 -0.13870950363E+03  0.16314613648E+03  0.81521722520E+02 0.  0.
         23    2    1    2    0    0  0.75219960696E+02  0.37912976345E+01 -0.20010563629E+02  0.12104301390E+03  0.92620581587E+02 0.  0.
         13    1    3    3    0    0 -0.84656387305E+01  0.37783833869E+02 -0.59316239288E+02  0.70835735220E+02  0.00000000000E+00 0. -1.
        -14    1    3    3    0    0 -0.17942235141E+02 -0.43543035674E+02 -0.79393264345E+02  0.92310401261E+02  0.00000000000E+00 0.  1.
        -13    1    4    4    0    0  0.79569362735E+01 -0.36363765494E+02 -0.20920898908E+02  0.42700354646E+02  0.00000000000E+00 0.  1.
         13    1    4    4    0    0  0.67263024422E+02  0.40155063129E+02  0.91033527923E+00  0.78342659258E+02  0.00000000000E+00 0. -1.
          2    1    1    2  501    0 -0.48812086824E+02  0.19679041708E+01 -0.64599124047E+01  0.49277002093E+02  0.00000000000E+00 0. -1.
<scales pt_clust_5="13000.00000" pt_clust_6="13000.00000" pt_clust_7="13000.00000" pt_clust_8="13000.00000" pt_clust_9="48.85174"></scales>
<clustering>
<clus scale="   48.852">  1  9  2 -1</clus>
<clus scale="   81.522">  5  6 -1 -1</clus>
<clus scale="   89.244">  2  5  1 -1</clus>
<clus scale="   92.621">  7  8 -1 -1</clus>
<clus scale="   48.852">  1  5  2 -1</clus>
</clustering>
</event>
<event>
 9    1  0.7835476E-005  0.9421920E+02  0.7546771E-02  0.1300505E+00
         21   -1    0    0  501  502  0.00000000000E+00  0.00000000000E+00  0.80853285593E+02  0.80853285593E+02  0.00000000000E+00 0.  1.
          1   -1    0    0  502    0 -0.00000000000E+00 -0.00000000000E+00 -0.25206918800E+03  0.25206918800E+03  0.00000000000E+00 0. -1.
        -24    2    1    2    0    0 -0.13720449069E+02 -0.14247027798E+02 -0.88137182244E+02  0.12167093023E+03  0.81513335387E+02 0.  0.
         23    2    1    2    0    0 -0.27520230121E+02 -0.19281796750E+02  0.13884794501E+02  0.10067623476E+03  0.93881659421E+02 0.  0.
         13    1    3    3    0    0 -0.13127639635E+02  0.31480651285E+02 -0.19785093895E+02  0.39431158595E+02  0.00000000000E+00 0. -1.
        -14    1    3    3    0    0 -0.59280943313E+00 -0.45727679082E+02 -0.68352088349E+02  0.82239771637E+02  0.00000000000E+00 0.  1.
        -13    1    4    4    0    0 -0.33567727945E+02  0.18495419005E+02  0.39182870725E+02  0.54810311455E+02  0.00000000000E+00 0.  1.
         13    1    4    4    0    0  0.60474978239E+01 -0.37777215755E+02 -0.25298076223E+02  0.45865923306E+02  0.00000000000E+00 0. -1.
          2    1    1    2  501    0  0.41240679190E+02  0.33528824548E+02 -0.96963514662E+02  0.11057530860E+03  0.00000000000E+00 0. -1.
<scales pt_clust_5="13000.00000" pt_clust_6="13000.00000" pt_clust_7="13000.00000" pt_clust_8="13000.00000" pt_clust_9="53.15053"></scales>
<clustering>
<clus scale="   53.151">  1  9  2 -1</clus>
<clus scale="   81.513">  5  6 -1 -1</clus>
<clus scale="   81.902">  2  5  1 -1</clus>
<clus scale="   93.882">  7  8 -1 -1</clus>
<clus scale="   53.151">  1  5  2 -1</clus>
</clustering>
</event>
<event>
 9    1  0.7835476E-005  0.1334193E+03  0.7546771E-02  0.1225396E+00
         21   -1    0    0  501  502  0.00000000000E+00  0.00000000000E+00  0.28253462868E+03  0.28253462868E+03  0.00000000000E+00 0. -1.
          1   -1    0    0  502    0 -0.00000000000E+00 -0.00000000000E+00 -0.17512381936E+03  0.17512381936E+03  0.00000000000E+00 0. -1.
         23    2    1    2    0    0 -0.61182976613E+02 -0.82762632072E+02 -0.65548949533E+02  0.15210019795E+03  0.90800856473E+02 0.  0.
        -24    2    1    2    0    0  0.23709327950E+02  0.91842442565E+02 -0.50963372819E+01  0.12337512608E+03  0.78729172446E+02 0.  0.
         13    1    4    4    0    0 -0.20698486859E+02  0.45365866486E+02  0.20858342533E+02  0.54051453759E+02  0.00000000000E+00 0. -1.
        -14    1    4    4    0    0  0.44407814809E+02  0.46476576079E+02 -0.25954679815E+02  0.69323672323E+02  0.00000000000E+00 0.  1.
        -13    1    3    3    0    0 -0.31997138935E+02 -0.39776797125E+02  0.17646547109E+02  0.54013064294E+02  0.00000000000E+00 0.  1.
         13    1    3    3    0    0 -0.29185837678E+02 -0.42985834947E+02 -0.83195496642E+02  0.98087133655E+02  0.00000000000E+00 0. -1.
          2    1    1    2  501    0  0.37473648663E+02 -0.90798104922E+01  0.17805609613E+03  0.18218312400E+03  0.00000000000E+00 0. -1.
<scales pt_clust_5="13000.00000" pt_clust_6="13000.00000" pt_clust_7="13000.00000" pt_clust_8="13000.00000" pt_clust_9="38.55797"></scales>
<clustering>
<clus scale="   38.558">  1  9  2 -1</clus>
<clus scale="   78.729">  5  6 -1 -1</clus>
<clus scale="   90.801">  7  8 -1 -1</clus>
<clus scale="  125.516">  1  5  2 -1</clus>
<clus scale="   38.558">  1  5  2 -1</clus>
</clustering>
</event>
<event>
 9    1  0.7835476E-005  0.9310991E+02  0.7546771E-02  0.1297683E+00
         21   -1    0    0  501  502  0.00000000000E+00  0.00000000000E+00  0.16565086455E+03  0.16565086455E+03  0.00000000000E+00 0. -1.
          3   -1    0    0  502    0 -0.00000000000E+00 -0.00000000000E+00 -0.12377829411E+03  0.12377829411E+03  0.00000000000E+00 0. -1.
         23    2    1    2    0    0 -0.19595772943E+02  0.35181236945E+02 -0.51928909032E+02  0.10803960705E+03  0.85756815170E+02 0.  0.
        -24    2    1    2    0    0  0.36956816900E+02 -0.81549932150E+01  0.87552498237E+01  0.90479239360E+02  0.81716143607E+02 0.  0.
         13    1    4    4    0    0  0.27899015948E+02 -0.10363872960E+02 -0.34884243042E+02  0.45854938297E+02  0.00000000000E+00 0. -1.
        -14    1    4    4    0    0  0.90578009521E+01  0.22088797447E+01  0.43639492866E+02  0.44624301063E+02  0.00000000000E+00 0.  1.
        -13    1    3    3    0    0 -0.47225181815E+02  0.22687779413E+01 -0.10673869500E+02  0.48469543436E+02  0.00000000000E+00 0. -1.
         13    1    3    3    0    0  0.27629408871E+02  0.32912459003E+02 -0.41255039532E+02  0.59570063614E+02  0.00000000000E+00 0.  1.
          4    1    1    2  501    0 -0.17361043956E+02 -0.27026243730E+02  0.85046229647E+02  0.90910312257E+02  0.00000000000E+00 0. -1.
<scales pt_clust_5="13000.00000" pt_clust_6="13000.00000" pt_clust_7="13000.00000" pt_clust_8="13000.00000" pt_clust_9="32.12201"></scales>
<clustering>
<clus scale="   32.122">  1  9  2 -1</clus>
<clus scale="   81.716">  5  6 -1 -1</clus>
<clus scale="   85.757">  7  8 -1 -1</clus>
<clus scale="   89.402">  1  5  2 -1</clus>
<clus scale="   32.122">  1  5  2 -1</clus>
</clustering>
</event>
<event>
 9    1  0.7835476E-005  0.1818309E+03  0.7546771E-02  0.1166537E+00
         21   -1    0    0  501  502  0.00000000000E+00  0.00000000000E+00  0.59985372098E+02  0.59985372098E+02  0.00000000000E+00 0.  1.
         -2   -1    0    0    0  501 -0.00000000000E+00 -0.00000000000E+00 -0.81474789147E+03  0.81474789147E+03  0.00000000000E+00 0.  1.
         23    2    1    2    0    0  0.13936429351E+03 -0.40141102792E+02 -0.32809985820E+03  0.36848290794E+03  0.84240263827E+02 0.  0.
        -24    2    1    2    0    0 -0.19079711789E+03  0.57784318249E+01 -0.28973096285E+03  0.35599584294E+03  0.79699930274E+02 0.  0.
         11    1    4    4    0    0 -0.14328309876E+02  0.25067338626E+02 -0.49263905056E+02  0.57101701122E+02  0.00000000000E+00 0. -1.
        -12    1    4    4    0    0 -0.17646880802E+03 -0.19288906801E+02 -0.24046705779E+03  0.29889414181E+03  0.00000000000E+00 0.  1.
        -13    1    3    3    0    0  0.37350869946E+02  0.19334192775E+02 -0.44242510255E+02  0.61043412500E+02  0.00000000000E+00 0.  1.
         13    1    3    3    0    0  0.10201342356E+03 -0.59475295568E+02 -0.28385734795E+03  0.30743949544E+03  0.00000000000E+00 0. -1.
         -1    1    1    2    0  502  0.51432824382E+02  0.34362670967E+02 -0.13693169832E+03  0.15025451269E+03  0.00000000000E+00 0.  1.
<scales pt_clust_5="13000.00000" pt_clust_6="13000.00000" pt_clust_7="13000.00000" pt_clust_8="13000.00000" pt_clust_9="61.85574"></scales>
<clustering>
<clus scale="   61.856">  1  9  2 -1</clus>
<clus scale="   79.700">  5  6 -1 -1</clus>
<clus scale="   84.240">  7  8 -1 -1</clus>
<clus scale="  179.772">  1  5  2 -1</clus>
<clus scale="   61.856">  1  5  2 -1</clus>
</clustering>
</event>
<event>
 9    1  0.7835476E-005  0.1922928E+03  0.7546771E-02  0.1179998E+00
         21   -1    0    0  501  502  0.00000000000E+00  0.00000000000E+00  0.10210656818E+03  0.10210656818E+03  0.00000000000E+00 0.  1.
         -2   -1    0    0    0  501 -0.00000000000E+00 -0.00000000000E+00 -0.59110442459E+03  0.59110442459E+03  0.00000000000E+00 0.  1.
         23    2    1    2    0    0  0.57555222651E+02  0.29747833783E+02 -0.10696990991E+03  0.15481189834E+03  0.91250342311E+02 0.  0.
        -24    2    1    2    0    0 -0.13262183726E+03  0.12817609634E+03 -0.24415079800E+03  0.31572203586E+03  0.77801853248E+02 0.  0.
         11    1    4    4    0    0 -0.69711015424E+00  0.20500266088E+02 -0.33363530822E+01  0.20781677606E+02  0.00000000000E+00 0. -1.
        -12    1    4    4    0    0 -0.13192472711E+03  0.10767583025E+03 -0.24081444492E+03  0.29494035825E+03  0.00000000000E+00 0.  1.
        -13    1    3    3    0    0  0.30077655614E+02 -0.16906913512E+02  0.46203583566E+00  0.34506848145E+02  0.00000000000E+00 0. -1.
         13    1    3    3    0    0  0.27477567037E+02  0.46654747295E+02 -0.10743194575E+03  0.12030505019E+03  0.00000000000E+00 0.  1.
         -1    1    1    2    0  502  0.75066614613E+02 -0.15792393012E+03 -0.13787714851E+03  0.22267705858E+03  0.00000000000E+00 0.  1.
<scales pt_clust_5="13000.00000" pt_clust_6="13000.00000" pt_clust_7="13000.00000" pt_clust_8="13000.00000" pt_clust_9="175.85045"></scales>
<clustering>
<clus scale="   77.802">  5  6 -1 -1</clus>
<clus scale="   91.250">  7  8 -1 -1</clus>
<clus scale="  111.911">  2  7  1 -1</clus>
<clus scale="  175.850">  1  9  2 -1</clus>
<clus scale="  175.850">  1  5  2 -1</clus>
</clustering>
</event>
<event>
 9    1  0.7835476E-005  0.2411723E+03  0.7546771E-02  0.1144399E+00
          1   -1    0    0  502    0 -0.00000000000E+00  0.00000000000E+00  0.47211362023E+03  0.47211362023E+03  0.00000000000E+00 0. -1.
         21   -1    0    0  501  502  0.00000000000E+00 -0.00000000000E+00 -0.22276143476E+03  0.22276143476E+03  0.00000000000E+00 0. -1.
        -24    2    1    2    0    0 -0.89872137016E+02  0.47529860422E+02 -0.61257725528E+01  0.12967777092E+03  0.80266496980E+02 0.  0.
         23    2    1    2    0    0  0.28318774965E+03 -0.63175068211E+02  0.19904492145E+03  0.36320622923E+03  0.90074932153E+02 0.  0.
         13    1    3    3    0    0 -0.79045267327E+02  0.63001793730E+02  0.14039008227E+02  0.10205133048E+03  0.00000000000E+00 0. -1.
        -14    1    3    3    0    0 -0.10826869688E+02 -0.15471933309E+02 -0.20164780780E+02  0.27626440441E+02  0.00000000000E+00 0.  1.
        -13    1    4    4    0    0  0.20377192782E+03 -0.81292344357E+02  0.16681301015E+03  0.27560483337E+03  0.00000000000E+00 0. -1.
         13    1    4    4    0    0  0.79415821831E+02  0.18117276146E+02  0.32231911300E+02  0.87601395868E+02  0.00000000000E+00 0.  1.
          2    1    1    2  501    0 -0.19331561264E+03  0.15645207789E+02  0.56433036573E+02  0.20199105484E+03  0.00000000000E+00 0. -1.
<scales pt_clust_5="13000.00000" pt_clust_6="13000.00000" pt_clust_7="13000.00000" pt_clust_8="13000.00000" pt_clust_9="223.71987"></scales>
<clustering>
<clus scale="   80.266">  5  6 -1 -1</clus>
<clus scale="   90.075">  7  8 -1 -1</clus>
<clus scale="  129.533">  1  5  2 -1</clus>
<clus scale="  223.720">  2  9  1 -1</clus>
<clus scale="  223.720">  2  5  1 -1</clus>
</clustering>
</event>
<event>
 9    1  0.7835476E-005  0.9170126E+02  0.7546771E-02  0.1306126E+00
         21   -1    0    0  501  502  0.00000000000E+00  0.00000000000E+00  0.56554134402E+02  0.56554134402E+02  0.00000000000E+00 0.  1.
         -2   -1    0    0    0  501 -0.00000000000E+00 -0.00000000000E+00 -0.18783010196E+03  0.18783010196E+03  0.00000000000E+00 0.  1.
        -24    2    1    2    0    0 -0.63052273464E+01  0.17322766200E+01 -0.81171233488E+02  0.11419210066E+03  0.80051920856E+02 0.  0.
         23    2    1    2    0    0 -0.19250499809E+02 -0.50820633485E+01 -0.33700650905E+02  0.99640372973E+02  0.91630022067E+02 0.  0.
         11    1    3    3    0    0  0.22876295785E+02 -0.29659711266E+02 -0.37553202429E+02  0.53040233728E+02  0.00000000000E+00 0. -1.
        -12    1    3    3    0    0 -0.29181523131E+02  0.31391987886E+02 -0.43618031058E+02  0.61151866931E+02  0.00000000000E+00 0.  1.
        -11    1    4    4    0    0  0.79313675470E+01 -0.31203376690E+02  0.17040951430E+02  0.36427343215E+02  0.00000000000E+00 0.  1.
         11    1    4    4    0    0 -0.27181867356E+02  0.26121313342E+02 -0.50741602335E+02  0.63213029758E+02  0.00000000000E+00 0. -1.
         -1    1    1    2    0  502  0.25555727155E+02  0.33497867285E+01 -0.16404083168E+02  0.30551762734E+02  0.00000000000E+00 0.  1.
<scales pt_clust_5="13000.00000" pt_clust_6="13000.00000" pt_clust_7="13000.00000" pt_clust_8="13000.00000" pt_clust_9="25.77433"></scales>
<clustering>
<clus scale="   25.774">  1  9  2 -1</clus>
<clus scale="   80.052">  5  6 -1 -1</clus>
<clus scale="   80.133">  2  5  1 -1</clus>
<clus scale="   91.630">  7  8 -1 -1</clus>
<clus scale="   25.774">  1  5  2 -1</clus>
</clustering>
</event>
<event>
 9    1  0.1291454E-004  0.1427560E+03  0.7546771E-02  0.1212591E+00
          1   -1    0    0  502    0 -0.00000000000E+00  0.00000000000E+00  0.39309281517E+03  0.39309281517E+03  0.00000000000E+00 0. -1.
         21   -1    0    0  501  502  0.00000000000E+00 -0.00000000000E+00 -0.26853288183E+03  0.26853288183E+03  0.00000000000E+00 0. -1.
         23    2    1    2    0    0 -0.51531021187E+02 -0.87405248551E+02  0.22950843483E+03  0.26682136581E+03  0.90688455604E+02 0.  0.
        -24    2    1    2    0    0 -0.12656777159E+02  0.81396139188E+02 -0.22369476066E+03  0.25968639411E+03  0.10301529913E+03 0.  0.
         11    1    4    4    0    0 -0.49108859621E+02  0.80416393426E+02 -0.17614829287E+03  0.19976660758E+03  0.00000000000E+00 0. -1.
        -12    1    4    4    0    0  0.36452082462E+02  0.97974576251E+00 -0.47546467794E+02  0.59919786526E+02  0.00000000000E+00 0.  1.
        -13    1    3    3    0    0  0.18399276287E+02 -0.32429894680E+02  0.28242255296E+02  0.46774527481E+02  0.00000000000E+00 0. -1.
         13    1    3    3    0    0 -0.69930297474E+02 -0.54975353871E+02  0.20126617953E+03  0.22004683833E+03  0.00000000000E+00 0.  1.
          2    1    1    2  501    0  0.64187798346E+02  0.60091093627E+01  0.11874625918E+03  0.13511793708E+03  0.00000000000E+00 0. -1.
<scales pt_clust_5="13000.00000" pt_clust_6="13000.00000" pt_clust_7="13000.00000" pt_clust_8="13000.00000" pt_clust_9="64.46850"></scales>
<clustering>
<clus scale="   64.468">  2  9  1 -1</clus>
<clus scale="   90.688">  7  8 -1 -1</clus>
<clus scale="  103.015">  5  6 -1 -1</clus>
<clus scale="  134.133">  1  7  2 -1</clus>
<clus scale="   64.468">  2  5  1 -1</clus>
</clustering>
</event>
<event>
 9    1  0.7835476E-005  0.1404370E+03  0.7546771E-02  0.1214863E+00
         21   -1    0    0  501  502  0.00000000000E+00  0.00000000000E+00  0.24132161379E+02  0.24132161379E+02  0.00000000000E+00 0. -1.
          1   -1    0    0  502    0 -0.00000000000E+00 -0.00000000000E+00 -0.11294253236E+04  0.11294253236E+04  0.00000000000E+00 0. -1.
        -24    2    1    2    0    0 -0.12162380796E+03  0.38647900966E+02 -0.54506537516E+03  0.56551559543E+03  0.80159931134E+02 0.  0.
         23    2    1    2    0    0  0.75789546054E+02 -0.39821946429E+02 -0.31646001193E+03  0.33999978397E+03  0.90128082443E+02 0.  0.
         11    1    3    3    0    0 -0.74624690899E+02  0.46076959901E+02 -0.45775566848E+03  0.46608173398E+03  0.00000000000E+00 0. -1.
        -12    1    3    3    0    0 -0.46999117062E+02 -0.74290589348E+01 -0.87309706683E+02  0.99433861447E+02  0.00000000000E+00 0.  1.
        -11    1    4    4    0    0  0.34985992519E+02  0.27210481278E+02 -0.14071369907E+03  0.14752889571E+03  0.00000000000E+00 0.  1.
         11    1    4    4    0    0  0.40803553535E+02 -0.67032427708E+02 -0.17574631285E+03  0.19247088826E+03  0.00000000000E+00 0. -1.
          2    1    1    2  501    0  0.45834261907E+02  0.11740454629E+01 -0.24376777517E+03  0.24804210561E+03  0.00000000000E+00 0. -1.
<scales pt_clust_5="13000.00000" pt_clust_6="13000.00000" pt_clust_7="13000.00000" pt_clust_8="13000.00000" pt_clust_9="45.84932"></scales>
<clustering>
<clus scale="   45.849">  1  9  2 -1</clus>
<clus scale="   80.160">  5  6 -1 -1</clus>
<clus scale="   90.128">  7  8 -1 -1</clus>
<clus scale="  134.258">  2  5  1 -1</clus>
<clus scale="   45.849">  1  5  2 -1</clus>
</clustering>
</event>
<event>
 9    1  0.7835476E-005  0.1812868E+03  0.7546771E-02  0.1168126E+00
          1   -1    0    0  502    0 -0.00000000000E+00  0.00000000000E+00  0.31062882606E+03  0.31062882606E+03  0.00000000000E+00 0. -1.
         21   -1    0    0  501  502  0.00000000000E+00 -0.00000000000E+00 -0.14758098609E+03  0.14758098609E+03  0.00000000000E+00 0. -1.
         23    2    1    2    0    0 -0.45890063840E+02 -0.15131662962E+03  0.18172671869E+03  0.25620923041E+03  0.87269405309E+02 0.  0.
        -24    2    1    2    0    0  0.68228349346E+02  0.14708356106E+03 -0.21309861029E+02  0.17911303193E+03  0.73066315361E+02 0.  0.
         13    1    4    4    0    0  0.59014415582E+02  0.15475624546E+03 -0.17585415352E+02  0.16655762843E+03  0.00000000000E+00 0. -1.
        -14    1    4    4    0    0  0.92139337645E+01 -0.76726844011E+01 -0.37244456766E+01  0.12555403495E+02  0.00000000000E+00 0.  1.
        -13    1    3    3    0    0 -0.65359074772E+01 -0.31203969637E+02  0.10177035654E+03  0.10664713441E+03  0.00000000000E+00 0.  1.
         13    1    3    3    0    0 -0.39354156363E+02 -0.12011265998E+03  0.79956362145E+02  0.14956209600E+03  0.00000000000E+00 0. -1.
          2    1    1    2  501    0 -0.22338285506E+02  0.42330685613E+01  0.26309823099E+01  0.22887549819E+02  0.00000000000E+00 0. -1.
<scales pt_clust_5="13000.00000" pt_clust_6="13000.00000" pt_clust_7="13000.00000" pt_clust_8="13000.00000" pt_clust_9="22.73583"></scales>
<clustering>
<clus scale="   22.736">  2  9  1 -1</clus>
<clus scale="   73.066">  5  6 -1 -1</clus>
<clus scale="   87.269">  7  8 -1 -1</clus>
<clus scale="  174.893">  2  5  1 -1</clus>
<clus scale="   22.736">  2  5  1 -1</clus>
</clustering>
</event>
<event>
 9    1  0.7835476E-005  0.1064256E+03  0.7546771E-02  0.1271563E+00
         21   -1    0    0  501  502  0.00000000000E+00  0.00000000000E+00  0.80650093062E+02  0.80650093062E+02  0.00000000000E+00 0. -1.
          1   -1    0    0  502    0 -0.00000000000E+00 -0.00000000000E+00 -0.35867385527E+03  0.35867385527E+03  0.00000000000E+00 0. -1.
        -24    2    1    2    0    0  0.58137106676E+02 -0.52061071752E+02 -0.21049182495E+03  0.23834128816E+03  0.80059246212E+02 0.  0.
         23    2    1    2    0    0 -0.36654993712E+02 -0.16284642070E+02 -0.81553979020E+02  0.12798104766E+03  0.90107263498E+02 0.  0.
         11    1    3    3    0    0  0.72526285884E+02 -0.58515991332E+02 -0.19553560565E+03  0.21660645526E+03  0.00000000000E+00 0. -1.
        -12    1    3    3    0    0 -0.14389179208E+02  0.64549195796E+01 -0.14956219305E+02  0.21734832895E+02  0.00000000000E+00 0.  1.
        -13    1    4    4    0    0 -0.23573928049E+02 -0.43835056427E+02 -0.83729132064E+02  0.97405389028E+02  0.00000000000E+00 0. -1.
         13    1    4    4    0    0 -0.13081065663E+02  0.27550414357E+02  0.21751530433E+01  0.30575658633E+02  0.00000000000E+00 0.  1.
          2    1    1    2  501    0 -0.21482112964E+02  0.68345713822E+02  0.14022041759E+02  0.73001612519E+02  0.00000000000E+00 0. -1.
<scales pt_clust_5="13000.00000" pt_clust_6="13000.00000" pt_clust_7="13000.00000" pt_clust_8="13000.00000" pt_clust_9="71.64229"></scales>
<clustering>
<clus scale="   71.642">  1  9  2 -1</clus>
<clus scale="   80.059">  5  6 -1 -1</clus>
<clus scale="   90.107">  7  8 -1 -1</clus>
<clus scale="   98.064">  2  5  1 -1</clus>
<clus scale="   71.642">  1  5  2 -1</clus>
</clustering>
</event>
<event>
 9    1  0.7835476E-005  0.1429997E+03  0.7546771E-02  0.1210363E+00
          1   -1    0    0  502    0 -0.00000000000E+00  0.00000000000E+00  0.45395147229E+03  0.45395147229E+03  0.00000000000E+00 0. -1.
         21   -1    0    0  501  502  0.00000000000E+00 -0.00000000000E+00 -0.17104760076E+03  0.17104760076E+03  0.00000000000E+00 0. -1.
        -24    2    1    2    0    0  0.81328194748E+02 -0.47531451897E+02 -0.71333773976E+01  0.12791168548E+03  0.86238042820E+02 0.  0.
         23    2    1    2    0    0 -0.46709602780E+02  0.14388118030E+03 -0.13142506519E+02  0.17708788572E+03  0.91125258604E+02 0.  0.
         11    1    3    3    0    0  0.93658326369E+02 -0.59098177167E+02 -0.48423955899E+01  0.11085091537E+03  0.00000000000E+00 0. -1.
        -12    1    3    3    0    0 -0.12330131621E+02  0.11566725270E+02 -0.22909818077E+01  0.17060770115E+02  0.00000000000E+00 0.  1.
        -11    1    4    4    0    0 -0.28466304753E+02  0.11891847002E+03  0.28175599078E+02  0.12548225931E+03  0.00000000000E+00 0.  1.
         11    1    4    4    0    0 -0.18243298027E+02  0.24962710284E+02 -0.41318105597E+02  0.51605626416E+02  0.00000000000E+00 0. -1.
          2    1    1    2  501    0 -0.34618591968E+02 -0.96349728403E+02  0.30317975544E+03  0.31999950185E+03  0.00000000000E+00 0. -1.
<scales pt_clust_5="13000.00000" pt_clust_6="13000.00000" pt_clust_7="13000.00000" pt_clust_8="13000.00000" pt_clust_9="102.38031"></scales>
<clustering>
<clus scale="   86.238">  5  6 -1 -1</clus>
<clus scale="   91.125">  7  8 -1 -1</clus>
<clus scale="  102.380">  2  9  1 -1</clus>
<clus scale="  139.936">  1  5  2 -1</clus>
<clus scale="  102.380">  2  5  1 -1</clus>
</clustering>
</event>
<event>
 9    1  0.7835476E-005  0.1451862E+03  0.7546771E-02  0.1226168E+00
         -2   -1    0    0    0  501 -0.00000000000E+00  0.00000000000E+00  0.37840216385E+03  0.37840216385E+03  0.00000000000E+00 0.  1.
         21   -1    0    0  501  502  0.00000000000E+00 -0.00000000000E+00 -0.60352017444E+03  0.60352017444E+03  0.00000000000E+00 0.  1.
        -24    2    1    2    0    0  0.38729707772E+00  0.54831071473E+02  0.18910307366E+03  0.21200932669E+03  0.78621789207E+02 0.  0.
         23    2    1    2    0    0 -0.74154743727E+02  0.33535593617E+02  0.15058712389E+03  0.19349422662E+03  0.90221792241E+02 0.  0.
         13    1    3    3    0    0  0.34244724870E+02  0.25094653688E+02  0.48980330430E+02  0.64819098992E+02  0.00000000000E+00 0. -1.
        -14    1    3    3    0    0 -0.33857427792E+02  0.29736417786E+02  0.14012274323E+03  0.14719022770E+03  0.00000000000E+00 0.  1.
        -13    1    4    4    0    0 -0.28355653265E+02 -0.31224726562E+02  0.51218205725E+02  0.66350065702E+02  0.00000000000E+00 0.  1.
         13    1    4    4    0    0 -0.45799090462E+02  0.64760320179E+02  0.99368918166E+02  0.12714416091E+03  0.00000000000E+00 0. -1.
         -1    1    1    2    0  502  0.73767446649E+02 -0.88366665091E+02 -0.56480820815E+03  0.57641878498E+03  0.00000000000E+00 0.  1.
<scales pt_clust_5="13000.00000" pt_clust_6="13000.00000" pt_clust_7="13000.00000" pt_clust_8="13000.00000" pt_clust_9="113.74996"></scales>
<clustering>
<clus scale="   78.622">  5  6 -1 -1</clus>
<clus scale="   90.222">  7  8 -1 -1</clus>
<clus scale="   95.854">  1  5  2 -1</clus>
<clus scale="  113.750">  2  9  1 -1</clus>
<clus scale="  113.750">  2  5  1 -1</clus>
</clustering>
</event>
<event>
 9    1  0.7835476E-005  0.1376349E+03  0.7546771E-02  0.1219205E+00
         21   -1    0    0  501  502  0.00000000000E+00  0.00000000000E+00  0.48109530809E+02  0.48109530809E+02  0.00000000000E+00 0. -1.
          1   -1    0    0  502    0 -0.00000000000E+00 -0.00000000000E+00 -0.57090629685E+03  0.57090629685E+03  0.00000000000E+00 0. -1.
        -24    2    1    2    0    0  0.89410282183E+02 -0.66481655753E+02 -0.25315448878E+03  0.28802964639E+03  0.80373334496E+02 0.  0.
         23    2    1    2    0    0 -0.51266350012E+02  0.75284479241E+02 -0.12077391046E+03  0.17705684717E+03  0.92015206477E+02 0.  0.
         13    1    3    3    0    0  0.23017421590E+02 -0.43719989455E+02 -0.39855387421E+02  0.63479847835E+02  0.00000000000E+00 0. -1.
        -14    1    3    3    0    0  0.66392860592E+02 -0.22761666297E+02 -0.21329910136E+03  0.22454979855E+03  0.00000000000E+00 0.  1.
        -11    1    4    4    0    0 -0.74304117865E+01  0.69158216759E+02 -0.29375423762E+02  0.75504870609E+02  0.00000000000E+00 0. -1.
         11    1    4    4    0    0 -0.43835938225E+02  0.61262624826E+01 -0.91398486698E+02  0.10155197656E+03  0.00000000000E+00 0.  1.
          2    1    1    2  501    0 -0.38143932171E+02 -0.88028234889E+01 -0.14886836680E+03  0.15392933410E+03  0.00000000000E+00 0. -1.
<scales pt_clust_5="13000.00000" pt_clust_6="13000.00000" pt_clust_7="13000.00000" pt_clust_8="13000.00000" pt_clust_9="39.14653"></scales>
<clustering>
<clus scale="   39.147">  1  9  2 -1</clus>
<clus scale="   80.373">  5  6 -1 -1</clus>
<clus scale="   92.015">  7  8 -1 -1</clus>
<clus scale="  130.140">  2  5  1 -1</clus>
<clus scale="   39.147">  1  5  2 -1</clus>
</clustering>
</event>
<event>
 9    1  0.7835476E-005  0.1148855E+03  0.7546771E-02  0.1253398E+00
         -2   -1    0    0    0  501 -0.00000000000E+00  0.00000000000E+00  0.73771866641E+02  0.73771866641E+02  0.00000000000E+00 0.  1.
         21   -1    0    0  501  502  0.00000000000E+00 -0.00000000000E+00 -0.30665042764E+03  0.30665042764E+03  0.00000000000E+00 0.  1.
        -24    2    1    2    0    0 -0.83917850049E+02 -0.24875400894E+02 -0.85556337087E+02  0.14619949267E+03  0.79958825115E+02 0.  0.
         23    2    1    2    0    0  0.61108821514E+02  0.84391611138E+01 -0.16884139781E+03  0.19881833005E+03  0.84945884215E+02 0.  0.
         11    1    3    3    0    0 -0.90595681823E+02 -0.16203789768E+01 -0.81088028093E+02  0.12159552415E+03  0.00000000000E+00 0. -1.
        -12    1    3    3    0    0  0.66778317740E+01 -0.23255021917E+02 -0.44683089947E+01  0.24603968518E+02  0.00000000000E+00 0.  1.
        -13    1    4    4    0    0  0.77986496535E+02  0.22618127135E+02 -0.11631713138E+03  0.14185608330E+03  0.00000000000E+00 0.  1.
         13    1    4    4    0    0 -0.16877675021E+02 -0.14178966021E+02 -0.52524266428E+02  0.56962246754E+02  0.00000000000E+00 0. -1.
         -1    1    1    2    0  502  0.22809028535E+02  0.16436239780E+02  0.21519173899E+02  0.35404471556E+02  0.00000000000E+00 0.  1.
<scales pt_clust_5="13000.00000" pt_clust_6="13000.00000" pt_clust_7="13000.00000" pt_clust_8="13000.00000" pt_clust_9="28.11410"></scales>
<clustering>
<clus scale="   28.114">  2  9  1 -1</clus>
<clus scale="   79.959">  5  6 -1 -1</clus>
<clus scale="   84.946">  7  8 -1 -1</clus>
<clus scale="  111.249">  1  5  2 -1</clus>
<clus scale="   28.114">  2  5  1 -1</clus>
</clustering>
</event>
<event>
 9    1  0.7835476E-005  0.9898106E+02  0.7546771E-02  0.1285480E+00
          1   -1    0    0  502    0 -0.00000000000E+00  0.00000000000E+00  0.67049458866E+02  0.67049458866E+02  0.00000000000E+00 0. -1.
         21   -1    0    0  501  502  0.00000000000E+00 -0.00000000000E+00 -0.38219132835E+03  0.38219132835E+03  0.00000000000E+00 0.  1.
         23    2    1    2    0    0  0.61437255782E+02  0.46945641184E+01 -0.36828369534E+02  0.11307340631E+03  0.87365273891E+02 0.  0.
        -24    2    1    2    0    0 -0.46835500597E+00  0.52397398764E+02 -0.19806938783E+03  0.22034071464E+03  0.81073061987E+02 0.  0.
         11    1    4    4    0    0  0.10054772054E+02  0.49674968592E+02 -0.47763520311E+02  0.69642334956E+02  0.00000000000E+00 0. -1.
        -12    1    4    4    0    0 -0.10523127060E+02  0.27224301720E+01 -0.15030586752E+03  0.15069837969E+03  0.00000000000E+00 0.  1.
        -11    1    3    3    0    0  0.10753971571E+02 -0.37212566044E+02 -0.25406915549E+02  0.46324230526E+02  0.00000000000E+00 0. -1.
         11    1    3    3    0    0  0.50683284212E+02  0.41907130162E+02 -0.11421453986E+02  0.66749175786E+02  0.00000000000E+00 0.  1.
          2    1    1    2  501    0 -0.60968900776E+02 -0.57091962882E+02 -0.80244112121E+02  0.11582666626E+03  0.00000000000E+00 0. -1.
<scales pt_clust_5="13000.00000" pt_clust_6="13000.00000" pt_clust_7="13000.00000" pt_clust_8="13000.00000" pt_clust_9="83.52668"></scales>
<clustering>
<clus scale="   81.073">  5  6 -1 -1</clus>
<clus scale="   83.527">  2  9  1 -1</clus>
<clus scale="   87.365">  7  8 -1 -1</clus>
<clus scale="   93.474">  2  5  1 -1</clus>
<clus scale="   83.527">  2  5  1 -1</clus>
</clustering>
</event>
<event>
 9    1  0.7835476E-005  0.1125623E+03  0.7546771E-02  0.1260592E+00
          1   -1    0    0  502    0 -0.00000000000E+00  0.00000000000E+00  0.64907974216E+03  0.64907974216E+03  0.00000000000E+00 0. -1.
         21   -1    0    0  501  502  0.00000000000E+00 -0.00000000000E+00 -0.39699990631E+02  0.39699990631E+02  0.00000000000E+00 0.  1.
         23    2    1    2    0    0  0.37100972930E+02 -0.32153268490E+02  0.28568400476E+03  0.30408314930E+03  0.91874350319E+02 0.  0.
        -24    2    1    2    0    0 -0.77227530583E+02  0.32760123505E+02  0.32462378520E+03  0.34455470813E+03  0.79372714488E+02 0.  0.
         13    1    4    4    0    0 -0.15021480648E+02  0.17031392579E+02  0.12536646973E+02  0.25939944707E+02  0.00000000000E+00 0. -1.
        -14    1    4    4    0    0 -0.62206049934E+02  0.15728730926E+02  0.31208713823E+03  0.31861476342E+03  0.00000000000E+00 0.  1.
        -11    1    3    3    0    0  0.27154134565E+02  0.21814484305E+02  0.19500973086E+03  0.19809597139E+03  0.00000000000E+00 0. -1.
         11    1    3    3    0    0  0.99468383648E+01 -0.53967752794E+02  0.90674273901E+02  0.10598717792E+03  0.00000000000E+00 0.  1.
          2    1    1    2  501    0  0.40126557653E+02 -0.60685501511E+00 -0.92803842960E+00  0.40141875360E+02  0.00000000000E+00 0. -1.
<scales pt_clust_5="13000.00000" pt_clust_6="13000.00000" pt_clust_7="13000.00000" pt_clust_8="13000.00000" pt_clust_9="40.13115"></scales>
<clustering>
<clus scale="   40.131">  2  9  1 -1</clus>
<clus scale="   79.373">  5  6 -1 -1</clus>
<clus scale="   91.874">  7  8 -1 -1</clus>
<clus scale="  102.613">  2  5  1 -1</clus>
<clus scale="   40.131">  2  5  1 -1</clus>
</clustering>
</event>
<event>
 9    1  0.7835476E-005  0.1512041E+03  0.7546771E-02  0.1200802E+00
          1   -1    0    0  502    0 -0.00000000000E+00  0.00000000000E+00  0.35826250601E+03  0.35826250601E+03  0.00000000000E+00 0. -1.
         21   -1    0    0  501  502  0.00000000000E+00 -0.00000000000E+00 -0.13962391791E+03  0.13962391791E+03  0.00000000000E+00 0.  1.
         23    2    1    2    0    0 -0.98649185811E+02 -0.71787433858E+02  0.25365822351E+03  0.29622966619E+03  0.92327803269E+02 0.  0.
        -24    2    1    2    0    0  0.75259947239E+02  0.78921456304E+02 -0.74125985963E+02  0.15553455689E+03  0.82484426817E+02 0.  0.
         13    1    4    4    0    0  0.19714855455E+02  0.59396688512E+02 -0.22512360870E+01  0.62623559430E+02  0.00000000000E+00 0. -1.
        -14    1    4    4    0    0  0.55545091783E+02  0.19524767792E+02 -0.71874749876E+02  0.92910997456E+02  0.00000000000E+00 0.  1.
        -13    1    3    3    0    0 -0.31219725445E+02  0.58797950949E+01  0.12655139658E+02  0.34196429741E+02  0.00000000000E+00 0.  1.
         13    1    3    3    0    0 -0.67429460366E+02 -0.77667228953E+02  0.24100308386E+03  0.26203323645E+03  0.00000000000E+00 0. -1.
          2    1    1    2  501    0  0.23389238573E+02 -0.71340224461E+01  0.39106350543E+02  0.46122200838E+02  0.00000000000E+00 0. -1.
<scales pt_clust_5="13000.00000" pt_clust_6="13000.00000" pt_clust_7="13000.00000" pt_clust_8="13000.00000" pt_clust_9="24.45304"></scales>
<clustering>
<clus scale="   24.453">  2  9  1 -1</clus>
<clus scale="   82.484">  5  6 -1 -1</clus>
<clus scale="   92.328">  7  8 -1 -1</clus>
<clus scale="  145.403">  2  5  1 -1</clus>
<clus scale="   24.453">  2  5  1 -1</clus>
</clustering>
</event>
<event>
 9    1  0.7835476E-005  0.3702284E+03  0.7546771E-02  0.1054606E+00
          3   -1    0    0  502    0 -0.00000000000E+00  0.00000000000E+00  0.57433671606E+03  0.57433671606E+03  0.00000000000E+00 0. -1.
         21   -1    0    0  501  502  0.00000000000E+00 -0.00000000000E+00 -0.21054404864E+03  0.21054404864E+03  0.00000000000E+00 0. -1.
        -24    2    1    2    0    0  0.23065394034E+03  0.98274804937E+02  0.27549225291E+03  0.38169906820E+03  0.83300778965E+02 0.  0.
         23    2    1    2    0    0  0.38540207123E+02  0.11404951492E+02  0.47563986462E+02  0.10966066733E+03  0.90264659020E+02 0.  0.
         13    1    3    3    0    0  0.18381425032E+03  0.38405165737E+02  0.18648424711E+03  0.26464884242E+03  0.00000000000E+00 0. -1.
        -14    1    3    3    0    0  0.46839690018E+02  0.59869639200E+02  0.89008005800E+02  0.11705022578E+03  0.00000000000E+00 0.  1.
        -13    1    4    4    0    0  0.15072615984E+02 -0.34578466103E+02  0.43937014851E+02  0.57907817647E+02  0.00000000000E+00 0.  1.
         13    1    4    4    0    0  0.23467591139E+02  0.45983417594E+02  0.36269716117E+01  0.51752849686E+02  0.00000000000E+00 0. -1.
          4    1    1    2  501    0 -0.26919414746E+03 -0.10967975643E+03  0.40736428054E+02  0.29352102917E+03  0.00000000000E+00 0. -1.
<scales pt_clust_5="13000.00000" pt_clust_6="13000.00000" pt_clust_7="13000.00000" pt_clust_8="13000.00000" pt_clust_9="290.68047"></scales>
<clustering>
<clus scale="   83.301">  5  6 -1 -1</clus>
<clus scale="   90.265">  7  8 -1 -1</clus>
<clus scale="   92.839">  5  7 -1 -1</clus>
<clus scale="  290.680">  2  9  1 -1</clus>
<clus scale="  290.680">  2  5  1 -1</clus>
</clustering>
</event>
<event>
 9    1  0.7835476E-005  0.9453592E+02  0.7546771E-02  0.1298199E+00
         21   -1    0    0  501  502  0.00000000000E+00  0.00000000000E+00  0.55521242162E+02  0.55521242162E+02  0.00000000000E+00 0. -1.
          1   -1    0    0  502    0 -0.00000000000E+00 -0.00000000000E+00 -0.48417245281E+03  0.48417245281E+03  0.00000000000E+00 0. -1.
        -24    2    1    2    0    0  0.10338740285E+01  0.33862745646E+02 -0.38241739913E+03  0.39217277921E+03  0.80054151412E+02 0.  0.
         23    2    1    2    0    0 -0.77459820709E+01  0.12061289804E+02 -0.42403866564E+02  0.10095120560E+03  0.90485264336E+02 0.  0.
         13    1    3    3    0    0 -0.20289413004E+02  0.53765401229E+02 -0.23803630715E+03  0.24487478876E+03  0.00000000000E+00 0. -1.
        -14    1    3    3    0    0  0.21323287032E+02 -0.19902655582E+02 -0.14438109199E+03  0.14729799046E+03  0.00000000000E+00 0.  1.
        -11    1    4    4    0    0 -0.46167059396E+02  0.21224693958E+02 -0.15366124478E+02  0.53084864023E+02  0.00000000000E+00 0. -1.
         11    1    4    4    0    0  0.38421077325E+02 -0.91634041546E+01 -0.27037742086E+02  0.47866341574E+02  0.00000000000E+00 0.  1.
          2    1    1    2  501    0  0.67121080424E+01 -0.45924035450E+02 -0.38299449522E+01  0.46569710163E+02  0.00000000000E+00 0. -1.
<scales pt_clust_5="13000.00000" pt_clust_6="13000.00000" pt_clust_7="13000.00000" pt_clust_8="13000.00000" pt_clust_9="46.41195"></scales>
<clustering>
<clus scale="   46.412">  1  9  2 -1</clus>
<clus scale="   80.054">  5  6 -1 -1</clus>
<clus scale="   84.606">  2  5  1 -1</clus>
<clus scale="   90.485">  7  8 -1 -1</clus>
<clus scale="   46.412">  1  5  2 -1</clus>
</clustering>
</event>
<event>
 9    1  0.7835476E-005  0.1202294E+03  0.7546771E-02  0.1246310E+00
         21   -1    0    0  501  502  0.00000000000E+00  0.00000000000E+00  0.10822313638E+04  0.10822313638E+04  0.00000000000E+00 0. -1.
         -2   -1    0    0    0  501 -0.00000000000E+00 -0.00000000000E+00 -0.19822082844E+02  0.19822082844E+02  0.00000000000E+00 0.  1.
         23    2    1    2    0    0 -0.54687443905E+02  0.50730992315E+02  0.29874073175E+03  0.32061740658E+03  0.89359646881E+02 0.  0.
        -24    2    1    2    0    0  0.62354558833E+02 -0.71340637963E+02  0.73581899145E+03  0.74595167714E+03  0.77696453093E+02 0.  0.
         11    1    4    4    0    0  0.74557891991E+02 -0.31652813215E+02  0.48135278568E+03  0.48812015337E+03  0.00000000000E+00 0. -1.
        -12    1    4    4    0    0 -0.12203333158E+02 -0.39687824748E+02  0.25446620577E+03  0.25783152377E+03  0.00000000000E+00 0.  1.
        -11    1    3    3    0    0 -0.77869445974E+02  0.28262770936E+02  0.19218591463E+03  0.20927938413E+03  0.00000000000E+00 0.  1.
         11    1    3    3    0    0  0.23182002069E+02  0.22468221379E+02  0.10655481712E+03  0.11133802245E+03  0.00000000000E+00 0. -1.
         -1    1    1    2    0  502 -0.76671149277E+01  0.20609645648E+02  0.27849557761E+02  0.35484362929E+02  0.00000000000E+00 0.  1.
<scales pt_clust_5="13000.00000" pt_clust_6="13000.00000" pt_clust_7="13000.00000" pt_clust_8="13000.00000" pt_clust_9="21.98960"></scales>
<clustering>
<clus scale="   21.990">  1  9  2 -1</clus>
<clus scale="   77.696">  5  6 -1 -1</clus>
<clus scale="   89.360">  7  8 -1 -1</clus>
<clus scale="  111.833">  1  5  2 -1</clus>
<clus scale="   21.990">  1  5  2 -1</clus>
</clustering>
</event>
<event>
 9    1  0.7835476E-005  0.9162599E+02  0.7546771E-02  0.1306010E+00
         -4   -1    0    0    0  501 -0.00000000000E+00  0.00000000000E+00  0.50379955801E+03  0.50379955801E+03  0.00000000000E+00 0.  1.
         21   -1    0    0  501  502  0.00000000000E+00 -0.00000000000E+00 -0.72978835571E+02  0.72978835571E+02  0.00000000000E+00 0.  1.
        -24    2    1    2    0    0 -0.20169955116E+01  0.42343458641E+01  0.41780922067E+03  0.42548646775E+03  0.80325533953E+02 0.  0.
         23    2    1    2    0    0  0.22503248429E+02  0.70128739612E+01  0.50502901370E+02  0.10711284078E+03  0.91471531205E+02 0.  0.
         11    1    3    3    0    0 -0.20036043050E+02 -0.11037585954E+02  0.34165661364E+02  0.41116465573E+02  0.00000000000E+00 0. -1.
        -12    1    3    3    0    0  0.18019047538E+02  0.15271931818E+02  0.38364355931E+03  0.38437000218E+03  0.00000000000E+00 0.  1.
        -13    1    4    4    0    0 -0.83664814480E+01  0.42314398700E+02  0.80952100785E+01  0.43886658285E+02  0.00000000000E+00 0. -1.
         13    1    4    4    0    0  0.30869729877E+02 -0.35301524739E+02  0.42407691292E+02  0.63226182490E+02  0.00000000000E+00 0.  1.
         -3    1    1    2    0  502 -0.20486252917E+02 -0.11247219825E+02 -0.37491399602E+02  0.44179085057E+02  0.00000000000E+00 0.  1.
<scales pt_clust_5="13000.00000" pt_clust_6="13000.00000" pt_clust_7="13000.00000" pt_clust_8="13000.00000" pt_clust_9="23.37063"></scales>
<clustering>
<clus scale="   23.371">  2  9  1 -1</clus>
<clus scale="   80.326">  5  6 -1 -1</clus>
<clus scale="   80.501">  1  5  2 -1</clus>
<clus scale="   91.472">  7  8 -1 -1</clus>
<clus scale="   23.371">  2  5  1 -1</clus>
</clustering>
</event>
<event>
 9    1  0.7835476E-005  0.1129205E+03  0.7546771E-02  0.1259963E+00
         21   -1    0    0  501  502  0.00000000000E+00  0.00000000000E+00  0.52257808949E+03  0.52257808949E+03  0.00000000000E+00 0. -1.
         -4   -1    0    0    0  501 -0.00000000000E+00 -0.00000000000E+00 -0.68714097756E+02  0.68714097756E+02  0.00000000000E+00 0.  1.
         23    2    1    2    0    0  0.16278574914E+02 -0.71830208391E+02  0.15845265530E+02  0.11845091678E+03  0.91405560043E+02 0.  0.
        -24    2    1    2    0    0  0.43594826501E+02  0.36427259603E+02  0.33315551013E+03  0.34700611216E+03  0.78696847529E+02 0.  0.
         13    1    4    4    0    0  0.57558986973E+02  0.50349651120E+02  0.24432640712E+03  0.25601468232E+03  0.00000000000E+00 0. -1.
        -14    1    4    4    0    0 -0.13964160472E+02 -0.13922391517E+02  0.88829103007E+02  0.90991429840E+02  0.00000000000E+00 0.  1.
        -13    1    3    3    0    0 -0.35580031433E+02 -0.25793203983E+02  0.21408759141E+02  0.48883156368E+02  0.00000000000E+00 0. -1.
         13    1    3    3    0    0  0.51858606347E+02 -0.46037004409E+02 -0.55634936109E+01  0.69567760409E+02  0.00000000000E+00 0.  1.
         -3    1    1    2    0  502 -0.59873401414E+02  0.35402948788E+02  0.10486321608E+03  0.12583515831E+03  0.00000000000E+00 0.  1.
<scales pt_clust_5="13000.00000" pt_clust_6="13000.00000" pt_clust_7="13000.00000" pt_clust_8="13000.00000" pt_clust_9="69.55712"></scales>
<clustering>
<clus scale="   69.557">  1  9  2 -1</clus>
<clus scale="   78.697">  5  6 -1 -1</clus>
<clus scale="   91.406">  7  8 -1 -1</clus>
<clus scale="  102.904">  1  5  2 -1</clus>
<clus scale="   69.557">  1  5  2 -1</clus>
</clustering>
</event>
<event>
 9    1  0.7835476E-005  0.9217666E+02  0.7546771E-02  0.1303111E+00
         21   -1    0    0  501  502  0.00000000000E+00  0.00000000000E+00  0.20186939276E+03  0.20186939276E+03  0.00000000000E+00 0. -1.
          1   -1    0    0  502    0 -0.00000000000E+00 -0.00000000000E+00 -0.20807852861E+03  0.20807852861E+03  0.00000000000E+00 0. -1.
         23    2    1    2    0    0  0.26750479613E+02 -0.22012590552E+02 -0.13548995842E+03  0.16678818575E+03  0.90887995744E+02 0.  0.
        -24    2    1    2    0    0  0.32146606229E+02 -0.35220719213E+02  0.59651209117E+01  0.95000089472E+02  0.81948343353E+02 0.  0.
         13    1    4    4    0    0  0.58454506884E+02 -0.21911244053E+02 -0.69509581714E+01  0.62812003714E+02  0.00000000000E+00 0. -1.
        -14    1    4    4    0    0 -0.26307900655E+02 -0.13309475159E+02  0.12916079083E+02  0.32188085758E+02  0.00000000000E+00 0.  1.
        -11    1    3    3    0    0  0.27890331598E+02  0.28091193438E+02 -0.93034713551E+02  0.10110610106E+03  0.00000000000E+00 0.  1.
         11    1    3    3    0    0 -0.11398519847E+01 -0.50103783990E+02 -0.42455244874E+02  0.65682084696E+02  0.00000000000E+00 0. -1.
          2    1    1    2  501    0 -0.58897085842E+02  0.57233309765E+02  0.12331570166E+03  0.14815964614E+03  0.00000000000E+00 0. -1.
<scales pt_clust_5="13000.00000" pt_clust_6="13000.00000" pt_clust_7="13000.00000" pt_clust_8="13000.00000" pt_clust_9="82.12502"></scales>
<clustering>
<clus scale="   81.948">  5  6 -1 -1</clus>
<clus scale="   82.125">  1  9  2 -1</clus>
<clus scale="   83.375">  1  5  2 -1</clus>
<clus scale="   90.888">  7  8 -1 -1</clus>
<clus scale="   82.125">  1  5  2 -1</clus>
</clustering>
</event>
<event>
 9    1  0.7835476E-005  0.9123054E+02  0.7546771E-02  0.1307534E+00
         21   -1    0    0  501  502  0.00000000000E+00  0.00000000000E+00  0.10793567410E+03  0.10793567410E+03  0.00000000000E+00 0. -1.
         -4   -1    0    0    0  501 -0.00000000000E+00 -0.00000000000E+00 -0.15027550552E+03  0.15027550552E+03  0.00000000000E+00 0.  1.
        -24    2    1    2    0    0  0.63132145666E+01  0.49756726048E+01 -0.53278164360E+02  0.95717298794E+02  0.79111468795E+02 0.  0.
         23    2    1    2    0    0  0.20699676270E+02 -0.82958772794E+01  0.56477720718E+02  0.10944149286E+03  0.91051684467E+02 0.  0.
         13    1    3    3    0    0  0.15330964273E+01  0.34874633862E+02 -0.54856235328E+00  0.34912625114E+02  0.00000000000E+00 0. -1.
        -14    1    3    3    0    0  0.47801181393E+01 -0.29898961257E+02 -0.52729602006E+02  0.60804673681E+02  0.00000000000E+00 0.  1.
        -11    1    4    4    0    0 -0.32633672091E+02  0.14427361800E+02  0.19203811448E+02  0.40520262792E+02  0.00000000000E+00 0.  1.
         11    1    4    4    0    0  0.53333348361E+02 -0.22723239080E+02  0.37273909270E+02  0.68921230067E+02  0.00000000000E+00 0. -1.
         -3    1    1    2    0  502 -0.27012890837E+02  0.33202046746E+01 -0.45539387773E+02  0.53052387969E+02  0.00000000000E+00 0.  1.
<scales pt_clust_5="13000.00000" pt_clust_6="13000.00000" pt_clust_7="13000.00000" pt_clust_8="13000.00000" pt_clust_9="27.21619"></scales>
<clustering>
<clus scale="   27.216">  1  9  2 -1</clus>
<clus scale="   79.111">  5  6 -1 -1</clus>
<clus scale="   79.317">  2  5  1 -1</clus>
<clus scale="   91.052">  7  8 -1 -1</clus>
<clus scale="   27.216">  1  5  2 -1</clus>
</clustering>
</event>
<event>
 9    1  0.7835476E-005  0.1263552E+03  0.7546771E-02  0.1235764E+00
         21   -1    0    0  501  502  0.00000000000E+00  0.00000000000E+00  0.60303950570E+02  0.60303950570E+02  0.00000000000E+00 0.  1.
          1   -1    0    0  502    0 -0.00000000000E+00 -0.00000000000E+00 -0.67369770601E+03  0.67369770601E+03  0.00000000000E+00 0. -1.
         23    2    1    2    0    0  0.31068808680E+02  0.81478677466E+02 -0.54338972901E+03  0.55778223315E+03  0.90799649032E+02 0.  0.
        -24    2    1    2    0    0 -0.61089955159E+02 -0.74671417767E+02 -0.37060667971E+02  0.13113203177E+03  0.80711296564E+02 0.  0.
         11    1    4    4    0    0 -0.16127664857E+02 -0.36274917266E+02 -0.56358281951E+02  0.68936399245E+02  0.00000000000E+00 0. -1.
        -12    1    4    4    0    0 -0.44962290302E+02 -0.38396500500E+02  0.19297613980E+02  0.62195632525E+02  0.00000000000E+00 0.  1.
        -11    1    3    3    0    0  0.26467161139E+02  0.10172094644E+03 -0.45780231616E+03  0.46971334050E+03  0.00000000000E+00 0. -1.
         11    1    3    3    0    0  0.46016475414E+01 -0.20242268972E+02 -0.85587412849E+02  0.88068892643E+02  0.00000000000E+00 0.  1.
          2    1    1    2  501    0  0.30021146479E+02 -0.68072596992E+01 -0.32943358453E+02  0.45087391660E+02  0.00000000000E+00 0. -1.
<scales pt_clust_5="13000.00000" pt_clust_6="13000.00000" pt_clust_7="13000.00000" pt_clust_8="13000.00000" pt_clust_9="30.78324"></scales>
<clustering>
<clus scale="   30.783">  1  9  2 -1</clus>
<clus scale="   80.711">  5  6 -1 -1</clus>
<clus scale="   90.800">  7  8 -1 -1</clus>
<clus scale="  119.312">  1  5  2 -1</clus>
<clus scale="   30.783">  1  5  2 -1</clus>
</clustering>
</event>
<event>
 9    1  0.7835476E-005  0.1051012E+03  0.7546771E-02  0.1280579E+00
          1   -1    0    0  502    0 -0.00000000000E+00  0.00000000000E+00  0.11659179971E+03  0.11659179971E+03  0.00000000000E+00 0. -1.
         21   -1    0    0  501  502  0.00000000000E+00 -0.00000000000E+00 -0.15150290569E+03  0.15150290569E+03  0.00000000000E+00 0. -1.
        -24    2    1    2    0    0 -0.62162846690E+02  0.16092546611E+02  0.27202750468E+02  0.96280283191E+02  0.66383083185E+02 0.  0.
         23    2    1    2    0    0  0.41940587399E+02  0.17464193120E+02 -0.30386584344E+01  0.10092807956E+03  0.90073486035E+02 0.  0.
         11    1    3    3    0    0 -0.58777911420E+02 -0.13352704487E+02  0.76179396446E+01  0.60755004670E+02  0.00000000000E+00 0. -1.
        -12    1    3    3    0    0 -0.33849352707E+01  0.29445251098E+02  0.19584810823E+02  0.35525278521E+02  0.00000000000E+00 0.  1.
        -11    1    4    4    0    0 -0.12706026075E+02 -0.21424761976E+02  0.17889120774E+02  0.30667314301E+02  0.00000000000E+00 0.  1.
         11    1    4    4    0    0  0.54646613475E+02  0.38888955096E+02 -0.20927779209E+02  0.70260765263E+02  0.00000000000E+00 0. -1.
          2    1    1    2  501    0  0.20222259291E+02 -0.33556739731E+02 -0.59075198016E+02  0.70886342640E+02  0.00000000000E+00 0. -1.
<scales pt_clust_5="13000.00000" pt_clust_6="13000.00000" pt_clust_7="13000.00000" pt_clust_8="13000.00000" pt_clust_9="39.17901"></scales>
<clustering>
<clus scale="   39.179">  2  9  1 -1</clus>
<clus scale="   66.383">  5  6 -1 -1</clus>
<clus scale="   85.672">  1  5  2 -1</clus>
<clus scale="   90.073">  7  8 -1 -1</clus>
<clus scale="   39.179">  2  5  1 -1</clus>
</clustering>
</event>
<event>
 9    1  0.7835476E-005  0.1681472E+03  0.7546771E-02  0.1182038E+00
          1   -1    0    0  502    0 -0.00000000000E+00  0.00000000000E+00  0.11525450260E+04  0.11525450260E+04  0.00000000000E+00 0. -1.
         21   -1    0    0  501  502  0.00000000000E+00 -0.00000000000E+00 -0.53574692050E+02  0.53574692050E+02  0.00000000000E+00 0.  1.
         23    2    1    2    0    0 -0.72619652373E+02  0.13043304357E+03  0.84092426250E+03  0.85895675474E+03  0.91469658880E+02 0.  0.
        -24    2    1    2    0    0  0.47694413023E+02 -0.44692147295E+02  0.78572261502E+02  0.14670444563E+03  0.10524471021E+03 0.  0.
         11    1    4    4    0    0  0.31264183749E+02 -0.20445299125E+02  0.10236561840E+03  0.10896870776E+03  0.00000000000E+00 0. -1.
        -12    1    4    4    0    0  0.16430229274E+02 -0.24246848169E+02 -0.23793356896E+02  0.37735737869E+02  0.00000000000E+00 0.  1.
        -11    1    3    3    0    0 -0.26499654383E+01  0.93758916337E+02  0.38661577357E+03  0.39783101071E+03  0.00000000000E+00 0.  1.
         11    1    3    3    0    0 -0.69969686934E+02  0.36674127232E+02  0.45430848892E+03  0.46112574403E+03  0.00000000000E+00 0. -1.
          2    1    1    2  501    0  0.24925239349E+02 -0.85740896274E+02  0.17947380997E+03  0.20045851769E+03  0.00000000000E+00 0. -1.
<scales pt_clust_5="13000.00000" pt_clust_6="13000.00000" pt_clust_7="13000.00000" pt_clust_8="13000.00000" pt_clust_9="89.29036"></scales>
<clustering>
<clus scale="   89.290">  2  9  1 -1</clus>
<clus scale="   91.470">  7  8 -1 -1</clus>
<clus scale="  105.245">  5  6 -1 -1</clus>
<clus scale="  159.887">  1  7  2 -1</clus>
<clus scale="   89.290">  2  5  1 -1</clus>
</clustering>
</event>
<event>
 9    1  0.7835476E-005  0.1468234E+03  0.7546771E-02  0.1220984E+00
         21   -1    0    0  501  502  0.00000000000E+00  0.00000000000E+00  0.56935670086E+02  0.56935670086E+02  0.00000000000E+00 0. -1.
         -2   -1    0    0    0  501 -0.00000000000E+00 -0.00000000000E+00 -0.70881627256E+03  0.70881627256E+03  0.00000000000E+00 0.  1.
        -24    2    1    2    0    0  0.31310146276E+02 -0.54720498355E+02 -0.23669354791E+03  0.25824226459E+03  0.81795925331E+02 0.  0.
         23    2    1    2    0    0  0.87662863462E+02  0.82699039803E+02 -0.13316768582E+03  0.20014621215E+03  0.88323071020E+02 0.  0.
         13    1    3    3    0    0  0.33839310938E+02 -0.75235802936E+02 -0.19381641256E+03  0.21064265187E+03  0.00000000000E+00 0. -1.
        -14    1    3    3    0    0 -0.25291646618E+01  0.20515304581E+02 -0.42877135350E+02  0.47599612727E+02  0.00000000000E+00 0.  1.
        -11    1    4    4    0    0  0.10221138027E+02  0.60483056970E+02 -0.89512891413E+02  0.10851372988E+03  0.00000000000E+00 0.  1.
         11    1    4    4    0    0  0.77441725435E+02  0.22215982833E+02 -0.43654794409E+02  0.91632482267E+02  0.00000000000E+00 0. -1.
         -1    1    1    2    0  502 -0.11897300974E+03 -0.27978541449E+02 -0.28201936874E+03  0.30736346591E+03  0.00000000000E+00 0.  1.
<scales pt_clust_5="13000.00000" pt_clust_6="13000.00000" pt_clust_7="13000.00000" pt_clust_8="13000.00000" pt_clust_9="117.28661"></scales>
<clustering>
<clus scale="   81.796">  5  6 -1 -1</clus>
<clus scale="   88.323">  7  8 -1 -1</clus>
<clus scale="  103.273">  2  5  1 -1</clus>
<clus scale="  117.287">  1  9  2 -1</clus>
<clus scale="  117.287">  1  5  2 -1</clus>
</clustering>
</event>
<event>
 9    1  0.7835476E-005  0.9357274E+02  0.7546771E-02  0.1301543E+00
         21   -1    0    0  501  502  0.00000000000E+00  0.00000000000E+00  0.12978507245E+03  0.12978507245E+03  0.00000000000E+00 0. -1.
         -2   -1    0    0    0  501 -0.00000000000E+00 -0.00000000000E+00 -0.12140827259E+03  0.12140827259E+03  0.00000000000E+00 0.  1.
        -24    2    1    2    0    0 -0.29385938665E+02  0.15730400426E+02 -0.42020301568E+02  0.96282075038E+02  0.79959698230E+02 0.  0.
         23    2    1    2    0    0 -0.16799395538E+02  0.94222203812E+01  0.35395770709E+02  0.10022325164E+03  0.91765144028E+02 0.  0.
         13    1    3    3    0    0 -0.79372298355E+01  0.38897491747E+02  0.46135251831E+01  0.39966224444E+02  0.00000000000E+00 0. -1.
        -14    1    3    3    0    0 -0.21448708830E+02 -0.23167091321E+02 -0.46633826751E+02  0.56315850595E+02  0.00000000000E+00 0.  1.
        -13    1    4    4    0    0 -0.83274989607E+01 -0.38645755371E+02 -0.66460297491E+00  0.39538378118E+02  0.00000000000E+00 0.  1.
         13    1    4    4    0    0 -0.84718965769E+01  0.48067975752E+02  0.36060373684E+02  0.60684873525E+02  0.00000000000E+00 0. -1.
         -1    1    1    2    0  502  0.46185334203E+02 -0.25152620807E+02  0.15001330724E+02  0.54688018362E+02  0.00000000000E+00 0.  1.
<scales pt_clust_5="13000.00000" pt_clust_6="13000.00000" pt_clust_7="13000.00000" pt_clust_8="13000.00000" pt_clust_9="52.59030"></scales>
<clustering>
<clus scale="   52.590">  1  9  2 -1</clus>
<clus scale="   79.960">  5  6 -1 -1</clus>
<clus scale="   82.028">  2  5  1 -1</clus>
<clus scale="   91.765">  7  8 -1 -1</clus>
<clus scale="   52.590">  1  5  2 -1</clus>
</clustering>
</event>
<event>
 9    1  0.7835476E-005  0.9967279E+02  0.7546771E-02  0.1285761E+00
          1   -1    0    0  502    0 -0.00000000000E+00  0.00000000000E+00  0.77145979839E+03  0.77145979839E+03  0.00000000000E+00 0. -1.
         21   -1    0    0  501  502  0.00000000000E+00 -0.00000000000E+00 -0.12189052721E+03  0.12189052721E+03  0.00000000000E+00 0. -1.
        -24    2    1    2    0    0  0.32299874907E+02 -0.30192960075E+02  0.46880887670E+03  0.47762987983E+03  0.79960255570E+02 0.  0.
         23    2    1    2    0    0  0.38258524013E+02  0.73505090566E+02  0.26858276500E+03  0.29502580185E+03  0.89648252103E+02 0.  0.
         11    1    3    3    0    0  0.35265174885E+01 -0.53690114478E+02  0.25456452591E+03  0.26018870569E+03  0.00000000000E+00 0. -1.
        -12    1    3    3    0    0  0.28773357418E+02  0.23497154403E+02  0.21424435079E+03  0.21744117413E+03  0.00000000000E+00 0.  1.
        -11    1    4    4    0    0  0.26398027707E+02  0.92947969380E+02  0.18926083962E+03  0.21249905009E+03  0.00000000000E+00 0.  1.
         11    1    4    4    0    0  0.11860496306E+02 -0.19442878814E+02  0.79321925384E+02  0.82526751759E+02  0.00000000000E+00 0. -1.
          2    1    1    2  501    0 -0.70558398920E+02 -0.43312130491E+02 -0.87822370520E+02  0.12069464391E+03  0.00000000000E+00 0. -1.
<scales pt_clust_5="13000.00000" pt_clust_6="13000.00000" pt_clust_7="13000.00000" pt_clust_8="13000.00000" pt_clust_9="82.79147"></scales>
<clustering>
<clus scale="   79.960">  5  6 -1 -1</clus>
<clus scale="   82.791">  2  9  1 -1</clus>
<clus scale="   89.648">  7  8 -1 -1</clus>
<clus scale="   91.058">  1  5  2 -1</clus>
<clus scale="   82.791">  2  5  1 -1</clus>
</clustering>
</event>
<event>
 9    1  0.7835476E-005  0.1702364E+03  0.7546771E-02  0.1179318E+00
         21   -1    0    0  501  502  0.00000000000E+00  0.00000000000E+00  0.22901026872E+03  0.22901026872E+03  0.00000000000E+00 0. -1.
          1   -1    0    0  502    0 -0.00000000000E+00 -0.00000000000E+00 -0.17888869544E+03  0.17888869544E+03  0.00000000000E+00 0. -1.
         23    2    1    2    0    0  0.11959641752E+03  0.94139173645E+02 -0.62427482707E+02  0.18840254284E+03  0.91830498484E+02 0.  0.
        -24    2    1    2    0    0 -0.91031531769E+02 -0.81221670871E+02  0.11846043444E+03  0.18759408644E+03  0.79214690201E+02 0.  0.
         11    1    4    4    0    0 -0.44247633564E+02 -0.17372100544E+02  0.93001314382E+02  0.10444561949E+03  0.00000000000E+00 0. -1.
        -12    1    4    4    0    0 -0.46783898205E+02 -0.63849570327E+02  0.25459120058E+02  0.83148466951E+02  0.00000000000E+00 0.  1.
        -11    1    3    3    0    0  0.64923473659E+02  0.30965447219E+02  0.16137742179E+02  0.73717996961E+02  0.00000000000E+00 0. -1.
         11    1    3    3    0    0  0.54672943861E+02  0.63173726427E+02 -0.78565224886E+02  0.11468454587E+03  0.00000000000E+00 0.  1.
          2    1    1    2  501    0 -0.28564885750E+02 -0.12917502774E+02 -0.59113784572E+01  0.31902334885E+02  0.00000000000E+00 0. -1.
<scales pt_clust_5="13000.00000" pt_clust_6="13000.00000" pt_clust_7="13000.00000" pt_clust_8="13000.00000" pt_clust_9="31.34989"></scales>
<clustering>
<clus scale="   31.350">  1  9  2 -1</clus>
<clus scale="   79.215">  5  6 -1 -1</clus>
<clus scale="   91.830">  7  8 -1 -1</clus>
<clus scale="  163.776">  1  5  2 -1</clus>
<clus scale="   31.350">  1  5  2 -1</clus>
</clustering>
</event>
<event>
 9    1  0.7835476E-005  0.1340518E+03  0.7546771E-02  0.1234762E+00
         21   -1    0    0  501  502  0.00000000000E+00  0.00000000000E+00  0.22679613501E+03  0.22679613501E+03  0.00000000000E+00 0. -1.
          1   -1    0    0  502    0 -0.00000000000E+00 -0.00000000000E+00 -0.17639180698E+03  0.17639180698E+03  0.00000000000E+00 0. -1.
         23    2    1    2    0    0 -0.44224304084E+01 -0.51460233552E+02 -0.62852746115E+02  0.11980056458E+03  0.87943129640E+02 0.  0.
        -24    2    1    2    0    0  0.43931660298E+02 -0.76876790213E+02  0.79515682537E+02  0.14493214124E+03  0.82719708319E+02 0.  0.
         11    1    4    4    0    0  0.50695909357E+02 -0.82690295686E+01  0.42586663584E+02  0.66723878715E+02  0.00000000000E+00 0. -1.
        -12    1    4    4    0    0 -0.67642490593E+01 -0.68607760645E+02  0.36929018953E+02  0.78208262523E+02  0.00000000000E+00 0.  1.
        -11    1    3    3    0    0  0.30471652012E+02  0.93400448522E+01 -0.20629775261E+02  0.37965058165E+02  0.00000000000E+00 0.  1.
         11    1    3    3    0    0 -0.34894082420E+02 -0.60800278405E+02 -0.42222970854E+02  0.81835506412E+02  0.00000000000E+00 0. -1.
          2    1    1    2  501    0 -0.39509229890E+02  0.12833702377E+03  0.33741391613E+02  0.13845523617E+03  0.00000000000E+00 0. -1.
<scales pt_clust_5="13000.00000" pt_clust_6="13000.00000" pt_clust_7="13000.00000" pt_clust_8="13000.00000" pt_clust_9="105.48625"></scales>
<clustering>
<clus scale="   82.720">  5  6 -1 -1</clus>
<clus scale="   87.943">  7  8 -1 -1</clus>
<clus scale="  101.989">  2  7  1 -1</clus>
<clus scale="  105.486">  1  9  2 -1</clus>
<clus scale="  105.486">  1  5  2 -1</clus>
</clustering>
</event>
<event>
 9    1  0.7835476E-005  0.1133262E+03  0.7546771E-02  0.1258905E+00
         21   -1    0    0  501  502  0.00000000000E+00  0.00000000000E+00  0.31779286296E+03  0.31779286296E+03  0.00000000000E+00 0.  1.
          1   -1    0    0  502    0 -0.00000000000E+00 -0.00000000000E+00 -0.17622210878E+03  0.17622210878E+03  0.00000000000E+00 0. -1.
         23    2    1    2    0    0  0.34592402092E+02 -0.54819968351E+02 -0.13362994561E+03  0.17444294514E+03  0.91495986430E+02 0.  0.
        -24    2    1    2    0    0 -0.61811255413E+02  0.71342212659E+02  0.25050133961E+03  0.27927427323E+03  0.79579243147E+02 0.  0.
         13    1    4    4    0    0  0.61330665992E+01  0.47785136227E+02  0.70013212313E+02  0.84987549962E+02  0.00000000000E+00 0. -1.
        -14    1    4    4    0    0 -0.67944322012E+02  0.23557076432E+02  0.18048812730E+03  0.19428672327E+03  0.00000000000E+00 0.  1.
        -13    1    3    3    0    0  0.64791652958E+02 -0.25191344092E+02 -0.89249388271E+02  0.11312831395E+03  0.00000000000E+00 0. -1.
         13    1    3    3    0    0 -0.30199250866E+02 -0.29628624259E+02 -0.44380557339E+02  0.61314631191E+02  0.00000000000E+00 0.  1.
          2    1    1    2  501    0  0.27218853321E+02 -0.16522244308E+02  0.24699360182E+02  0.40297753368E+02  0.00000000000E+00 0. -1.
<scales pt_clust_5="13000.00000" pt_clust_6="13000.00000" pt_clust_7="13000.00000" pt_clust_8="13000.00000" pt_clust_9="31.84102"></scales>
<clustering>
<clus scale="   31.841">  1  9  2 -1</clus>
<clus scale="   79.579">  5  6 -1 -1</clus>
<clus scale="   91.496">  7  8 -1 -1</clus>
<clus scale="  103.943">  1  5  2 -1</clus>
<clus scale="   31.841">  1  5  2 -1</clus>
</clustering>
</event>
<event>
 9    1  0.7835476E-005  0.1186849E+03  0.7546771E-02  0.1247558E+00
          1   -1    0    0  502    0 -0.00000000000E+00  0.00000000000E+00  0.18384099796E+03  0.18384099796E+03  0.00000000000E+00 0. -1.
         21   -1    0    0  501  502  0.00000000000E+00 -0.00000000000E+00 -0.93522879470E+02  0.93522879470E+02  0.00000000000E+00 0. -1.
        -24    2    1    2    0    0 -0.67628505429E+02 -0.41458627581E+02  0.61153151249E+02  0.13055223700E+03  0.83736169789E+02 0.  0.
         23    2    1    2    0    0  0.48926669813E+02  0.56568069621E+02  0.33665151866E+02  0.12235135515E+03  0.90789570638E+02 0.  0.
         13    1    3    3    0    0 -0.54256256247E+02  0.12863092345E+02  0.14259988841E+02  0.57554737150E+02  0.00000000000E+00 0. -1.
        -14    1    3    3    0    0 -0.13372249182E+02 -0.54321719926E+02  0.46893162408E+02  0.72997499851E+02  0.00000000000E+00 0.  1.
        -13    1    4    4    0    0 -0.21827006088E+02 -0.22842261436E+01  0.19261822782E+02  0.29200234601E+02  0.00000000000E+00 0.  1.
         13    1    4    4    0    0  0.70753675902E+02  0.58852295765E+02  0.14403329084E+02  0.93151120547E+02  0.00000000000E+00 0. -1.
          2    1    1    2  501    0  0.18701835616E+02 -0.15109442041E+02 -0.45001846280E+01  0.24460285278E+02  0.00000000000E+00 0. -1.
<scales pt_clust_5="13000.00000" pt_clust_6="13000.00000" pt_clust_7="13000.00000" pt_clust_8="13000.00000" pt_clust_9="24.04275"></scales>
<clustering>
<clus scale="   24.043">  2  9  1 -1</clus>
<clus scale="   83.736">  5  6 -1 -1</clus>
<clus scale="   90.790">  7  8 -1 -1</clus>
<clus scale="  113.380">  1  5  2 -1</clus>
<clus scale="   24.043">  2  5  1 -1</clus>
</clustering>
</event>
<event>
 9    1  0.7835476E-005  0.1056008E+03  0.7546771E-02  0.1273545E+00
         21   -1    0    0  501  502  0.00000000000E+00  0.00000000000E+00  0.89466941777E+02  0.89466941777E+02  0.00000000000E+00 0.  1.
          1   -1    0    0  502    0 -0.00000000000E+00 -0.00000000000E+00 -0.32444740733E+03  0.32444740733E+03  0.00000000000E+00 0. -1.
        -24    2    1    2    0    0  0.15826901972E+02  0.43559076207E+02 -0.15608630080E+03  0.18044654038E+03  0.77782624615E+02 0.  0.
         23    2    1    2    0    0 -0.22611557137E+02 -0.11103679115E+03 -0.23293491778E+02  0.14577112466E+03  0.88691501964E+02 0.  0.
         11    1    3    3    0    0 -0.19798807292E+02  0.46839949478E+02 -0.11635026527E+03  0.12697778493E+03  0.00000000000E+00 0. -1.
        -12    1    3    3    0    0  0.35625709263E+02 -0.32808732712E+01 -0.39736035535E+02  0.53468755456E+02  0.00000000000E+00 0.  1.
        -11    1    4    4    0    0 -0.21692832895E+02 -0.19092977033E+02 -0.42928934694E+02  0.51749533379E+02  0.00000000000E+00 0. -1.
         11    1    4    4    0    0 -0.91872424253E+00 -0.91943814121E+02  0.19635442916E+02  0.94021591285E+02  0.00000000000E+00 0.  1.
          2    1    1    2  501    0  0.67846551659E+01  0.67477714947E+02 -0.55600672975E+02  0.87696684062E+02  0.00000000000E+00 0. -1.
<scales pt_clust_5="13000.00000" pt_clust_6="13000.00000" pt_clust_7="13000.00000" pt_clust_8="13000.00000" pt_clust_9="67.81798"></scales>
<clustering>
<clus scale="   67.818">  1  9  2 -1</clus>
<clus scale="   77.783">  5  6 -1 -1</clus>
<clus scale="   88.692">  7  8 -1 -1</clus>
<clus scale="   96.620">  2  5  1 -1</clus>
<clus scale="   67.818">  1  5  2 -1</clus>
</clustering>
</event>
<event>
 9    1  0.7835476E-005  0.1315494E+03  0.7546771E-02  0.1227663E+00
         21   -1    0    0  501  502  0.00000000000E+00  0.00000000000E+00  0.34165926785E+02  0.34165926785E+02  0.00000000000E+00 0.  1.
          1   -1    0    0  502    0 -0.00000000000E+00 -0.00000000000E+00 -0.80066721876E+03  0.80066721876E+03  0.00000000000E+00 0. -1.
         23    2    1    2    0    0 -0.48589360690E+02 -0.94405694888E+02 -0.58921833370E+03  0.60553993780E+03  0.90702868260E+02 0.  0.
        -24    2    1    2    0    0  0.23998805987E+02  0.64587657466E+02 -0.12056007276E+03  0.16065432315E+03  0.80793392166E+02 0.  0.
         11    1    4    4    0    0  0.95122814227E+01  0.54443887684E+02 -0.12952727522E+03  0.14082590468E+03  0.00000000000E+00 0. -1.
        -12    1    4    4    0    0  0.14486524564E+02  0.10143769782E+02  0.89672024536E+01  0.19828418474E+02  0.00000000000E+00 0.  1.
        -13    1    3    3    0    0 -0.41213911002E+02  0.35876375075E+01 -0.17651603668E+03  0.18129911419E+03  0.00000000000E+00 0.  1.
         13    1    3    3    0    0 -0.73754496882E+01 -0.97993332395E+02 -0.41270229702E+03  0.42424082361E+03  0.00000000000E+00 0. -1.
          2    1    1    2  501    0  0.24590554703E+02  0.29818037422E+02 -0.56722885521E+02  0.68638884593E+02  0.00000000000E+00 0. -1.
<scales pt_clust_5="13000.00000" pt_clust_6="13000.00000" pt_clust_7="13000.00000" pt_clust_8="13000.00000" pt_clust_9="38.64985"></scales>
<clustering>
<clus scale="   38.650">  1  9  2 -1</clus>
<clus scale="   80.793">  5  6 -1 -1</clus>
<clus scale="   90.703">  7  8 -1 -1</clus>
<clus scale="  124.923">  1  5  2 -1</clus>
<clus scale="   38.650">  1  5  2 -1</clus>
</clustering>
</event>
<event>
 9    1  0.7835476E-005  0.9475650E+02  0.7546771E-02  0.1298641E+00
         21   -1    0    0  501  502  0.00000000000E+00  0.00000000000E+00  0.12841533450E+03  0.12841533450E+03  0.00000000000E+00 0.  1.
          1   -1    0    0  502    0 -0.00000000000E+00 -0.00000000000E+00 -0.14610224770E+03  0.14610224770E+03  0.00000000000E+00 0. -1.
        -24    2    1    2    0    0  0.24300268494E+02  0.18077528187E+02 -0.85816112535E+02  0.12022501389E+03  0.78564296733E+02 0.  0.
         23    2    1    2    0    0  0.10048932057E+02 -0.35665833380E+02  0.36728220897E+02  0.10454080950E+03  0.90591312685E+02 0.  0.
         11    1    3    3    0    0  0.43238581905E+02  0.13388007062E+02 -0.89569555437E+02  0.10035695770E+03  0.00000000000E+00 0. -1.
        -12    1    3    3    0    0 -0.18938313411E+02  0.46895211250E+01  0.37534429017E+01  0.19868056192E+02  0.00000000000E+00 0.  1.
        -11    1    4    4    0    0  0.29664727243E+02  0.69490324767E+00 -0.18950723643E+02  0.35208079464E+02  0.00000000000E+00 0. -1.
         11    1    4    4    0    0 -0.19615795186E+02 -0.36360736628E+02  0.55678944540E+02  0.69332730034E+02  0.00000000000E+00 0.  1.
          2    1    1    2  501    0 -0.34349200551E+02  0.17588305193E+02  0.31400978431E+02  0.49751758808E+02  0.00000000000E+00 0. -1.
<scales pt_clust_5="13000.00000" pt_clust_6="13000.00000" pt_clust_7="13000.00000" pt_clust_8="13000.00000" pt_clust_9="38.59036"></scales>
<clustering>
<clus scale="   38.590">  1  9  2 -1</clus>
<clus scale="   78.564">  5  6 -1 -1</clus>
<clus scale="   83.333">  2  5  1 -1</clus>
<clus scale="   90.591">  7  8 -1 -1</clus>
<clus scale="   38.590">  1  5  2 -1</clus>
</clustering>
</event>
<event>
 9    1  0.7835476E-005  0.1028767E+03  0.7546771E-02  0.1280350E+00
         -4   -1    0    0    0  501 -0.00000000000E+00  0.00000000000E+00  0.31345188131E+03  0.31345188131E+03  0.00000000000E+00 0.  1.
         21   -1    0    0  501  502  0.00000000000E+00 -0.00000000000E+00 -0.54732291569E+02  0.54732291569E+02  0.00000000000E+00 0.  1.
         23    2    1    2    0    0  0.38055401979E+02 -0.42599900444E+02  0.12327442877E+03  0.16483160796E+03  0.93326893529E+02 0.  0.
        -24    2    1    2    0    0 -0.14783763938E+02  0.16892521875E+02  0.25007137481E+02  0.87598534830E+02  0.80896411589E+02 0.  0.
         11    1    4    4    0    0  0.30360242900E+02  0.19863092030E+02  0.80374108761E+00  0.36289568387E+02  0.00000000000E+00 0. -1.
        -12    1    4    4    0    0 -0.45144006839E+02 -0.29705701558E+01  0.24203396394E+02  0.51308966443E+02  0.00000000000E+00 0.  1.
        -11    1    3    3    0    0 -0.71434186434E+01 -0.46994213293E+02  0.19170847239E+02  0.51254325640E+02  0.00000000000E+00 0. -1.
         11    1    3    3    0    0  0.45198820622E+02  0.43943128485E+01  0.10410358153E+03  0.11357728232E+03  0.00000000000E+00 0.  1.
         -3    1    1    2    0  502 -0.23271638041E+02  0.25707378570E+02  0.11043802348E+03  0.11575403009E+03  0.00000000000E+00 0.  1.
<scales pt_clust_5="13000.00000" pt_clust_6="13000.00000" pt_clust_7="13000.00000" pt_clust_8="13000.00000" pt_clust_9="34.67621"></scales>
<clustering>
<clus scale="   34.676">  2  9  1 -1</clus>
<clus scale="   80.896">  5  6 -1 -1</clus>
<clus scale="   91.749">  2  5  1 -1</clus>
<clus scale="   93.327">  7  8 -1 -1</clus>
<clus scale="   34.676">  2  5  1 -1</clus>
</clustering>
</event>
<event>
 9    1  0.7835476E-005  0.1303320E+03  0.7546771E-02  0.1230244E+00
         21   -1    0    0  501  502  0.00000000000E+00  0.00000000000E+00  0.42597113538E+03  0.42597113538E+03  0.00000000000E+00 0. -1.
         -2   -1    0    0    0  501 -0.00000000000E+00 -0.00000000000E+00 -0.74424259522E+02  0.74424259522E+02  0.00000000000E+00 0.  1.
        -24    2    1    2    0    0  0.31131414874E+02  0.75053220277E+02  0.89965589383E+02  0.14615084511E+03  0.81634008769E+02 0.  0.
         23    2    1    2    0    0  0.37805277086E+02 -0.11010567770E+03  0.11559190062E+03  0.18903606619E+03  0.93918302768E+02 0.  0.
         13    1    3    3    0    0 -0.21097334260E+02  0.99017167111E+01  0.46500547659E+02  0.52013867759E+02  0.00000000000E+00 0. -1.
        -14    1    3    3    0    0  0.52228749133E+02  0.65151503566E+02  0.43465041724E+02  0.94136977352E+02  0.00000000000E+00 0.  1.
        -11    1    4    4    0    0  0.55738979704E+02 -0.33116790103E+02  0.78220793489E+02  0.10159748117E+03  0.00000000000E+00 0. -1.
         11    1    4    4    0    0 -0.17933702617E+02 -0.76988887600E+02  0.37371107132E+02  0.87438585029E+02  0.00000000000E+00 0.  1.
         -1    1    1    2    0  502 -0.68936691960E+02  0.35052457426E+02  0.14598938586E+03  0.16520848360E+03  0.00000000000E+00 0.  1.
<scales pt_clust_5="13000.00000" pt_clust_6="13000.00000" pt_clust_7="13000.00000" pt_clust_8="13000.00000" pt_clust_9="77.33655"></scales>
<clustering>
<clus scale="   77.337">  1  9  2 -1</clus>
<clus scale="   81.634">  5  6 -1 -1</clus>
<clus scale="   93.918">  7  8 -1 -1</clus>
<clus scale="  121.778">  2  5  1 -1</clus>
<clus scale="   77.337">  1  5  2 -1</clus>
</clustering>
</event>
<event>
 9    1  0.7835476E-005  0.8756065E+02  0.7546771E-02  0.1313349E+00
         -2   -1    0    0    0  501 -0.00000000000E+00  0.00000000000E+00  0.15168580601E+03  0.15168580601E+03  0.00000000000E+00 0.  1.
         21   -1    0    0  501  502  0.00000000000E+00 -0.00000000000E+00 -0.21466749531E+03  0.21466749531E+03  0.00000000000E+00 0.  1.
         23    2    1    2    0    0 -0.19563433153E+01  0.11922544428E+02  0.11952545638E+03  0.14830256411E+03  0.86955974225E+02 0.  0.
        -24    2    1    2    0    0 -0.97476753015E+00  0.12721390939E+02 -0.17373800799E+03  0.19172940105E+03  0.80077986047E+02 0.  0.
         13    1    4    4    0    0  0.21713255087E+01 -0.31672586154E+02 -0.41811980355E+02  0.52498657786E+02  0.00000000000E+00 0. -1.
        -14    1    4    4    0    0 -0.31460930389E+01  0.44393977093E+02 -0.13192602763E+03  0.13923074327E+03  0.00000000000E+00 0.  1.
        -13    1    3    3    0    0  0.35891236962E+02  0.13281239362E+01  0.19578010210E+02  0.40905296572E+02  0.00000000000E+00 0. -1.
         13    1    3    3    0    0 -0.37847580277E+02  0.10594420492E+02  0.99947446169E+02  0.10739726754E+03  0.00000000000E+00 0.  1.
         -1    1    1    2    0  502  0.29311108455E+01 -0.24643935367E+02 -0.87691376907E+01  0.26321336155E+02  0.00000000000E+00 0.  1.
<scales pt_clust_5="13000.00000" pt_clust_6="13000.00000" pt_clust_7="13000.00000" pt_clust_8="13000.00000" pt_clust_9="24.81763"></scales>
<clustering>
<clus scale="   24.818">  2  9  1 -1</clus>
<clus scale="   80.078">  5  6 -1 -1</clus>
<clus scale="   80.734">  2  5  1 -1</clus>
<clus scale="   86.956">  7  8 -1 -1</clus>
<clus scale="   24.818">  2  5  1 -1</clus>
</clustering>
</event>
<event>
 9    1  0.7835476E-005  0.2875117E+03  0.7546771E-02  0.1092018E+00
          3   -1    0    0  502    0 -0.00000000000E+00  0.00000000000E+00  0.20021772331E+04  0.20021772331E+04  0.00000000000E+00 0. -1.
         21   -1    0    0  501  502  0.00000000000E+00 -0.00000000000E+00 -0.83754953982E+02  0.83754953982E+02  0.00000000000E+00 0. -1.
         23    2    1    2    0    0  0.10640263384E+02  0.26377894036E+03  0.10045879187E+04  0.10425259013E+04  0.89279470171E+02 0.  0.
        -24    2    1    2    0    0  0.10504644864E+02 -0.28457244936E+03  0.95095279818E+03  0.99589570199E+03  0.80032483290E+02 0.  0.
         13    1    4    4    0    0 -0.24142989384E+02 -0.10006254069E+03  0.42999020606E+03  0.44213908817E+03  0.00000000000E+00 0. -1.
        -14    1    4    4    0    0  0.34647634248E+02 -0.18450990867E+03  0.52096259212E+03  0.55375661382E+03  0.00000000000E+00 0.  1.
        -13    1    3    3    0    0  0.43230739133E+02  0.21729372704E+03  0.82019916013E+03  0.84959527005E+03  0.00000000000E+00 0. -1.
         13    1    3    3    0    0 -0.32590475749E+02  0.46485213318E+02  0.18438875858E+03  0.19293063120E+03  0.00000000000E+00 0.  1.
          4    1    1    2  501    0 -0.21144908248E+02  0.20793508996E+02 -0.37118437726E+02  0.47510583878E+02  0.00000000000E+00 0. -1.
<scales pt_clust_5="13000.00000" pt_clust_6="13000.00000" pt_clust_7="13000.00000" pt_clust_8="13000.00000" pt_clust_9="29.65598"></scales>
<clustering>
<clus scale="   29.656">  2  9  1 -1</clus>
<clus scale="   80.032">  5  6 -1 -1</clus>
<clus scale="   89.279">  7  8 -1 -1</clus>
<clus scale="  284.776">  2  5  1 -1</clus>
<clus scale="   29.656">  2  5  1 -1</clus>
</clustering>
</event>
<event>
 9    1  0.7835476E-005  0.9423395E+02  0.7546771E-02  0.1301276E+00
          1   -1    0    0  502    0 -0.00000000000E+00  0.00000000000E+00  0.12012205211E+04  0.12012205211E+04  0.00000000000E+00 0. -1.
         21   -1    0    0  501  502  0.00000000000E+00 -0.00000000000E+00 -0.13692889275E+02  0.13692889275E+02  0.00000000000E+00 0.  1.
        -24    2    1    2    0    0  0.19226005367E+02 -0.29427034070E+01  0.85671366034E+03  0.86058218616E+03  0.79152413246E+02 0.  0.
         23    2    1    2    0    0  0.64337408663E+01  0.11222500407E+02  0.20187125020E+03  0.22259966769E+03  0.92904643912E+02 0.  0.
         11    1    3    3    0    0  0.11197046276E+02  0.22156775255E+02  0.88481017662E+02  0.91897698674E+02  0.00000000000E+00 0. -1.
        -12    1    3    3    0    0  0.80289590907E+01 -0.25099478662E+02  0.76823264268E+03  0.76868448748E+03  0.00000000000E+00 0.  1.
        -11    1    4    4    0    0  0.42001687885E+02  0.26437544547E+02  0.74774935519E+02  0.89746178352E+02  0.00000000000E+00 0.  1.
         11    1    4    4    0    0 -0.35567947019E+02 -0.15215044140E+02  0.12709631468E+03  0.13285348934E+03  0.00000000000E+00 0. -1.
          2    1    1    2  501    0 -0.25659746233E+02 -0.82797970000E+01  0.12894272132E+03  0.13173155657E+03  0.00000000000E+00 0. -1.
<scales pt_clust_5="13000.00000" pt_clust_6="13000.00000" pt_clust_7="13000.00000" pt_clust_8="13000.00000" pt_clust_9="26.96254"></scales>
<clustering>
<clus scale="   26.963">  2  9  1 -1</clus>
<clus scale="   79.152">  5  6 -1 -1</clus>
<clus scale="   80.709">  1  5  2 -1</clus>
<clus scale="   92.905">  7  8 -1 -1</clus>
<clus scale="   26.963">  2  5  1 -1</clus>
</clustering>
</event>
<event>
 9    1  0.7835476E-005  0.1146816E+03  0.7546771E-02  0.1255125E+00
          1   -1    0    0  502    0 -0.00000000000E+00  0.00000000000E+00  0.14945574393E+03  0.14945574393E+03  0.00000000000E+00 0. -1.
         21   -1    0    0  501  502  0.00000000000E+00 -0.00000000000E+00 -0.41370996585E+03  0.41370996585E+03  0.00000000000E+00 0. -1.
         23    2    1    2    0    0  0.50732478970E+02  0.51521752293E+02  0.11541676246E+03  0.16370389037E+03  0.90827635036E+02 0.  0.
        -24    2    1    2    0    0 -0.36793184256E+02 -0.25356255883E+02 -0.26699010871E+03  0.28294608279E+03  0.82329153363E+02 0.  0.
         13    1    4    4    0    0  0.83050851907E+01 -0.42132802097E+02 -0.15945543765E+03  0.16513686459E+03  0.00000000000E+00 0. -1.
        -14    1    4    4    0    0 -0.45098269447E+02  0.16776546214E+02 -0.10753467107E+03  0.11780921820E+03  0.00000000000E+00 0.  1.
        -13    1    3    3    0    0  0.29877046341E+02  0.73562629871E+02  0.56554988794E+02  0.97481101599E+02  0.00000000000E+00 0. -1.
         13    1    3    3    0    0  0.20855432630E+02 -0.22040877578E+02  0.58861773662E+02  0.66222788776E+02  0.00000000000E+00 0.  1.
          2    1    1    2  501    0 -0.13939294714E+02 -0.26165496410E+02 -0.11268087566E+03  0.11651573662E+03  0.00000000000E+00 0. -1.
<scales pt_clust_5="13000.00000" pt_clust_6="13000.00000" pt_clust_7="13000.00000" pt_clust_8="13000.00000" pt_clust_9="29.64687"></scales>
<clustering>
<clus scale="   29.647">  2  9  1 -1</clus>
<clus scale="   82.329">  5  6 -1 -1</clus>
<clus scale="   90.828">  7  8 -1 -1</clus>
<clus scale="  108.075">  2  5  1 -1</clus>
<clus scale="   29.647">  2  5  1 -1</clus>
</clustering>
</event>
<event>
 9    1  0.7835476E-005  0.1713933E+03  0.7546771E-02  0.1178121E+00
         21   -1    0    0  501  502  0.00000000000E+00  0.00000000000E+00  0.54355087611E+03  0.54355087611E+03  0.00000000000E+00 0.  1.
          3   -1    0    0  502    0 -0.00000000000E+00 -0.00000000000E+00 -0.26498061423E+03  0.26498061423E+03  0.00000000000E+00 0. -1.
         23    2    1    2    0    0  0.69682188334E+02  0.12200049749E+03 -0.19646506641E+03  0.25853801417E+03  0.92215257380E+02 0.  0.
        -24    2    1    2    0    0 -0.11273774669E+03 -0.14345669601E+03  0.24824725223E+03  0.31815952481E+03  0.79430232444E+02 0.  0.
         13    1    4    4    0    0 -0.19963896132E+02 -0.87345292010E+02  0.96789275886E+02  0.13189359769E+03  0.00000000000E+00 0. -1.
        -14    1    4    4    0    0 -0.92773850558E+02 -0.56111404002E+02  0.15145797635E+03  0.18626592712E+03  0.00000000000E+00 0.  1.
        -11    1    3    3    0    0  0.18374417700E+02  0.46281197685E+02 -0.14560239708E+03  0.15388185897E+03  0.00000000000E+00 0. -1.
         11    1    3    3    0    0  0.51307770634E+02  0.75719299803E+02 -0.50862669333E+02  0.10465615520E+03  0.00000000000E+00 0.  1.
          4    1    1    2  501    0  0.43055558356E+02  0.21456198524E+02  0.22678807605E+03  0.23183395136E+03  0.00000000000E+00 0. -1.
<scales pt_clust_5="13000.00000" pt_clust_6="13000.00000" pt_clust_7="13000.00000" pt_clust_8="13000.00000" pt_clust_9="48.10561"></scales>
<clustering>
<clus scale="   48.106">  1  9  2 -1</clus>
<clus scale="   79.430">  5  6 -1 -1</clus>
<clus scale="   92.215">  7  8 -1 -1</clus>
<clus scale="  164.867">  1  5  2 -1</clus>
<clus scale="   48.106">  1  5  2 -1</clus>
</clustering>
</event>
<event>
 9    1  0.7835476E-005  0.1146546E+03  0.7546771E-02  0.1256364E+00
          1   -1    0    0  502    0 -0.00000000000E+00  0.00000000000E+00  0.25314213197E+03  0.25314213197E+03  0.00000000000E+00 0. -1.
         21   -1    0    0  501  502  0.00000000000E+00 -0.00000000000E+00 -0.12384695418E+03  0.12384695418E+03  0.00000000000E+00 0. -1.
        -24    2    1    2    0    0  0.46334675227E+02 -0.79766937422E+02  0.91539536150E+02  0.15177149306E+03  0.78392812118E+02 0.  0.
         23    2    1    2    0    0 -0.71839833199E+02 -0.49236306624E+01  0.65177050639E+02  0.13261662615E+03  0.90299046670E+02 0.  0.
         11    1    3    3    0    0  0.18029688151E+02 -0.88246734154E+02  0.78488465410E+02  0.11946964027E+03  0.00000000000E+00 0. -1.
        -12    1    3    3    0    0  0.28304987076E+02  0.84797967323E+01  0.13051070740E+02  0.32301852787E+02  0.00000000000E+00 0.  1.
        -13    1    4    4    0    0  0.30979059824E+01  0.23861895807E+02  0.43096859710E+02  0.49359157305E+02  0.00000000000E+00 0.  1.
         13    1    4    4    0    0 -0.74937739182E+02 -0.28785526469E+02  0.22080190929E+02  0.83257468850E+02  0.00000000000E+00 0. -1.
          2    1    1    2  501    0  0.25505157973E+02  0.84690568085E+02 -0.27421409002E+02  0.92600966935E+02  0.00000000000E+00 0. -1.
<scales pt_clust_5="13000.00000" pt_clust_6="13000.00000" pt_clust_7="13000.00000" pt_clust_8="13000.00000" pt_clust_9="88.44776"></scales>
<clustering>
<clus scale="   78.393">  5  6 -1 -1</clus>
<clus scale="   88.448">  2  9  1 -1</clus>
<clus scale="   90.299">  7  8 -1 -1</clus>
<clus scale="  105.533">  1  5  2 -1</clus>
<clus scale="   88.448">  2  5  1 -1</clus>
</clustering>
</event>
<event>
 9    1  0.7835476E-005  0.9118753E+02  0.7546771E-02  0.1302371E+00
         -4   -1    0    0    0  501 -0.00000000000E+00  0.00000000000E+00  0.15397576175E+03  0.15397576175E+03  0.00000000000E+00 0.  1.
         21   -1    0    0  501  502  0.00000000000E+00 -0.00000000000E+00 -0.25955179526E+03  0.25955179526E+03  0.00000000000E+00 0.  1.
        -24    2    1    2    0    0  0.34006367114E+02 -0.37520941752E+01  0.10512585853E+03  0.13782962163E+03  0.82310675201E+02 0.  0.
         23    2    1    2    0    0 -0.10134359757E+02  0.22979261332E+01 -0.28005987241E+02  0.91443272007E+02  0.86426563983E+02 0.  0.
         13    1    3    3    0    0  0.14969076981E+02 -0.40069021246E+02  0.77075880328E+02  0.88149254436E+02  0.00000000000E+00 0. -1.
        -14    1    3    3    0    0  0.19037290133E+02  0.36316927071E+02  0.28049978206E+02  0.49680367197E+02  0.00000000000E+00 0.  1.
        -11    1    4    4    0    0  0.60076737725E+01 -0.40376841675E+02 -0.18595391150E+02  0.44857218593E+02  0.00000000000E+00 0.  1.
         11    1    4    4    0    0 -0.16142033529E+02  0.42674767809E+02 -0.94105960906E+01  0.46586053415E+02  0.00000000000E+00 0. -1.
         -3    1    1    2    0  502 -0.23872007357E+02  0.14541680420E+01 -0.18269590480E+03  0.18425466336E+03  0.00000000000E+00 0.  1.
<scales pt_clust_5="13000.00000" pt_clust_6="13000.00000" pt_clust_7="13000.00000" pt_clust_8="13000.00000" pt_clust_9="23.91626"></scales>
<clustering>
<clus scale="   23.916">  2  9  1 -1</clus>
<clus scale="   82.311">  5  6 -1 -1</clus>
<clus scale="   86.427">  7  8 -1 -1</clus>
<clus scale="   87.296">  1  5  2 -1</clus>
<clus scale="   23.916">  2  5  1 -1</clus>
</clustering>
</event>
<event>
 9    1  0.7835476E-005  0.1077634E+03  0.7546771E-02  0.1270119E+00
         21   -1    0    0  501  502  0.00000000000E+00  0.00000000000E+00  0.13112267425E+03  0.13112267425E+03  0.00000000000E+00 0. -1.
          1   -1    0    0  502    0 -0.00000000000E+00 -0.00000000000E+00 -0.17899228761E+03  0.17899228761E+03  0.00000000000E+00 0. -1.
        -24    2    1    2    0    0  0.51287981305E+02  0.20314607186E+01 -0.93503149868E+02  0.13735892512E+03  0.86545083140E+02 0.  0.
         23    2    1    2    0    0 -0.12026467718E+02  0.12853922355E+02  0.72034070029E+02  0.12315735482E+03  0.98330908448E+02 0.  0.
         13    1    3    3    0    0  0.41421165910E+02 -0.25369913978E+02 -0.96546458743E+02  0.10807665898E+03  0.00000000000E+00 0. -1.
        -14    1    3    3    0    0  0.98668153950E+01  0.27401374697E+02  0.30433088750E+01  0.29282266139E+02  0.00000000000E+00 0.  1.
        -13    1    4    4    0    0  0.14082783795E+02  0.38244792720E+02  0.76286233372E+02  0.86490336869E+02  0.00000000000E+00 0. -1.
         13    1    4    4    0    0 -0.26109251513E+02 -0.25390870365E+02 -0.42521633429E+01  0.36667017953E+02  0.00000000000E+00 0.  1.
          2    1    1    2  501    0 -0.39261513587E+02 -0.14885383074E+02 -0.26400533516E+02  0.49598681921E+02  0.00000000000E+00 0. -1.
<scales pt_clust_5="13000.00000" pt_clust_6="13000.00000" pt_clust_7="13000.00000" pt_clust_8="13000.00000" pt_clust_9="41.98860"></scales>
<clustering>
<clus scale="   41.989">  1  9  2 -1</clus>
<clus scale="   86.545">  5  6 -1 -1</clus>
<clus scale="   97.129">  2  5  1 -1</clus>
<clus scale="   98.331">  7  8 -1 -1</clus>
<clus scale="   41.989">  1  5  2 -1</clus>
</clustering>
</event>
<event>
 9    1  0.7835476E-005  0.1144399E+03  0.7546771E-02  0.1255990E+00
         21   -1    0    0  501  502  0.00000000000E+00  0.00000000000E+00  0.30438776753E+02  0.30438776753E+02  0.00000000000E+00 0. -1.
          1   -1    0    0  502    0 -0.00000000000E+00 -0.00000000000E+00 -0.86225812290E+03  0.86225812290E+03  0.00000000000E+00 0. -1.
        -24    2    1    2    0    0 -0.69399846346E+02 -0.30014644679E+02 -0.68365131613E+03  0.69247991678E+03  0.80200346228E+02 0.  0.
         23    2    1    2    0    0  0.49238614302E+02  0.16210708497E+02 -0.14028863093E+03  0.17454386733E+03  0.89985740234E+02 0.  0.
         11    1    3    3    0    0 -0.45563772198E+02 -0.57405163840E+02 -0.42119393406E+03  0.42752279502E+03  0.00000000000E+00 0. -1.
        -12    1    3    3    0    0 -0.23836074148E+02  0.27390519161E+02 -0.26245738207E+03  0.26495712176E+03  0.00000000000E+00 0.  1.
        -13    1    4    4    0    0  0.57837073458E+02  0.45325039117E+02 -0.98138436265E+02  0.12259950616E+03  0.00000000000E+00 0.  1.
         13    1    4    4    0    0 -0.85984591557E+01 -0.29114330620E+02 -0.42150194666E+02  0.51944361173E+02  0.00000000000E+00 0. -1.
          2    1    1    2  501    0  0.20161232043E+02  0.13803936182E+02 -0.78793990876E+01  0.25673115542E+02  0.00000000000E+00 0. -1.
<scales pt_clust_5="13000.00000" pt_clust_6="13000.00000" pt_clust_7="13000.00000" pt_clust_8="13000.00000" pt_clust_9="24.43407"></scales>
<clustering>
<clus scale="   24.434">  1  9  2 -1</clus>
<clus scale="   80.200">  5  6 -1 -1</clus>
<clus scale="   89.986">  7  8 -1 -1</clus>
<clus scale="  106.917">  2  5  1 -1</clus>
<clus scale="   24.434">  1  5  2 -1</clus>
</clustering>
</event>
<event>
 9    1  0.7835476E-005  0.1879440E+03  0.7546771E-02  0.1161382E+00
         21   -1    0    0  501  502  0.00000000000E+00  0.00000000000E+00  0.47446707177E+03  0.47446707177E+03  0.00000000000E+00 0. -1.
          1   -1    0    0  502    0 -0.00000000000E+00 -0.00000000000E+00 -0.14533516181E+03  0.14533516181E+03  0.00000000000E+00 0. -1.
        -24    2    1    2    0    0 -0.14877742109E+03  0.16595898916E+02  0.43283515919E+02  0.17442987931E+03  0.78372030460E+02 0.  0.
         23    2    1    2    0    0  0.20202300147E+03 -0.82084809059E+02  0.27228032683E+03  0.35988562063E+03  0.88486578388E+02 0.  0.
         13    1    3    3    0    0 -0.13210943974E+03 -0.14683345682E+02  0.40121097209E+02  0.13884598355E+03  0.00000000000E+00 0. -1.
        -14    1    3    3    0    0 -0.16667981355E+02  0.31279244598E+02  0.31624187094E+01  0.35583895756E+02  0.00000000000E+00 0.  1.
        -11    1    4    4    0    0  0.90721452034E+02 -0.83555091759E+02  0.15677131081E+03  0.19947200082E+03  0.00000000000E+00 0. -1.
         11    1    4    4    0    0  0.11130154943E+03  0.14702826996E+01  0.11550901602E+03  0.16041361981E+03  0.00000000000E+00 0.  1.
          2    1    1    2  501    0 -0.53245580376E+02  0.65488910144E+02  0.13568067214E+02  0.85486733645E+02  0.00000000000E+00 0. -1.
<scales pt_clust_5="13000.00000" pt_clust_6="13000.00000" pt_clust_7="13000.00000" pt_clust_8="13000.00000" pt_clust_9="84.40318"></scales>
<clustering>
<clus scale="   78.372">  5  6 -1 -1</clus>
<clus scale="   84.403">  1  9  2 -1</clus>
<clus scale="   88.487">  7  8 -1 -1</clus>
<clus scale="  183.399">  2  5  1 -1</clus>
<clus scale="   84.403">  1  5  2 -1</clus>
</clustering>
</event>
<event>
 9    1  0.7835476E-005  0.1855523E+03  0.7546771E-02  0.1185238E+00
          1   -1    0    0  502    0 -0.00000000000E+00  0.00000000000E+00  0.73246021050E+03  0.73246021050E+03  0.00000000000E+00 0. -1.
         21   -1    0    0  501  502  0.00000000000E+00 -0.00000000000E+00 -0.82654070760E+02  0.82654070760E+02  0.00000000000E+00 0.  1.
        -24    2    1    2    0    0 -0.58241000018E+02  0.49733619918E+02  0.11345364595E+03  0.15856499451E+03  0.80035496318E+02 0.  0.
         23    2    1    2    0    0  0.18357608369E+03 -0.22123871253E+02  0.16400013472E+03  0.26269974603E+03  0.89025098668E+02 0.  0.
         13    1    3    3    0    0 -0.20975400105E+02  0.71488883440E+01  0.97192910952E+02  0.99687190519E+02  0.00000000000E+00 0. -1.
        -14    1    3    3    0    0 -0.37265599913E+02  0.42584731574E+02  0.16260735000E+02  0.58877803991E+02  0.00000000000E+00 0.  1.
        -11    1    4    4    0    0  0.14082918792E+03  0.23251009113E+02  0.10956260392E+03  0.17993730511E+03  0.00000000000E+00 0.  1.
         11    1    4    4    0    0  0.42746895776E+02 -0.45374880366E+02  0.54437530803E+02  0.82762440918E+02  0.00000000000E+00 0. -1.
          2    1    1    2  501    0 -0.12533508367E+03 -0.27609748664E+02  0.37235235907E+03  0.39384954072E+03  0.00000000000E+00 0. -1.
<scales pt_clust_5="13000.00000" pt_clust_6="13000.00000" pt_clust_7="13000.00000" pt_clust_8="13000.00000" pt_clust_9="162.80112"></scales>
<clustering>
<clus scale="   80.035">  5  6 -1 -1</clus>
<clus scale="   89.025">  7  8 -1 -1</clus>
<clus scale="  110.775">  1  5  2 -1</clus>
<clus scale="  162.801">  2  9  1 -1</clus>
<clus scale="  162.801">  2  5  1 -1</clus>
</clustering>
</event>
<event>
 9    1  0.7835476E-005  0.9416559E+02  0.7546771E-02  0.1293311E+00
         21   -1    0    0  501  502  0.00000000000E+00  0.00000000000E+00  0.16629376415E+02  0.16629376415E+02  0.00000000000E+00 0.  1.
         -2   -1    0    0    0  501 -0.00000000000E+00 -0.00000000000E+00 -0.15938590087E+04  0.15938590087E+04  0.00000000000E+00 0.  1.
        -24    2    1    2    0    0  0.21589491291E+02  0.59270503294E+02 -0.11278690762E+04  0.11325499072E+04  0.81249865018E+02 0.  0.
         23    2    1    2    0    0 -0.18242132875E+02 -0.93812014822E+01 -0.39576974119E+03  0.40464371217E+03  0.81743889081E+02 0.  0.
         13    1    3    3    0    0  0.33270459813E+02  0.41590989220E+02 -0.31993473988E+03  0.32433774320E+03  0.00000000000E+00 0. -1.
        -14    1    3    3    0    0 -0.11680968522E+02  0.17679514074E+02 -0.80793433634E+03  0.80821216403E+03  0.00000000000E+00 0.  1.
        -11    1    4    4    0    0  0.65906363863E+01  0.33581816343E+02 -0.14178300342E+03  0.14585470488E+03  0.00000000000E+00 0.  1.
         11    1    4    4    0    0 -0.24832769261E+02 -0.42963017825E+02 -0.25398673778E+03  0.25878900729E+03  0.00000000000E+00 0. -1.
         -1    1    1    2    0  502 -0.33473584162E+01 -0.49889301811E+02 -0.53590814881E+02  0.73294765729E+02  0.00000000000E+00 0.  1.
<scales pt_clust_5="13000.00000" pt_clust_6="13000.00000" pt_clust_7="13000.00000" pt_clust_8="13000.00000" pt_clust_9="50.00147"></scales>
<clustering>
<clus scale="   50.001">  1  9  2 -1</clus>
<clus scale="   81.250">  5  6 -1 -1</clus>
<clus scale="   81.744">  7  8 -1 -1</clus>
<clus scale="   93.737">  2  5  1 -1</clus>
<clus scale="   50.001">  1  5  2 -1</clus>
</clustering>
</event>
<event>
 9    1  0.7835476E-005  0.1073243E+03  0.7546771E-02  0.1270837E+00
          1   -1    0    0  502    0 -0.00000000000E+00  0.00000000000E+00  0.21309359228E+03  0.21309359228E+03  0.00000000000E+00 0. -1.
         21   -1    0    0  501  502  0.00000000000E+00 -0.00000000000E+00 -0.24415278727E+03  0.24415278727E+03  0.00000000000E+00 0. -1.
        -24    2    1    2    0    0  0.37696864869E+02  0.46469678421E+02  0.16720810020E+03  0.19438883640E+03  0.79044204783E+02 0.  0.
         23    2    1    2    0    0 -0.51961140121E+02  0.14701445965E+02 -0.97818603687E+02  0.14438680570E+03  0.91449318400E+02 0.  0.
         13    1    3    3    0    0  0.29521958349E+02  0.14538049305E+02  0.15621361906E+03  0.15964208619E+03  0.00000000000E+00 0. -1.
        -14    1    3    3    0    0  0.81749065198E+01  0.31931629115E+02  0.10994481140E+02  0.34746750209E+02  0.00000000000E+00 0.  1.
        -11    1    4    4    0    0 -0.48016007927E+02  0.48721710481E+02 -0.81637836357E+02  0.10650858376E+03  0.00000000000E+00 0. -1.
         11    1    4    4    0    0 -0.39451321942E+01 -0.34020264515E+02 -0.16180767329E+02  0.37878221937E+02  0.00000000000E+00 0.  1.
          2    1    1    2  501    0  0.14264275252E+02 -0.61171124386E+02 -0.10044869150E+03  0.11847073745E+03  0.00000000000E+00 0. -1.
<scales pt_clust_5="13000.00000" pt_clust_6="13000.00000" pt_clust_7="13000.00000" pt_clust_8="13000.00000" pt_clust_9="62.81223"></scales>
<clustering>
<clus scale="   62.812">  2  9  1 -1</clus>
<clus scale="   79.044">  5  6 -1 -1</clus>
<clus scale="   91.449">  7  8 -1 -1</clus>
<clus scale="   96.972">  1  5  2 -1</clus>
<clus scale="   62.812">  2  5  1 -1</clus>
</clustering>
</event>
<event>
 9    1  0.7835476E-005  0.9571304E+02  0.7546771E-02  0.1296082E+00
         21   -1    0    0  501  502  0.00000000000E+00  0.00000000000E+00  0.12738291410E+03  0.12738291410E+03  0.00000000000E+00 0. -1.
          1   -1    0    0  502    0 -0.00000000000E+00 -0.00000000000E+00 -0.30852816013E+03  0.30852816013E+03  0.00000000000E+00 0. -1.
         23    2    1    2    0    0 -0.22443385736E+02 -0.21895196349E+02 -0.23627334801E+03  0.25512211038E+03  0.90989510621E+02 0.  0.
        -24    2    1    2    0    0  0.51661482804E+02 -0.39620917954E+02  0.21833715008E+02  0.10498364926E+03  0.79411142520E+02 0.  0.
         11    1    4    4    0    0  0.21116215162E+02 -0.36332928961E+02 -0.25055740145E+02  0.48926131912E+02  0.00000000000E+00 0. -1.
        -12    1    4    4    0    0  0.30545267642E+02 -0.32879889928E+01  0.46889455153E+02  0.56057517350E+02  0.00000000000E+00 0.  1.
        -11    1    3    3    0    0  0.30136417422E+02 -0.11681750472E+02 -0.15101272306E+03  0.15443286397E+03  0.00000000000E+00 0.  1.
         11    1    3    3    0    0 -0.52579803158E+02 -0.10213445878E+02 -0.85260624945E+02  0.10068924641E+03  0.00000000000E+00 0. -1.
          2    1    1    2  501    0 -0.29218097068E+02  0.61516114303E+02  0.33294386973E+02  0.75805314583E+02  0.00000000000E+00 0. -1.
<scales pt_clust_5="13000.00000" pt_clust_6="13000.00000" pt_clust_7="13000.00000" pt_clust_8="13000.00000" pt_clust_9="68.10235"></scales>
<clustering>
<clus scale="   68.102">  1  9  2 -1</clus>
<clus scale="   79.411">  5  6 -1 -1</clus>
<clus scale="   84.782">  1  5  2 -1</clus>
<clus scale="   90.990">  7  8 -1 -1</clus>
<clus scale="   68.102">  1  5  2 -1</clus>
</clustering>
</event>
<event>
 9    1  0.7835476E-005  0.1063996E+03  0.7546771E-02  0.1273361E+00
          1   -1    0    0  502    0 -0.00000000000E+00  0.00000000000E+00  0.35319988748E+02  0.35319988748E+02  0.00000000000E+00 0. -1.
         21   -1    0    0  501  502  0.00000000000E+00 -0.00000000000E+00 -0.82600499347E+03  0.82600499347E+03  0.00000000000E+00 0. -1.
         23    2    1    2    0    0 -0.30678121214E+02 -0.27519660417E+02 -0.10289382244E+03  0.14443526482E+03  0.92606307540E+02 0.  0.
        -24    2    1    2    0    0  0.23747214598E+02  0.99712195137E+02 -0.42391717777E+03  0.44323064155E+03  0.79001113553E+02 0.  0.
         13    1    4    4    0    0 -0.27316965740E+02  0.55285351030E+02 -0.19528405872E+03  0.20478903840E+03  0.00000000000E+00 0. -1.
        -14    1    4    4    0    0  0.51064180338E+02  0.44426844107E+02 -0.22863311904E+03  0.23844160315E+03  0.00000000000E+00 0.  1.
        -13    1    3    3    0    0 -0.31093607158E+02  0.11484785991E+02  0.13072355176E+01  0.33172602853E+02  0.00000000000E+00 0. -1.
         13    1    3    3    0    0  0.41548594408E+00 -0.39004446408E+02 -0.10420105796E+03  0.11126266196E+03  0.00000000000E+00 0.  1.
          2    1    1    2  501    0  0.69309066154E+01 -0.72192534720E+02 -0.26387400452E+03  0.27365907585E+03  0.00000000000E+00 0. -1.
<scales pt_clust_5="13000.00000" pt_clust_6="13000.00000" pt_clust_7="13000.00000" pt_clust_8="13000.00000" pt_clust_9="72.52448"></scales>
<clustering>
<clus scale="   72.524">  2  9  1 -1</clus>
<clus scale="   79.001">  5  6 -1 -1</clus>
<clus scale="   92.606">  7  8 -1 -1</clus>
<clus scale="   94.795">  2  5  1 -1</clus>
<clus scale="   72.524">  2  5  1 -1</clus>
</clustering>
</event>
<event>
 9    1  0.7835476E-005  0.3731288E+03  0.7546771E-02  0.1053503E+00
         21   -1    0    0  501  502  0.00000000000E+00  0.00000000000E+00  0.28680982223E+03  0.28680982223E+03  0.00000000000E+00 0.  1.
         -4   -1    0    0    0  501 -0.00000000000E+00 -0.00000000000E+00 -0.44137316486E+03  0.44137316486E+03  0.00000000000E+00 0.  1.
        -24    2    1    2    0    0 -0.24135800236E+03  0.78866490178E+02 -0.12594009022E+03  0.29481673382E+03  0.81131939722E+02 0.  0.
         23    2    1    2    0    0 -0.49748267267E+02 -0.20515418411E+02 -0.81044375724E+02  0.13187714574E+03  0.89037173375E+02 0.  0.
         11    1    3    3    0    0 -0.24079498760E+02  0.38726964150E+02 -0.22269910343E+02  0.50749866201E+02  0.00000000000E+00 0. -1.
        -12    1    3    3    0    0 -0.21727850360E+03  0.40139526029E+02 -0.10367017987E+03  0.24406686762E+03  0.00000000000E+00 0.  1.
        -13    1    4    4    0    0 -0.56638718070E+02 -0.44521117459E+02 -0.78850749980E+02  0.10680596920E+03  0.00000000000E+00 0. -1.
         13    1    4    4    0    0  0.68904508030E+01  0.24005699047E+02 -0.21936257438E+01  0.25071176537E+02  0.00000000000E+00 0.  1.
         -3    1    1    2    0  502  0.29110626963E+03 -0.58351071767E+02  0.52421123310E+02  0.30148910753E+03  0.00000000000E+00 0.  1.
<scales pt_clust_5="13000.00000" pt_clust_6="13000.00000" pt_clust_7="13000.00000" pt_clust_8="13000.00000" pt_clust_9="296.89680"></scales>
<clustering>
<clus scale="   81.132">  5  6 -1 -1</clus>
<clus scale="   89.037">  7  8 -1 -1</clus>
<clus scale="  102.581">  5  7 -1 -1</clus>
<clus scale="  296.897">  1  9  2 -1</clus>
<clus scale="  296.897">  1  5  2 -1</clus>
</clustering>
</event>
<event>
 9    1  0.7835476E-005  0.1461199E+03  0.7546771E-02  0.1210913E+00
          3   -1    0    0  502    0 -0.00000000000E+00  0.00000000000E+00  0.56089770511E+03  0.56089770511E+03  0.00000000000E+00 0. -1.
         21   -1    0    0  501  502  0.00000000000E+00 -0.00000000000E+00 -0.85232588838E+02  0.85232588838E+02  0.00000000000E+00 0. -1.
         23    2    1    2    0    0  0.39335041159E+02 -0.83671377370E+02  0.11494021000E+03  0.17324952836E+03  0.90862546459E+02 0.  0.
        -24    2    1    2    0    0 -0.10681322529E+03 -0.28856652967E+02  0.29524029901E+03  0.32623801352E+03  0.83801168181E+02 0.  0.
         13    1    4    4    0    0 -0.10266317617E+03 -0.33682844980E+02  0.17391207973E+03  0.20474294435E+03  0.00000000000E+00 0. -1.
        -14    1    4    4    0    0 -0.41500491169E+01  0.48261920129E+01  0.12132821929E+03  0.12149506917E+03  0.00000000000E+00 0.  1.
        -13    1    3    3    0    0  0.67641900744E+02 -0.66927051479E+02  0.96587638311E+02  0.13558697884E+03  0.00000000000E+00 0. -1.
         13    1    3    3    0    0 -0.28306859585E+02 -0.16744325891E+02  0.18352571691E+02  0.37662549525E+02  0.00000000000E+00 0.  1.
          4    1    1    2  501    0  0.67478184129E+02  0.11252803034E+03  0.65484607258E+02  0.14664275206E+03  0.00000000000E+00 0. -1.
<scales pt_clust_5="13000.00000" pt_clust_6="13000.00000" pt_clust_7="13000.00000" pt_clust_8="13000.00000" pt_clust_9="119.70128"></scales>
<clustering>
<clus scale="   83.801">  5  6 -1 -1</clus>
<clus scale="   90.863">  7  8 -1 -1</clus>
<clus scale="  129.631">  1  7  2 -1</clus>
<clus scale="  119.701">  2  9  1 -1</clus>
<clus scale="  119.701">  2  5  1 -1</clus>
</clustering>
</event>
<event>
 9    1  0.7835476E-005  0.9646243E+02  0.7546771E-02  0.1293091E+00
         21   -1    0    0  501  502  0.00000000000E+00  0.00000000000E+00  0.28208398432E+03  0.28208398432E+03  0.00000000000E+00 0.  1.
          1   -1    0    0  502    0 -0.00000000000E+00 -0.00000000000E+00 -0.86685980891E+02  0.86685980891E+02  0.00000000000E+00 0. -1.
        -24    2    1    2    0    0 -0.31038034651E+02  0.26703586290E+02 -0.32155001955E+02  0.96341258644E+02  0.81063264495E+02 0.  0.
         23    2    1    2    0    0  0.13411254268E+02  0.46840481353E+01  0.83789646794E+02  0.12422685012E+03  0.90607965063E+02 0.  0.
         13    1    3    3    0    0 -0.31487307560E+02 -0.24321422402E+02 -0.13691396772E+02  0.42076554880E+02  0.00000000000E+00 0. -1.
        -14    1    3    3    0    0  0.44927290863E+00  0.51025008692E+02 -0.18463605183E+02  0.54264703763E+02  0.00000000000E+00 0.  1.
        -13    1    4    4    0    0 -0.12359424492E+02  0.19828337305E+02  0.90604570455E+02  0.93568726193E+02  0.00000000000E+00 0.  1.
         13    1    4    4    0    0  0.25770678760E+02 -0.15144289170E+02 -0.68149236607E+01  0.30658123927E+02  0.00000000000E+00 0. -1.
          2    1    1    2  501    0  0.17626780383E+02 -0.31387634425E+02  0.14376335859E+03  0.14820185645E+03  0.00000000000E+00 0. -1.
<scales pt_clust_5="13000.00000" pt_clust_6="13000.00000" pt_clust_7="13000.00000" pt_clust_8="13000.00000" pt_clust_9="35.99843"></scales>
<clustering>
<clus scale="   35.998">  1  9  2 -1</clus>
<clus scale="   81.063">  5  6 -1 -1</clus>
<clus scale="   87.558">  2  5  1 -1</clus>
<clus scale="   90.608">  7  8 -1 -1</clus>
<clus scale="   35.998">  1  5  2 -1</clus>
</clustering>
</event>
<event>
 9    1  0.7835476E-005  0.1173979E+03  0.7546771E-02  0.1251608E+00
          1   -1    0    0  502    0 -0.00000000000E+00  0.00000000000E+00  0.62251826494E+02  0.62251826494E+02  0.00000000000E+00 0. -1.
         21   -1    0    0  501  502  0.00000000000E+00 -0.00000000000E+00 -0.51796376198E+03  0.51796376198E+03  0.00000000000E+00 0.  1.
         23    2    1    2    0    0 -0.66620684940E+02 -0.93869900348E+01 -0.24158652274E+02  0.11603812724E+03  0.91404459683E+02 0.  0.
        -24    2    1    2    0    0  0.97322341950E+02  0.86136319996E+01 -0.24743382456E+03  0.27751422201E+03  0.79024129091E+02 0.  0.
         13    1    4    4    0    0  0.32181819844E+01  0.19855430634E+02 -0.10172959195E+03  0.10369910655E+03  0.00000000000E+00 0. -1.
        -14    1    4    4    0    0  0.94104159965E+02 -0.11241798634E+02 -0.14570423261E+03  0.17381511545E+03  0.00000000000E+00 0.  1.
        -11    1    3    3    0    0 -0.89263305379E+02 -0.46951412375E+01 -0.12877869422E+02  0.90309587305E+02  0.00000000000E+00 0. -1.
         11    1    3    3    0    0  0.22642620438E+02 -0.46918487973E+01 -0.11280782851E+02  0.25728539935E+02  0.00000000000E+00 0.  1.
          2    1    1    2  501    0 -0.30701657010E+02  0.77335803528E+00 -0.18411945865E+03  0.18666323923E+03  0.00000000000E+00 0. -1.
<scales pt_clust_5="13000.00000" pt_clust_6="13000.00000" pt_clust_7="13000.00000" pt_clust_8="13000.00000" pt_clust_9="30.71140"></scales>
<clustering>
<clus scale="   30.711">  2  9  1 -1</clus>
<clus scale="   79.024">  5  6 -1 -1</clus>
<clus scale="   91.404">  7  8 -1 -1</clus>
<clus scale="  108.038">  2  5  1 -1</clus>
<clus scale="   30.711">  2  5  1 -1</clus>
</clustering>
</event>
<event>
 9    1  0.7835476E-005  0.2373745E+03  0.7546771E-02  0.1122888E+00
         21   -1    0    0  501  502  0.00000000000E+00  0.00000000000E+00  0.10770298974E+03  0.10770298974E+03  0.00000000000E+00 0. -1.
          1   -1    0    0  502    0 -0.00000000000E+00 -0.00000000000E+00 -0.13056662345E+04  0.13056662345E+04  0.00000000000E+00 0. -1.
         23    2    1    2    0    0  0.12671964947E+03 -0.17304303827E+03 -0.11138415914E+04  0.11378790150E+04  0.90132121687E+02 0.  0.
        -24    2    1    2    0    0 -0.12260141638E+03  0.14808449989E+03 -0.10336797063E+03  0.24370484767E+03  0.10838352743E+03 0.  0.
         11    1    4    4    0    0 -0.75532243829E+02  0.68085269163E+02  0.40124228008E+01  0.10176847877E+03  0.00000000000E+00 0. -1.
        -12    1    4    4    0    0 -0.47069172554E+02  0.79999230728E+02 -0.10738039343E+03  0.14193636890E+03  0.00000000000E+00 0.  1.
        -11    1    3    3    0    0  0.13175279123E+02 -0.86865769495E+02 -0.35063024143E+03  0.36147035300E+03  0.00000000000E+00 0.  1.
         11    1    3    3    0    0  0.11354437035E+03 -0.86177268771E+02 -0.76321134999E+03  0.77640866201E+03  0.00000000000E+00 0. -1.
          2    1    1    2  501    0 -0.41182330855E+01  0.24958538375E+02  0.19246317281E+02  0.31785361575E+02  0.00000000000E+00 0. -1.
<scales pt_clust_5="13000.00000" pt_clust_6="13000.00000" pt_clust_7="13000.00000" pt_clust_8="13000.00000" pt_clust_9="25.29602"></scales>
<clustering>
<clus scale="   25.296">  1  9  2 -1</clus>
<clus scale="   90.132">  7  8 -1 -1</clus>
<clus scale="  108.384">  5  6 -1 -1</clus>
<clus scale="  229.616">  2  7  1 -1</clus>
<clus scale="   25.296">  1  5  2 -1</clus>
</clustering>
</event>
<event>
 9    1  0.7835476E-005  0.1631099E+03  0.7546771E-02  0.1186642E+00
          1   -1    0    0  502    0 -0.00000000000E+00  0.00000000000E+00  0.99591505593E+03  0.99591505593E+03  0.00000000000E+00 0. -1.
         21   -1    0    0  501  502  0.00000000000E+00 -0.00000000000E+00 -0.36486231684E+02  0.36486231684E+02  0.00000000000E+00 0.  1.
         23    2    1    2    0    0 -0.78484345988E+02 -0.11955185810E+03  0.70649266353E+03  0.72660273525E+03  0.91472465325E+02 0.  0.
        -24    2    1    2    0    0  0.72647452869E+02  0.93727649512E+02  0.22532304497E+03  0.26754357580E+03  0.82137480280E+02 0.  0.
         11    1    4    4    0    0  0.68721330999E+02  0.82969054649E+02  0.23090647347E+03  0.25480244280E+03  0.00000000000E+00 0. -1.
        -12    1    4    4    0    0  0.39261218696E+01  0.10758594863E+02 -0.55834285037E+01  0.12741133004E+02  0.00000000000E+00 0.  1.
        -13    1    3    3    0    0 -0.58395989620E+01 -0.87243240519E+02  0.30361152415E+03  0.31595164429E+03  0.00000000000E+00 0. -1.
         13    1    3    3    0    0 -0.72644747026E+02 -0.32308617583E+02  0.40288113938E+03  0.41065109096E+03  0.00000000000E+00 0.  1.
          2    1    1    2  501    0  0.58368931192E+01  0.25824208590E+02  0.27613115749E+02  0.38254976564E+02  0.00000000000E+00 0. -1.
<scales pt_clust_5="13000.00000" pt_clust_6="13000.00000" pt_clust_7="13000.00000" pt_clust_8="13000.00000" pt_clust_9="26.47563"></scales>
<clustering>
<clus scale="   26.476">  2  9  1 -1</clus>
<clus scale="   82.137">  5  6 -1 -1</clus>
<clus scale="   91.472">  7  8 -1 -1</clus>
<clus scale="  158.064">  2  5  1 -1</clus>
<clus scale="   26.476">  2  5  1 -1</clus>
</clustering>
</event>
<event>
 9    1  0.7835476E-005  0.1638505E+03  0.7546771E-02  0.1186678E+00
         21   -1    0    0  501  502  0.00000000000E+00  0.00000000000E+00  0.13686067446E+03  0.13686067446E+03  0.00000000000E+00 0. -1.
          1   -1    0    0  502    0 -0.00000000000E+00 -0.00000000000E+00 -0.86077310984E+03  0.86077310984E+03  0.00000000000E+00 0. -1.
         23    2    1    2    0    0 -0.66570888348E+02 -0.12884194638E+03 -0.78524175805E+03  0.80390016882E+03  0.92838206086E+02 0.  0.
        -24    2    1    2    0    0  0.26808810193E+02  0.64217078878E+02  0.16641365077E+02  0.10567448812E+03  0.77766425167E+02 0.  0.
         13    1    4    4    0    0  0.31958205042E+02  0.40057311412E+02 -0.25185037173E+02  0.57098171289E+02  0.00000000000E+00 0. -1.
        -14    1    4    4    0    0 -0.51493948492E+01  0.24159767466E+02  0.41826402250E+02  0.48576316827E+02  0.00000000000E+00 0.  1.
        -13    1    3    3    0    0 -0.48920577523E+02 -0.97113177264E+01 -0.28765749382E+03  0.29194925304E+03  0.00000000000E+00 0.  1.
         13    1    3    3    0    0 -0.17650310826E+02 -0.11913062866E+03 -0.49758426423E+03  0.51195091578E+03  0.00000000000E+00 0. -1.
          2    1    1    2  501    0  0.39762078155E+02  0.64624867506E+02  0.44687957588E+02  0.88059127368E+02  0.00000000000E+00 0. -1.
<scales pt_clust_5="13000.00000" pt_clust_6="13000.00000" pt_clust_7="13000.00000" pt_clust_8="13000.00000" pt_clust_9="75.87751"></scales>
<clustering>
<clus scale="   75.878">  1  9  2 -1</clus>
<clus scale="   77.766">  5  6 -1 -1</clus>
<clus scale="   92.838">  7  8 -1 -1</clus>
<clus scale="  155.807">  1  5  2 -1</clus>
<clus scale="   75.878">  1  5  2 -1</clus>
</clustering>
</event>
<event>
 9    1  0.7835476E-005  0.1028355E+03  0.7546771E-02  0.1279421E+00
         21   -1    0    0  501  502  0.00000000000E+00  0.00000000000E+00  0.32812742886E+02  0.32812742886E+02  0.00000000000E+00 0.  1.
         -4   -1    0    0    0  501 -0.00000000000E+00 -0.00000000000E+00 -0.11058163583E+04  0.11058163583E+04  0.00000000000E+00 0.  1.
        -24    2    1    2    0    0 -0.36451737586E+02  0.12775473107E+02 -0.60333339384E+03  0.60991122378E+03  0.80551690726E+02 0.  0.
         23    2    1    2    0    0  0.85781231984E+02 -0.78415605899E+02 -0.21294184222E+03  0.25917847989E+03  0.91224060755E+02 0.  0.
         13    1    3    3    0    0 -0.43609310483E+02  0.11458659465E+02 -0.15267319702E+03  0.15919226716E+03  0.00000000000E+00 0. -1.
        -14    1    3    3    0    0  0.71575728979E+01  0.13168136420E+01 -0.45066019683E+03  0.45071895661E+03  0.00000000000E+00 0.  1.
        -11    1    4    4    0    0  0.12574150589E+02 -0.21252074053E+02  0.22518042136E+01  0.24795776593E+02  0.00000000000E+00 0.  1.
         11    1    4    4    0    0  0.73207081395E+02 -0.57163531846E+02 -0.21519364643E+03  0.23438270330E+03  0.00000000000E+00 0. -1.
         -3    1    1    2    0  502 -0.49329494398E+02  0.65640132792E+02 -0.25672837937E+03  0.26953939754E+03  0.00000000000E+00 0.  1.
<scales pt_clust_5="13000.00000" pt_clust_6="13000.00000" pt_clust_7="13000.00000" pt_clust_8="13000.00000" pt_clust_9="82.10988"></scales>
<clustering>
<clus scale="   80.552">  5  6 -1 -1</clus>
<clus scale="   82.110">  1  9  2 -1</clus>
<clus scale="   91.224">  7  8 -1 -1</clus>
<clus scale="   93.498">  2  5  1 -1</clus>
<clus scale="   82.110">  1  5  2 -1</clus>
</clustering>
</event>
<event>
 9    1  0.7835476E-005  0.1631101E+03  0.7546771E-02  0.1185874E+00
         -2   -1    0    0    0  501 -0.00000000000E+00  0.00000000000E+00  0.25118489745E+03  0.25118489745E+03  0.00000000000E+00 0.  1.
         21   -1    0    0  501  502  0.00000000000E+00 -0.00000000000E+00 -0.33988287151E+03  0.33988287151E+03  0.00000000000E+00 0.  1.
        -24    2    1    2    0    0 -0.83884793483E+00  0.14163651356E+03  0.11367245703E+03  0.19877414077E+03  0.80796818699E+02 0.  0.
         23    2    1    2    0    0 -0.76649809358E+02 -0.13965094933E+03 -0.24644073409E+03  0.30312734486E+03  0.75997176639E+02 0.  0.
         11    1    3    3    0    0  0.34098586159E+02  0.57498399093E+02  0.24233296893E+02  0.71105781443E+02  0.00000000000E+00 0. -1.
        -12    1    3    3    0    0 -0.34937434094E+02  0.84138114469E+02  0.89439160133E+02  0.12766835933E+03  0.00000000000E+00 0.  1.
        -11    1    4    4    0    0 -0.75882685688E+02 -0.11799180849E+03 -0.24381861280E+03  0.28129657802E+03  0.00000000000E+00 0.  1.
         11    1    4    4    0    0 -0.76712367072E+00 -0.21659140844E+02 -0.26221212951E+01  0.21830766842E+02  0.00000000000E+00 0. -1.
         -1    1    1    2    0  502  0.77488657293E+02 -0.19855642283E+01  0.44070303009E+02  0.89166283324E+02  0.00000000000E+00 0.  1.
<scales pt_clust_5="13000.00000" pt_clust_6="13000.00000" pt_clust_7="13000.00000" pt_clust_8="13000.00000" pt_clust_9="77.51413"></scales>
<clustering>
<clus scale="   75.997">  7  8 -1 -1</clus>
<clus scale="   77.514">  2  9  1 -1</clus>
<clus scale="   80.797">  5  6 -1 -1</clus>
<clus scale="  160.787">  2  7  1 -1</clus>
<clus scale="   77.514">  2  5  1 -1</clus>
</clustering>
</event>
<event>
 9    1  0.7835476E-005  0.4293647E+03  0.7546771E-02  0.1050811E+00
          1   -1    0    0  502    0 -0.00000000000E+00  0.00000000000E+00  0.85401896341E+03  0.85401896341E+03  0.00000000000E+00 0. -1.
         21   -1    0    0  501  502  0.00000000000E+00 -0.00000000000E+00 -0.41397675709E+03  0.41397675709E+03  0.00000000000E+00 0. -1.
         23    2    1    2    0    0  0.24217252120E+03  0.58064013440E+02  0.32352674466E+02  0.26631770784E+03  0.88653630975E+02 0.  0.
        -24    2    1    2    0    0  0.70273063294E+02 -0.39405500923E+03  0.35237377488E+03  0.53953947771E+03  0.81962900554E+02 0.  0.
         11    1    4    4    0    0 -0.18781493203E+02 -0.75033667010E+02  0.65164303063E+02  0.10113941895E+03  0.00000000000E+00 0. -1.
        -12    1    4    4    0    0  0.89054556497E+02 -0.31902134222E+03  0.28720947181E+03  0.43840005876E+03  0.00000000000E+00 0.  1.
        -11    1    3    3    0    0  0.16201600823E+02  0.19599532280E+02  0.26921093475E+02  0.37032132112E+02  0.00000000000E+00 0.  1.
         11    1    3    3    0    0  0.22597092037E+03  0.38464481159E+02  0.54315809903E+01  0.22928557573E+03  0.00000000000E+00 0. -1.
          2    1    1    2  501    0 -0.31244558449E+03  0.33599099579E+03  0.55315756982E+02  0.46213853495E+03  0.00000000000E+00 0. -1.
<scales pt_clust_5="13000.00000" pt_clust_6="13000.00000" pt_clust_7="13000.00000" pt_clust_8="13000.00000" pt_clust_9="421.46905"></scales>
<clustering>
<clus scale="   81.963">  5  6 -1 -1</clus>
<clus scale="   88.654">  7  8 -1 -1</clus>
<clus scale="  264.345">  1  7  2 -1</clus>
<clus scale="  421.469">  2  9  1 -1</clus>
<clus scale="  421.469">  2  5  1 -1</clus>
</clustering>
</event>
<event>
 9    1  0.7835476E-005  0.8766177E+02  0.7546771E-02  0.1309146E+00
         21   -1    0    0  501  502  0.00000000000E+00  0.00000000000E+00  0.39731944334E+03  0.39731944334E+03  0.00000000000E+00 0.  1.
         -4   -1    0    0    0  501 -0.00000000000E+00 -0.00000000000E+00 -0.36457304435E+02  0.36457304435E+02  0.00000000000E+00 0.  1.
        -24    2    1    2    0    0 -0.31564323909E+02  0.17901520552E+02  0.80997222759E+02  0.11850276977E+03  0.78521241499E+02 0.  0.
         23    2    1    2    0    0  0.53561870504E+02  0.24399407440E+02  0.19353285770E+03  0.21665103503E+03  0.77578985011E+02 0.  0.
         13    1    3    3    0    0 -0.23857066656E+02  0.12533736718E+02  0.96601394187E+02  0.10028999723E+03  0.00000000000E+00 0. -1.
        -14    1    3    3    0    0 -0.77072572524E+01  0.53677838344E+01 -0.15604171428E+02  0.18212772540E+02  0.00000000000E+00 0.  1.
        -11    1    4    4    0    0 -0.94289877431E+01  0.32506980092E+02  0.65110859509E+02  0.73382788109E+02  0.00000000000E+00 0. -1.
         11    1    4    4    0    0  0.62990858247E+02 -0.81075726519E+01  0.12842199819E+03  0.14326824692E+03  0.00000000000E+00 0.  1.
         -3    1    1    2    0  502 -0.21997546595E+02 -0.42300927993E+02  0.86332058443E+02  0.98622942971E+02  0.00000000000E+00 0.  1.
<scales pt_clust_5="13000.00000" pt_clust_6="13000.00000" pt_clust_7="13000.00000" pt_clust_8="13000.00000" pt_clust_9="47.67872"></scales>
<clustering>
<clus scale="   47.679">  1  9  2 -1</clus>
<clus scale="   77.579">  7  8 -1 -1</clus>
<clus scale="   78.521">  5  6 -1 -1</clus>
<clus scale="   86.819">  1  7  2 -1</clus>
<clus scale="   47.679">  1  5  2 -1</clus>
</clustering>
</event>
<event>
 9    1  0.7835476E-005  0.1159654E+03  0.7546771E-02  0.1253622E+00
          1   -1    0    0  502    0 -0.00000000000E+00  0.00000000000E+00  0.26239397716E+03  0.26239397716E+03  0.00000000000E+00 0. -1.
         21   -1    0    0  501  502  0.00000000000E+00 -0.00000000000E+00 -0.18564180845E+03  0.18564180845E+03  0.00000000000E+00 0. -1.
        -24    2    1    2    0    0 -0.43523446308E+02  0.63647362120E+02  0.17849743264E+03  0.21022679576E+03  0.79929313228E+02 0.  0.
         23    2    1    2    0    0  0.33486276026E+02 -0.61395816442E+01 -0.13832634766E+03  0.16891729740E+03  0.90773618175E+02 0.  0.
         11    1    3    3    0    0 -0.41777232836E+02  0.53370515951E+02  0.18561644290E+03  0.19760367666E+03  0.00000000000E+00 0. -1.
        -12    1    3    3    0    0 -0.17462134724E+01  0.10276846169E+02 -0.71190102592E+01  0.12623119097E+02  0.00000000000E+00 0.  1.
        -11    1    4    4    0    0  0.57302609836E+02  0.18629161792E+02 -0.10493409650E+03  0.12100330314E+03  0.00000000000E+00 0. -1.
         11    1    4    4    0    0 -0.23816333810E+02 -0.24768743436E+02 -0.33392251167E+02  0.47913994256E+02  0.00000000000E+00 0.  1.
          2    1    1    2  501    0  0.10037170282E+02 -0.57507780476E+02  0.36581083737E+02  0.68891692459E+02  0.00000000000E+00 0. -1.
<scales pt_clust_5="13000.00000" pt_clust_6="13000.00000" pt_clust_7="13000.00000" pt_clust_8="13000.00000" pt_clust_9="58.37716"></scales>
<clustering>
<clus scale="   58.377">  2  9  1 -1</clus>
<clus scale="   79.929">  5  6 -1 -1</clus>
<clus scale="   90.774">  7  8 -1 -1</clus>
<clus scale="  107.689">  1  5  2 -1</clus>
<clus scale="   58.377">  2  5  1 -1</clus>
</clustering>
</event>
<event>
 9    1  0.7835476E-005  0.2154336E+03  0.7546771E-02  0.1138366E+00
         21   -1    0    0  501  502  0.00000000000E+00  0.00000000000E+00  0.12687384266E+03  0.12687384266E+03  0.00000000000E+00 0. -1.
          1   -1    0    0  502    0 -0.00000000000E+00 -0.00000000000E+00 -0.12879955851E+04  0.12879955851E+04  0.00000000000E+00 0. -1.
        -24    2    1    2    0    0  0.21536923121E+03 -0.36427086782E+02 -0.31776483469E+03  0.39360972816E+03  0.79014489352E+02 0.  0.
         23    2    1    2    0    0 -0.86898102181E+02  0.19860157515E+03 -0.11134638799E+03  0.26057264390E+03  0.92229164674E+02 0.  0.
         11    1    3    3    0    0  0.14601339806E+03  0.87163849965E+01 -0.23329419443E+03  0.27535807404E+03  0.00000000000E+00 0. -1.
        -12    1    3    3    0    0  0.69355833149E+02 -0.45143471778E+02 -0.84470640260E+02  0.11825165412E+03  0.00000000000E+00 0.  1.
        -13    1    4    4    0    0 -0.59490120119E+02  0.16011822823E+03 -0.40717515840E+02  0.17559851223E+03  0.00000000000E+00 0. -1.
         13    1    4    4    0    0 -0.27407982062E+02  0.38483346921E+02 -0.70628872155E+02  0.84974131668E+02  0.00000000000E+00 0.  1.
          2    1    1    2  501    0 -0.12847112903E+03 -0.16217448837E+03 -0.73201051978E+03  0.76068705572E+03  0.00000000000E+00 0. -1.
<scales pt_clust_5="13000.00000" pt_clust_6="13000.00000" pt_clust_7="13000.00000" pt_clust_8="13000.00000" pt_clust_9="206.89475"></scales>
<clustering>
<clus scale="   79.014">  5  6 -1 -1</clus>
<clus scale="   92.229">  7  8 -1 -1</clus>
<clus scale="  206.895">  1  9  2 -1</clus>
<clus scale="  210.116">  2  5  1 -1</clus>
<clus scale="  206.895">  1  5  2 -1</clus>
</clustering>
</event>
<event>
 9    1  0.7835476E-005  0.9067810E+02  0.7546771E-02  0.1312821E+00
         21   -1    0    0  501  502  0.00000000000E+00  0.00000000000E+00  0.36559480390E+02  0.36559480390E+02  0.00000000000E+00 0. -1.
          1   -1    0    0  502    0 -0.00000000000E+00 -0.00000000000E+00 -0.71409234804E+03  0.71409234804E+03  0.00000000000E+00 0. -1.
        -24    2    1    2    0    0  0.31733843322E+02  0.18038693932E+02 -0.49568341320E+03  0.50165846856E+03  0.68020156311E+02 0.  0.
         23    2    1    2    0    0  0.80500885458E+01  0.42717447624E+02 -0.11529865845E+03  0.15048915479E+03  0.86392249712E+02 0.  0.
         11    1    3    3    0    0  0.13092876699E+02  0.41620359452E+02 -0.21587751265E+03  0.22024254405E+03  0.00000000000E+00 0. -1.
        -12    1    3    3    0    0  0.18640966623E+02 -0.23581665520E+02 -0.27980590055E+03  0.28141592451E+03  0.00000000000E+00 0.  1.
        -13    1    4    4    0    0  0.25314622280E+02  0.64087812582E+02 -0.87898367840E+02  0.11168796216E+03  0.00000000000E+00 0. -1.
         13    1    4    4    0    0 -0.17264533734E+02 -0.21370364958E+02 -0.27400290611E+02  0.38801192624E+02  0.00000000000E+00 0.  1.
          2    1    1    2  501    0 -0.39783931868E+02 -0.60756141556E+02 -0.66550795998E+02  0.98504205086E+02  0.00000000000E+00 0. -1.
<scales pt_clust_5="13000.00000" pt_clust_6="13000.00000" pt_clust_7="13000.00000" pt_clust_8="13000.00000" pt_clust_9="72.62279"></scales>
<clustering>
<clus scale="   68.020">  5  6 -1 -1</clus>
<clus scale="   72.623">  1  9  2 -1</clus>
<clus scale="   73.387">  2  5  1 -1</clus>
<clus scale="   86.392">  7  8 -1 -1</clus>
<clus scale="   72.623">  1  5  2 -1</clus>
</clustering>
</event>
<event>
 9    1  0.7835476E-005  0.2371368E+03  0.7546771E-02  0.1131007E+00
         -4   -1    0    0    0  501 -0.00000000000E+00  0.00000000000E+00  0.70120714027E+03  0.70120714027E+03  0.00000000000E+00 0.  1.
         21   -1    0    0  501  502  0.00000000000E+00 -0.00000000000E+00 -0.26984652360E+03  0.26984652360E+03  0.00000000000E+00 0.  1.
        -24    2    1    2    0    0  0.41548912218E+02 -0.16422417044E+03  0.41977197164E+03  0.46013852565E+03  0.82601842257E+02 0.  0.
         23    2    1    2    0    0 -0.16850002617E+03 -0.53453162367E+02  0.12296371285E+03  0.23540758427E+03  0.95116542548E+02 0.  0.
         11    1    3    3    0    0 -0.24349715348E+02 -0.27790066113E+02  0.82843413817E+02  0.90709578463E+02  0.00000000000E+00 0. -1.
        -12    1    3    3    0    0  0.65898627566E+02 -0.13643410433E+03  0.33692855782E+03  0.36942894718E+03  0.00000000000E+00 0.  1.
        -13    1    4    4    0    0 -0.76556428819E+02 -0.34244700018E+02  0.11332915265E+03  0.14098610964E+03  0.00000000000E+00 0. -1.
         13    1    4    4    0    0 -0.91943597354E+02 -0.19208462349E+02  0.96345602037E+01  0.94421474626E+02  0.00000000000E+00 0.  1.
         -3    1    1    2    0  502  0.12695111396E+03  0.21767733281E+03 -0.11137506782E+03  0.27550755395E+03  0.00000000000E+00 0.  1.
<scales pt_clust_5="13000.00000" pt_clust_6="13000.00000" pt_clust_7="13000.00000" pt_clust_8="13000.00000" pt_clust_9="217.22498"></scales>
<clustering>
<clus scale="   82.602">  5  6 -1 -1</clus>
<clus scale="   95.117">  7  8 -1 -1</clus>
<clus scale="  188.465">  1  5  2 -1</clus>
<clus scale="  217.225">  2  9  1 -1</clus>
<clus scale="  217.225">  2  5  1 -1</clus>
</clustering>
</event>
<event>
 9    1  0.7835476E-005  0.1442810E+03  0.7546771E-02  0.1229872E+00
         21   -1    0    0  501  502  0.00000000000E+00  0.00000000000E+00  0.11916852004E+03  0.11916852004E+03  0.00000000000E+00 0. -1.
         -4   -1    0    0    0  501 -0.00000000000E+00 -0.00000000000E+00 -0.30832486200E+03  0.30832486200E+03  0.00000000000E+00 0.  1.
        -24    2    1    2    0    0 -0.20756549144E+02  0.37040971235E+02 -0.12623054324E+02  0.91330632300E+02  0.79869111761E+02 0.  0.
         23    2    1    2    0    0 -0.65274718182E+02 -0.90786458945E+02 -0.19790006171E+02  0.14945867188E+03  0.97176541892E+02 0.  0.
         11    1    3    3    0    0 -0.42502043691E+02  0.28723508135E+02 -0.32492693876E+02  0.60722638224E+02  0.00000000000E+00 0. -1.
        -12    1    3    3    0    0  0.21745494547E+02  0.83174630992E+01  0.19869639552E+02  0.30607994077E+02  0.00000000000E+00 0.  1.
        -11    1    4    4    0    0  0.21658280282E+02 -0.44655270573E+02 -0.40765093612E+01  0.49797512220E+02  0.00000000000E+00 0.  1.
         11    1    4    4    0    0 -0.86932998464E+02 -0.46131188372E+02 -0.15713496810E+02  0.99661159659E+02  0.00000000000E+00 0. -1.
         -3    1    1    2    0  502  0.86031267326E+02  0.53745487710E+02 -0.15674328146E+03  0.18670407786E+03  0.00000000000E+00 0.  1.
<scales pt_clust_5="13000.00000" pt_clust_6="13000.00000" pt_clust_7="13000.00000" pt_clust_8="13000.00000" pt_clust_9="106.64777"></scales>
<clustering>
<clus scale="   79.869">  5  6 -1 -1</clus>
<clus scale="   90.454">  2  5  1 -1</clus>
<clus scale="   97.177">  7  8 -1 -1</clus>
<clus scale="  106.648">  1  9  2 -1</clus>
<clus scale="  106.648">  1  5  2 -1</clus>
</clustering>
</event>
<event>
 9    1  0.7835476E-005  0.2638594E+03  0.7546771E-02  0.1105355E+00
          1   -1    0    0  502    0 -0.00000000000E+00  0.00000000000E+00  0.63094193440E+03  0.63094193440E+03  0.00000000000E+00 0. -1.
         21   -1    0    0  501  502  0.00000000000E+00 -0.00000000000E+00 -0.18754578147E+03  0.18754578147E+03  0.00000000000E+00 0. -1.
         23    2    1    2    0    0  0.82106532650E+02 -0.26324339102E+03  0.30113628120E+03  0.41831629159E+03  0.90922463341E+02 0.  0.
        -24    2    1    2    0    0 -0.14277529526E+03  0.15690073673E+03  0.20982018184E+02  0.22784099563E+03  0.80427906097E+02 0.  0.
         13    1    4    4    0    0 -0.93239997676E+02  0.14604065535E+03  0.31348775173E+02  0.17608042449E+03  0.00000000000E+00 0. -1.
        -14    1    4    4    0    0 -0.49535297585E+02  0.10860081372E+02 -0.10366756989E+02  0.51760571140E+02  0.00000000000E+00 0.  1.
        -11    1    3    3    0    0  0.17889134243E+02 -0.11292107925E+03  0.18616472225E+03  0.21846852193E+03  0.00000000000E+00 0.  1.
         11    1    3    3    0    0  0.64217398407E+02 -0.15032231176E+03  0.11497155895E+03  0.19984776966E+03  0.00000000000E+00 0. -1.
          2    1    1    2  501    0  0.60668762611E+02  0.10634265429E+03  0.12127785355E+03  0.17233042865E+03  0.00000000000E+00 0. -1.
<scales pt_clust_5="13000.00000" pt_clust_6="13000.00000" pt_clust_7="13000.00000" pt_clust_8="13000.00000" pt_clust_9="122.43151"></scales>
<clustering>
<clus scale="   80.428">  5  6 -1 -1</clus>
<clus scale="   90.922">  7  8 -1 -1</clus>
<clus scale="  122.432">  2  9  1 -1</clus>
<clus scale="  260.430">  2  5  1 -1</clus>
<clus scale="  122.432">  2  5  1 -1</clus>
</clustering>
</event>
<event>
 9    1  0.7835476E-005  0.1394042E+03  0.7546771E-02  0.1239631E+00
         21   -1    0    0  501  502  0.00000000000E+00  0.00000000000E+00  0.28929957440E+03  0.28929957440E+03  0.00000000000E+00 0.  1.
         -2   -1    0    0    0  501 -0.00000000000E+00 -0.00000000000E+00 -0.13785341651E+03  0.13785341651E+03  0.00000000000E+00 0.  1.
        -24    2    1    2    0    0 -0.54002178385E+01 -0.33695106907E+02 -0.44984328360E+02  0.93626308771E+02  0.74684491790E+02 0.  0.
         23    2    1    2    0    0  0.10501811069E+02 -0.93385432249E+02  0.14812040121E+03  0.19747759540E+03  0.90700719069E+02 0.  0.
         13    1    3    3    0    0  0.22280381028E+02  0.70461111025E+01  0.45105622987E+01  0.23799332610E+02  0.00000000000E+00 0. -1.
        -14    1    3    3    0    0 -0.27680598866E+02 -0.40741218010E+02 -0.49494890659E+02  0.69826976161E+02  0.00000000000E+00 0.  1.
        -13    1    4    4    0    0  0.22687366231E+02 -0.19570479490E+02 -0.17064371043E+01  0.30010534509E+02  0.00000000000E+00 0. -1.
         13    1    4    4    0    0 -0.12185555162E+02 -0.73814952759E+02  0.14982683831E+03  0.16746706089E+03  0.00000000000E+00 0.  1.
         -1    1    1    2    0  502 -0.51015932307E+01  0.12708053916E+03  0.48310085046E+02  0.13604908674E+03  0.00000000000E+00 0.  1.
<scales pt_clust_5="13000.00000" pt_clust_6="13000.00000" pt_clust_7="13000.00000" pt_clust_8="13000.00000" pt_clust_9="105.86281"></scales>
<clustering>
<clus scale="   74.684">  5  6 -1 -1</clus>
<clus scale="   82.111">  2  5  1 -1</clus>
<clus scale="   90.701">  7  8 -1 -1</clus>
<clus scale="  105.863">  1  9  2 -1</clus>
<clus scale="  105.863">  1  5  2 -1</clus>
</clustering>
</event>
<event>
 9    1  0.7835476E-005  0.2270763E+03  0.7546771E-02  0.1128783E+00
         21   -1    0    0  501  502  0.00000000000E+00  0.00000000000E+00  0.44449119667E+02  0.44449119667E+02  0.00000000000E+00 0. -1.
          1   -1    0    0  502    0 -0.00000000000E+00 -0.00000000000E+00 -0.17642108686E+04  0.17642108686E+04  0.00000000000E+00 0. -1.
         23    2    1    2    0    0  0.19603640633E+03  0.10225794440E+02 -0.79149320432E+03  0.82065216384E+03  0.92052387504E+02 0.  0.
        -24    2    1    2    0    0 -0.22828558155E+03  0.47220314704E+02 -0.55304286113E+03  0.60704276264E+03  0.91106775644E+02 0.  0.
         13    1    4    4    0    0 -0.20798744337E+03  0.21319670463E+02 -0.51977565598E+03  0.56024997769E+03  0.00000000000E+00 0. -1.
        -14    1    4    4    0    0 -0.20298138178E+02  0.25900644241E+02 -0.33267205149E+02  0.46792784957E+02  0.00000000000E+00 0.  1.
        -13    1    3    3    0    0  0.34824145192E+02 -0.20295937657E+02 -0.70348119943E+02  0.81077149390E+02  0.00000000000E+00 0.  1.
         13    1    3    3    0    0  0.16121226114E+03  0.30521732097E+02 -0.72114508438E+03  0.73957501445E+03  0.00000000000E+00 0. -1.
          2    1    1    2  501    0  0.32249175212E+02 -0.57446109144E+02 -0.37522568353E+03  0.38096506183E+03  0.00000000000E+00 0. -1.
<scales pt_clust_5="13000.00000" pt_clust_6="13000.00000" pt_clust_7="13000.00000" pt_clust_8="13000.00000" pt_clust_9="65.87920"></scales>
<clustering>
<clus scale="   65.879">  1  9  2 -1</clus>
<clus scale="   91.107">  5  6 -1 -1</clus>
<clus scale="   92.052">  7  8 -1 -1</clus>
<clus scale="  226.695">  1  5  2 -1</clus>
<clus scale="   65.879">  1  5  2 -1</clus>
</clustering>
</event>
<event>
 9    1  0.7835476E-005  0.1171723E+03  0.7546771E-02  0.1251223E+00
         21   -1    0    0  501  502  0.00000000000E+00  0.00000000000E+00  0.15448631828E+03  0.15448631828E+03  0.00000000000E+00 0.  1.
          3   -1    0    0  502    0 -0.00000000000E+00 -0.00000000000E+00 -0.13764264682E+03  0.13764264682E+03  0.00000000000E+00 0. -1.
        -24    2    1    2    0    0  0.16440301599E+02 -0.84683305405E+02 -0.58122479824E+02  0.13081655761E+03  0.79329712929E+02 0.  0.
         23    2    1    2    0    0 -0.22899887654E+02  0.45639811701E+02  0.57023681904E+02  0.11786067726E+03  0.89621658544E+02 0.  0.
         11    1    3    3    0    0 -0.27975751525E+02 -0.59919456842E+02 -0.28927352273E+02  0.72178775905E+02  0.00000000000E+00 0. -1.
        -12    1    3    3    0    0  0.44416053124E+02 -0.24763848563E+02 -0.29195127550E+02  0.58637781706E+02  0.00000000000E+00 0.  1.
        -11    1    4    4    0    0  0.23050941666E+02 -0.90331973949E+01  0.35478930116E+02  0.43263137300E+02  0.00000000000E+00 0.  1.
         11    1    4    4    0    0 -0.45950829320E+02  0.54673009095E+02  0.21544751787E+02  0.74597539962E+02  0.00000000000E+00 0. -1.
          4    1    1    2  501    0  0.64595860550E+01  0.39043493705E+02  0.17942469374E+02  0.43451730229E+02  0.00000000000E+00 0. -1.
<scales pt_clust_5="13000.00000" pt_clust_6="13000.00000" pt_clust_7="13000.00000" pt_clust_8="13000.00000" pt_clust_9="39.57424"></scales>
<clustering>
<clus scale="   39.574">  1  9  2 -1</clus>
<clus scale="   79.330">  5  6 -1 -1</clus>
<clus scale="   89.622">  7  8 -1 -1</clus>
<clus scale="  109.501">  2  5  1 -1</clus>
<clus scale="   39.574">  1  5  2 -1</clus>
</clustering>
</event>
<event>
 9    1  0.7835476E-005  0.9051668E+02  0.7546771E-02  0.1307206E+00
         21   -1    0    0  501  502  0.00000000000E+00  0.00000000000E+00  0.16491041346E+03  0.16491041346E+03  0.00000000000E+00 0.  1.
          1   -1    0    0  502    0 -0.00000000000E+00 -0.00000000000E+00 -0.37324175983E+03  0.37324175983E+03  0.00000000000E+00 0. -1.
         23    2    1    2    0    0  0.12054716068E+02  0.12495212170E+00 -0.12355411523E+03  0.15311631485E+03  0.89630657086E+02 0.  0.
        -24    2    1    2    0    0 -0.15107950012E+02 -0.29285738248E+02  0.13642336926E+03  0.16190051991E+03  0.80712688281E+02 0.  0.
         11    1    4    4    0    0 -0.22161799888E+02  0.24285543509E+02  0.57877460816E+02  0.66563754915E+02  0.00000000000E+00 0. -1.
        -12    1    4    4    0    0  0.70538498759E+01 -0.53571281757E+02  0.78545908444E+02  0.95336764999E+02  0.00000000000E+00 0.  1.
        -13    1    3    3    0    0  0.33370781689E+02  0.89843689235E+01 -0.12528846397E+03  0.12996740807E+03  0.00000000000E+00 0. -1.
         13    1    3    3    0    0 -0.21316065620E+02 -0.88594168018E+01  0.17343487398E+01  0.23148906781E+02  0.00000000000E+00 0.  1.
          2    1    1    2  501    0  0.30532339441E+01  0.29160786126E+02 -0.22120060039E+03  0.22313533853E+03  0.00000000000E+00 0. -1.
<scales pt_clust_5="13000.00000" pt_clust_6="13000.00000" pt_clust_7="13000.00000" pt_clust_8="13000.00000" pt_clust_9="29.32021"></scales>
<clustering>
<clus scale="   29.320">  1  9  2 -1</clus>
<clus scale="   80.713">  5  6 -1 -1</clus>
<clus scale="   81.695">  1  5  2 -1</clus>
<clus scale="   89.631">  7  8 -1 -1</clus>
<clus scale="   29.320">  1  5  2 -1</clus>
</clustering>
</event>
<event>
 9    1  0.7835476E-005  0.9408469E+02  0.7546771E-02  0.1305018E+00
         21   -1    0    0  501  502  0.00000000000E+00  0.00000000000E+00  0.36286936907E+02  0.36286936907E+02  0.00000000000E+00 0. -1.
         -2   -1    0    0    0  501 -0.00000000000E+00 -0.00000000000E+00 -0.46788093567E+03  0.46788093567E+03  0.00000000000E+00 0.  1.
        -24    2    1    2    0    0 -0.10921749940E+01 -0.34744114371E+02 -0.27616002131E+03  0.28748611512E+03  0.71941383690E+02 0.  0.
         23    2    1    2    0    0  0.23888818405E+02 -0.13502948049E+02 -0.11767551869E+03  0.15131229065E+03  0.91076211775E+02 0.  0.
         13    1    3    3    0    0 -0.43210981176E+01 -0.52277125390E+02 -0.25233396310E+03  0.25772853676E+03  0.00000000000E+00 0. -1.
        -14    1    3    3    0    0  0.32289231236E+01  0.17533011019E+02 -0.23826058217E+02  0.29757578364E+02  0.00000000000E+00 0.  1.
        -13    1    4    4    0    0 -0.28749569848E+02  0.69847648749E+01 -0.12889487517E+02  0.32271715096E+02  0.00000000000E+00 0.  1.
         13    1    4    4    0    0  0.52638388253E+02 -0.20487712924E+02 -0.10478603117E+03  0.11904057555E+03  0.00000000000E+00 0. -1.
         -1    1    1    2    0  502 -0.22796643411E+02  0.48247062420E+02 -0.37758458767E+02  0.65369466813E+02  0.00000000000E+00 0.  1.
<scales pt_clust_5="13000.00000" pt_clust_6="13000.00000" pt_clust_7="13000.00000" pt_clust_8="13000.00000" pt_clust_9="53.36165"></scales>
<clustering>
<clus scale="   53.362">  1  9  2 -1</clus>
<clus scale="   71.941">  5  6 -1 -1</clus>
<clus scale="   75.714">  2  5  1 -1</clus>
<clus scale="   91.076">  7  8 -1 -1</clus>
<clus scale="   53.362">  1  5  2 -1</clus>
</clustering>
</event>
<event>
 9    1  0.7835476E-005  0.1177509E+03  0.7546771E-02  0.1250911E+00
          1   -1    0    0  502    0 -0.00000000000E+00  0.00000000000E+00  0.35574474935E+03  0.35574474935E+03  0.00000000000E+00 0. -1.
         21   -1    0    0  501  502  0.00000000000E+00 -0.00000000000E+00 -0.10578279190E+03  0.10578279190E+03  0.00000000000E+00 0.  1.
        -24    2    1    2    0    0  0.79240625668E+02 -0.22292644987E+02  0.22765017253E+03  0.25460033247E+03  0.78871347566E+02 0.  0.
         23    2    1    2    0    0 -0.17630630565E+02  0.78608519116E+02  0.21225634624E+02  0.12344997298E+03  0.91100108951E+02 0.  0.
         11    1    3    3    0    0  0.53868550645E+02 -0.34789406229E+02  0.21360362149E+03  0.22302159234E+03  0.00000000000E+00 0. -1.
        -12    1    3    3    0    0  0.25372075023E+02  0.12496761242E+02  0.14046551034E+02  0.31578740134E+02  0.00000000000E+00 0.  1.
        -11    1    4    4    0    0 -0.54563373123E+02  0.54219243442E+02  0.18455434289E+02  0.79104305198E+02  0.00000000000E+00 0. -1.
         11    1    4    4    0    0  0.36932742559E+02  0.24389275674E+02  0.27702003359E+01  0.44345667778E+02  0.00000000000E+00 0.  1.
          2    1    1    2  501    0 -0.61609995103E+02 -0.56315874129E+02  0.10861503047E+01  0.83477235807E+02  0.00000000000E+00 0. -1.
<scales pt_clust_5="13000.00000" pt_clust_6="13000.00000" pt_clust_7="13000.00000" pt_clust_8="13000.00000" pt_clust_9="83.47017"></scales>
<clustering>
<clus scale="   78.871">  5  6 -1 -1</clus>
<clus scale="   83.470">  2  9  1 -1</clus>
<clus scale="   91.100">  7  8 -1 -1</clus>
<clus scale="  108.567">  1  5  2 -1</clus>
<clus scale="   83.470">  2  5  1 -1</clus>
</clustering>
</event>
<event>
 9    1  0.7835476E-005  0.9477549E+02  0.7546771E-02  0.1298910E+00
          1   -1    0    0  502    0 -0.00000000000E+00  0.00000000000E+00  0.10530158522E+03  0.10530158522E+03  0.00000000000E+00 0. -1.
         21   -1    0    0  501  502  0.00000000000E+00 -0.00000000000E+00 -0.23440681573E+03  0.23440681573E+03  0.00000000000E+00 0. -1.
         23    2    1    2    0    0  0.32896591918E+02  0.16458764853E+02 -0.50077140522E+01  0.98939895967E+02  0.91711226758E+02 0.  0.
        -24    2    1    2    0    0  0.27229002486E+01  0.45772629198E+02 -0.13999490295E+03  0.16732314077E+03  0.79346788302E+02 0.  0.
         11    1    4    4    0    0  0.32644422972E+02  0.20956023670E+02 -0.11435455407E+03  0.12075503019E+03  0.00000000000E+00 0. -1.
        -12    1    4    4    0    0 -0.29921522723E+02  0.24816605528E+02 -0.25640348883E+02  0.46568110578E+02  0.00000000000E+00 0.  1.
        -13    1    3    3    0    0  0.35172834395E+02  0.50396979259E+02  0.90784544785E+01  0.62124086581E+02  0.00000000000E+00 0. -1.
         13    1    3    3    0    0 -0.22762424765E+01 -0.33938214406E+02 -0.14086168531E+02  0.36815809386E+02  0.00000000000E+00 0.  1.
          2    1    1    2  501    0 -0.35619492167E+02 -0.62231394051E+02  0.15897386495E+02  0.73445364218E+02  0.00000000000E+00 0. -1.
<scales pt_clust_5="13000.00000" pt_clust_6="13000.00000" pt_clust_7="13000.00000" pt_clust_8="13000.00000" pt_clust_9="71.70425"></scales>
<clustering>
<clus scale="   71.704">  2  9  1 -1</clus>
<clus scale="   79.347">  5  6 -1 -1</clus>
<clus scale="   82.870">  2  5  1 -1</clus>
<clus scale="   91.711">  7  8 -1 -1</clus>
<clus scale="   71.704">  2  5  1 -1</clus>
</clustering>
</event>
<event>
 9    1  0.7835476E-005  0.1748532E+03  0.7546771E-02  0.1174762E+00
          1   -1    0    0  502    0 -0.00000000000E+00  0.00000000000E+00  0.74474469898E+03  0.74474469898E+03  0.00000000000E+00 0. -1.
         21   -1    0    0  501  502  0.00000000000E+00 -0.00000000000E+00 -0.22699338254E+03  0.22699338254E+03  0.00000000000E+00 0. -1.
        -24    2    1    2    0    0 -0.36008737897E+02 -0.15127236554E+03  0.54909668641E+03  0.57685653050E+03  0.84120912819E+02 0.  0.
         23    2    1    2    0    0  0.97239291746E+01  0.11990784476E+03  0.14592134460E+03  0.21295268465E+03  0.97894642629E+02 0.  0.
         13    1    3    3    0    0 -0.25434475118E+02 -0.16043304734E+03  0.51468794276E+03  0.53971228783E+03  0.00000000000E+00 0. -1.
        -14    1    3    3    0    0 -0.10574262779E+02  0.91606818057E+01  0.34408743642E+02  0.37144242669E+02  0.00000000000E+00 0.  1.
        -13    1    4    4    0    0 -0.23682074523E+02  0.95478580734E+02  0.54172141327E+02  0.11230147340E+03  0.00000000000E+00 0.  1.
         13    1    4    4    0    0  0.33406003697E+02  0.24429264026E+02  0.91749203270E+02  0.10065121124E+03  0.00000000000E+00 0. -1.
          2    1    1    2  501    0  0.26284808723E+02  0.31364520777E+02 -0.17726671456E+03  0.18192886639E+03  0.00000000000E+00 0. -1.
<scales pt_clust_5="13000.00000" pt_clust_6="13000.00000" pt_clust_7="13000.00000" pt_clust_8="13000.00000" pt_clust_9="40.92217"></scales>
<clustering>
<clus scale="   40.922">  2  9  1 -1</clus>
<clus scale="   84.121">  5  6 -1 -1</clus>
<clus scale="   97.895">  7  8 -1 -1</clus>
<clus scale="  167.531">  1  5  2 -1</clus>
<clus scale="   40.922">  2  5  1 -1</clus>
</clustering>
</event>
<event>
 9    1  0.7835476E-005  0.9529454E+02  0.7546771E-02  0.1296434E+00
          3   -1    0    0  502    0 -0.00000000000E+00  0.00000000000E+00  0.11277883865E+03  0.11277883865E+03  0.00000000000E+00 0. -1.
         21   -1    0    0  501  502  0.00000000000E+00 -0.00000000000E+00 -0.16531247837E+03  0.16531247837E+03  0.00000000000E+00 0.  1.
         23    2    1    2    0    0  0.84708507634E+01  0.34748100057E+01 -0.27233869238E+02  0.95208512626E+02  0.90769750608E+02 0.  0.
        -24    2    1    2    0    0  0.61666800526E+02 -0.28036904996E+02 -0.27387114573E+02  0.10853938744E+03  0.80261337216E+02 0.  0.
         13    1    4    4    0    0  0.48029295784E+02  0.50019666535E+01  0.17319476620E+02  0.51301044768E+02  0.00000000000E+00 0. -1.
        -14    1    4    4    0    0  0.13637504742E+02 -0.33038871650E+02 -0.44706591193E+02  0.57238342669E+02  0.00000000000E+00 0.  1.
        -13    1    3    3    0    0 -0.64623843886E+01 -0.33318587646E+02  0.15116871309E+02  0.37153875879E+02  0.00000000000E+00 0. -1.
         13    1    3    3    0    0  0.14933235152E+02  0.36793397651E+02 -0.42350740547E+02  0.58054636746E+02  0.00000000000E+00 0.  1.
          4    1    1    2  501    0 -0.70137651289E+02  0.24562094990E+02  0.20873440903E+01  0.74343416951E+02  0.00000000000E+00 0. -1.
<scales pt_clust_5="13000.00000" pt_clust_6="13000.00000" pt_clust_7="13000.00000" pt_clust_8="13000.00000" pt_clust_9="74.31415"></scales>
<clustering>
<clus scale="   74.314">  2  9  1 -1</clus>
<clus scale="   80.261">  5  6 -1 -1</clus>
<clus scale="   85.345">  2  5  1 -1</clus>
<clus scale="   90.770">  7  8 -1 -1</clus>
<clus scale="   74.314">  2  5  1 -1</clus>
</clustering>
</event>
<event>
 9    1  0.7835476E-005  0.2207371E+03  0.7546771E-02  0.1133941E+00
          1   -1    0    0  502    0 -0.00000000000E+00  0.00000000000E+00  0.51838506895E+03  0.51838506895E+03  0.00000000000E+00 0. -1.
         21   -1    0    0  501  502  0.00000000000E+00 -0.00000000000E+00 -0.12147321734E+03  0.12147321734E+03  0.00000000000E+00 0. -1.
        -24    2    1    2    0    0 -0.10607597429E+03  0.18610527615E+03  0.28910369144E+03  0.37052853645E+03  0.88448661888E+02 0.  0.
         23    2    1    2    0    0  0.70681986219E+02 -0.15726594388E+03  0.68129791629E+02  0.20884161540E+03  0.96149006942E+02 0.  0.
         11    1    3    3    0    0 -0.46748857418E+02  0.12513688761E+03  0.11305345366E+03  0.17500222768E+03  0.00000000000E+00 0. -1.
        -12    1    3    3    0    0 -0.59327116873E+02  0.60968388539E+02  0.17605023778E+03  0.19552630877E+03  0.00000000000E+00 0.  1.
        -11    1    4    4    0    0  0.11218720692E+02 -0.13245320719E+03  0.43544258353E+02  0.13987785466E+03  0.00000000000E+00 0. -1.
         11    1    4    4    0    0  0.59463265527E+02 -0.24812736692E+02  0.24585533276E+02  0.68963760743E+02  0.00000000000E+00 0.  1.
          2    1    1    2  501    0  0.35393988072E+02 -0.28839332263E+02  0.39678368545E+02  0.60488134435E+02  0.00000000000E+00 0. -1.
<scales pt_clust_5="13000.00000" pt_clust_6="13000.00000" pt_clust_7="13000.00000" pt_clust_8="13000.00000" pt_clust_9="45.65571"></scales>
<clustering>
<clus scale="   45.656">  2  9  1 -1</clus>
<clus scale="   88.449">  5  6 -1 -1</clus>
<clus scale="   96.149">  7  8 -1 -1</clus>
<clus scale="  217.493">  1  5  2 -1</clus>
<clus scale="   45.656">  2  5  1 -1</clus>
</clustering>
</event>
<event>
 9    1  0.7835476E-005  0.1270261E+03  0.7546771E-02  0.1234741E+00
         21   -1    0    0  501  502  0.00000000000E+00  0.00000000000E+00  0.25583468705E+03  0.25583468705E+03  0.00000000000E+00 0.  1.
          1   -1    0    0  502    0 -0.00000000000E+00 -0.00000000000E+00 -0.23078446507E+03  0.23078446507E+03  0.00000000000E+00 0. -1.
         23    2    1    2    0    0  0.70802320175E+02  0.51494387149E+02 -0.18484948605E+03  0.22353377539E+03  0.90185230501E+02 0.  0.
        -24    2    1    2    0    0 -0.90531284255E+02 -0.62330593940E+02  0.18484529248E+03  0.22940483132E+03  0.79860992415E+02 0.  0.
         11    1    4    4    0    0 -0.75736501988E+01 -0.49002148781E+02  0.49241924655E+02  0.69880883696E+02  0.00000000000E+00 0. -1.
        -12    1    4    4    0    0 -0.82957634056E+02 -0.13328445159E+02  0.13560336783E+03  0.15952394762E+03  0.00000000000E+00 0.  1.
        -13    1    3    3    0    0  0.73557484086E+02  0.14739618391E+02 -0.16593624455E+03  0.18210655417E+03  0.00000000000E+00 0.  1.
         13    1    3    3    0    0 -0.27551639109E+01  0.36754768757E+02 -0.18913241492E+02  0.41427221224E+02  0.00000000000E+00 0. -1.
          2    1    1    2  501    0  0.19728964080E+02  0.10836206792E+02  0.25054415534E+02  0.33680545409E+02  0.00000000000E+00 0. -1.
<scales pt_clust_5="13000.00000" pt_clust_6="13000.00000" pt_clust_7="13000.00000" pt_clust_8="13000.00000" pt_clust_9="22.50901"></scales>
<clustering>
<clus scale="   22.509">  1  9  2 -1</clus>
<clus scale="   79.861">  5  6 -1 -1</clus>
<clus scale="   90.185">  7  8 -1 -1</clus>
<clus scale="  119.917">  1  5  2 -1</clus>
<clus scale="   22.509">  1  5  2 -1</clus>
</clustering>
</event>
<event>
 9    1  0.7835476E-005  0.1291472E+03  0.7546771E-02  0.1249633E+00
         21   -1    0    0  501  502  0.00000000000E+00  0.00000000000E+00  0.37942717177E+03  0.37942717177E+03  0.00000000000E+00 0. -1.
          1   -1    0    0  502    0 -0.00000000000E+00 -0.00000000000E+00 -0.10705684492E+03  0.10705684492E+03  0.00000000000E+00 0. -1.
        -24    2    1    2    0    0 -0.33839267046E+01  0.28405529828E+02  0.99634064921E+02  0.13058672080E+03  0.79420524254E+02 0.  0.
         23    2    1    2    0    0 -0.87106389172E+02 -0.32975731223E+02 -0.29471734836E+02  0.13431783392E+03  0.92183379583E+02 0.  0.
         13    1    3    3    0    0 -0.32554983625E+02  0.39675771011E+02  0.74494755760E+02  0.90462491674E+02  0.00000000000E+00 0. -1.
        -14    1    3    3    0    0  0.29171056920E+02 -0.11270241183E+02  0.25139309161E+02  0.40124229130E+02  0.00000000000E+00 0.  1.
        -11    1    4    4    0    0 -0.77443873874E+02  0.10036582271E+02 -0.41755730539E+02  0.88554094299E+02  0.00000000000E+00 0. -1.
         11    1    4    4    0    0 -0.96625152983E+01 -0.43012313494E+02  0.12283995703E+02  0.45763739625E+02  0.00000000000E+00 0.  1.
          2    1    1    2  501    0  0.90490315877E+02  0.45702013949E+01  0.20220799677E+03  0.22157946197E+03  0.00000000000E+00 0. -1.
<scales pt_clust_5="13000.00000" pt_clust_6="13000.00000" pt_clust_7="13000.00000" pt_clust_8="13000.00000" pt_clust_9="90.45013"></scales>
<clustering>
<clus scale="   79.421">  5  6 -1 -1</clus>
<clus scale="   84.415">  2  5  1 -1</clus>
<clus scale="   90.450">  1  9  2 -1</clus>
<clus scale="   92.183">  7  8 -1 -1</clus>
<clus scale="   90.450">  1  5  2 -1</clus>
</clustering>
</event>
<event>
 9    1  0.7835476E-005  0.1954637E+03  0.7546771E-02  0.1187861E+00
         -2   -1    0    0    0  501 -0.00000000000E+00  0.00000000000E+00  0.28581522425E+03  0.28581522425E+03  0.00000000000E+00 0.  1.
         21   -1    0    0  501  502  0.00000000000E+00 -0.00000000000E+00 -0.48164169977E+03  0.48164169977E+03  0.00000000000E+00 0. -1.
        -24    2    1    2    0    0  0.28421944466E+01 -0.43376278927E+02  0.18032545843E+03  0.20126928474E+03  0.78118335741E+02 0.  0.
         23    2    1    2    0    0  0.64692068370E+01 -0.13792224669E+03 -0.22159655468E+02  0.16836055270E+03  0.93754085822E+02 0.  0.
         13    1    3    3    0    0  0.82401907595E+01  0.21920048659E+02  0.56929510259E+02  0.61557764866E+02  0.00000000000E+00 0. -1.
        -14    1    3    3    0    0 -0.53979963129E+01 -0.65296327587E+02  0.12339594818E+03  0.13971151988E+03  0.00000000000E+00 0.  1.
        -13    1    4    4    0    0 -0.37905475807E+02 -0.48967368095E+02 -0.29676278814E+02  0.68668113113E+02  0.00000000000E+00 0.  1.
         13    1    4    4    0    0  0.44374682644E+02 -0.88954878593E+02  0.75166233460E+01  0.99692439592E+02  0.00000000000E+00 0. -1.
         -1    1    1    2    0  502 -0.93114012836E+01  0.18129852561E+03 -0.35399227848E+03  0.39782708657E+03  0.00000000000E+00 0.  1.
<scales pt_clust_5="13000.00000" pt_clust_6="13000.00000" pt_clust_7="13000.00000" pt_clust_8="13000.00000" pt_clust_9="171.51164"></scales>
<clustering>
<clus scale="   78.118">  5  6 -1 -1</clus>
<clus scale="   89.398">  1  5  2 -1</clus>
<clus scale="   93.754">  7  8 -1 -1</clus>
<clus scale="  171.512">  2  9  1 -1</clus>
<clus scale="  171.512">  2  5  1 -1</clus>
</clustering>
</event>
<event>
 9    1  0.7835476E-005  0.4235557E+03  0.7546771E-02  0.1036311E+00
         21   -1    0    0  501  502  0.00000000000E+00  0.00000000000E+00  0.82581656523E+02  0.82581656523E+02  0.00000000000E+00 0.  1.
          1   -1    0    0  502    0 -0.00000000000E+00 -0.00000000000E+00 -0.36900216201E+04  0.36900216201E+04  0.00000000000E+00 0. -1.
        -24    2    1    2    0    0  0.18670326667E+03  0.30388264388E+03 -0.15539073844E+04  0.15964429002E+04  0.82456068467E+02 0.  0.
         23    2    1    2    0    0 -0.26896345885E+03 -0.45934261539E+03 -0.14807217483E+04  0.15769552447E+04  0.10446993499E+03 0.  0.
         13    1    3    3    0    0  0.14523172840E+03  0.23494404230E+03 -0.13336629486E+04  0.13619646906E+04  0.00000000000E+00 0. -1.
        -14    1    3    3    0    0  0.41471538270E+02  0.68938601577E+02 -0.22024443577E+03  0.23447820957E+03  0.00000000000E+00 0.  1.
        -13    1    4    4    0    0 -0.57530211964E+02 -0.32446818888E+02 -0.18392462734E+03  0.19542463991E+03  0.00000000000E+00 0. -1.
         13    1    4    4    0    0 -0.21143324689E+03 -0.42689579650E+03 -0.12967971210E+04  0.13815306048E+04  0.00000000000E+00 0.  1.
          2    1    1    2  501    0  0.82260192184E+02  0.15545997151E+03 -0.57281083087E+03  0.59920513176E+03  0.00000000000E+00 0. -1.
<scales pt_clust_5="13000.00000" pt_clust_6="13000.00000" pt_clust_7="13000.00000" pt_clust_8="13000.00000" pt_clust_9="175.88218"></scales>
<clustering>
<clus scale="   82.456">  5  6 -1 -1</clus>
<clus scale="  104.470">  7  8 -1 -1</clus>
<clus scale="  175.882">  1  9  2 -1</clus>
<clus scale="  418.670">  2  5  1 -1</clus>
<clus scale="  175.882">  1  5  2 -1</clus>
</clustering>
</event>
<event>
 9    1  0.7835476E-005  0.1624551E+03  0.7546771E-02  0.1187775E+00
         21   -1    0    0  501  502  0.00000000000E+00  0.00000000000E+00  0.43893945551E+03  0.43893945551E+03  0.00000000000E+00 0. -1.
          3   -1    0    0  502    0 -0.00000000000E+00 -0.00000000000E+00 -0.10273036406E+03  0.10273036406E+03  0.00000000000E+00 0. -1.
         23    2    1    2    0    0 -0.93654432512E+02  0.74620190152E+02  0.66224687828E+02  0.16492062735E+03  0.92053128896E+02 0.  0.
        -24    2    1    2    0    0  0.92057158060E+02 -0.14432024767E+03  0.22466320698E+03  0.29359475657E+03  0.80134076870E+02 0.  0.
         11    1    4    4    0    0  0.88519211743E+02 -0.13965889613E+03  0.16481606233E+03  0.23346218648E+03  0.00000000000E+00 0. -1.
        -12    1    4    4    0    0  0.35379463174E+01 -0.46613515443E+01  0.59847144650E+02  0.60132570085E+02  0.00000000000E+00 0.  1.
        -13    1    3    3    0    0 -0.59870647761E+02  0.86836197067E+02  0.73118350126E+02  0.12834061208E+03  0.00000000000E+00 0.  1.
         13    1    3    3    0    0 -0.33783784751E+02 -0.12216006915E+02 -0.68936622972E+01  0.36580015267E+02  0.00000000000E+00 0. -1.
          4    1    1    2  501    0  0.15972744522E+01  0.69700057521E+02  0.45321196642E+02  0.83154435656E+02  0.00000000000E+00 0. -1.
<scales pt_clust_5="13000.00000" pt_clust_6="13000.00000" pt_clust_7="13000.00000" pt_clust_8="13000.00000" pt_clust_9="69.71839"></scales>
<clustering>
<clus scale="   69.718">  1  9  2 -1</clus>
<clus scale="   80.134">  5  6 -1 -1</clus>
<clus scale="   92.053">  7  8 -1 -1</clus>
<clus scale="  156.011">  1  5  2 -1</clus>
<clus scale="   69.718">  1  5  2 -1</clus>
</clustering>
</event>
<event>
 9    1  0.7835476E-005  0.1177636E+03  0.7546771E-02  0.1249355E+00
         -2   -1    0    0    0  501 -0.00000000000E+00  0.00000000000E+00  0.47417278578E+03  0.47417278578E+03  0.00000000000E+00 0.  1.
         21   -1    0    0  501  502  0.00000000000E+00 -0.00000000000E+00 -0.63206388086E+02  0.63206388086E+02  0.00000000000E+00 0. -1.
        -24    2    1    2    0    0 -0.55515697562E+02  0.53873886433E+02  0.33645466700E+03  0.35451200381E+03  0.80576855158E+02 0.  0.
         23    2    1    2    0    0  0.36815953320E+02 -0.73880345982E+02  0.90554630317E+02  0.15112896774E+03  0.88465269324E+02 0.  0.
         11    1    3    3    0    0  0.39272586127E+01  0.32919133581E+02  0.42632797012E+02  0.54006000564E+02  0.00000000000E+00 0. -1.
        -12    1    3    3    0    0 -0.59442956175E+02  0.20954752853E+02  0.29382186998E+03  0.30050600325E+03  0.00000000000E+00 0.  1.
        -13    1    4    4    0    0  0.56948047954E+02 -0.63033704988E+02  0.36542648840E+02  0.92475365987E+02  0.00000000000E+00 0. -1.
         13    1    4    4    0    0 -0.20132094634E+02 -0.10846640994E+02  0.54011981478E+02  0.58653601751E+02  0.00000000000E+00 0.  1.
         -1    1    1    2    0  502  0.18699744242E+02  0.20006459548E+02 -0.16042899617E+02  0.31738202320E+02  0.00000000000E+00 0.  1.
<scales pt_clust_5="13000.00000" pt_clust_6="13000.00000" pt_clust_7="13000.00000" pt_clust_8="13000.00000" pt_clust_9="27.38501"></scales>
<clustering>
<clus scale="   27.385">  2  9  1 -1</clus>
<clus scale="   80.577">  5  6 -1 -1</clus>
<clus scale="   88.465">  7  8 -1 -1</clus>
<clus scale="  111.959">  1  5  2 -1</clus>
<clus scale="   27.385">  2  5  1 -1</clus>
</clustering>
</event>
<event>
 9    1  0.7835476E-005  0.1331159E+03  0.7546771E-02  0.1231135E+00
          1   -1    0    0  502    0 -0.00000000000E+00  0.00000000000E+00  0.15033274912E+04  0.15033274912E+04  0.00000000000E+00 0. -1.
         21   -1    0    0  501  502  0.00000000000E+00 -0.00000000000E+00 -0.28025414294E+02  0.28025414294E+02  0.00000000000E+00 0. -1.
         23    2    1    2    0    0  0.91179362964E+01  0.61360459427E+02  0.51715970321E+03  0.52919414345E+03  0.93509572212E+02 0.  0.
        -24    2    1    2    0    0 -0.87545951133E+02  0.46243873277E+02  0.24215228202E+03  0.27389269988E+03  0.81096818572E+02 0.  0.
         11    1    4    4    0    0 -0.86791633012E+02  0.52169089434E+01  0.16472466043E+03  0.18626383829E+03  0.00000000000E+00 0. -1.
        -12    1    4    4    0    0 -0.75431812112E+00  0.41026964334E+02  0.77427621594E+02  0.87628861592E+02  0.00000000000E+00 0.  1.
        -11    1    3    3    0    0  0.48531086723E+02  0.21827157691E+02  0.19022712618E+03  0.19752987300E+03  0.00000000000E+00 0.  1.
         11    1    3    3    0    0 -0.39413150426E+02  0.39533301736E+02  0.32693257703E+03  0.33166427045E+03  0.00000000000E+00 0. -1.
          2    1    1    2  501    0  0.78428014836E+02 -0.10760433270E+03  0.71599009171E+03  0.72826606220E+03  0.00000000000E+00 0. -1.
<scales pt_clust_5="13000.00000" pt_clust_6="13000.00000" pt_clust_7="13000.00000" pt_clust_8="13000.00000" pt_clust_9="105.56120"></scales>
<clustering>
<clus scale="   81.097">  5  6 -1 -1</clus>
<clus scale="   93.510">  7  8 -1 -1</clus>
<clus scale="  112.215">  1  7  2 -1</clus>
<clus scale="  105.561">  2  9  1 -1</clus>
<clus scale="  105.561">  2  5  1 -1</clus>
</clustering>
</event>
<event>
 9    1  0.7835476E-005  0.1287239E+03  0.7546771E-02  0.1232091E+00
          1   -1    0    0  502    0 -0.00000000000E+00  0.00000000000E+00  0.26089249973E+03  0.26089249973E+03  0.00000000000E+00 0. -1.
         21   -1    0    0  501  502  0.00000000000E+00 -0.00000000000E+00 -0.15352004406E+03  0.15352004406E+03  0.00000000000E+00 0.  1.
         23    2    1    2    0    0 -0.73436309361E+01 -0.86885188278E+02  0.14038727469E+03  0.18816049571E+03  0.89960104456E+02 0.  0.
        -24    2    1    2    0    0  0.63063184507E+02  0.93383487042E+02  0.30753555769E+02  0.14132088678E+03  0.79551058794E+02 0.  0.
         11    1    4    4    0    0  0.29558854283E+02 -0.49093842964E+01  0.21868555532E+02  0.37095304848E+02  0.00000000000E+00 0. -1.
        -12    1    4    4    0    0  0.33504330224E+02  0.98292871338E+02  0.88850002369E+01  0.10422558193E+03  0.00000000000E+00 0.  1.
        -13    1    3    3    0    0  0.11022955650E+02 -0.75127124177E+02  0.14693153496E+03  0.16539185683E+03  0.00000000000E+00 0. -1.
         13    1    3    3    0    0 -0.18366586586E+02 -0.11758064101E+02 -0.65442602694E+01  0.22768638886E+02  0.00000000000E+00 0.  1.
          2    1    1    2  501    0 -0.55719553571E+02 -0.64982987638E+01 -0.63768374791E+02  0.84931161304E+02  0.00000000000E+00 0. -1.
<scales pt_clust_5="13000.00000" pt_clust_6="13000.00000" pt_clust_7="13000.00000" pt_clust_8="13000.00000" pt_clust_9="56.09721"></scales>
<clustering>
<clus scale="   56.097">  2  9  1 -1</clus>
<clus scale="   79.551">  5  6 -1 -1</clus>
<clus scale="   89.960">  7  8 -1 -1</clus>
<clus scale="  121.677">  2  5  1 -1</clus>
<clus scale="   56.097">  2  5  1 -1</clus>
</clustering>
</event>
<event>
 9    1  0.7835476E-005  0.9513221E+02  0.7546771E-02  0.1299895E+00
         21   -1    0    0  501  502  0.00000000000E+00  0.00000000000E+00  0.25802785541E+02  0.25802785541E+02  0.00000000000E+00 0. -1.
         -2   -1    0    0    0  501 -0.00000000000E+00 -0.00000000000E+00 -0.81255238761E+03  0.81255238761E+03  0.00000000000E+00 0.  1.
         23    2    1    2    0    0  0.74916051959E+01 -0.13998318195E+02 -0.41148408050E+03  0.42260579489E+03  0.94997012137E+02 0.  0.
        -24    2    1    2    0    0  0.18727722687E+02 -0.25231816829E+02 -0.82964588403E+02  0.11966443744E+03  0.80306179593E+02 0.  0.
         13    1    4    4    0    0  0.69191387019E+01 -0.49140279425E+02 -0.24366623336E+02  0.55284481323E+02  0.00000000000E+00 0. -1.
        -14    1    4    4    0    0  0.11808583985E+02  0.23908462595E+02 -0.58597965067E+02  0.64379956115E+02  0.00000000000E+00 0.  1.
        -13    1    3    3    0    0  0.15188567280E+02  0.37828359375E+02 -0.12845536634E+03  0.13476816572E+03  0.00000000000E+00 0. -1.
         13    1    3    3    0    0 -0.76969620839E+01 -0.51826677570E+02 -0.28302871416E+03  0.28783762918E+03  0.00000000000E+00 0.  1.
         -1    1    1    2    0  502 -0.26219327883E+02  0.39230135024E+02 -0.29230093317E+03  0.29608494082E+03  0.00000000000E+00 0.  1.
<scales pt_clust_5="13000.00000" pt_clust_6="13000.00000" pt_clust_7="13000.00000" pt_clust_8="13000.00000" pt_clust_9="47.18537"></scales>
<clustering>
<clus scale="   47.185">  1  9  2 -1</clus>
<clus scale="   80.306">  5  6 -1 -1</clus>
<clus scale="   80.466">  1  5  2 -1</clus>
<clus scale="   94.997">  7  8 -1 -1</clus>
<clus scale="   47.185">  1  5  2 -1</clus>
</clustering>
</event>
<event>
 9    1  0.7835476E-005  0.1872619E+03  0.7546771E-02  0.1192584E+00
         21   -1    0    0  501  502  0.00000000000E+00  0.00000000000E+00  0.30149740751E+02  0.30149740751E+02  0.00000000000E+00 0. -1.
          1   -1    0    0  502    0 -0.00000000000E+00 -0.00000000000E+00 -0.18668275232E+04  0.18668275232E+04  0.00000000000E+00 0. -1.
         23    2    1    2    0    0  0.18065390718E+02 -0.20176486059E+02 -0.47237258830E+03  0.48117106773E+03  0.87500201792E+02 0.  0.
        -24    2    1    2    0    0  0.96710371118E+02  0.14300581084E+03 -0.94594882427E+03  0.96493751162E+03  0.80508790672E+02 0.  0.
         13    1    4    4    0    0  0.88630383315E+02  0.70513698202E+02 -0.67030657618E+03  0.67980764378E+03  0.00000000000E+00 0. -1.
        -14    1    4    4    0    0  0.80799878031E+01  0.72492112643E+02 -0.27564224810E+03  0.28512986784E+03  0.00000000000E+00 0.  1.
        -11    1    3    3    0    0  0.28247571498E+02 -0.51433858586E+02 -0.30962911143E+03  0.31514053016E+03  0.00000000000E+00 0.  1.
         11    1    3    3    0    0 -0.10182180780E+02  0.31257372527E+02 -0.16274347686E+03  0.16603053757E+03  0.00000000000E+00 0. -1.
          2    1    1    2  501    0 -0.11477576184E+03 -0.12282932479E+03 -0.41835636985E+03  0.45086868457E+03  0.00000000000E+00 0. -1.
<scales pt_clust_5="13000.00000" pt_clust_6="13000.00000" pt_clust_7="13000.00000" pt_clust_8="13000.00000" pt_clust_9="169.07200"></scales>
<clustering>
<clus scale="   80.509">  5  6 -1 -1</clus>
<clus scale="   87.500">  7  8 -1 -1</clus>
<clus scale="   91.595">  2  7  1 -1</clus>
<clus scale="  169.072">  1  9  2 -1</clus>
<clus scale="  169.072">  1  5  2 -1</clus>
</clustering>
</event>
<event>
 9    1  0.7835476E-005  0.9147583E+02  0.7546771E-02  0.1305409E+00
          1   -1    0    0  502    0 -0.00000000000E+00  0.00000000000E+00  0.26017239262E+03  0.26017239262E+03  0.00000000000E+00 0. -1.
         21   -1    0    0  501  502  0.00000000000E+00 -0.00000000000E+00 -0.59358300313E+02  0.59358300313E+02  0.00000000000E+00 0.  1.
         23    2    1    2    0    0  0.59175775192E+01  0.34644033362E+02  0.19298145873E+03  0.21367950611E+03  0.84745862123E+02 0.  0.
        -24    2    1    2    0    0  0.16476436360E+02 -0.33545895144E+02  0.45849518121E+01  0.83196271193E+02  0.74187584684E+02 0.  0.
         11    1    4    4    0    0  0.45013739630E+02 -0.25601842330E+02  0.10872131032E+02  0.52914027624E+02  0.00000000000E+00 0. -1.
        -12    1    4    4    0    0 -0.28537303270E+02 -0.79440528131E+01 -0.62871792194E+01  0.30282243569E+02  0.00000000000E+00 0.  1.
        -11    1    3    3    0    0 -0.24588390917E+02  0.95335871581E+01  0.12981122514E+02  0.29393669280E+02  0.00000000000E+00 0.  1.
         11    1    3    3    0    0  0.30505968436E+02  0.25110446204E+02  0.18000033622E+03  0.18428583683E+03  0.00000000000E+00 0. -1.
          2    1    1    2  501    0 -0.22394013879E+02 -0.10981382188E+01  0.32476817619E+01  0.22654915626E+02  0.00000000000E+00 0. -1.
<scales pt_clust_5="13000.00000" pt_clust_6="13000.00000" pt_clust_7="13000.00000" pt_clust_8="13000.00000" pt_clust_9="22.42092"></scales>
<clustering>
<clus scale="   22.421">  2  9  1 -1</clus>
<clus scale="   74.188">  5  6 -1 -1</clus>
<clus scale="   81.791">  2  5  1 -1</clus>
<clus scale="   84.746">  7  8 -1 -1</clus>
<clus scale="   22.421">  2  5  1 -1</clus>
</clustering>
</event>
<event>
 9    1  0.7835476E-005  0.1282364E+03  0.7546771E-02  0.1233434E+00
         -4   -1    0    0    0  501 -0.00000000000E+00  0.00000000000E+00  0.28884840511E+03  0.28884840511E+03  0.00000000000E+00 0.  1.
         21   -1    0    0  501  502  0.00000000000E+00 -0.00000000000E+00 -0.29830776183E+03  0.29830776183E+03  0.00000000000E+00 0. -1.
        -24    2    1    2    0    0  0.55947850193E+02  0.70169275654E+02  0.25821562399E+03  0.28495762379E+03  0.80446564238E+02 0.  0.
         23    2    1    2    0    0 -0.53125464001E+02 -0.47362162584E+02 -0.21404553727E+03  0.24385261378E+03  0.92645107003E+02 0.  0.
         13    1    3    3    0    0 -0.11568008631E+02  0.22948562576E+02  0.13025900653E+03  0.13276996697E+03  0.00000000000E+00 0. -1.
        -14    1    3    3    0    0  0.67515858824E+02  0.47220713078E+02  0.12795661747E+03  0.15218765682E+03  0.00000000000E+00 0.  1.
        -13    1    4    4    0    0  0.28432159171E+01  0.23499334275E+02 -0.25462425418E+02  0.34765467008E+02  0.00000000000E+00 0.  1.
         13    1    4    4    0    0 -0.55968679918E+02 -0.70861496859E+02 -0.18858311185E+03  0.20908714677E+03  0.00000000000E+00 0. -1.
         -3    1    1    2    0  502 -0.28223861917E+01 -0.22807113069E+02 -0.53629443443E+02  0.58345929373E+02  0.00000000000E+00 0.  1.
<scales pt_clust_5="13000.00000" pt_clust_6="13000.00000" pt_clust_7="13000.00000" pt_clust_8="13000.00000" pt_clust_9="22.98109"></scales>
<clustering>
<clus scale="   22.981">  2  9  1 -1</clus>
<clus scale="   80.447">  5  6 -1 -1</clus>
<clus scale="   92.645">  7  8 -1 -1</clus>
<clus scale="  119.721">  1  5  2 -1</clus>
<clus scale="   22.981">  2  5  1 -1</clus>
</clustering>
</event>
<event>
 9    1  0.7835476E-005  0.8343543E+02  0.7546771E-02  0.1321818E+00
         -2   -1    0    0    0  501 -0.00000000000E+00  0.00000000000E+00  0.30171891962E+02  0.30171891962E+02  0.00000000000E+00 0.  1.
         21   -1    0    0  501  502  0.00000000000E+00 -0.00000000000E+00 -0.70416845185E+03  0.70416845185E+03  0.00000000000E+00 0. -1.
         23    2    1    2    0    0  0.19433972401E+02  0.57203952355E+01 -0.15986164885E+03  0.17882761352E+03  0.77544608953E+02 0.  0.
        -24    2    1    2    0    0 -0.22779638912E+02  0.24090804965E+02 -0.51794251396E+03  0.52527369953E+03  0.80924241222E+02 0.  0.
         13    1    4    4    0    0 -0.52162373870E+01 -0.28874699108E+02 -0.12554068949E+03  0.12892409433E+03  0.00000000000E+00 0. -1.
        -14    1    4    4    0    0 -0.17563401525E+02  0.52965504073E+02 -0.39240182446E+03  0.39634960519E+03  0.00000000000E+00 0.  1.
        -13    1    3    3    0    0 -0.25346925702E+02 -0.90323852464E+01 -0.28197880614E+02  0.38976545472E+02  0.00000000000E+00 0. -1.
         13    1    3    3    0    0  0.44780898103E+02  0.14752780482E+02 -0.13166376824E+03  0.13985106805E+03  0.00000000000E+00 0.  1.
         -1    1    1    2    0  502  0.33456665110E+01 -0.29811200200E+02  0.38076029211E+01  0.30239030768E+02  0.00000000000E+00 0.  1.
<scales pt_clust_5="13000.00000" pt_clust_6="13000.00000" pt_clust_7="13000.00000" pt_clust_8="13000.00000" pt_clust_9="29.99837"></scales>
<clustering>
<clus scale="   29.998">  2  9  1 -1</clus>
<clus scale="   77.545">  7  8 -1 -1</clus>
<clus scale="   80.162">  1  7  2 -1</clus>
<clus scale="   80.924">  5  6 -1 -1</clus>
<clus scale="   29.998">  2  5  1 -1</clus>
</clustering>
</event>
<event>
 9    1  0.7835476E-005  0.1137152E+03  0.7546771E-02  0.1258229E+00
          3   -1    0    0  502    0 -0.00000000000E+00  0.00000000000E+00  0.21453141952E+03  0.21453141952E+03  0.00000000000E+00 0. -1.
         21   -1    0    0  501  502  0.00000000000E+00 -0.00000000000E+00 -0.16331177167E+03  0.16331177167E+03  0.00000000000E+00 0. -1.
        -24    2    1    2    0    0  0.49982428452E+02  0.28205986795E+02  0.95818658007E+02  0.13747877397E+03  0.80158450732E+02 0.  0.
         23    2    1    2    0    0 -0.90622063370E+02 -0.81699717209E+02 -0.70510380326E+02  0.16836054078E+03  0.92121418768E+02 0.  0.
         11    1    3    3    0    0  0.40142839417E+02  0.49267901026E+02  0.94899865999E+02  0.11421365152E+03  0.00000000000E+00 0. -1.
        -12    1    3    3    0    0  0.98395890347E+01 -0.21061914231E+02  0.91879200849E+00  0.23265122441E+02  0.00000000000E+00 0.  1.
        -11    1    4    4    0    0 -0.39997968347E+01 -0.45746888668E+02  0.72999735391E+01  0.46498019433E+02  0.00000000000E+00 0.  1.
         11    1    4    4    0    0 -0.86622266535E+02 -0.35952828541E+02 -0.77810353865E+02  0.12186252134E+03  0.00000000000E+00 0. -1.
          4    1    1    2  501    0  0.40639634918E+02  0.53493730414E+02  0.25911370159E+02  0.72003876446E+02  0.00000000000E+00 0. -1.
<scales pt_clust_5="13000.00000" pt_clust_6="13000.00000" pt_clust_7="13000.00000" pt_clust_8="13000.00000" pt_clust_9="67.18008"></scales>
<clustering>
<clus scale="   67.180">  2  9  1 -1</clus>
<clus scale="   80.158">  5  6 -1 -1</clus>
<clus scale="   92.121">  7  8 -1 -1</clus>
<clus scale="  104.260">  1  5  2 -1</clus>
<clus scale="   67.180">  2  5  1 -1</clus>
</clustering>
</event>
<event>
 9    1  0.7835476E-005  0.1098702E+03  0.7546771E-02  0.1266122E+00
         21   -1    0    0  501  502  0.00000000000E+00  0.00000000000E+00  0.93319414094E+02  0.93319414094E+02  0.00000000000E+00 0. -1.
          1   -1    0    0  502    0 -0.00000000000E+00 -0.00000000000E+00 -0.22934212572E+03  0.22934212572E+03  0.00000000000E+00 0. -1.
         23    2    1    2    0    0 -0.17641083365E+02 -0.78112742815E+02 -0.12847909967E+03  0.17717385539E+03  0.92037424830E+02 0.  0.
        -24    2    1    2    0    0  0.28682919685E+02  0.20604705241E+02 -0.97386911901E+01  0.86888069165E+02  0.78787249586E+02 0.  0.
         11    1    4    4    0    0  0.33277097432E+02  0.30056432958E+02 -0.36703717802E+02  0.57947539000E+02  0.00000000000E+00 0. -1.
        -12    1    4    4    0    0 -0.45941777476E+01 -0.94517277176E+01  0.26965026612E+02  0.28940530164E+02  0.00000000000E+00 0.  1.
        -13    1    3    3    0    0 -0.20416264063E+02  0.13651374764E+02 -0.82649981877E+01  0.25913202548E+02  0.00000000000E+00 0.  1.
         13    1    3    3    0    0  0.27751806979E+01 -0.91764117579E+02 -0.12021410149E+03  0.15126065285E+03  0.00000000000E+00 0. -1.
          2    1    1    2  501    0 -0.11041836320E+02  0.57508037574E+02  0.21950792417E+01  0.58599615253E+02  0.00000000000E+00 0. -1.
<scales pt_clust_5="13000.00000" pt_clust_6="13000.00000" pt_clust_7="13000.00000" pt_clust_8="13000.00000" pt_clust_9="58.55849"></scales>
<clustering>
<clus scale="   58.558">  1  9  2 -1</clus>
<clus scale="   78.787">  5  6 -1 -1</clus>
<clus scale="   92.037">  7  8 -1 -1</clus>
<clus scale="   99.035">  1  5  2 -1</clus>
<clus scale="   58.558">  1  5  2 -1</clus>
</clustering>
</event>
<event>
 9    1  0.7835476E-005  0.1112574E+03  0.7546771E-02  0.1264207E+00
         21   -1    0    0  501  502  0.00000000000E+00  0.00000000000E+00  0.10713161913E+03  0.10713161913E+03  0.00000000000E+00 0. -1.
          1   -1    0    0  502    0 -0.00000000000E+00 -0.00000000000E+00 -0.55248928974E+03  0.55248928974E+03  0.00000000000E+00 0. -1.
         23    2    1    2    0    0  0.90022208467E+02  0.25244581149E+02 -0.44812406630E+02  0.13864559360E+03  0.92049779695E+02 0.  0.
        -24    2    1    2    0    0 -0.23595587778E+01 -0.52604495179E+02  0.15956396517E+02  0.94469819115E+02  0.76792836275E+02 0.  0.
         13    1    4    4    0    0 -0.17996932251E+02  0.13967648994E+02  0.12530605227E+02  0.26000016466E+02  0.00000000000E+00 0. -1.
        -14    1    4    4    0    0  0.15637373474E+02 -0.66572144172E+02  0.34257912899E+01  0.68469802649E+02  0.00000000000E+00 0.  1.
        -13    1    3    3    0    0  0.51464110917E+02  0.48382158818E+02 -0.58420361132E+02  0.91664205659E+02  0.00000000000E+00 0.  1.
         13    1    3    3    0    0  0.38558097550E+02 -0.23137577669E+02  0.13607954502E+02  0.46981387940E+02  0.00000000000E+00 0. -1.
          2    1    1    2  501    0 -0.87662649689E+02  0.27359914030E+02 -0.41650166050E+03  0.42650549615E+03  0.00000000000E+00 0. -1.
<scales pt_clust_5="13000.00000" pt_clust_6="13000.00000" pt_clust_7="13000.00000" pt_clust_8="13000.00000" pt_clust_9="91.83307"></scales>
<clustering>
<clus scale="   76.793">  5  6 -1 -1</clus>
<clus scale="   91.833">  1  9  2 -1</clus>
<clus scale="   92.050">  7  8 -1 -1</clus>
<clus scale="   99.006">  1  5  2 -1</clus>
<clus scale="   91.833">  1  5  2 -1</clus>
</clustering>
</event>
<event>
 9    1  0.7835476E-005  0.9418563E+02  0.7546771E-02  0.1299625E+00
         21   -1    0    0  501  502  0.00000000000E+00  0.00000000000E+00  0.67945786652E+02  0.67945786652E+02  0.00000000000E+00 0. -1.
          1   -1    0    0  502    0 -0.00000000000E+00 -0.00000000000E+00 -0.45534527418E+03  0.45534527418E+03  0.00000000000E+00 0. -1.
         23    2    1    2    0    0 -0.25006877499E+02 -0.31565036809E+00 -0.26668338509E+03  0.28292196482E+03  0.91100860234E+02 0.  0.
        -24    2    1    2    0    0  0.18679899033E+02 -0.20349472733E+02 -0.16818806821E+03  0.18820909694E+03  0.79827302431E+02 0.  0.
         13    1    4    4    0    0 -0.57314757307E+01 -0.30544708377E+02 -0.15602875866E+03  0.15909369111E+03  0.00000000000E+00 0. -1.
        -14    1    4    4    0    0  0.24411374763E+02  0.10195235644E+02 -0.12159309559E+02  0.29115405830E+02  0.00000000000E+00 0.  1.
        -11    1    3    3    0    0 -0.44854293777E+02 -0.28298630343E+02 -0.21062085517E+03  0.21719545295E+03  0.00000000000E+00 0. -1.
         11    1    3    3    0    0  0.19847416278E+02  0.27982979975E+02 -0.56062529919E+02  0.65726511866E+02  0.00000000000E+00 0.  1.
          2    1    1    2  501    0  0.63269784663E+01  0.20665123101E+02  0.47471965773E+02  0.52159999077E+02  0.00000000000E+00 0. -1.
<scales pt_clust_5="13000.00000" pt_clust_6="13000.00000" pt_clust_7="13000.00000" pt_clust_8="13000.00000" pt_clust_9="21.61199"></scales>
<clustering>
<clus scale="   21.612">  1  9  2 -1</clus>
<clus scale="   79.827">  5  6 -1 -1</clus>
<clus scale="   83.330">  1  5  2 -1</clus>
<clus scale="   91.101">  7  8 -1 -1</clus>
<clus scale="   21.612">  1  5  2 -1</clus>
</clustering>
</event>
<event>
 9    1  0.7835476E-005  0.1436565E+03  0.7546771E-02  0.1234504E+00
         -2   -1    0    0    0  501 -0.00000000000E+00  0.00000000000E+00  0.16956557463E+03  0.16956557463E+03  0.00000000000E+00 0.  1.
         21   -1    0    0  501  502  0.00000000000E+00 -0.00000000000E+00 -0.40674808705E+03  0.40674808705E+03  0.00000000000E+00 0.  1.
        -24    2    1    2    0    0 -0.13579685822E+02  0.14165415336E+02  0.72026057683E+02  0.11012791431E+03  0.80965039772E+02 0.  0.
         23    2    1    2    0    0  0.46864190967E+02 -0.11578521147E+03 -0.19318538769E+02  0.15720246058E+03  0.93471600416E+02 0.  0.
         13    1    3    3    0    0 -0.27774832596E+02  0.34553154540E+02  0.13175680533E+02  0.46248895900E+02  0.00000000000E+00 0. -1.
        -14    1    3    3    0    0  0.14195146774E+02 -0.20387739204E+02  0.58850377149E+02  0.63879018405E+02  0.00000000000E+00 0.  1.
        -13    1    4    4    0    0  0.41156072436E+01 -0.98375400232E+02  0.15116388963E+02  0.99615073202E+02  0.00000000000E+00 0.  1.
         13    1    4    4    0    0  0.42748583723E+02 -0.17409811233E+02 -0.34434927732E+02  0.57587387382E+02  0.00000000000E+00 0. -1.
         -1    1    1    2    0  502 -0.33284505145E+02  0.10161979613E+03 -0.28989003134E+03  0.30898328679E+03  0.00000000000E+00 0.  1.
<scales pt_clust_5="13000.00000" pt_clust_6="13000.00000" pt_clust_7="13000.00000" pt_clust_8="13000.00000" pt_clust_9="109.08832"></scales>
<clustering>
<clus scale="   80.965">  5  6 -1 -1</clus>
<clus scale="   83.309">  1  5  2 -1</clus>
<clus scale="   93.472">  7  8 -1 -1</clus>
<clus scale="  109.088">  2  9  1 -1</clus>
<clus scale="  109.088">  2  5  1 -1</clus>
</clustering>
</event>
<event>
 9    1  0.7835476E-005  0.1168894E+03  0.7546771E-02  0.1252966E+00
         -2   -1    0    0    0  501 -0.00000000000E+00  0.00000000000E+00  0.91842870001E+02  0.91842870001E+02  0.00000000000E+00 0.  1.
         21   -1    0    0  501  502  0.00000000000E+00 -0.00000000000E+00 -0.39424196629E+03  0.39424196629E+03  0.00000000000E+00 0.  1.
        -24    2    1    2    0    0 -0.14612420098E+02 -0.64931870468E+02  0.33025179724E+02  0.10938477041E+03  0.80278856985E+02 0.  0.
         23    2    1    2    0    0  0.13751616714E+02  0.88638655154E+02 -0.19415124667E+03  0.23344916207E+03  0.93583580489E+02 0.  0.
         13    1    3    3    0    0  0.29474107364E+02 -0.16299560658E+02 -0.41701171952E+01  0.33938010548E+02  0.00000000000E+00 0. -1.
        -14    1    3    3    0    0 -0.44086527462E+02 -0.48632309810E+02  0.37195296919E+02  0.75446759865E+02  0.00000000000E+00 0.  1.
        -11    1    4    4    0    0 -0.32686369956E+02  0.14495076422E+02 -0.27063259226E+02  0.44843349800E+02  0.00000000000E+00 0.  1.
         11    1    4    4    0    0  0.46437986670E+02  0.74143578732E+02 -0.16708798744E+03  0.18860581227E+03  0.00000000000E+00 0. -1.
         -1    1    1    2    0  502  0.86080338421E+00 -0.23706784686E+02 -0.14127302934E+03  0.14325090381E+03  0.00000000000E+00 0.  1.
<scales pt_clust_5="13000.00000" pt_clust_6="13000.00000" pt_clust_7="13000.00000" pt_clust_8="13000.00000" pt_clust_9="23.72241"></scales>
<clustering>
<clus scale="   23.722">  2  9  1 -1</clus>
<clus scale="   80.279">  5  6 -1 -1</clus>
<clus scale="   93.584">  7  8 -1 -1</clus>
<clus scale="  106.536">  1  5  2 -1</clus>
<clus scale="   23.722">  2  5  1 -1</clus>
</clustering>
</event>
<event>
 9    1  0.7835476E-005  0.9960621E+02  0.7546771E-02  0.1285934E+00
          1   -1    0    0  502    0 -0.00000000000E+00  0.00000000000E+00  0.28643474300E+03  0.28643474300E+03  0.00000000000E+00 0. -1.
         21   -1    0    0  501  502  0.00000000000E+00 -0.00000000000E+00 -0.47726164355E+02  0.47726164355E+02  0.00000000000E+00 0. -1.
         23    2    1    2    0    0 -0.10274831429E+02  0.39641124625E+02  0.83896084632E+02  0.12979899500E+03  0.90178906429E+02 0.  0.
        -24    2    1    2    0    0 -0.12484131206E+02 -0.44957647866E+02  0.70149835545E+02  0.11653252354E+03  0.80509539701E+02 0.  0.
         13    1    4    4    0    0  0.32375904347E+02 -0.22627705492E+02  0.46823679931E+02  0.61259033949E+02  0.00000000000E+00 0. -1.
        -14    1    4    4    0    0 -0.44860035553E+02 -0.22329942375E+02  0.23326155614E+02  0.55273489595E+02  0.00000000000E+00 0.  1.
        -11    1    3    3    0    0  0.20361399603E+02 -0.15484565373E+02  0.54526970689E+02  0.60229136563E+02  0.00000000000E+00 0.  1.
         11    1    3    3    0    0 -0.30636231032E+02  0.55125689998E+02  0.29369113944E+02  0.69569858440E+02  0.00000000000E+00 0. -1.
          2    1    1    2  501    0  0.22758962635E+02  0.53165232418E+01  0.84662658472E+02  0.87829388813E+02  0.00000000000E+00 0. -1.
<scales pt_clust_5="13000.00000" pt_clust_6="13000.00000" pt_clust_7="13000.00000" pt_clust_8="13000.00000" pt_clust_9="23.37170"></scales>
<clustering>
<clus scale="   23.372">  2  9  1 -1</clus>
<clus scale="   80.510">  5  6 -1 -1</clus>
<clus scale="   90.179">  7  8 -1 -1</clus>
<clus scale="   90.945">  2  5  1 -1</clus>
<clus scale="   23.372">  2  5  1 -1</clus>
</clustering>
</event>
<event>
 9    1  0.7835476E-005  0.1351246E+03  0.7546771E-02  0.1234454E+00
         -2   -1    0    0    0  501 -0.00000000000E+00  0.00000000000E+00  0.42396562021E+03  0.42396562021E+03  0.00000000000E+00 0.  1.
         21   -1    0    0  501  502  0.00000000000E+00 -0.00000000000E+00 -0.16046638758E+03  0.16046638758E+03  0.00000000000E+00 0.  1.
         23    2    1    2    0    0  0.36592690266E+02 -0.38373713042E+01 -0.25224880351E+01  0.10024198096E+03  0.93211272927E+02 0.  0.
        -24    2    1    2    0    0  0.16876461823E+02  0.97684868329E+02  0.33296472032E+03  0.35711655154E+03  0.82701740873E+02 0.  0.
         11    1    4    4    0    0 -0.27675548208E+02  0.15235870362E+02  0.12637689388E+03  0.13026583213E+03  0.00000000000E+00 0. -1.
        -12    1    4    4    0    0  0.44552010031E+02  0.82448997967E+02  0.20658782644E+03  0.22685071941E+03  0.00000000000E+00 0.  1.
        -11    1    3    3    0    0  0.27549326277E+02  0.38331221670E+02  0.20373986827E+02  0.51413493095E+02  0.00000000000E+00 0.  1.
         11    1    3    3    0    0  0.90433639899E+01 -0.42168592974E+02 -0.22896474862E+02  0.48828487861E+02  0.00000000000E+00 0. -1.
         -1    1    1    2    0  502 -0.53469152089E+02 -0.93847497025E+02 -0.66942999650E+02  0.12707347530E+03  0.00000000000E+00 0.  1.
<scales pt_clust_5="13000.00000" pt_clust_6="13000.00000" pt_clust_7="13000.00000" pt_clust_8="13000.00000" pt_clust_9="106.86011"></scales>
<clustering>
<clus scale="   82.702">  5  6 -1 -1</clus>
<clus scale="   93.211">  7  8 -1 -1</clus>
<clus scale="  100.210">  1  7  2 -1</clus>
<clus scale="  106.860">  2  9  1 -1</clus>
<clus scale="  106.860">  2  5  1 -1</clus>
</clustering>
</event>
<event>
 9    1  0.7835476E-005  0.1068732E+03  0.7546771E-02  0.1273630E+00
          1   -1    0    0  502    0 -0.00000000000E+00  0.00000000000E+00  0.22340849327E+03  0.22340849327E+03  0.00000000000E+00 0. -1.
         21   -1    0    0  501  502  0.00000000000E+00 -0.00000000000E+00 -0.31087916436E+03  0.31087916436E+03  0.00000000000E+00 0. -1.
         23    2    1    2    0    0  0.48188379922E+02 -0.46915380815E+02  0.13298597899E+03  0.17534573233E+03  0.92399579664E+02 0.  0.
        -24    2    1    2    0    0 -0.48118695351E+02 -0.10104124402E+02  0.35113046394E+02  0.97088724843E+02  0.75998633490E+02 0.  0.
         13    1    4    4    0    0 -0.18360574639E+02 -0.14426234207E+02 -0.22293371707E+02  0.32283453293E+02  0.00000000000E+00 0. -1.
        -14    1    4    4    0    0 -0.29758120712E+02  0.43221098053E+01  0.57406418101E+02  0.64805271550E+02  0.00000000000E+00 0.  1.
        -11    1    3    3    0    0  0.16858627145E+00  0.25984362486E+02  0.40926434756E+02  0.48478743558E+02  0.00000000000E+00 0. -1.
         11    1    3    3    0    0  0.48019793651E+02 -0.72899743301E+02  0.92059544232E+02  0.12686698877E+03  0.00000000000E+00 0.  1.
          2    1    1    2  501    0 -0.69684571054E-01  0.57019505217E+02 -0.25556969647E+03  0.26185320045E+03  0.00000000000E+00 0. -1.
<scales pt_clust_5="13000.00000" pt_clust_6="13000.00000" pt_clust_7="13000.00000" pt_clust_8="13000.00000" pt_clust_9="57.01955"></scales>
<clustering>
<clus scale="   57.020">  2  9  1 -1</clus>
<clus scale="   75.999">  5  6 -1 -1</clus>
<clus scale="   92.400">  7  8 -1 -1</clus>
<clus scale="   93.059">  2  5  1 -1</clus>
<clus scale="   57.020">  2  5  1 -1</clus>
</clustering>
</event>
<event>
 9    1  0.7835476E-005  0.1180290E+03  0.7546771E-02  0.1249650E+00
         -4   -1    0    0    0  501 -0.00000000000E+00  0.00000000000E+00  0.11899409889E+03  0.11899409889E+03  0.00000000000E+00 0.  1.
         21   -1    0    0  501  502  0.00000000000E+00 -0.00000000000E+00 -0.20456038702E+03  0.20456038702E+03  0.00000000000E+00 0. -1.
        -24    2    1    2    0    0 -0.38571240840E+02 -0.59706737025E+02  0.39557629635E+02  0.11426739607E+03  0.80247097624E+02 0.  0.
         23    2    1    2    0    0  0.65047991019E+02  0.71951863008E+02 -0.12170750133E+03  0.17991646996E+03  0.90271305293E+02 0.  0.
         13    1    3    3    0    0 -0.62323129735E+02 -0.53102620772E+02  0.35666218590E+02  0.89309237939E+02  0.00000000000E+00 0. -1.
        -14    1    3    3    0    0  0.23751888895E+02 -0.66041162531E+01  0.38914110446E+01  0.24958158135E+02  0.00000000000E+00 0.  1.
        -11    1    4    4    0    0  0.22489855129E+02 -0.20601087486E+02 -0.31540077384E+02  0.43874535562E+02  0.00000000000E+00 0.  1.
         11    1    4    4    0    0  0.42558135890E+02  0.92552950494E+02 -0.90167423943E+02  0.13604193440E+03  0.00000000000E+00 0. -1.
         -3    1    1    2    0  502 -0.26476750179E+02 -0.12245125982E+02 -0.34164164371E+01  0.29370619872E+02  0.00000000000E+00 0.  1.
<scales pt_clust_5="13000.00000" pt_clust_6="13000.00000" pt_clust_7="13000.00000" pt_clust_8="13000.00000" pt_clust_9="29.17126"></scales>
<clustering>
<clus scale="   29.171">  2  9  1 -1</clus>
<clus scale="   80.247">  5  6 -1 -1</clus>
<clus scale="   90.271">  7  8 -1 -1</clus>
<clus scale="  110.551">  1  5  2 -1</clus>
<clus scale="   29.171">  2  5  1 -1</clus>
</clustering>
</event>
<event>
 9    1  0.7835476E-005  0.1153544E+03  0.7546771E-02  0.1254823E+00
         -4   -1    0    0    0  501 -0.00000000000E+00  0.00000000000E+00  0.32406367159E+03  0.32406367159E+03  0.00000000000E+00 0.  1.
         21   -1    0    0  501  502  0.00000000000E+00 -0.00000000000E+00 -0.54383324458E+02  0.54383324458E+02  0.00000000000E+00 0. -1.
         23    2    1    2    0    0  0.71783519485E+02 -0.23783985200E+02  0.14516182244E+03  0.18751983866E+03  0.91505101369E+02 0.  0.
        -24    2    1    2    0    0 -0.68000549283E+02 -0.14241862996E+02  0.95808391093E+02  0.14313021433E+03  0.80499099900E+02 0.  0.
         11    1    4    4    0    0 -0.56603931691E+02 -0.40195773870E+02  0.90873843898E+02  0.11435803787E+03  0.00000000000E+00 0. -1.
        -12    1    4    4    0    0 -0.11396617593E+02  0.25953910873E+02  0.49345471943E+01  0.28772176459E+02  0.00000000000E+00 0.  1.
        -11    1    3    3    0    0 -0.12689247378E+02 -0.25080973317E+02  0.13741937940E+02  0.31287586674E+02  0.00000000000E+00 0. -1.
         11    1    3    3    0    0  0.84472766863E+02  0.12969881171E+01  0.13141988450E+03  0.15623225199E+03  0.00000000000E+00 0.  1.
         -3    1    1    2    0  502 -0.37829702013E+01  0.38025848196E+02  0.28710133599E+02  0.47796943060E+02  0.00000000000E+00 0.  1.
<scales pt_clust_5="13000.00000" pt_clust_6="13000.00000" pt_clust_7="13000.00000" pt_clust_8="13000.00000" pt_clust_9="38.21356"></scales>
<clustering>
<clus scale="   38.214">  2  9  1 -1</clus>
<clus scale="   80.499">  5  6 -1 -1</clus>
<clus scale="   91.505">  7  8 -1 -1</clus>
<clus scale="  106.834">  2  5  1 -1</clus>
<clus scale="   38.214">  2  5  1 -1</clus>
</clustering>
</event>
<event>
 9    1  0.7835476E-005  0.1104928E+03  0.7546771E-02  0.1263393E+00
          1   -1    0    0  502    0 -0.00000000000E+00  0.00000000000E+00  0.63223033307E+03  0.63223033307E+03  0.00000000000E+00 0. -1.
         21   -1    0    0  501  502  0.00000000000E+00 -0.00000000000E+00 -0.10361581270E+03  0.10361581270E+03  0.00000000000E+00 0. -1.
         23    2    1    2    0    0  0.63366558880E+02 -0.48081352027E+01  0.44332271293E+03  0.45705723064E+03  0.91257028974E+02 0.  0.
        -24    2    1    2    0    0 -0.59892988425E+02 -0.17242345691E+02  0.16591396514E+03  0.19513354046E+03  0.81640591830E+02 0.  0.
         11    1    4    4    0    0  0.63714993547E+01 -0.33800935527E+02  0.54096058458E+02  0.64105247736E+02  0.00000000000E+00 0. -1.
        -12    1    4    4    0    0 -0.66264487780E+02  0.16558589836E+02  0.11181790669E+03  0.13102829272E+03  0.00000000000E+00 0.  1.
        -11    1    3    3    0    0 -0.12925948347E+02  0.16048287336E+02  0.31044980979E+02  0.37261488310E+02  0.00000000000E+00 0.  1.
         11    1    3    3    0    0  0.76292507227E+02 -0.20856422539E+02  0.41227773195E+03  0.41979574233E+03  0.00000000000E+00 0. -1.
          2    1    1    2  501    0 -0.34735704550E+01  0.22050480894E+02 -0.80622157701E+02  0.83655374673E+02  0.00000000000E+00 0. -1.
<scales pt_clust_5="13000.00000" pt_clust_6="13000.00000" pt_clust_7="13000.00000" pt_clust_8="13000.00000" pt_clust_9="22.32240"></scales>
<clustering>
<clus scale="   22.322">  2  9  1 -1</clus>
<clus scale="   81.641">  5  6 -1 -1</clus>
<clus scale="   91.257">  7  8 -1 -1</clus>
<clus scale="  102.694">  2  5  1 -1</clus>
<clus scale="   22.322">  2  5  1 -1</clus>
</clustering>
</event>
<event>
 9    1  0.7835476E-005  0.1339956E+03  0.7546771E-02  0.1222390E+00
          1   -1    0    0  502    0 -0.00000000000E+00  0.00000000000E+00  0.58410513959E+03  0.58410513959E+03  0.00000000000E+00 0. -1.
         21   -1    0    0  501  502  0.00000000000E+00 -0.00000000000E+00 -0.79620043758E+02  0.79620043758E+02  0.00000000000E+00 0. -1.
        -24    2    1    2    0    0  0.11804776021E+03 -0.46617778509E+02  0.29957923521E+03  0.33563924789E+03  0.82446925909E+02 0.  0.
         23    2    1    2    0    0 -0.95988486444E+01  0.10248390337E+03  0.11491813638E+03  0.17649444215E+03  0.85726435232E+02 0.  0.
         13    1    3    3    0    0  0.38288564125E+02 -0.38964158885E+01  0.18842233864E+03  0.19231269823E+03  0.00000000000E+00 0. -1.
        -14    1    3    3    0    0  0.79759196085E+02 -0.42721362620E+02  0.11115689657E+03  0.14332654967E+03  0.00000000000E+00 0.  1.
        -13    1    4    4    0    0  0.10019057734E+02  0.94107724882E+02  0.47715933703E+02  0.10598799804E+03  0.00000000000E+00 0. -1.
         13    1    4    4    0    0 -0.19617906379E+02  0.83761784887E+01  0.67202202675E+02  0.70506444110E+02  0.00000000000E+00 0.  1.
          2    1    1    2  501    0 -0.10844891157E+03 -0.55866124862E+02  0.89987724245E+02  0.15159149330E+03  0.00000000000E+00 0. -1.
<scales pt_clust_5="13000.00000" pt_clust_6="13000.00000" pt_clust_7="13000.00000" pt_clust_8="13000.00000" pt_clust_9="121.99258"></scales>
<clustering>
<clus scale="   82.447">  5  6 -1 -1</clus>
<clus scale="   85.726">  7  8 -1 -1</clus>
<clus scale="  121.993">  2  9  1 -1</clus>
<clus scale="  131.922">  1  5  2 -1</clus>
<clus scale="  121.993">  2  5  1 -1</clus>
</clustering>
</event>
<event>
 9    1  0.7835476E-005  0.2518953E+03  0.7546771E-02  0.1126243E+00
         21   -1    0    0  501  502  0.00000000000E+00  0.00000000000E+00  0.16674131789E+03  0.16674131789E+03  0.00000000000E+00 0. -1.
          1   -1    0    0  502    0 -0.00000000000E+00 -0.00000000000E+00 -0.10858264794E+04  0.10858264794E+04  0.00000000000E+00 0. -1.
         23    2    1    2    0    0  0.10457242827E+02 -0.15322999851E+03 -0.25561171844E+03  0.31080364597E+03  0.87594345546E+02 0.  0.
        -24    2    1    2    0    0  0.20487302086E+03  0.19775983614E+02 -0.65198796233E+03  0.68817193374E+03  0.78283223953E+02 0.  0.
         13    1    4    4    0    0  0.17669202785E+03  0.16556303266E+02 -0.62230841124E+03  0.64711818285E+03  0.00000000000E+00 0. -1.
        -14    1    4    4    0    0  0.28180993004E+02  0.32196803482E+01 -0.29679551098E+02  0.41053750884E+02  0.00000000000E+00 0.  1.
        -13    1    3    3    0    0 -0.28551243199E+02 -0.21782740610E+02 -0.82441602632E+02  0.89923740587E+02  0.00000000000E+00 0.  1.
         13    1    3    3    0    0  0.39008486026E+02 -0.13144725790E+03 -0.17317011581E+03  0.22087990538E+03  0.00000000000E+00 0. -1.
          2    1    1    2  501    0 -0.21533026368E+03  0.13345401490E+03 -0.11485480743E+02  0.25359221758E+03  0.00000000000E+00 0. -1.
<scales pt_clust_5="13000.00000" pt_clust_6="13000.00000" pt_clust_7="13000.00000" pt_clust_8="13000.00000" pt_clust_9="239.42221"></scales>
<clustering>
<clus scale="   78.283">  5  6 -1 -1</clus>
<clus scale="   87.594">  7  8 -1 -1</clus>
<clus scale="  176.809">  2  7  1 -1</clus>
<clus scale="  239.422">  1  9  2 -1</clus>
<clus scale="  239.422">  1  5  2 -1</clus>
</clustering>
</event>
<event>
 9    1  0.7835476E-005  0.1145285E+03  0.7546771E-02  0.1256563E+00
         21   -1    0    0  501  502  0.00000000000E+00  0.00000000000E+00  0.54210761319E+03  0.54210761319E+03  0.00000000000E+00 0. -1.
          1   -1    0    0  502    0 -0.00000000000E+00 -0.00000000000E+00 -0.36296638954E+03  0.36296638954E+03  0.00000000000E+00 0. -1.
        -24    2    1    2    0    0  0.83386698271E+02 -0.16821192347E+02 -0.26534759446E+03  0.29028449414E+03  0.81359988275E+02 0.  0.
         23    2    1    2    0    0 -0.22383152112E+02  0.18976699258E+02 -0.54854467216E+02  0.11172907936E+03  0.92807618153E+02 0.  0.
         11    1    3    3    0    0  0.58296914199E+02 -0.35455559547E+02 -0.24155171225E+03  0.25100369838E+03  0.00000000000E+00 0. -1.
        -12    1    3    3    0    0  0.25089784072E+02  0.18634367200E+02 -0.23795882212E+02  0.39280795765E+02  0.00000000000E+00 0.  1.
        -11    1    4    4    0    0 -0.58280754585E+02  0.53932202127E+01 -0.38181646044E+02  0.69882553430E+02  0.00000000000E+00 0.  1.
         11    1    4    4    0    0  0.35897602473E+02  0.13583479045E+02 -0.16672821172E+02  0.41846525927E+02  0.00000000000E+00 0. -1.
          2    1    1    2  501    0 -0.61003546158E+02 -0.21555069105E+01  0.49934328533E+03  0.50306042923E+03  0.00000000000E+00 0. -1.
<scales pt_clust_5="13000.00000" pt_clust_6="13000.00000" pt_clust_7="13000.00000" pt_clust_8="13000.00000" pt_clust_9="61.04162"></scales>
<clustering>
<clus scale="   61.042">  1  9  2 -1</clus>
<clus scale="   81.360">  5  6 -1 -1</clus>
<clus scale="   92.808">  7  8 -1 -1</clus>
<clus scale="  105.466">  2  5  1 -1</clus>
<clus scale="   61.042">  1  5  2 -1</clus>
</clustering>
</event>
<event>
 9    1  0.7835476E-005  0.1525094E+03  0.7546771E-02  0.1198960E+00
         -4   -1    0    0    0  501 -0.00000000000E+00  0.00000000000E+00  0.58387259953E+03  0.58387259953E+03  0.00000000000E+00 0.  1.
         21   -1    0    0  501  502  0.00000000000E+00 -0.00000000000E+00 -0.11679710365E+03  0.11679710365E+03  0.00000000000E+00 0. -1.
        -24    2    1    2    0    0  0.74346002156E+01 -0.15809792238E+03  0.10451636468E+03  0.20577315970E+03  0.79804112819E+02 0.  0.
         23    2    1    2    0    0  0.12964109717E+02  0.82288910943E+02 -0.22479506781E+01  0.12173797052E+03  0.88744279694E+02 0.  0.
         11    1    3    3    0    0 -0.23912417287E+02 -0.99928941951E+02  0.31889698026E+02  0.10758508252E+03  0.00000000000E+00 0. -1.
        -12    1    3    3    0    0  0.31347017502E+02 -0.58168980434E+02  0.72626666654E+02  0.98188077180E+02  0.00000000000E+00 0.  1.
        -13    1    4    4    0    0 -0.29123660497E+02  0.42973758334E+02 -0.27620042654E+02  0.58803046369E+02  0.00000000000E+00 0.  1.
         13    1    4    4    0    0  0.42087770214E+02  0.39315152609E+02  0.25372091976E+02  0.62934924148E+02  0.00000000000E+00 0. -1.
         -3    1    1    2    0  502 -0.20398709933E+02  0.75809011442E+02  0.36480708188E+03  0.37315857296E+03  0.00000000000E+00 0.  1.
<scales pt_clust_5="13000.00000" pt_clust_6="13000.00000" pt_clust_7="13000.00000" pt_clust_8="13000.00000" pt_clust_9="78.50554"></scales>
<clustering>
<clus scale="   78.506">  2  9  1 -1</clus>
<clus scale="   79.804">  5  6 -1 -1</clus>
<clus scale="   88.744">  7  8 -1 -1</clus>
<clus scale="  147.486">  1  5  2 -1</clus>
<clus scale="   78.506">  2  5  1 -1</clus>
</clustering>
</event>
<event>
 9    1  0.7835476E-005  0.1455999E+03  0.7546771E-02  0.1207872E+00
          1   -1    0    0  502    0 -0.00000000000E+00  0.00000000000E+00  0.69429553857E+03  0.69429553857E+03  0.00000000000E+00 0. -1.
         21   -1    0    0  501  502  0.00000000000E+00 -0.00000000000E+00 -0.67488891357E+02  0.67488891357E+02  0.00000000000E+00 0. -1.
        -24    2    1    2    0    0  0.12565063228E+03 -0.45946315810E+02  0.50350814162E+03  0.52734633301E+03  0.81697986109E+02 0.  0.
         23    2    1    2    0    0 -0.71269140426E+02  0.22032334534E+02  0.12904065564E+03  0.17475394956E+03  0.91229041095E+02 0.  0.
         13    1    3    3    0    0  0.97842093561E+02 -0.48172311687E+02  0.25587645537E+03  0.27814817507E+03  0.00000000000E+00 0. -1.
        -14    1    3    3    0    0  0.27808538724E+02  0.22259958774E+01  0.24763168626E+03  0.24919815794E+03  0.00000000000E+00 0.  1.
        -11    1    4    4    0    0 -0.22664494919E+02 -0.34628754107E+02  0.61209138965E+02  0.73887675791E+02  0.00000000000E+00 0.  1.
         11    1    4    4    0    0 -0.48604645508E+02  0.56661088641E+02  0.67831516671E+02  0.10086627377E+03  0.00000000000E+00 0. -1.
          2    1    1    2  501    0 -0.54381491858E+02  0.23913981276E+02 -0.57421500482E+01  0.59684147345E+02  0.00000000000E+00 0. -1.
<scales pt_clust_5="13000.00000" pt_clust_6="13000.00000" pt_clust_7="13000.00000" pt_clust_8="13000.00000" pt_clust_9="59.40728"></scales>
<clustering>
<clus scale="   59.407">  2  9  1 -1</clus>
<clus scale="   81.698">  5  6 -1 -1</clus>
<clus scale="   91.229">  7  8 -1 -1</clus>
<clus scale="  139.825">  1  5  2 -1</clus>
<clus scale="   59.407">  2  5  1 -1</clus>
</clustering>
</event>
<event>
 9    1  0.7835476E-005  0.1566311E+03  0.7546771E-02  0.1194179E+00
          1   -1    0    0  502    0 -0.00000000000E+00  0.00000000000E+00  0.33972564443E+03  0.33972564443E+03  0.00000000000E+00 0. -1.
         21   -1    0    0  501  502  0.00000000000E+00 -0.00000000000E+00 -0.10597393037E+03  0.10597393037E+03  0.00000000000E+00 0.  1.
         23    2    1    2    0    0  0.39159982685E+02  0.11924261010E+03  0.10427092683E+03  0.18718116664E+03  0.91717275669E+02 0.  0.
        -24    2    1    2    0    0  0.38670006517E+01 -0.13354765280E+03  0.45738615794E+02  0.16328865010E+03  0.81983126392E+02 0.  0.
         11    1    4    4    0    0  0.39509950364E+02 -0.10056351584E+03  0.34757449010E+02  0.11349950289E+03  0.00000000000E+00 0. -1.
        -12    1    4    4    0    0 -0.35642949713E+02 -0.32984136970E+02  0.10981166784E+02  0.49789147209E+02  0.00000000000E+00 0.  1.
        -13    1    3    3    0    0 -0.24495971869E+02  0.30618628625E+02  0.54776184014E+02  0.67364555902E+02  0.00000000000E+00 0. -1.
         13    1    3    3    0    0  0.63655954554E+02  0.88623981478E+02  0.49494742811E+02  0.11981661074E+03  0.00000000000E+00 0.  1.
          2    1    1    2  501    0 -0.43026983336E+02  0.14305042701E+02  0.83742171441E+02  0.95229758055E+02  0.00000000000E+00 0. -1.
<scales pt_clust_5="13000.00000" pt_clust_6="13000.00000" pt_clust_7="13000.00000" pt_clust_8="13000.00000" pt_clust_9="45.34267"></scales>
<clustering>
<clus scale="   45.343">  2  9  1 -1</clus>
<clus scale="   81.983">  5  6 -1 -1</clus>
<clus scale="   91.717">  7  8 -1 -1</clus>
<clus scale="  151.137">  2  5  1 -1</clus>
<clus scale="   45.343">  2  5  1 -1</clus>
</clustering>
</event>
<event>
 9    1  0.7835476E-005  0.1022124E+03  0.7546771E-02  0.1281193E+00
          1   -1    0    0  502    0 -0.00000000000E+00  0.00000000000E+00  0.57440343289E+03  0.57440343289E+03  0.00000000000E+00 0. -1.
         21   -1    0    0  501  502  0.00000000000E+00 -0.00000000000E+00 -0.11358835725E+03  0.11358835725E+03  0.00000000000E+00 0. -1.
        -24    2    1    2    0    0  0.29264398510E+02  0.22532180139E+02  0.25699319822E+03  0.27159888385E+03  0.79726693215E+02 0.  0.
         23    2    1    2    0    0 -0.52142213898E+02 -0.26205633759E+02  0.29921877516E+03  0.31822235674E+03  0.91258135017E+02 0.  0.
         13    1    3    3    0    0  0.35665395532E+02 -0.17867229782E+02  0.73760722704E+02  0.83856440136E+02  0.00000000000E+00 0. -1.
        -14    1    3    3    0    0 -0.64009970219E+01  0.40399409921E+02  0.18323247552E+03  0.18774244371E+03  0.00000000000E+00 0.  1.
        -11    1    4    4    0    0 -0.41715945525E+02  0.27406704195E+02  0.10165156234E+03  0.11324481300E+03  0.00000000000E+00 0.  1.
         11    1    4    4    0    0 -0.10426268373E+02 -0.53612337953E+02  0.19756721282E+03  0.20497754374E+03  0.00000000000E+00 0. -1.
          2    1    1    2  501    0  0.22877815388E+02  0.36734536197E+01 -0.95396897748E+02  0.98170549547E+02  0.00000000000E+00 0. -1.
<scales pt_clust_5="13000.00000" pt_clust_6="13000.00000" pt_clust_7="13000.00000" pt_clust_8="13000.00000" pt_clust_9="23.17086"></scales>
<clustering>
<clus scale="   23.171">  2  9  1 -1</clus>
<clus scale="   79.727">  5  6 -1 -1</clus>
<clus scale="   91.258">  7  8 -1 -1</clus>
<clus scale="   92.063">  1  5  2 -1</clus>
<clus scale="   23.171">  2  5  1 -1</clus>
</clustering>
</event>
<event>
 9    1  0.7835476E-005  0.1467154E+03  0.7546771E-02  0.1206387E+00
         21   -1    0    0  501  502  0.00000000000E+00  0.00000000000E+00  0.73176139985E+02  0.73176139985E+02  0.00000000000E+00 0. -1.
          1   -1    0    0  502    0 -0.00000000000E+00 -0.00000000000E+00 -0.63247102746E+03  0.63247102746E+03  0.00000000000E+00 0. -1.
         23    2    1    2    0    0  0.10674877245E+03 -0.64648652879E+02 -0.48929269752E+03  0.51300006242E+03  0.90481884666E+02 0.  0.
        -24    2    1    2    0    0 -0.91219304319E+02  0.15146499217E+02 -0.68502299760E+02  0.14074453026E+03  0.81031350757E+02 0.  0.
         11    1    4    4    0    0 -0.64615258309E+02  0.19759828551E+01 -0.84994484095E+02  0.10678529131E+03  0.00000000000E+00 0. -1.
        -12    1    4    4    0    0 -0.26604046010E+02  0.13170516362E+02  0.16492184335E+02  0.33959238941E+02  0.00000000000E+00 0.  1.
        -13    1    3    3    0    0  0.23062851475E+02  0.18084775619E+02 -0.47593732761E+02  0.55893806682E+02  0.00000000000E+00 0.  1.
         13    1    3    3    0    0  0.83685920971E+02 -0.82733428498E+02 -0.44169896476E+03  0.45710625573E+03  0.00000000000E+00 0. -1.
          2    1    1    2  501    0 -0.15529468127E+02  0.49502153662E+02 -0.14998901934E+01  0.51902574774E+02  0.00000000000E+00 0. -1.
<scales pt_clust_5="13000.00000" pt_clust_6="13000.00000" pt_clust_7="13000.00000" pt_clust_8="13000.00000" pt_clust_9="51.88090"></scales>
<clustering>
<clus scale="   51.881">  1  9  2 -1</clus>
<clus scale="   81.031">  5  6 -1 -1</clus>
<clus scale="   90.482">  7  8 -1 -1</clus>
<clus scale="  141.083">  1  5  2 -1</clus>
<clus scale="   51.881">  1  5  2 -1</clus>
</clustering>
</event>
<event>
 9    1  0.7835476E-005  0.1436880E+03  0.7546771E-02  0.1215535E+00
         21   -1    0    0  501  502  0.00000000000E+00  0.00000000000E+00  0.77434123059E+03  0.77434123059E+03  0.00000000000E+00 0. -1.
          1   -1    0    0  502    0 -0.00000000000E+00 -0.00000000000E+00 -0.96678577653E+02  0.96678577653E+02  0.00000000000E+00 0. -1.
         23    2    1    2    0    0 -0.36452527116E+02 -0.78067257073E+02  0.18387877197E+03  0.22154737672E+03  0.88592065046E+02 0.  0.
        -24    2    1    2    0    0  0.31953030713E+02 -0.86105336687E+02  0.46198037113E+03  0.48218719832E+03  0.10316736763E+03 0.  0.
         11    1    4    4    0    0  0.56289400075E+02 -0.92885066879E+02  0.31874510858E+03  0.33674111192E+03  0.00000000000E+00 0. -1.
        -12    1    4    4    0    0 -0.24336369362E+02  0.67797301922E+01  0.14323526254E+03  0.14544608641E+03  0.00000000000E+00 0.  1.
        -11    1    3    3    0    0  0.19041433230E+02  0.69301005404E+01  0.46598928969E+02  0.50814000571E+02  0.00000000000E+00 0.  1.
         11    1    3    3    0    0 -0.55493960345E+02 -0.84997357614E+02  0.13727984300E+03  0.17073337615E+03  0.00000000000E+00 0. -1.
          2    1    1    2  501    0  0.44994964029E+01  0.16417259376E+03  0.31803509844E+02  0.16728523320E+03  0.00000000000E+00 0. -1.
<scales pt_clust_5="13000.00000" pt_clust_6="13000.00000" pt_clust_7="13000.00000" pt_clust_8="13000.00000" pt_clust_9="100.01366"></scales>
<clustering>
<clus scale="   88.592">  7  8 -1 -1</clus>
<clus scale="  103.167">  5  6 -1 -1</clus>
<clus scale="  123.579">  2  7  1 -1</clus>
<clus scale="  100.014">  1  9  2 -1</clus>
<clus scale="  100.014">  1  5  2 -1</clus>
</clustering>
</event>
<event>
 9    1  0.7835476E-005  0.2245780E+03  0.7546771E-02  0.1146658E+00
         21   -1    0    0  501  502  0.00000000000E+00  0.00000000000E+00  0.19558997582E+03  0.19558997582E+03  0.00000000000E+00 0. -1.
          1   -1    0    0  502    0 -0.00000000000E+00 -0.00000000000E+00 -0.47803480687E+03  0.47803480687E+03  0.00000000000E+00 0. -1.
         23    2    1    2    0    0  0.10068846289E+03 -0.62944378239E+02 -0.93501775866E+02  0.17844892414E+03  0.94875050074E+02 0.  0.
        -24    2    1    2    0    0 -0.10799533007E+03  0.24286991095E+03 -0.11593257653E+03  0.30086395047E+03  0.80187090151E+02 0.  0.
         11    1    4    4    0    0 -0.80702646152E+02  0.19571097861E+03 -0.54201540455E+02  0.21852576789E+03  0.00000000000E+00 0. -1.
        -12    1    4    4    0    0 -0.27292683921E+02  0.47158932338E+02 -0.61731036072E+02  0.82338182573E+02  0.00000000000E+00 0.  1.
        -13    1    3    3    0    0  0.60238628459E+02 -0.48636803321E+00 -0.84093907938E+02  0.10344425680E+03  0.00000000000E+00 0.  1.
         13    1    3    3    0    0  0.40449834427E+02 -0.62458010206E+02 -0.94078679287E+01  0.75004667341E+02  0.00000000000E+00 0. -1.
          2    1    1    2  501    0  0.73068671874E+01 -0.17992553271E+03 -0.73010478653E+02  0.19431190808E+03  0.00000000000E+00 0. -1.
<scales pt_clust_5="13000.00000" pt_clust_6="13000.00000" pt_clust_7="13000.00000" pt_clust_8="13000.00000" pt_clust_9="209.77444"></scales>
<clustering>
<clus scale="   80.187">  5  6 -1 -1</clus>
<clus scale="   94.875">  7  8 -1 -1</clus>
<clus scale="  151.992">  2  7  1 -1</clus>
<clus scale="  209.774">  1  9  2 -1</clus>
<clus scale="  209.774">  1  5  2 -1</clus>
</clustering>
</event>
<event>
 9    1  0.7835476E-005  0.1037644E+03  0.7546771E-02  0.1278601E+00
          3   -1    0    0  502    0 -0.00000000000E+00  0.00000000000E+00  0.12295060169E+03  0.12295060169E+03  0.00000000000E+00 0. -1.
         21   -1    0    0  501  502  0.00000000000E+00 -0.00000000000E+00 -0.18730145782E+03  0.18730145782E+03  0.00000000000E+00 0. -1.
        -24    2    1    2    0    0 -0.20524233859E+02 -0.63976858128E+02  0.28660212628E+02  0.10888041067E+03  0.80741894256E+02 0.  0.
         23    2    1    2    0    0 -0.33684669487E+02  0.65159200040E+01 -0.50355090550E+02  0.11159471924E+03  0.93491347439E+02 0.  0.
         13    1    3    3    0    0 -0.30152413497E+02 -0.79114061291E+02  0.14220343037E+02  0.85851155436E+02  0.00000000000E+00 0. -1.
        -14    1    3    3    0    0  0.96281796384E+01  0.15137203163E+02  0.14439869591E+02  0.23029255232E+02  0.00000000000E+00 0.  1.
        -11    1    4    4    0    0 -0.28191068985E+02 -0.41418445415E+02 -0.16872698609E+02  0.52866926802E+02  0.00000000000E+00 0.  1.
         11    1    4    4    0    0 -0.54936005013E+01  0.47934365419E+02 -0.33482391941E+02  0.58727792438E+02  0.00000000000E+00 0. -1.
          4    1    1    2  501    0  0.54208903345E+02  0.57460938124E+02 -0.42655978205E+02  0.89776929601E+02  0.00000000000E+00 0. -1.
<scales pt_clust_5="13000.00000" pt_clust_6="13000.00000" pt_clust_7="13000.00000" pt_clust_8="13000.00000" pt_clust_9="78.99598"></scales>
<clustering>
<clus scale="   78.996">  2  9  1 -1</clus>
<clus scale="   80.742">  5  6 -1 -1</clus>
<clus scale="   92.443">  1  5  2 -1</clus>
<clus scale="   93.491">  7  8 -1 -1</clus>
<clus scale="   78.996">  2  5  1 -1</clus>
</clustering>
</event>
<event>
 9    1  0.7835476E-005  0.1294808E+03  0.7546771E-02  0.1228769E+00
          1   -1    0    0  502    0 -0.00000000000E+00  0.00000000000E+00  0.49818156814E+03  0.49818156814E+03  0.00000000000E+00 0. -1.
         21   -1    0    0  501  502  0.00000000000E+00 -0.00000000000E+00 -0.40424027229E+02  0.40424027229E+02  0.00000000000E+00 0.  1.
         23    2    1    2    0    0 -0.91443975459E+02  0.32335605039E+02  0.25178413702E+03  0.28622920848E+03  0.95521286281E+02 0.  0.
        -24    2    1    2    0    0  0.69027334632E+02 -0.35738644386E+02  0.18552258487E+03  0.22184243101E+03  0.93559665840E+02 0.  0.
         13    1    4    4    0    0  0.28006608968E+02 -0.57138890014E+02  0.15177522535E+03  0.16457503434E+03  0.00000000000E+00 0. -1.
        -14    1    4    4    0    0  0.41020725664E+02  0.21400245629E+02  0.33747359513E+02  0.57267396668E+02  0.00000000000E+00 0.  1.
        -13    1    3    3    0    0 -0.95722847796E+02 -0.60703902427E+01  0.15856223617E+03  0.18531512612E+03  0.00000000000E+00 0.  1.
         13    1    3    3    0    0  0.42788723364E+01  0.38405995282E+02  0.93221900845E+02  0.10091408236E+03  0.00000000000E+00 0. -1.
          2    1    1    2  501    0  0.22416640827E+02  0.34030393462E+01  0.20450819030E+02  0.30533955881E+02  0.00000000000E+00 0. -1.
<scales pt_clust_5="13000.00000" pt_clust_6="13000.00000" pt_clust_7="13000.00000" pt_clust_8="13000.00000" pt_clust_9="22.67347"></scales>
<clustering>
<clus scale="   22.673">  2  9  1 -1</clus>
<clus scale="   93.560">  5  6 -1 -1</clus>
<clus scale="   95.521">  7  8 -1 -1</clus>
<clus scale="  128.040">  2  5  1 -1</clus>
<clus scale="   22.673">  2  5  1 -1</clus>
</clustering>
</event>
<event>
 9    1  0.7835476E-005  0.9434981E+02  0.7546771E-02  0.1299700E+00
         21   -1    0    0  501  502  0.00000000000E+00  0.00000000000E+00  0.33972817696E+02  0.33972817696E+02  0.00000000000E+00 0. -1.
         -2   -1    0    0    0  501 -0.00000000000E+00 -0.00000000000E+00 -0.41968960434E+03  0.41968960434E+03  0.00000000000E+00 0.  1.
        -24    2    1    2    0    0  0.17214381674E+01 -0.25814997048E+02 -0.26443625449E+03  0.27771799057E+03  0.80816905257E+02 0.  0.
         23    2    1    2    0    0 -0.12753720578E+01 -0.17198180728E+01 -0.11502988944E+03  0.14770553005E+03  0.92630792905E+02 0.  0.
         11    1    3    3    0    0 -0.23588425676E+02 -0.45052412386E+02 -0.13045178985E+03  0.14001358206E+03  0.00000000000E+00 0. -1.
        -12    1    3    3    0    0  0.25309863843E+02  0.19237415338E+02 -0.13398446464E+03  0.13770440851E+03  0.00000000000E+00 0.  1.
        -13    1    4    4    0    0  0.28824222866E+02  0.19325143477E+02 -0.10357428637E+03  0.10923337307E+03  0.00000000000E+00 0.  1.
         13    1    4    4    0    0 -0.30099594924E+02 -0.21044961550E+02 -0.11455603070E+02  0.38472156983E+02  0.00000000000E+00 0. -1.
         -1    1    1    2    0  502 -0.44606610959E+00  0.27534815121E+02 -0.62506427078E+01  0.28238901413E+02  0.00000000000E+00 0.  1.
<scales pt_clust_5="13000.00000" pt_clust_6="13000.00000" pt_clust_7="13000.00000" pt_clust_8="13000.00000" pt_clust_9="27.53843"></scales>
<clustering>
<clus scale="   27.538">  1  9  2 -1</clus>
<clus scale="   80.817">  5  6 -1 -1</clus>
<clus scale="   82.782">  2  5  1 -1</clus>
<clus scale="   92.631">  7  8 -1 -1</clus>
<clus scale="   27.538">  1  5  2 -1</clus>
</clustering>
</event>
<event>
 9    1  0.7835476E-005  0.9573215E+02  0.7546771E-02  0.1295698E+00
          1   -1    0    0  502    0 -0.00000000000E+00  0.00000000000E+00  0.48167115519E+03  0.48167115519E+03  0.00000000000E+00 0. -1.
         21   -1    0    0  501  502  0.00000000000E+00 -0.00000000000E+00 -0.30025367907E+02  0.30025367907E+02  0.00000000000E+00 0.  1.
        -24    2    1    2    0    0  0.91520039748E+01  0.37885687612E+02  0.19420723248E+03  0.21335125449E+03  0.79266790902E+02 0.  0.
         23    2    1    2    0    0 -0.18889221508E+02 -0.11385627084E+02  0.93113582908E+02  0.13161265932E+03  0.90362146821E+02 0.  0.
         13    1    3    3    0    0 -0.24818526474E+02 -0.79794294474E+01  0.31298639247E+02  0.40733712933E+02  0.00000000000E+00 0. -1.
        -14    1    3    3    0    0  0.33970530448E+02  0.45865117059E+02  0.16290859324E+03  0.17261754155E+03  0.00000000000E+00 0.  1.
        -11    1    4    4    0    0 -0.39853807844E+02  0.19024358561E+02  0.17580867620E+02  0.47532505978E+02  0.00000000000E+00 0.  1.
         11    1    4    4    0    0  0.20964586336E+02 -0.30409985645E+02  0.75532715288E+02  0.84080153342E+02  0.00000000000E+00 0. -1.
          2    1    1    2  501    0  0.97372175332E+01 -0.26500060527E+02  0.16432497190E+03  0.16673260929E+03  0.00000000000E+00 0. -1.
<scales pt_clust_5="13000.00000" pt_clust_6="13000.00000" pt_clust_7="13000.00000" pt_clust_8="13000.00000" pt_clust_9="28.23238"></scales>
<clustering>
<clus scale="   28.232">  2  9  1 -1</clus>
<clus scale="   79.267">  5  6 -1 -1</clus>
<clus scale="   85.338">  1  5  2 -1</clus>
<clus scale="   90.362">  7  8 -1 -1</clus>
<clus scale="   28.232">  2  5  1 -1</clus>
</clustering>
</event>
<event>
 9    1  0.7835476E-005  0.1050470E+03  0.7546771E-02  0.1279015E+00
         21   -1    0    0  501  502  0.00000000000E+00  0.00000000000E+00  0.53891250989E+02  0.53891250989E+02  0.00000000000E+00 0. -1.
          1   -1    0    0  502    0 -0.00000000000E+00 -0.00000000000E+00 -0.30474443432E+03  0.30474443432E+03  0.00000000000E+00 0. -1.
         23    2    1    2    0    0  0.50087667569E+00 -0.38459554595E+02 -0.18919993099E+03  0.21657388945E+03  0.98123633668E+02 0.  0.
        -24    2    1    2    0    0  0.31159512342E+02  0.31330219400E+02 -0.60404934266E+02  0.10958463541E+03  0.80047100994E+02 0.  0.
         11    1    4    4    0    0  0.53718524218E+02  0.10483340277E+02 -0.18802881243E+02  0.57871656366E+02  0.00000000000E+00 0. -1.
        -12    1    4    4    0    0 -0.22559011876E+02  0.20846879123E+02 -0.41602053023E+02  0.51712979045E+02  0.00000000000E+00 0.  1.
        -13    1    3    3    0    0 -0.32951913301E+02  0.19627241107E+02 -0.67632716100E+02  0.77751150929E+02  0.00000000000E+00 0.  1.
         13    1    3    3    0    0  0.33452789977E+02 -0.58086795703E+02 -0.12156721489E+03  0.13882273852E+03  0.00000000000E+00 0. -1.
          2    1    1    2  501    0 -0.31660389017E+02  0.71293351953E+01 -0.12483180722E+01  0.32477160453E+02  0.00000000000E+00 0. -1.
<scales pt_clust_5="13000.00000" pt_clust_6="13000.00000" pt_clust_7="13000.00000" pt_clust_8="13000.00000" pt_clust_9="32.45316"></scales>
<clustering>
<clus scale="   32.453">  1  9  2 -1</clus>
<clus scale="   80.047">  5  6 -1 -1</clus>
<clus scale="   88.398">  1  5  2 -1</clus>
<clus scale="   98.124">  7  8 -1 -1</clus>
<clus scale="   32.453">  1  5  2 -1</clus>
</clustering>
</event>
<event>
 9    1  0.7835476E-005  0.2292366E+03  0.7546771E-02  0.1170326E+00
         21   -1    0    0  501  502  0.00000000000E+00  0.00000000000E+00  0.30061314102E+03  0.30061314102E+03  0.00000000000E+00 0. -1.
          1   -1    0    0  502    0 -0.00000000000E+00 -0.00000000000E+00 -0.38744824200E+03  0.38744824200E+03  0.00000000000E+00 0. -1.
        -24    2    1    2    0    0 -0.15958351953E+02 -0.50121594149E+01 -0.70566360143E+02  0.10837253135E+03  0.80530761999E+02 0.  0.
         23    2    1    2    0    0 -0.13626521501E+02 -0.20382455904E+03 -0.19962836670E+03  0.30020934954E+03  0.92433953760E+02 0.  0.
         11    1    3    3    0    0 -0.29453983394E+02 -0.26088514064E+02 -0.68777175235E+01  0.39943093298E+02  0.00000000000E+00 0. -1.
        -12    1    3    3    0    0  0.13495631441E+02  0.21076354649E+02 -0.63688642620E+02  0.68429438052E+02  0.00000000000E+00 0.  1.
        -11    1    4    4    0    0  0.33584958264E+02 -0.49585758748E+02 -0.33353299940E+02  0.68550269942E+02  0.00000000000E+00 0.  1.
         11    1    4    4    0    0 -0.47211479766E+02 -0.15423880029E+03 -0.16627506676E+03  0.23165907960E+03  0.00000000000E+00 0. -1.
          2    1    1    2  501    0  0.29584873454E+02  0.20883671845E+03  0.18335962586E+03  0.27947950212E+03  0.00000000000E+00 0. -1.
<scales pt_clust_5="13000.00000" pt_clust_6="13000.00000" pt_clust_7="13000.00000" pt_clust_8="13000.00000" pt_clust_9="209.77459"></scales>
<clustering>
<clus scale="   80.531">  5  6 -1 -1</clus>
<clus scale="   82.250">  2  5  1 -1</clus>
<clus scale="   92.434">  7  8 -1 -1</clus>
<clus scale="  209.775">  1  9  2 -1</clus>
<clus scale="  209.775">  1  5  2 -1</clus>
</clustering>
</event>
<event>
 9    1  0.7835476E-005  0.1164456E+03  0.7546771E-02  0.1251378E+00
          1   -1    0    0  502    0 -0.00000000000E+00  0.00000000000E+00  0.34889250524E+03  0.34889250524E+03  0.00000000000E+00 0. -1.
         21   -1    0    0  501  502  0.00000000000E+00 -0.00000000000E+00 -0.69126104061E+02  0.69126104061E+02  0.00000000000E+00 0. -1.
         23    2    1    2    0    0  0.29141403004E+02  0.71009692834E+02  0.21846630114E+03  0.24785240402E+03  0.88383774509E+02 0.  0.
        -24    2    1    2    0    0  0.51352357217E+00 -0.77251025440E+02  0.12739916210E+02  0.11292583180E+03  0.81375385626E+02 0.  0.
         13    1    4    4    0    0  0.39162753525E+02 -0.35518160390E+02 -0.55897022460E+01  0.53164892103E+02  0.00000000000E+00 0. -1.
        -14    1    4    4    0    0 -0.38649229953E+02 -0.41732865050E+02  0.18329618456E+02  0.59760939701E+02  0.00000000000E+00 0.  1.
        -13    1    3    3    0    0  0.55353800910E+02  0.18485762750E+02  0.10934653877E+03  0.12394527922E+03  0.00000000000E+00 0. -1.
         13    1    3    3    0    0 -0.26212397906E+02  0.52523930084E+02  0.10911976237E+03  0.12390712479E+03  0.00000000000E+00 0.  1.
          2    1    1    2  501    0 -0.29654926576E+02  0.62413326059E+01  0.48560183827E+02  0.57240373481E+02  0.00000000000E+00 0. -1.
<scales pt_clust_5="13000.00000" pt_clust_6="13000.00000" pt_clust_7="13000.00000" pt_clust_8="13000.00000" pt_clust_9="30.30462"></scales>
<clustering>
<clus scale="   30.305">  2  9  1 -1</clus>
<clus scale="   81.375">  5  6 -1 -1</clus>
<clus scale="   88.384">  7  8 -1 -1</clus>
<clus scale="  111.220">  2  5  1 -1</clus>
<clus scale="   30.305">  2  5  1 -1</clus>
</clustering>
</event>
<event>
 9    1  0.7835476E-005  0.1247805E+03  0.7546771E-02  0.1239205E+00
         21   -1    0    0  501  502  0.00000000000E+00  0.00000000000E+00  0.19011544176E+03  0.19011544176E+03  0.00000000000E+00 0. -1.
          1   -1    0    0  502    0 -0.00000000000E+00 -0.00000000000E+00 -0.24142234506E+03  0.24142234506E+03  0.00000000000E+00 0. -1.
        -24    2    1    2    0    0 -0.52467124528E+01 -0.88863400940E+02 -0.18282393612E+03  0.21941763989E+03  0.82433470506E+02 0.  0.
         23    2    1    2    0    0  0.53144011302E+00  0.45868681106E+02  0.43639482405E+02  0.11417504193E+03  0.95012196265E+02 0.  0.
         13    1    3    3    0    0  0.21382575836E+02 -0.92020981715E+02 -0.14016966302E+03  0.16903434579E+03  0.00000000000E+00 0. -1.
        -14    1    3    3    0    0 -0.26629288288E+02  0.31575807751E+01 -0.42654273095E+02  0.50383294100E+02  0.00000000000E+00 0.  1.
        -13    1    4    4    0    0 -0.43282763593E+02  0.39872690102E+02  0.12700313243E+02  0.60204044687E+02  0.00000000000E+00 0.  1.
         13    1    4    4    0    0  0.43814203706E+02  0.59959910037E+01  0.30939169162E+02  0.53970997239E+02  0.00000000000E+00 0. -1.
          2    1    1    2  501    0  0.47152723398E+01  0.42994719835E+02  0.87877550414E+02  0.97945105001E+02  0.00000000000E+00 0. -1.
<scales pt_clust_5="13000.00000" pt_clust_6="13000.00000" pt_clust_7="13000.00000" pt_clust_8="13000.00000" pt_clust_9="43.25251"></scales>
<clustering>
<clus scale="   43.253">  1  9  2 -1</clus>
<clus scale="   82.433">  5  6 -1 -1</clus>
<clus scale="   95.012">  7  8 -1 -1</clus>
<clus scale="  115.491">  2  5  1 -1</clus>
<clus scale="   43.253">  1  5  2 -1</clus>
</clustering>
</event>
<event>
 9    1  0.7835476E-005  0.9633648E+02  0.7546771E-02  0.1294730E+00
          1   -1    0    0  502    0 -0.00000000000E+00  0.00000000000E+00  0.10951376443E+03  0.10951376443E+03  0.00000000000E+00 0. -1.
         21   -1    0    0  501  502  0.00000000000E+00 -0.00000000000E+00 -0.17805849249E+03  0.17805849249E+03  0.00000000000E+00 0.  1.
         23    2    1    2    0    0  0.51255596494E+02  0.85090538998E+01  0.33919320132E+02  0.10979830910E+03  0.90584812376E+02 0.  0.
        -24    2    1    2    0    0  0.10462923356E+02  0.82387751123E+01 -0.69444424477E+02  0.10580200176E+03  0.78703146729E+02 0.  0.
         11    1    4    4    0    0 -0.26848114743E+02  0.24591915538E+02 -0.46464877554E+02  0.59030233111E+02  0.00000000000E+00 0. -1.
        -12    1    4    4    0    0  0.37311038099E+02 -0.16353140425E+02 -0.22979546923E+02  0.46771768649E+02  0.00000000000E+00 0.  1.
        -13    1    3    3    0    0  0.14453947453E+02  0.39748822426E+02  0.43402643619E+02  0.60602598577E+02  0.00000000000E+00 0. -1.
         13    1    3    3    0    0  0.36801649041E+02 -0.31239768526E+02 -0.94833234861E+01  0.49195710525E+02  0.00000000000E+00 0.  1.
          2    1    1    2  501    0 -0.61718519849E+02 -0.16747829012E+02 -0.33019623720E+02  0.71971946060E+02  0.00000000000E+00 0. -1.
<scales pt_clust_5="13000.00000" pt_clust_6="13000.00000" pt_clust_7="13000.00000" pt_clust_8="13000.00000" pt_clust_9="63.95049"></scales>
<clustering>
<clus scale="   63.950">  2  9  1 -1</clus>
<clus scale="   78.703">  5  6 -1 -1</clus>
<clus scale="   85.260">  2  5  1 -1</clus>
<clus scale="   90.585">  7  8 -1 -1</clus>
<clus scale="   63.950">  2  5  1 -1</clus>
</clustering>
</event>
<event>
 9    1  0.7835476E-005  0.1298476E+03  0.7546771E-02  0.1230160E+00
          1   -1    0    0  502    0 -0.00000000000E+00  0.00000000000E+00  0.91964311725E+03  0.91964311725E+03  0.00000000000E+00 0. -1.
         21   -1    0    0  501  502  0.00000000000E+00 -0.00000000000E+00 -0.26037445759E+02  0.26037445759E+02  0.00000000000E+00 0. -1.
        -24    2    1    2    0    0  0.14851583168E+02 -0.94723844936E+02  0.40238951511E+03  0.42144693924E+03  0.80666129254E+02 0.  0.
         23    2    1    2    0    0 -0.60610702703E+02  0.76082404215E+02  0.38090882169E+03  0.40336547900E+03  0.90277293328E+02 0.  0.
         11    1    3    3    0    0  0.47438775887E+02 -0.53890205818E+02  0.26174264125E+03  0.27141076248E+03  0.00000000000E+00 0. -1.
        -12    1    3    3    0    0 -0.32587192719E+02 -0.40833639118E+02  0.14064687386E+03  0.15003617677E+03  0.00000000000E+00 0.  1.
        -13    1    4    4    0    0  0.14532879360E+02  0.51005162287E+02  0.13659534411E+03  0.14652992594E+03  0.00000000000E+00 0.  1.
         13    1    4    4    0    0 -0.75143582063E+02  0.25077241929E+02  0.24431347758E+03  0.25683555306E+03  0.00000000000E+00 0. -1.
          2    1    1    2  501    0  0.45759119535E+02  0.18641440720E+02  0.11030733469E+03  0.12086814477E+03  0.00000000000E+00 0. -1.
<scales pt_clust_5="13000.00000" pt_clust_6="13000.00000" pt_clust_7="13000.00000" pt_clust_8="13000.00000" pt_clust_9="49.41053"></scales>
<clustering>
<clus scale="   49.411">  2  9  1 -1</clus>
<clus scale="   80.666">  5  6 -1 -1</clus>
<clus scale="   90.277">  7  8 -1 -1</clus>
<clus scale="  123.359">  1  5  2 -1</clus>
<clus scale="   49.411">  2  5  1 -1</clus>
</clustering>
</event>
<event>
 9    1  0.8590412E-005  0.3930329E+03  0.7546771E-02  0.1095227E+00
         -2   -1    0    0    0  501 -0.00000000000E+00  0.00000000000E+00  0.54899655716E+03  0.54899655716E+03  0.00000000000E+00 0.  1.
         21   -1    0    0  501  502  0.00000000000E+00 -0.00000000000E+00 -0.61452735817E+03  0.61452735817E+03  0.00000000000E+00 0.  1.
        -24    2    1    2    0    0 -0.54054845185E+02 -0.34090885603E+02  0.14230388403E+03  0.17535788876E+03  0.80099182081E+02 0.  0.
         23    2    1    2    0    0  0.38033053039E+03  0.10606480965E+03 -0.42684755539E+03  0.58866295290E+03  0.91783333890E+02 0.  0.
         11    1    3    3    0    0 -0.28740572884E+02  0.19258262404E+02  0.90198140772E+02  0.96605412888E+02  0.00000000000E+00 0. -1.
        -12    1    3    3    0    0 -0.25314272301E+02 -0.53349148007E+02  0.52105743262E+02  0.78752475873E+02  0.00000000000E+00 0.  1.
        -13    1    4    4    0    0  0.13286601159E+03  0.66996453490E+02 -0.20966066730E+03  0.25709822486E+03  0.00000000000E+00 0.  1.
         13    1    4    4    0    0  0.24746451880E+03  0.39068356157E+02 -0.21718688809E+03  0.33156472803E+03  0.00000000000E+00 0. -1.
         -1    1    1    2    0  502 -0.32627568520E+03 -0.71973924044E+02  0.21901287035E+03  0.39950307367E+03  0.00000000000E+00 0.  1.
<scales pt_clust_5="13000.00000" pt_clust_6="13000.00000" pt_clust_7="13000.00000" pt_clust_8="13000.00000" pt_clust_9="382.16592"></scales>
<clustering>
<clus scale="   80.099">  5  6 -1 -1</clus>
<clus scale="   91.783">  7  8 -1 -1</clus>
<clus scale="  102.469">  1  5  2 -1</clus>
<clus scale="  382.166">  2  9  1 -1</clus>
<clus scale="  382.166">  2  5  1 -1</clus>
</clustering>
</event>
<event>
 9    1  0.7835476E-005  0.1286432E+03  0.7546771E-02  0.1236115E+00
         21   -1    0    0  501  502  0.00000000000E+00  0.00000000000E+00  0.13599164274E+03  0.13599164274E+03  0.00000000000E+00 0.  1.
          3   -1    0    0  502    0 -0.00000000000E+00 -0.00000000000E+00 -0.23479292384E+03  0.23479292384E+03  0.00000000000E+00 0. -1.
         23    2    1    2    0    0  0.90360778518E+02  0.57403770634E+01 -0.17131104950E+03  0.21381186161E+03  0.90388131203E+02 0.  0.
        -24    2    1    2    0    0 -0.94314928212E+02 -0.26620049443E+02  0.65517506071E+02  0.13460112142E+03  0.64969112422E+02 0.  0.
         13    1    4    4    0    0 -0.20463898606E+02 -0.19399660421E+02 -0.88417663326E+01  0.29551561761E+02  0.00000000000E+00 0. -1.
        -14    1    4    4    0    0 -0.73851029606E+02 -0.72203890214E+01  0.74359272404E+02  0.10504955966E+03  0.00000000000E+00 0.  1.
        -13    1    3    3    0    0  0.57088634002E+02  0.16397228385E+02 -0.26845455379E+02  0.65181743651E+02  0.00000000000E+00 0.  1.
         13    1    3    3    0    0  0.33272144516E+02 -0.10656851321E+02 -0.14446559412E+03  0.14863011796E+03  0.00000000000E+00 0. -1.
          4    1    1    2  501    0  0.39541496946E+01  0.20879672379E+02  0.69922623234E+01  0.22371583558E+02  0.00000000000E+00 0. -1.
<scales pt_clust_5="13000.00000" pt_clust_6="13000.00000" pt_clust_7="13000.00000" pt_clust_8="13000.00000" pt_clust_9="21.25079"></scales>
<clustering>
<clus scale="   21.251">  1  9  2 -1</clus>
<clus scale="   64.969">  5  6 -1 -1</clus>
<clus scale="   90.388">  7  8 -1 -1</clus>
<clus scale="  112.250">  1  5  2 -1</clus>
<clus scale="   21.251">  1  5  2 -1</clus>
</clustering>
</event>
<event>
 9    1  0.7835476E-005  0.1007809E+03  0.7546771E-02  0.1283057E+00
          3   -1    0    0  502    0 -0.00000000000E+00  0.00000000000E+00  0.24986165449E+03  0.24986165449E+03  0.00000000000E+00 0. -1.
         21   -1    0    0  501  502  0.00000000000E+00 -0.00000000000E+00 -0.15925189092E+03  0.15925189092E+03  0.00000000000E+00 0.  1.
         23    2    1    2    0    0  0.48086836155E+02  0.14609250281E+02  0.20790287059E+03  0.23186450510E+03  0.89508497470E+02 0.  0.
        -24    2    1    2    0    0 -0.25993632529E+02 -0.15280474262E+01 -0.35609772840E+02  0.91625476987E+02  0.80306713607E+02 0.  0.
         13    1    4    4    0    0  0.31242032014E+01  0.19937700444E+02  0.17939841605E+02  0.27002045505E+02  0.00000000000E+00 0. -1.
        -14    1    4    4    0    0 -0.29117835730E+02 -0.21465747870E+02 -0.53549614445E+02  0.64623431482E+02  0.00000000000E+00 0.  1.
        -11    1    3    3    0    0  0.10696019466E+01  0.29289945542E+02  0.16168540821E+03  0.16432046794E+03  0.00000000000E+00 0.  1.
         11    1    3    3    0    0  0.47017234208E+02 -0.14680695261E+02  0.46217462385E+02  0.67544037156E+02  0.00000000000E+00 0. -1.
          4    1    1    2  501    0 -0.22093203626E+02 -0.13081202854E+02 -0.81683334181E+02  0.85623563331E+02  0.00000000000E+00 0. -1.
<scales pt_clust_5="13000.00000" pt_clust_6="13000.00000" pt_clust_7="13000.00000" pt_clust_8="13000.00000" pt_clust_9="25.67543"></scales>
<clustering>
<clus scale="   25.675">  2  9  1 -1</clus>
<clus scale="   80.307">  5  6 -1 -1</clus>
<clus scale="   89.508">  7  8 -1 -1</clus>
<clus scale="   92.705">  2  5  1 -1</clus>
<clus scale="   25.675">  2  5  1 -1</clus>
</clustering>
</event>
<event>
 9    1  0.7835476E-005  0.1235933E+03  0.7546771E-02  0.1242197E+00
         -2   -1    0    0    0  501 -0.00000000000E+00  0.00000000000E+00  0.49848622427E+02  0.49848622427E+02  0.00000000000E+00 0.  1.
         21   -1    0    0  501  502  0.00000000000E+00 -0.00000000000E+00 -0.46061690546E+03  0.46061690546E+03  0.00000000000E+00 0.  1.
        -24    2    1    2    0    0  0.48410881343E+02 -0.95764926276E+02 -0.13689814622E+03  0.18984792038E+03  0.76069677919E+02 0.  0.
         23    2    1    2    0    0 -0.15047498382E+02  0.46880561470E+02 -0.20169499262E+03  0.22727925588E+03  0.92470405284E+02 0.  0.
         13    1    3    3    0    0  0.28741808244E+02 -0.36006374477E+02 -0.11389828554E+03  0.12286321660E+03  0.00000000000E+00 0. -1.
        -14    1    3    3    0    0  0.19669073099E+02 -0.59758551799E+02 -0.22999860676E+02  0.66984703782E+02  0.00000000000E+00 0.  1.
        -13    1    4    4    0    0  0.21117907938E+02 -0.37060884781E+01 -0.64789088434E+01  0.22398155890E+02  0.00000000000E+00 0. -1.
         13    1    4    4    0    0 -0.36165406320E+02  0.50586649949E+02 -0.19521608377E+03  0.20488109998E+03  0.00000000000E+00 0.  1.
         -1    1    1    2    0  502 -0.33363382961E+02  0.48884364805E+02 -0.72175144203E+02  0.93338351634E+02  0.00000000000E+00 0.  1.
<scales pt_clust_5="13000.00000" pt_clust_6="13000.00000" pt_clust_7="13000.00000" pt_clust_8="13000.00000" pt_clust_9="59.18446"></scales>
<clustering>
<clus scale="   59.184">  2  9  1 -1</clus>
<clus scale="   76.070">  5  6 -1 -1</clus>
<clus scale="   92.470">  7  8 -1 -1</clus>
<clus scale="  111.853">  1  5  2 -1</clus>
<clus scale="   59.184">  2  5  1 -1</clus>
</clustering>
</event>
<event>
 9    1  0.7835476E-005  0.1100405E+03  0.7546771E-02  0.1264754E+00
         21   -1    0    0  501  502  0.00000000000E+00  0.00000000000E+00  0.55897782036E+02  0.55897782036E+02  0.00000000000E+00 0.  1.
         -4   -1    0    0    0  501 -0.00000000000E+00 -0.00000000000E+00 -0.46986914189E+03  0.46986914189E+03  0.00000000000E+00 0.  1.
         23    2    1    2    0    0 -0.67402759294E+02 -0.61035614429E+01 -0.27805770273E+03  0.30023908995E+03  0.90813213056E+02 0.  0.
        -24    2    1    2    0    0  0.42236932363E+02 -0.22611633175E+02 -0.97249267092E+01  0.93689004600E+02  0.79923782274E+02 0.  0.
         13    1    4    4    0    0 -0.65634078936E+01 -0.36045933228E+02 -0.20435699971E+02  0.41952418986E+02  0.00000000000E+00 0. -1.
        -14    1    4    4    0    0  0.48800340257E+02  0.13434300053E+02  0.10710773262E+02  0.51736585614E+02  0.00000000000E+00 0.  1.
        -13    1    3    3    0    0 -0.38048720036E+02 -0.47196122049E+02 -0.18011514367E+03  0.19004379499E+03  0.00000000000E+00 0.  1.
         13    1    3    3    0    0 -0.29354039258E+02  0.41092560606E+02 -0.97942559057E+02  0.11019529497E+03  0.00000000000E+00 0. -1.
         -3    1    1    2    0  502  0.25165826931E+02  0.28715194618E+02 -0.12618873041E+03  0.13183882937E+03  0.00000000000E+00 0.  1.
<scales pt_clust_5="13000.00000" pt_clust_6="13000.00000" pt_clust_7="13000.00000" pt_clust_8="13000.00000" pt_clust_9="38.18223"></scales>
<clustering>
<clus scale="   38.182">  1  9  2 -1</clus>
<clus scale="   79.924">  5  6 -1 -1</clus>
<clus scale="   90.813">  7  8 -1 -1</clus>
<clus scale="  101.241">  1  5  2 -1</clus>
<clus scale="   38.182">  1  5  2 -1</clus>
</clustering>
</event>
<event>
 9    1  0.7835476E-005  0.1122554E+03  0.7546771E-02  0.1261435E+00
         21   -1    0    0  501  502  0.00000000000E+00  0.00000000000E+00  0.85875189132E+02  0.85875189132E+02  0.00000000000E+00 0. -1.
          3   -1    0    0  502    0 -0.00000000000E+00 -0.00000000000E+00 -0.24065866990E+03  0.24065866990E+03  0.00000000000E+00 0. -1.
        -24    2    1    2    0    0  0.40112731599E+02 -0.41352537616E+02 -0.13324518995E+03  0.16569222833E+03  0.79878471939E+02 0.  0.
         23    2    1    2    0    0 -0.74182713869E+02  0.39385481895E+02 -0.18432223008E+02  0.12657385200E+03  0.92881117259E+02 0.  0.
         13    1    3    3    0    0  0.76826185391E+01 -0.44454143496E+02 -0.12381362462E+03  0.13177635274E+03  0.00000000000E+00 0. -1.
        -14    1    3    3    0    0  0.32430113060E+02  0.31016058795E+01 -0.94315653375E+01  0.33915875587E+02  0.00000000000E+00 0.  1.
        -11    1    4    4    0    0 -0.55023750218E+02  0.66247177708E+02  0.47514510411E+01  0.86248930019E+02  0.00000000000E+00 0. -1.
         11    1    4    4    0    0 -0.19158963651E+02 -0.26861695814E+02 -0.23183674049E+02  0.40324921978E+02  0.00000000000E+00 0.  1.
          4    1    1    2  501    0  0.34069982270E+02  0.19670557214E+01 -0.31060678048E+01  0.34267778704E+02  0.00000000000E+00 0. -1.
<scales pt_clust_5="13000.00000" pt_clust_6="13000.00000" pt_clust_7="13000.00000" pt_clust_8="13000.00000" pt_clust_9="34.12672"></scales>
<clustering>
<clus scale="   34.127">  1  9  2 -1</clus>
<clus scale="   79.878">  5  6 -1 -1</clus>
<clus scale="   92.881">  7  8 -1 -1</clus>
<clus scale="  101.759">  2  5  1 -1</clus>
<clus scale="   34.127">  1  5  2 -1</clus>
</clustering>
</event>
<event>
 9    1  0.7835476E-005  0.9408733E+02  0.7546771E-02  0.1300483E+00
          1   -1    0    0  502    0 -0.00000000000E+00  0.00000000000E+00  0.28222633941E+03  0.28222633941E+03  0.00000000000E+00 0. -1.
         21   -1    0    0  501  502  0.00000000000E+00 -0.00000000000E+00 -0.15962568955E+03  0.15962568955E+03  0.00000000000E+00 0. -1.
         23    2    1    2    0    0  0.55697530950E+01  0.23558230303E+02  0.19624142476E+03  0.21809614323E+03  0.92028357220E+02 0.  0.
        -24    2    1    2    0    0  0.16764569255E+02 -0.10980266403E+02  0.50739582543E+02  0.96761789606E+02  0.79916967276E+02 0.  0.
         11    1    4    4    0    0  0.46259331530E+02 -0.25410620354E+01  0.46763065005E+02  0.65826795445E+02  0.00000000000E+00 0. -1.
        -12    1    4    4    0    0 -0.29494762275E+02 -0.84392043675E+01  0.39765175378E+01  0.30934994161E+02  0.00000000000E+00 0.  1.
        -13    1    3    3    0    0  0.46502959955E+02 -0.26072226727E+01  0.96670169391E+02  0.10730537985E+03  0.00000000000E+00 0. -1.
         13    1    3    3    0    0 -0.40933206860E+02  0.26165452976E+02  0.99571255374E+02  0.11079076338E+03  0.00000000000E+00 0.  1.
          2    1    1    2  501    0 -0.22334322350E+02 -0.12577963900E+02 -0.12438035745E+03  0.12699409613E+03  0.00000000000E+00 0. -1.
<scales pt_clust_5="13000.00000" pt_clust_6="13000.00000" pt_clust_7="13000.00000" pt_clust_8="13000.00000" pt_clust_9="25.63254"></scales>
<clustering>
<clus scale="   25.633">  2  9  1 -1</clus>
<clus scale="   79.917">  5  6 -1 -1</clus>
<clus scale="   82.280">  2  5  1 -1</clus>
<clus scale="   92.028">  7  8 -1 -1</clus>
<clus scale="   25.633">  2  5  1 -1</clus>
</clustering>
</event>
<event>
 9    1  0.7835476E-005  0.1005244E+03  0.7546771E-02  0.1283408E+00
         21   -1    0    0  501  502  0.00000000000E+00  0.00000000000E+00  0.39840261715E+02  0.39840261715E+02  0.00000000000E+00 0.  1.
         -4   -1    0    0    0  501 -0.00000000000E+00 -0.00000000000E+00 -0.53733213358E+03  0.53733213358E+03  0.00000000000E+00 0.  1.
        -24    2    1    2    0    0 -0.24954137295E+02  0.10340199729E+02 -0.22143479720E+03  0.23707828239E+03  0.80269009432E+02 0.  0.
         23    2    1    2    0    0  0.88610884610E+02 -0.69862527755E+01 -0.22740246737E+03  0.25990245966E+03  0.89088213410E+02 0.  0.
         11    1    3    3    0    0 -0.49534968868E+02 -0.12114975748E+02 -0.14505258190E+03  0.15375544639E+03  0.00000000000E+00 0. -1.
        -12    1    3    3    0    0  0.24580831573E+02  0.22455175478E+02 -0.76382215292E+02  0.83322836002E+02  0.00000000000E+00 0.  1.
        -13    1    4    4    0    0  0.53134541753E+02 -0.30270324163E+02 -0.20059522418E+03  0.20970936082E+03  0.00000000000E+00 0. -1.
         13    1    4    4    0    0  0.35476342857E+02  0.23284071387E+02 -0.26807243191E+02  0.50193098832E+02  0.00000000000E+00 0.  1.
         -3    1    1    2    0  502 -0.63656747315E+02 -0.33539469539E+01 -0.48654607292E+02  0.80191653241E+02  0.00000000000E+00 0.  1.
<scales pt_clust_5="13000.00000" pt_clust_6="13000.00000" pt_clust_7="13000.00000" pt_clust_8="13000.00000" pt_clust_9="63.74504"></scales>
<clustering>
<clus scale="   63.745">  1  9  2 -1</clus>
<clus scale="   80.269">  5  6 -1 -1</clus>
<clus scale="   89.088">  7  8 -1 -1</clus>
<clus scale="   92.798">  2  5  1 -1</clus>
<clus scale="   63.745">  1  5  2 -1</clus>
</clustering>
</event>
<event>
 9    1  0.7835476E-005  0.9977342E+02  0.7546771E-02  0.1285444E+00
         21   -1    0    0  501  502  0.00000000000E+00  0.00000000000E+00  0.22355450222E+03  0.22355450222E+03  0.00000000000E+00 0.  1.
          3   -1    0    0  502    0 -0.00000000000E+00 -0.00000000000E+00 -0.11392162206E+03  0.11392162206E+03  0.00000000000E+00 0. -1.
         23    2    1    2    0    0  0.36872202833E+02  0.16831001254E+02 -0.44115195741E+02  0.10783442671E+03  0.89661982713E+02 0.  0.
        -24    2    1    2    0    0 -0.18626593700E+02 -0.73907664455E+02  0.97175657717E+02  0.14723365043E+03  0.80158259144E+02 0.  0.
         11    1    4    4    0    0  0.12406498847E+02 -0.49886536390E+02  0.11038254238E+02  0.52577854494E+02  0.00000000000E+00 0. -1.
        -12    1    4    4    0    0 -0.31033092547E+02 -0.24021128065E+02  0.86137403480E+02  0.94655795939E+02  0.00000000000E+00 0.  1.
        -11    1    3    3    0    0  0.22789597360E+02 -0.45602511425E+00 -0.70030780631E+02  0.73647022631E+02  0.00000000000E+00 0. -1.
         11    1    3    3    0    0  0.14082605473E+02  0.17287026368E+02  0.25915584890E+02  0.34187404080E+02  0.00000000000E+00 0.  1.
          4    1    1    2  501    0 -0.18245609133E+02  0.57076663202E+02  0.56572418181E+02  0.82408047142E+02  0.00000000000E+00 0. -1.
<scales pt_clust_5="13000.00000" pt_clust_6="13000.00000" pt_clust_7="13000.00000" pt_clust_8="13000.00000" pt_clust_9="59.92201"></scales>
<clustering>
<clus scale="   59.922">  1  9  2 -1</clus>
<clus scale="   80.158">  5  6 -1 -1</clus>
<clus scale="   89.662">  7  8 -1 -1</clus>
<clus scale="   91.328">  1  5  2 -1</clus>
<clus scale="   59.922">  1  5  2 -1</clus>
</clustering>
</event>
<event>
 9    1  0.7835476E-005  0.9936631E+02  0.7546771E-02  0.1286438E+00
          1   -1    0    0  502    0 -0.00000000000E+00  0.00000000000E+00  0.25945626765E+03  0.25945626765E+03  0.00000000000E+00 0. -1.
         21   -1    0    0  501  502  0.00000000000E+00 -0.00000000000E+00 -0.68308391508E+02  0.68308391508E+02  0.00000000000E+00 0.  1.
         23    2    1    2    0    0 -0.19323954237E+02 -0.12302659359E+02  0.10435047033E+03  0.14024491378E+03  0.90856175064E+02 0.  0.
        -24    2    1    2    0    0  0.49549774558E+02  0.57530085596E+02  0.50963419480E+02  0.12237993517E+03  0.81330729123E+02 0.  0.
         13    1    4    4    0    0  0.64324408893E+02  0.46829472378E+02  0.62166636090E+02  0.10097187581E+03  0.00000000000E+00 0. -1.
        -14    1    4    4    0    0 -0.14774634335E+02  0.10700613218E+02 -0.11203216610E+02  0.21408059356E+02  0.00000000000E+00 0.  1.
        -11    1    3    3    0    0 -0.14715119708E+02  0.38350741119E+02  0.60281981070E+02  0.72946770553E+02  0.00000000000E+00 0.  1.
         11    1    3    3    0    0 -0.46088345294E+01 -0.50653400478E+02  0.44068489263E+02  0.67298143225E+02  0.00000000000E+00 0. -1.
          2    1    1    2  501    0 -0.30225820321E+02 -0.45227426237E+02  0.35833986331E+02  0.65139810212E+02  0.00000000000E+00 0. -1.
<scales pt_clust_5="13000.00000" pt_clust_6="13000.00000" pt_clust_7="13000.00000" pt_clust_8="13000.00000" pt_clust_9="54.39780"></scales>
<clustering>
<clus scale="   54.398">  2  9  1 -1</clus>
<clus scale="   81.331">  5  6 -1 -1</clus>
<clus scale="   90.739">  2  5  1 -1</clus>
<clus scale="   90.856">  7  8 -1 -1</clus>
<clus scale="   54.398">  2  5  1 -1</clus>
</clustering>
</event>
<event>
 9    1  0.7835476E-005  0.1313590E+03  0.7546771E-02  0.1229009E+00
         21   -1    0    0  501  502  0.00000000000E+00  0.00000000000E+00  0.35149497731E+03  0.35149497731E+03  0.00000000000E+00 0. -1.
          1   -1    0    0  502    0 -0.00000000000E+00 -0.00000000000E+00 -0.65598077705E+02  0.65598077705E+02  0.00000000000E+00 0. -1.
         23    2    1    2    0    0 -0.68819890640E+02 -0.64898403582E+02  0.13105916772E+03  0.18652218606E+03  0.93091569508E+02 0.  0.
        -24    2    1    2    0    0  0.32820693544E+02  0.90086550831E+02  0.13052276454E+03  0.18035530772E+03  0.79366620155E+02 0.  0.
         13    1    4    4    0    0  0.16231507950E+02  0.65799556076E+02  0.27367806972E+02  0.73089262471E+02  0.00000000000E+00 0. -1.
        -14    1    4    4    0    0  0.16589185593E+02  0.24286994755E+02  0.10315495757E+03  0.10726604525E+03  0.00000000000E+00 0.  1.
        -13    1    3    3    0    0 -0.43071327086E+02 -0.83892329035E+02  0.12010407348E+03  0.15270249033E+03  0.00000000000E+00 0. -1.
         13    1    3    3    0    0 -0.25748563553E+02  0.18993925452E+02  0.10955094241E+02  0.33819695726E+02  0.00000000000E+00 0.  1.
          2    1    1    2  501    0  0.35999197096E+02 -0.25188147249E+02  0.24314967354E+02  0.50215561241E+02  0.00000000000E+00 0. -1.
<scales pt_clust_5="13000.00000" pt_clust_6="13000.00000" pt_clust_7="13000.00000" pt_clust_8="13000.00000" pt_clust_9="43.93617"></scales>
<clustering>
<clus scale="   43.936">  1  9  2 -1</clus>
<clus scale="   79.367">  5  6 -1 -1</clus>
<clus scale="   93.092">  7  8 -1 -1</clus>
<clus scale="  122.017">  1  5  2 -1</clus>
<clus scale="   43.936">  1  5  2 -1</clus>
</clustering>
</event>
<event>
 9    1  0.7835476E-005  0.2235723E+03  0.7546771E-02  0.1146307E+00
         21   -1    0    0  501  502  0.00000000000E+00  0.00000000000E+00  0.63517749414E+02  0.63517749414E+02  0.00000000000E+00 0. -1.
          1   -1    0    0  502    0 -0.00000000000E+00 -0.00000000000E+00 -0.15910233924E+04  0.15910233924E+04  0.00000000000E+00 0. -1.
        -24    2    1    2    0    0  0.52880600163E+02  0.12205851279E+03 -0.25247728810E+03  0.29644172230E+03  0.80238864003E+02 0.  0.
         23    2    1    2    0    0 -0.21618728385E+03  0.96361294560E+01 -0.45976044500E+03  0.51627145809E+03  0.91251054603E+02 0.  0.
         13    1    3    3    0    0  0.12993887331E+02  0.11368185511E+03 -0.19211809843E+03  0.22361075339E+03  0.00000000000E+00 0. -1.
        -14    1    3    3    0    0  0.39886712832E+02  0.83766576831E+01 -0.60359189670E+02  0.72830968909E+02  0.00000000000E+00 0.  1.
        -11    1    4    4    0    0 -0.25171659684E+02  0.11257038974E+02 -0.14873576868E+03  0.15127016316E+03  0.00000000000E+00 0.  1.
         11    1    4    4    0    0 -0.19101562417E+03 -0.16209095184E+01 -0.31102467632E+03  0.36500129494E+03  0.00000000000E+00 0. -1.
          2    1    1    2  501    0  0.16330668369E+03 -0.13169464225E+03 -0.81526790990E+03  0.84182796143E+03  0.00000000000E+00 0. -1.
<scales pt_clust_5="13000.00000" pt_clust_6="13000.00000" pt_clust_7="13000.00000" pt_clust_8="13000.00000" pt_clust_9="204.10254"></scales>
<clustering>
<clus scale="   80.239">  5  6 -1 -1</clus>
<clus scale="   91.251">  7  8 -1 -1</clus>
<clus scale="  155.348">  2  5  1 -1</clus>
<clus scale="  204.103">  1  9  2 -1</clus>
<clus scale="  204.103">  1  5  2 -1</clus>
</clustering>
</event>
<event>
 9    1  0.7835476E-005  0.1035593E+03  0.7546771E-02  0.1279324E+00
         -2   -1    0    0    0  501 -0.00000000000E+00  0.00000000000E+00  0.50635721522E+03  0.50635721522E+03  0.00000000000E+00 0.  1.
         21   -1    0    0  501  502  0.00000000000E+00 -0.00000000000E+00 -0.16781874048E+03  0.16781874048E+03  0.00000000000E+00 0.  1.
        -24    2    1    2    0    0 -0.48110501552E+02  0.15151284887E+01  0.45240629789E+03  0.46147446721E+03  0.77267778137E+02 0.  0.
         23    2    1    2    0    0  0.75973583013E+02 -0.42958796328E+02 -0.61335644009E+02  0.14022005116E+03  0.91006362537E+02 0.  0.
         13    1    3    3    0    0 -0.30742902197E+01  0.34270653113E+02  0.14175444061E+03  0.14587066312E+03  0.00000000000E+00 0. -1.
        -14    1    3    3    0    0 -0.45036211332E+02 -0.32755524624E+02  0.31065185728E+03  0.31560380409E+03  0.00000000000E+00 0.  1.
        -13    1    4    4    0    0  0.93338402723E+02 -0.27447482731E+02 -0.64489964594E+02  0.11672350776E+03  0.00000000000E+00 0.  1.
         13    1    4    4    0    0 -0.17364819710E+02 -0.15511313597E+02  0.31543205844E+01  0.23496543393E+02  0.00000000000E+00 0. -1.
         -1    1    1    2    0  502 -0.27863081461E+02  0.41443667839E+02 -0.52532179141E+02  0.72481437333E+02  0.00000000000E+00 0.  1.
<scales pt_clust_5="13000.00000" pt_clust_6="13000.00000" pt_clust_7="13000.00000" pt_clust_8="13000.00000" pt_clust_9="49.93925"></scales>
<clustering>
<clus scale="   49.939">  2  9  1 -1</clus>
<clus scale="   77.268">  5  6 -1 -1</clus>
<clus scale="   91.006">  7  8 -1 -1</clus>
<clus scale="   91.721">  1  5  2 -1</clus>
<clus scale="   49.939">  2  5  1 -1</clus>
</clustering>
</event>
<event>
 9    1  0.7835476E-005  0.1509974E+03  0.7546771E-02  0.1220251E+00
         21   -1    0    0  501  502  0.00000000000E+00  0.00000000000E+00  0.34221509592E+03  0.34221509592E+03  0.00000000000E+00 0. -1.
          1   -1    0    0  502    0 -0.00000000000E+00 -0.00000000000E+00 -0.17207542123E+03  0.17207542123E+03  0.00000000000E+00 0. -1.
         23    2    1    2    0    0  0.30195103486E+02  0.11985953007E+02 -0.81387133020E+02  0.12617242694E+03  0.90775594494E+02 0.  0.
        -24    2    1    2    0    0  0.99859695602E+02  0.10657817684E+02  0.20068107414E+03  0.24665332520E+03  0.10236904526E+03 0.  0.
         11    1    4    4    0    0  0.11055059561E+03  0.17201710442E+02  0.11641994382E+03  0.16146496942E+03  0.00000000000E+00 0. -1.
        -12    1    4    4    0    0 -0.10690900010E+02 -0.65438927587E+01  0.84261130328E+02  0.85188355775E+02  0.00000000000E+00 0.  1.
        -13    1    3    3    0    0  0.41490507580E+02 -0.92684818058E+01 -0.90853673920E+02  0.10030830992E+03  0.00000000000E+00 0.  1.
         13    1    3    3    0    0 -0.11295404095E+02  0.21254434812E+02  0.94665408997E+01  0.25864117025E+02  0.00000000000E+00 0. -1.
          2    1    1    2  501    0 -0.13005479909E+03 -0.22643770690E+02  0.50845733561E+02  0.14146476501E+03  0.00000000000E+00 0. -1.
<scales pt_clust_5="13000.00000" pt_clust_6="13000.00000" pt_clust_7="13000.00000" pt_clust_8="13000.00000" pt_clust_9="110.99907"></scales>
<clustering>
<clus scale="   90.776">  7  8 -1 -1</clus>
<clus scale="   96.414">  2  7  1 -1</clus>
<clus scale="  102.369">  5  6 -1 -1</clus>
<clus scale="  110.999">  1  9  2 -1</clus>
<clus scale="  110.999">  1  5  2 -1</clus>
</clustering>
</event>
<event>
 9    1  0.7835476E-005  0.9575816E+02  0.7546771E-02  0.1294269E+00
         21   -1    0    0  501  502  0.00000000000E+00  0.00000000000E+00  0.19977330263E+03  0.19977330263E+03  0.00000000000E+00 0.  1.
          3   -1    0    0  502    0 -0.00000000000E+00 -0.00000000000E+00 -0.12751866024E+03  0.12751866024E+03  0.00000000000E+00 0. -1.
         23    2    1    2    0    0  0.19819876937E+00  0.20763793495E+02 -0.60200230393E+02  0.11144374831E+03  0.91457459488E+02 0.  0.
        -24    2    1    2    0    0  0.47555969104E+02 -0.56155040321E+02  0.91006815089E+02  0.14338482802E+03  0.82837248638E+02 0.  0.
         13    1    4    4    0    0  0.46060685450E+02  0.66332576686E+01  0.27437316202E+02  0.54022154453E+02  0.00000000000E+00 0. -1.
        -14    1    4    4    0    0  0.14952836538E+01 -0.62788297990E+02  0.63569498887E+02  0.89362673564E+02  0.00000000000E+00 0.  1.
        -13    1    3    3    0    0 -0.38571073606E+02 -0.86581222517E+01 -0.46193225504E+02  0.60798888826E+02  0.00000000000E+00 0.  1.
         13    1    3    3    0    0  0.38769272375E+02  0.29421915747E+02 -0.14007004889E+02  0.50644859489E+02  0.00000000000E+00 0. -1.
          4    1    1    2  501    0 -0.47754167873E+02  0.35391246826E+02  0.41448057693E+02  0.72463386532E+02  0.00000000000E+00 0. -1.
<scales pt_clust_5="13000.00000" pt_clust_6="13000.00000" pt_clust_7="13000.00000" pt_clust_8="13000.00000" pt_clust_9="59.43905"></scales>
<clustering>
<clus scale="   59.439">  1  9  2 -1</clus>
<clus scale="   82.837">  5  6 -1 -1</clus>
<clus scale="   87.562">  1  5  2 -1</clus>
<clus scale="   91.457">  7  8 -1 -1</clus>
<clus scale="   59.439">  1  5  2 -1</clus>
</clustering>
</event>
<event>
 9    1  0.7835476E-005  0.9241106E+02  0.7546771E-02  0.1301751E+00
         21   -1    0    0  501  502  0.00000000000E+00  0.00000000000E+00  0.31691222598E+02  0.31691222598E+02  0.00000000000E+00 0.  1.
          1   -1    0    0  502    0 -0.00000000000E+00 -0.00000000000E+00 -0.55711079477E+03  0.55711079477E+03  0.00000000000E+00 0. -1.
        -24    2    1    2    0    0  0.18648813678E+02 -0.22504941444E+01 -0.41641751582E+03  0.42479030342E+03  0.81794935203E+02 0.  0.
         23    2    1    2    0    0 -0.41961318149E+02  0.17549240975E+00 -0.91561843844E+02  0.13482371111E+03  0.89627444524E+02 0.  0.
         13    1    3    3    0    0  0.17015280872E+01 -0.34221734741E+02 -0.88811229565E+02  0.95191684633E+02  0.00000000000E+00 0. -1.
        -14    1    3    3    0    0  0.16947285590E+02  0.31971240596E+02 -0.32760628626E+03  0.32959861879E+03  0.00000000000E+00 0.  1.
        -13    1    4    4    0    0  0.10966707532E+02 -0.28283981820E+02 -0.59319662232E+02  0.66626380879E+02  0.00000000000E+00 0. -1.
         13    1    4    4    0    0 -0.52928025682E+02  0.28459474230E+02 -0.32242181611E+02  0.68197330234E+02  0.00000000000E+00 0.  1.
          2    1    1    2  501    0  0.23312504472E+02  0.20750017347E+01 -0.17440212507E+02  0.29188002830E+02  0.00000000000E+00 0. -1.
<scales pt_clust_5="13000.00000" pt_clust_6="13000.00000" pt_clust_7="13000.00000" pt_clust_8="13000.00000" pt_clust_9="23.40467"></scales>
<clustering>
<clus scale="   23.405">  1  9  2 -1</clus>
<clus scale="   81.795">  5  6 -1 -1</clus>
<clus scale="   84.836">  2  5  1 -1</clus>
<clus scale="   89.627">  7  8 -1 -1</clus>
<clus scale="   23.405">  1  5  2 -1</clus>
</clustering>
</event>
<event>
 9    1  0.7835476E-005  0.1370140E+03  0.7546771E-02  0.1233773E+00
          1   -1    0    0  502    0 -0.00000000000E+00  0.00000000000E+00  0.40894858911E+03  0.40894858911E+03  0.00000000000E+00 0. -1.
         21   -1    0    0  501  502  0.00000000000E+00 -0.00000000000E+00 -0.10083095390E+03  0.10083095390E+03  0.00000000000E+00 0. -1.
         23    2    1    2    0    0 -0.29618695222E+02  0.19748055484E+02  0.86859525849E+02  0.13055880288E+03  0.90740128810E+02 0.  0.
        -24    2    1    2    0    0 -0.78475263475E+01 -0.11353747162E+03  0.47677315067E+01  0.14033110862E+03  0.81961867061E+02 0.  0.
         11    1    4    4    0    0 -0.36823622281E+02 -0.10093245191E+03 -0.40779320679E+01  0.10751729413E+03  0.00000000000E+00 0. -1.
        -12    1    4    4    0    0  0.28976095933E+02 -0.12605019700E+02  0.88456635746E+01  0.32813814488E+02  0.00000000000E+00 0.  1.
        -11    1    3    3    0    0  0.28232041370E+02  0.36363850955E+01  0.47912844161E+01  0.28865686599E+02  0.00000000000E+00 0.  1.
         11    1    3    3    0    0 -0.57850736592E+02  0.16111670388E+02  0.82068241433E+02  0.10169311628E+03  0.00000000000E+00 0. -1.
          2    1    1    2  501    0  0.37466221570E+02  0.93789416132E+02  0.21649037786E+03  0.23888963151E+03  0.00000000000E+00 0. -1.
<scales pt_clust_5="13000.00000" pt_clust_6="13000.00000" pt_clust_7="13000.00000" pt_clust_8="13000.00000" pt_clust_9="109.79572"></scales>
<clustering>
<clus scale="   81.962">  5  6 -1 -1</clus>
<clus scale="   90.740">  7  8 -1 -1</clus>
<clus scale="   97.473">  1  7  2 -1</clus>
<clus scale="  109.796">  2  9  1 -1</clus>
<clus scale="  109.796">  2  5  1 -1</clus>
</clustering>
</event>
<event>
 9    1  0.7835476E-005  0.1083124E+03  0.7546771E-02  0.1271942E+00
         21   -1    0    0  501  502  0.00000000000E+00  0.00000000000E+00  0.29831785567E+02  0.29831785567E+02  0.00000000000E+00 0.  1.
          1   -1    0    0  502    0 -0.00000000000E+00 -0.00000000000E+00 -0.80714758263E+03  0.80714758263E+03  0.00000000000E+00 0. -1.
         23    2    1    2    0    0 -0.57959390921E+02  0.39000616730E+01 -0.61044487329E+03  0.62113656346E+03  0.98960525788E+02 0.  0.
        -24    2    1    2    0    0  0.51710505358E+01  0.10851372706E+02 -0.98021489663E+02  0.12784020094E+03  0.81181355549E+02 0.  0.
         11    1    4    4    0    0 -0.66303400659E+01 -0.19498125483E+02 -0.92558342920E+02  0.94821860090E+02  0.00000000000E+00 0. -1.
        -12    1    4    4    0    0  0.11801390602E+02  0.30349498189E+02 -0.54631467423E+01  0.33018340855E+02  0.00000000000E+00 0.  1.
        -11    1    3    3    0    0  0.22983674709E+02 -0.19820830734E+02 -0.17002283274E+03  0.17271038848E+03  0.00000000000E+00 0. -1.
         11    1    3    3    0    0 -0.80943065630E+02  0.23720892407E+02 -0.44042204054E+03  0.44842617498E+03  0.00000000000E+00 0.  1.
          2    1    1    2  501    0  0.52788340385E+02 -0.14751434379E+02 -0.68849434110E+02  0.88002603792E+02  0.00000000000E+00 0. -1.
<scales pt_clust_5="13000.00000" pt_clust_6="13000.00000" pt_clust_7="13000.00000" pt_clust_8="13000.00000" pt_clust_9="54.81071"></scales>
<clustering>
<clus scale="   54.811">  1  9  2 -1</clus>
<clus scale="   81.181">  5  6 -1 -1</clus>
<clus scale="   92.352">  1  5  2 -1</clus>
<clus scale="   98.961">  7  8 -1 -1</clus>
<clus scale="   54.811">  1  5  2 -1</clus>
</clustering>
</event>
<event>
 9    1  0.7835476E-005  0.1070935E+03  0.7546771E-02  0.1273558E+00
         21   -1    0    0  501  502  0.00000000000E+00  0.00000000000E+00  0.56421220352E+03  0.56421220352E+03  0.00000000000E+00 0.  1.
         -2   -1    0    0    0  501 -0.00000000000E+00 -0.00000000000E+00 -0.38590370542E+02  0.38590370542E+02  0.00000000000E+00 0.  1.
        -24    2    1    2    0    0 -0.26027889589E+02 -0.50510865353E+02  0.72882883988E+02  0.12133636440E+03  0.78624423639E+02 0.  0.
         23    2    1    2    0    0 -0.29262693967E+02  0.38258027917E+02  0.27848502080E+03  0.29824063244E+03  0.95255372941E+02 0.  0.
         11    1    3    3    0    0  0.17916274186E+02  0.11179252350E+02  0.18729972722E+02  0.28227299587E+02  0.00000000000E+00 0. -1.
        -12    1    3    3    0    0 -0.43944163775E+02 -0.61690117703E+02  0.54152911265E+02  0.93109064814E+02  0.00000000000E+00 0.  1.
        -11    1    4    4    0    0 -0.48696511800E+02  0.52547980700E+02  0.13588109022E+03  0.15361090852E+03  0.00000000000E+00 0.  1.
         11    1    4    4    0    0  0.19433817833E+02 -0.14289952783E+02  0.14260393058E+03  0.14462972393E+03  0.00000000000E+00 0. -1.
         -1    1    1    2    0  502  0.55290583556E+02  0.12252837436E+02  0.17425392820E+03  0.18322557722E+03  0.00000000000E+00 0.  1.
<scales pt_clust_5="13000.00000" pt_clust_6="13000.00000" pt_clust_7="13000.00000" pt_clust_8="13000.00000" pt_clust_9="56.63198"></scales>
<clustering>
<clus scale="   56.632">  1  9  2 -1</clus>
<clus scale="   78.624">  5  6 -1 -1</clus>
<clus scale="   92.613">  2  5  1 -1</clus>
<clus scale="   95.255">  7  8 -1 -1</clus>
<clus scale="   56.632">  1  5  2 -1</clus>
</clustering>
</event>
<event>
 9    1  0.7835476E-005  0.1563842E+03  0.7546771E-02  0.1194274E+00
         -2   -1    0    0    0  501 -0.00000000000E+00  0.00000000000E+00  0.42687429465E+03  0.42687429465E+03  0.00000000000E+00 0.  1.
         21   -1    0    0  501  502  0.00000000000E+00 -0.00000000000E+00 -0.15506363438E+03  0.15506363438E+03  0.00000000000E+00 0.  1.
        -24    2    1    2    0    0  0.30659267964E+02 -0.12482579597E+03  0.33800739795E+03  0.37074414639E+03  0.81735860952E+02 0.  0.
         23    2    1    2    0    0 -0.61357763820E+02  0.11033511773E+03 -0.24137212829E+02  0.15714398121E+03  0.90404714492E+02 0.  0.
         11    1    3    3    0    0 -0.26136432868E+02 -0.34627553374E+02  0.12945912221E+03  0.13653514163E+03  0.00000000000E+00 0. -1.
        -12    1    3    3    0    0  0.56795700832E+02 -0.90198242595E+02  0.20854827574E+03  0.23420900477E+03  0.00000000000E+00 0.  1.
        -11    1    4    4    0    0 -0.62578430938E+02  0.27301952608E+02  0.66061321854E+01  0.68593714124E+02  0.00000000000E+00 0.  1.
         11    1    4    4    0    0  0.12206671187E+01  0.83033165126E+02 -0.30743345014E+02  0.88550267090E+02  0.00000000000E+00 0. -1.
         -1    1    1    2    0  502  0.30698495855E+02  0.14490678235E+02 -0.42059524848E+02  0.54049801424E+02  0.00000000000E+00 0.  1.
<scales pt_clust_5="13000.00000" pt_clust_6="13000.00000" pt_clust_7="13000.00000" pt_clust_8="13000.00000" pt_clust_9="33.94668"></scales>
<clustering>
<clus scale="   33.947">  2  9  1 -1</clus>
<clus scale="   81.736">  5  6 -1 -1</clus>
<clus scale="   90.405">  7  8 -1 -1</clus>
<clus scale="  151.538">  1  5  2 -1</clus>
<clus scale="   33.947">  2  5  1 -1</clus>
</clustering>
</event>
<event>
 9    1  0.7835476E-005  0.1628925E+03  0.7546771E-02  0.1218114E+00
         21   -1    0    0  501  502  0.00000000000E+00  0.00000000000E+00  0.43074209464E+03  0.43074209464E+03  0.00000000000E+00 0.  1.
         -2   -1    0    0    0  501 -0.00000000000E+00 -0.00000000000E+00 -0.10548543967E+03  0.10548543967E+03  0.00000000000E+00 0.  1.
        -24    2    1    2    0    0  0.12373159950E+00  0.12796127707E+02 -0.16350467830E+02  0.81973621796E+02  0.79300571740E+02 0.  0.
         23    2    1    2    0    0 -0.78755942289E+02  0.10418585119E+03  0.18350233136E+03  0.24244047332E+03  0.89705559783E+02 0.  0.
         13    1    3    3    0    0  0.25909578185E+02 -0.86950233971E+01  0.18953409354E+02  0.33258704120E+02  0.00000000000E+00 0. -1.
        -14    1    3    3    0    0 -0.25785846586E+02  0.21491151104E+02 -0.35303877184E+02  0.48714917676E+02  0.00000000000E+00 0.  1.
        -11    1    4    4    0    0 -0.19166809326E+02  0.63353918465E+01 -0.59461169280E+01  0.21044240925E+02  0.00000000000E+00 0. -1.
         11    1    4    4    0    0 -0.59589132963E+02  0.97850459347E+02  0.18944844828E+03  0.22139623240E+03  0.00000000000E+00 0.  1.
         -1    1    1    2    0  502  0.78632210690E+02 -0.11698197890E+03  0.15810479144E+03  0.21181343919E+03  0.00000000000E+00 0.  1.
<scales pt_clust_5="13000.00000" pt_clust_6="13000.00000" pt_clust_7="13000.00000" pt_clust_8="13000.00000" pt_clust_9="135.96656"></scales>
<clustering>
<clus scale="   79.301">  5  6 -1 -1</clus>
<clus scale="   80.326">  2  5  1 -1</clus>
<clus scale="   89.706">  7  8 -1 -1</clus>
<clus scale="  135.967">  1  9  2 -1</clus>
<clus scale="  135.967">  1  5  2 -1</clus>
</clustering>
</event>
<event>
 9    1  0.7835476E-005  0.1177269E+03  0.7546771E-02  0.1250776E+00
         -2   -1    0    0    0  501 -0.00000000000E+00  0.00000000000E+00  0.72378864677E+03  0.72378864677E+03  0.00000000000E+00 0.  1.
         21   -1    0    0  501  502  0.00000000000E+00 -0.00000000000E+00 -0.35782655421E+02  0.35782655421E+02  0.00000000000E+00 0. -1.
        -24    2    1    2    0    0 -0.64973431100E+02  0.58119691654E+02  0.25956270559E+03  0.28538871321E+03  0.80464117393E+02 0.  0.
         23    2    1    2    0    0  0.26887473671E+02 -0.44656728818E+02  0.10785246204E+03  0.15105681196E+03  0.92026339721E+02 0.  0.
         13    1    3    3    0    0 -0.44809024844E+02  0.66969760796E+02  0.12287802773E+03  0.14694150968E+03  0.00000000000E+00 0. -1.
        -14    1    3    3    0    0 -0.20164406256E+02 -0.88500691419E+01  0.13668467786E+03  0.13844720353E+03  0.00000000000E+00 0.  1.
        -11    1    4    4    0    0  0.54117276156E+02 -0.17628259420E+01  0.64946174048E+02  0.84556446574E+02  0.00000000000E+00 0.  1.
         11    1    4    4    0    0 -0.27229802484E+02 -0.42893902876E+02  0.42906287992E+02  0.66500365386E+02  0.00000000000E+00 0. -1.
         -1    1    1    2    0  502  0.38085957429E+02 -0.13462962837E+02  0.32059082371E+03  0.32312577701E+03  0.00000000000E+00 0.  1.
<scales pt_clust_5="13000.00000" pt_clust_6="13000.00000" pt_clust_7="13000.00000" pt_clust_8="13000.00000" pt_clust_9="40.39546"></scales>
<clustering>
<clus scale="   40.395">  2  9  1 -1</clus>
<clus scale="   80.464">  5  6 -1 -1</clus>
<clus scale="   92.026">  7  8 -1 -1</clus>
<clus scale="  108.928">  1  5  2 -1</clus>
<clus scale="   40.395">  2  5  1 -1</clus>
</clustering>
</event>
<event>
 9    1  0.7835476E-005  0.1394887E+03  0.7546771E-02  0.1233242E+00
         21   -1    0    0  501  502  0.00000000000E+00  0.00000000000E+00  0.53775648912E+03  0.53775648912E+03  0.00000000000E+00 0.  1.
         -4   -1    0    0    0  501 -0.00000000000E+00 -0.00000000000E+00 -0.23408539945E+03  0.23408539945E+03  0.00000000000E+00 0.  1.
        -24    2    1    2    0    0  0.22448824073E+02 -0.39716382376E+02  0.42137356802E+03  0.43159826309E+03  0.81486416944E+02 0.  0.
         23    2    1    2    0    0  0.37021352316E+02 -0.54003026390E+02 -0.18024136522E+03  0.21284212694E+03  0.92346704753E+02 0.  0.
         13    1    3    3    0    0  0.51036994048E+02 -0.28898393982E+02  0.21039327147E+03  0.21841524813E+03  0.00000000000E+00 0. -1.
        -14    1    3    3    0    0 -0.28588169975E+02 -0.10817988393E+02  0.21098029655E+03  0.21318301496E+03  0.00000000000E+00 0.  1.
        -13    1    4    4    0    0 -0.56443817043E+01 -0.32658033506E+02 -0.15570872044E+03  0.15919677075E+03  0.00000000000E+00 0.  1.
         13    1    4    4    0    0  0.42665734021E+02 -0.21344992885E+02 -0.24532644777E+02  0.53645356188E+02  0.00000000000E+00 0. -1.
         -3    1    1    2    0  502 -0.59470176389E+02  0.93719408766E+02  0.62538886863E+02  0.12740149854E+03  0.00000000000E+00 0.  1.
<scales pt_clust_5="13000.00000" pt_clust_6="13000.00000" pt_clust_7="13000.00000" pt_clust_8="13000.00000" pt_clust_9="104.54277"></scales>
<clustering>
<clus scale="   81.486">  5  6 -1 -1</clus>
<clus scale="   92.347">  7  8 -1 -1</clus>
<clus scale="   93.388">  2  5  1 -1</clus>
<clus scale="  104.543">  1  9  2 -1</clus>
<clus scale="  104.543">  1  5  2 -1</clus>
</clustering>
</event>
<event>
 9    1  0.7835476E-005  0.1337775E+03  0.7546771E-02  0.1234434E+00
         -2   -1    0    0    0  501 -0.00000000000E+00  0.00000000000E+00  0.10283368834E+03  0.10283368834E+03  0.00000000000E+00 0.  1.
         21   -1    0    0  501  502  0.00000000000E+00 -0.00000000000E+00 -0.46689950998E+03  0.46689950998E+03  0.00000000000E+00 0.  1.
        -24    2    1    2    0    0  0.50796083977E+01 -0.64271275254E+02 -0.29403908283E+03  0.31166008246E+03  0.80724379989E+02 0.  0.
         23    2    1    2    0    0  0.60426121258E+02 -0.46314671322E+02 -0.43807894217E+02  0.12689506888E+03  0.91579812185E+02 0.  0.
         11    1    3    3    0    0 -0.16801353777E+02  0.14021241601E+02 -0.56085539278E+02  0.60203558208E+02  0.00000000000E+00 0. -1.
        -12    1    3    3    0    0  0.21880962174E+02 -0.78292516855E+02 -0.23795354355E+03  0.25145652425E+03  0.00000000000E+00 0.  1.
        -13    1    4    4    0    0  0.24812933279E+01  0.26148839884E+02 -0.82328219975E+01  0.27526314717E+02  0.00000000000E+00 0.  1.
         13    1    4    4    0    0  0.57944827930E+02 -0.72463511206E+02 -0.35575072219E+02  0.99368754161E+02  0.00000000000E+00 0. -1.
         -1    1    1    2    0  502 -0.65505729655E+02  0.11058594658E+03 -0.26218844600E+02  0.13117804698E+03  0.00000000000E+00 0.  1.
<scales pt_clust_5="13000.00000" pt_clust_6="13000.00000" pt_clust_7="13000.00000" pt_clust_8="13000.00000" pt_clust_9="97.51702"></scales>
<clustering>
<clus scale="   80.724">  5  6 -1 -1</clus>
<clus scale="   91.580">  7  8 -1 -1</clus>
<clus scale="  103.310">  1  5  2 -1</clus>
<clus scale="   97.517">  2  9  1 -1</clus>
<clus scale="   97.517">  2  5  1 -1</clus>
</clustering>
</event>
<event>
 9    1  0.7835476E-005  0.1153853E+03  0.7546771E-02  0.1257087E+00
         -4   -1    0    0    0  501 -0.00000000000E+00  0.00000000000E+00  0.52298581497E+03  0.52298581497E+03  0.00000000000E+00 0.  1.
         21   -1    0    0  501  502  0.00000000000E+00 -0.00000000000E+00 -0.13777031617E+03  0.13777031617E+03  0.00000000000E+00 0.  1.
        -24    2    1    2    0    0 -0.24804747677E+02 -0.65021693516E+02  0.45631859171E+03  0.46855611174E+03  0.80467860484E+02 0.  0.
         23    2    1    2    0    0 -0.26256637632E+01  0.11358312116E+02  0.19201847801E+01  0.97518526699E+02  0.96800157932E+02 0.  0.
         13    1    3    3    0    0  0.13396051664E+02 -0.51353483947E+02  0.14134705577E+03  0.15098219991E+03  0.00000000000E+00 0. -1.
        -14    1    3    3    0    0 -0.38200799341E+02 -0.13668209569E+02  0.31497153594E+03  0.31757391183E+03  0.00000000000E+00 0.  1.
        -11    1    4    4    0    0  0.36052554823E+02 -0.24988061963E+02 -0.43159901740E+01  0.44077406017E+02  0.00000000000E+00 0.  1.
         11    1    4    4    0    0 -0.38678218587E+02  0.36346374079E+02  0.62361749541E+01  0.53441120683E+02  0.00000000000E+00 0. -1.
         -3    1    1    2    0  502  0.27430411440E+02  0.53663381400E+02 -0.73023277695E+02  0.94681492703E+02  0.00000000000E+00 0.  1.
<scales pt_clust_5="13000.00000" pt_clust_6="13000.00000" pt_clust_7="13000.00000" pt_clust_8="13000.00000" pt_clust_9="60.26762"></scales>
<clustering>
<clus scale="   60.268">  2  9  1 -1</clus>
<clus scale="   80.468">  5  6 -1 -1</clus>
<clus scale="   96.800">  7  8 -1 -1</clus>
<clus scale="  102.071">  1  5  2 -1</clus>
<clus scale="   60.268">  2  5  1 -1</clus>
</clustering>
</event>
<event>
 9    1  0.7835476E-005  0.1257974E+03  0.7546771E-02  0.1237719E+00
          1   -1    0    0  502    0 -0.00000000000E+00  0.00000000000E+00  0.65670649507E+03  0.65670649507E+03  0.00000000000E+00 0. -1.
         21   -1    0    0  501  502  0.00000000000E+00 -0.00000000000E+00 -0.31707293753E+02  0.31707293753E+02  0.00000000000E+00 0. -1.
         23    2    1    2    0    0 -0.89165620871E+01  0.76874112714E+02  0.37115466341E+03  0.39055411231E+03  0.93742179328E+02 0.  0.
        -24    2    1    2    0    0 -0.89287501063E+01 -0.97619948637E+02  0.19007447228E+03  0.22846611669E+03  0.80368429821E+02 0.  0.
         11    1    4    4    0    0 -0.28788799278E+02 -0.92404737930E+02  0.18250767962E+03  0.20658287363E+03  0.00000000000E+00 0. -1.
        -12    1    4    4    0    0  0.19860049172E+02 -0.52152107071E+01  0.75667926655E+01  0.21883243066E+02  0.00000000000E+00 0.  1.
        -13    1    3    3    0    0  0.26090100957E+02  0.35172373755E+02  0.57864087514E+02  0.72567498698E+02  0.00000000000E+00 0.  1.
         13    1    3    3    0    0 -0.35006663045E+02  0.41701738958E+02  0.31329057590E+03  0.31798661361E+03  0.00000000000E+00 0. -1.
          2    1    1    2  501    0  0.17845312193E+02  0.20745835923E+02  0.63770065621E+02  0.69393559821E+02  0.00000000000E+00 0. -1.
<scales pt_clust_5="13000.00000" pt_clust_6="13000.00000" pt_clust_7="13000.00000" pt_clust_8="13000.00000" pt_clust_9="27.36504"></scales>
<clustering>
<clus scale="   27.365">  2  9  1 -1</clus>
<clus scale="   80.368">  5  6 -1 -1</clus>
<clus scale="   93.742">  7  8 -1 -1</clus>
<clus scale="  116.174">  2  5  1 -1</clus>
<clus scale="   27.365">  2  5  1 -1</clus>
</clustering>
</event>
<event>
 9    1  0.7835476E-005  0.1398808E+03  0.7546771E-02  0.1217989E+00
         21   -1    0    0  501  502  0.00000000000E+00  0.00000000000E+00  0.85601901201E+02  0.85601901201E+02  0.00000000000E+00 0.  1.
          1   -1    0    0  502    0 -0.00000000000E+00 -0.00000000000E+00 -0.38777854579E+03  0.38777854579E+03  0.00000000000E+00 0. -1.
         23    2    1    2    0    0 -0.20548449920E+02 -0.75617399547E+02 -0.16670168811E+03  0.20946729177E+03  0.99733964108E+02 0.  0.
        -24    2    1    2    0    0  0.17573945500E+02  0.13962648237E+03 -0.99630654082E+02  0.19049092169E+03  0.80969907211E+02 0.  0.
         11    1    4    4    0    0  0.24117899605E+02  0.95127660955E+02 -0.10669207009E+03  0.14496255648E+03  0.00000000000E+00 0. -1.
        -12    1    4    4    0    0 -0.65439541043E+01  0.44498821419E+02  0.70614160103E+01  0.45528365215E+02  0.00000000000E+00 0.  1.
        -11    1    3    3    0    0 -0.60125492768E+02 -0.50564055978E+02 -0.88756085384E+02  0.11853033928E+03  0.00000000000E+00 0. -1.
         11    1    3    3    0    0  0.39577042848E+02 -0.25053343569E+02 -0.77945602725E+02  0.90936952493E+02  0.00000000000E+00 0.  1.
          2    1    1    2  501    0  0.29745044200E+01 -0.64009082828E+02 -0.35844302398E+02  0.73422233523E+02  0.00000000000E+00 0. -1.
<scales pt_clust_5="13000.00000" pt_clust_6="13000.00000" pt_clust_7="13000.00000" pt_clust_8="13000.00000" pt_clust_9="64.07816"></scales>
<clustering>
<clus scale="   64.078">  1  9  2 -1</clus>
<clus scale="   80.970">  5  6 -1 -1</clus>
<clus scale="   99.734">  7  8 -1 -1</clus>
<clus scale="  127.185">  1  5  2 -1</clus>
<clus scale="   64.078">  1  5  2 -1</clus>
</clustering>
</event>
<event>
 9    1  0.7835476E-005  0.1171549E+03  0.7546771E-02  0.1254565E+00
         21   -1    0    0  501  502  0.00000000000E+00  0.00000000000E+00  0.59042032798E+03  0.59042032798E+03  0.00000000000E+00 0. -1.
          1   -1    0    0  502    0 -0.00000000000E+00 -0.00000000000E+00 -0.38797289171E+02  0.38797289171E+02  0.00000000000E+00 0. -1.
         23    2    1    2    0    0 -0.19572989290E+02  0.53286552073E+02  0.88758342742E+02  0.14464722235E+03  0.99107098566E+02 0.  0.
        -24    2    1    2    0    0  0.41394078902E+02 -0.68842176324E+02  0.33576800313E+03  0.35467926057E+03  0.81268142212E+02 0.  0.
         13    1    4    4    0    0  0.99447898802E+01 -0.78039508608E+02  0.26958154866E+03  0.28082605849E+03  0.00000000000E+00 0. -1.
        -14    1    4    4    0    0  0.31449289022E+02  0.91973322836E+01  0.66186454475E+02  0.73853202077E+02  0.00000000000E+00 0.  1.
        -13    1    3    3    0    0  0.11871040365E+02 -0.23231188433E+02  0.42492679991E+02  0.49862185754E+02  0.00000000000E+00 0. -1.
         13    1    3    3    0    0 -0.31444029655E+02  0.76517740506E+02  0.46265662751E+02  0.94785036598E+02  0.00000000000E+00 0.  1.
          2    1    1    2  501    0 -0.21821089612E+02  0.15555624251E+02  0.12709669293E+03  0.12989113423E+03  0.00000000000E+00 0. -1.
<scales pt_clust_5="13000.00000" pt_clust_6="13000.00000" pt_clust_7="13000.00000" pt_clust_8="13000.00000" pt_clust_9="26.79809"></scales>
<clustering>
<clus scale="   26.798">  1  9  2 -1</clus>
<clus scale="   81.268">  5  6 -1 -1</clus>
<clus scale="   99.107">  7  8 -1 -1</clus>
<clus scale="  102.506">  1  5  2 -1</clus>
<clus scale="   26.798">  1  5  2 -1</clus>
</clustering>
</event>
<event>
 9    1  0.7835476E-005  0.1643132E+03  0.7546771E-02  0.1185609E+00
         21   -1    0    0  501  502  0.00000000000E+00  0.00000000000E+00  0.43007331931E+03  0.43007331931E+03  0.00000000000E+00 0.  1.
         -4   -1    0    0    0  501 -0.00000000000E+00 -0.00000000000E+00 -0.21633980685E+03  0.21633980685E+03  0.00000000000E+00 0.  1.
         23    2    1    2    0    0 -0.75430386953E+01  0.12172247909E+03 -0.90455728558E+02  0.17694665447E+03  0.90854941264E+02 0.  0.
        -24    2    1    2    0    0  0.40854460341E+02 -0.17710474969E+03  0.46337633165E+02  0.20363889903E+03  0.79287109032E+02 0.  0.
         11    1    4    4    0    0 -0.23636876458E+02 -0.62028335461E+02  0.15934439138E+02  0.68265091220E+02  0.00000000000E+00 0. -1.
        -12    1    4    4    0    0  0.64491336799E+02 -0.11507641423E+03  0.30403194028E+02  0.13537380781E+03  0.00000000000E+00 0.  1.
        -11    1    3    3    0    0 -0.48380179795E+02  0.54517497754E+02 -0.51036172327E+02  0.88980280086E+02  0.00000000000E+00 0. -1.
         11    1    3    3    0    0  0.40837141100E+02  0.67204981333E+02 -0.39419556231E+02  0.87966374386E+02  0.00000000000E+00 0.  1.
         -3    1    1    2    0  502 -0.33311421646E+02  0.55382270604E+02  0.25785160786E+03  0.26582757266E+03  0.00000000000E+00 0.  1.
<scales pt_clust_5="13000.00000" pt_clust_6="13000.00000" pt_clust_7="13000.00000" pt_clust_8="13000.00000" pt_clust_9="64.62853"></scales>
<clustering>
<clus scale="   64.629">  1  9  2 -1</clus>
<clus scale="   79.287">  5  6 -1 -1</clus>
<clus scale="   90.855">  7  8 -1 -1</clus>
<clus scale="  158.211">  1  5  2 -1</clus>
<clus scale="   64.629">  1  5  2 -1</clus>
</clustering>
</event>
<event>
 9    1  0.7835476E-005  0.2604127E+03  0.7546771E-02  0.1107379E+00
         21   -1    0    0  501  502  0.00000000000E+00  0.00000000000E+00  0.10487699417E+04  0.10487699417E+04  0.00000000000E+00 0.  1.
         -2   -1    0    0    0  501 -0.00000000000E+00 -0.00000000000E+00 -0.31282879742E+03  0.31282879742E+03  0.00000000000E+00 0.  1.
         23    2    1    2    0    0  0.23173560150E+03  0.11187766944E+03 -0.16196140469E+03  0.31721681037E+03  0.90426800516E+02 0.  0.
        -24    2    1    2    0    0 -0.73423289675E+02 -0.24869170083E+03  0.27174889520E+03  0.38419311834E+03  0.80736290560E+02 0.  0.
         13    1    4    4    0    0 -0.22446627462E+02 -0.12308507729E+03  0.76999178074E+02  0.14691038343E+03  0.00000000000E+00 0. -1.
        -14    1    4    4    0    0 -0.50976662214E+02 -0.12560662354E+03  0.19474971713E+03  0.23728273491E+03  0.00000000000E+00 0.  1.
        -11    1    3    3    0    0  0.89403766852E+02  0.15156409897E+02 -0.98290431550E+02  0.13373017319E+03  0.00000000000E+00 0. -1.
         11    1    3    3    0    0  0.14233183465E+03  0.96721259545E+02 -0.63670973135E+02  0.18348663718E+03  0.00000000000E+00 0.  1.
         -1    1    1    2    0  502 -0.15831231183E+03  0.13681403138E+03  0.62615365375E+03  0.66018881039E+03  0.00000000000E+00 0.  1.
<scales pt_clust_5="13000.00000" pt_clust_6="13000.00000" pt_clust_7="13000.00000" pt_clust_8="13000.00000" pt_clust_9="209.23878"></scales>
<clustering>
<clus scale="   80.736">  5  6 -1 -1</clus>
<clus scale="   90.427">  7  8 -1 -1</clus>
<clus scale="  209.239">  1  9  2 -1</clus>
<clus scale="  257.208">  1  5  2 -1</clus>
<clus scale="  209.239">  1  5  2 -1</clus>
</clustering>
</event>
<event>
 9    1  0.7835476E-005  0.1153727E+03  0.7546771E-02  0.1253876E+00
         21   -1    0    0  501  502  0.00000000000E+00  0.00000000000E+00  0.42073581214E+03  0.42073581214E+03  0.00000000000E+00 0.  1.
          1   -1    0    0  502    0 -0.00000000000E+00 -0.00000000000E+00 -0.57842578527E+02  0.57842578527E+02  0.00000000000E+00 0. -1.
         23    2    1    2    0    0  0.68404029700E+02  0.29375727112E+02  0.66840346096E+02  0.13520575543E+03  0.90944597486E+02 0.  0.
        -24    2    1    2    0    0 -0.69809545865E+02  0.15219135698E+02  0.27114537218E+03  0.29227408746E+03  0.82458077602E+02 0.  0.
         13    1    4    4    0    0 -0.51522096755E+02  0.52777195485E+01  0.56594283167E+02  0.76715667662E+02  0.00000000000E+00 0. -1.
        -14    1    4    4    0    0 -0.18287449110E+02  0.99414161499E+01  0.21455108901E+03  0.21555841980E+03  0.00000000000E+00 0.  1.
        -13    1    3    3    0    0  0.15316768854E+02 -0.27789955283E+02 -0.11064596382E+01  0.31750736616E+02  0.00000000000E+00 0. -1.
         13    1    3    3    0    0  0.53087260846E+02  0.57165682395E+02  0.67946805734E+02  0.10345501881E+03  0.00000000000E+00 0.  1.
          2    1    1    2  501    0  0.14055161646E+01 -0.44594862811E+02  0.24907515341E+02  0.51098547780E+02  0.00000000000E+00 0. -1.
<scales pt_clust_5="13000.00000" pt_clust_6="13000.00000" pt_clust_7="13000.00000" pt_clust_8="13000.00000" pt_clust_9="44.61703"></scales>
<clustering>
<clus scale="   44.617">  1  9  2 -1</clus>
<clus scale="   82.458">  5  6 -1 -1</clus>
<clus scale="   90.945">  7  8 -1 -1</clus>
<clus scale="  108.808">  1  5  2 -1</clus>
<clus scale="   44.617">  1  5  2 -1</clus>
</clustering>
</event>
<event>
 9    1  0.7835476E-005  0.2043847E+03  0.7546771E-02  0.1181653E+00
          1   -1    0    0  502    0 -0.00000000000E+00  0.00000000000E+00  0.30857773121E+03  0.30857773121E+03  0.00000000000E+00 0. -1.
         21   -1    0    0  501  502  0.00000000000E+00 -0.00000000000E+00 -0.23839457782E+03  0.23839457782E+03  0.00000000000E+00 0.  1.
        -24    2    1    2    0    0  0.40197778175E+02  0.18071517284E+02  0.12149362706E+03  0.15108000102E+03  0.78243365122E+02 0.  0.
         23    2    1    2    0    0 -0.18740188271E+03  0.67191455252E+02 -0.58876731441E+02  0.22560998029E+03  0.88313285513E+02 0.  0.
         11    1    3    3    0    0  0.45407143972E+02  0.43826411526E+02  0.78902752388E+02  0.10103567392E+03  0.00000000000E+00 0. -1.
        -12    1    3    3    0    0 -0.52093657966E+01 -0.25754894242E+02  0.42590874670E+02  0.50044327097E+02  0.00000000000E+00 0.  1.
        -13    1    4    4    0    0 -0.16026064402E+03  0.88651839198E+02 -0.51192105249E+02  0.19016638571E+03  0.00000000000E+00 0.  1.
         13    1    4    4    0    0 -0.27141238687E+02 -0.21460383946E+02 -0.76846261912E+01  0.35443594573E+02  0.00000000000E+00 0. -1.
          2    1    1    2  501    0  0.14720410453E+03 -0.85262972536E+02  0.75662577687E+01  0.17028232772E+03  0.00000000000E+00 0. -1.
<scales pt_clust_5="13000.00000" pt_clust_6="13000.00000" pt_clust_7="13000.00000" pt_clust_8="13000.00000" pt_clust_9="184.32016"></scales>
<clustering>
<clus scale="   78.243">  5  6 -1 -1</clus>
<clus scale="   88.313">  7  8 -1 -1</clus>
<clus scale="   89.802">  1  5  2 -1</clus>
<clus scale="  184.320">  2  9  1 -1</clus>
<clus scale="  184.320">  2  5  1 -1</clus>
</clustering>
</event>
<event>
 9    1  0.7835476E-005  0.9034440E+02  0.7546771E-02  0.1308118E+00
          1   -1    0    0  502    0 -0.00000000000E+00  0.00000000000E+00  0.11408292420E+03  0.11408292420E+03  0.00000000000E+00 0. -1.
         21   -1    0    0  501  502  0.00000000000E+00 -0.00000000000E+00 -0.11972985591E+03  0.11972985591E+03  0.00000000000E+00 0. -1.
         23    2    1    2    0    0 -0.26650745898E+01  0.17322862890E+02  0.55819457274E+02  0.10710407732E+03  0.89712247587E+02 0.  0.
        -24    2    1    2    0    0  0.10457638681E+02  0.10480435172E+02 -0.40139798913E+02  0.90812033268E+02  0.80102560517E+02 0.  0.
         13    1    4    4    0    0 -0.13387146626E+02  0.16175140923E+02 -0.57208547446E+02  0.60939878401E+02  0.00000000000E+00 0. -1.
        -14    1    4    4    0    0  0.23844785307E+02 -0.56947057504E+01  0.17068748533E+02  0.29872154867E+02  0.00000000000E+00 0.  1.
        -11    1    3    3    0    0 -0.14801895720E+01 -0.27496920587E+02 -0.83932658210E+01  0.28787471478E+02  0.00000000000E+00 0.  1.
         11    1    3    3    0    0 -0.11848850178E+01  0.44819783477E+02  0.64212723095E+02  0.78316605843E+02  0.00000000000E+00 0. -1.
          2    1    1    2  501    0 -0.77925640915E+01 -0.27803298062E+02 -0.21326590073E+02  0.35896669517E+02  0.00000000000E+00 0. -1.
<scales pt_clust_5="13000.00000" pt_clust_6="13000.00000" pt_clust_7="13000.00000" pt_clust_8="13000.00000" pt_clust_9="28.87469"></scales>
<clustering>
<clus scale="   28.875">  2  9  1 -1</clus>
<clus scale="   80.103">  5  6 -1 -1</clus>
<clus scale="   80.810">  2  5  1 -1</clus>
<clus scale="   89.712">  7  8 -1 -1</clus>
<clus scale="   28.875">  2  5  1 -1</clus>
</clustering>
</event>
<event>
 9    1  0.7835476E-005  0.1129583E+03  0.7546771E-02  0.1258151E+00
         21   -1    0    0  501  502  0.00000000000E+00  0.00000000000E+00  0.28272206678E+03  0.28272206678E+03  0.00000000000E+00 0. -1.
          1   -1    0    0  502    0 -0.00000000000E+00 -0.00000000000E+00 -0.61528353637E+02  0.61528353637E+02  0.00000000000E+00 0. -1.
        -24    2    1    2    0    0 -0.53996808836E+02 -0.75522224205E+01  0.87365698433E+02  0.13201849070E+03  0.82604026505E+02 0.  0.
         23    2    1    2    0    0  0.72468610639E+02  0.42944642630E+02  0.90823528876E+02  0.15355300103E+03  0.90739566178E+02 0.  0.
         11    1    3    3    0    0 -0.56959111721E+02  0.24713312008E+02  0.74932290256E+02  0.97313597824E+02  0.00000000000E+00 0. -1.
        -12    1    3    3    0    0  0.29623028843E+01 -0.32265534428E+02  0.12433408177E+02  0.34704892871E+02  0.00000000000E+00 0.  1.
        -13    1    4    4    0    0  0.85472505472E+01 -0.21691204772E+02  0.47369047242E+02  0.52795743133E+02  0.00000000000E+00 0.  1.
         13    1    4    4    0    0  0.63921360092E+02  0.64635847402E+02  0.43454481635E+02  0.10075725790E+03  0.00000000000E+00 0. -1.
          2    1    1    2  501    0 -0.18471801803E+02 -0.35392420210E+02  0.43004485834E+02  0.58678928688E+02  0.00000000000E+00 0. -1.
<scales pt_clust_5="13000.00000" pt_clust_6="13000.00000" pt_clust_7="13000.00000" pt_clust_8="13000.00000" pt_clust_9="39.92281"></scales>
<clustering>
<clus scale="   39.923">  1  9  2 -1</clus>
<clus scale="   82.604">  5  6 -1 -1</clus>
<clus scale="   90.740">  7  8 -1 -1</clus>
<clus scale="  106.533">  2  5  1 -1</clus>
<clus scale="   39.923">  1  5  2 -1</clus>
</clustering>
</event>
<event>
 9    1  0.7835476E-005  0.9645885E+02  0.7546771E-02  0.1293550E+00
         21   -1    0    0  501  502  0.00000000000E+00  0.00000000000E+00  0.19901789282E+03  0.19901789282E+03  0.00000000000E+00 0.  1.
         -4   -1    0    0    0  501 -0.00000000000E+00 -0.00000000000E+00 -0.35019987063E+03  0.35019987063E+03  0.00000000000E+00 0.  1.
        -24    2    1    2    0    0 -0.37608988297E+02 -0.19000546577E+02 -0.27897785893E+03  0.29317822995E+03  0.79682946576E+02 0.  0.
         23    2    1    2    0    0  0.26896113528E+01 -0.10360385405E+02 -0.27006620593E+02  0.94654150809E+02  0.90085954036E+02 0.  0.
         11    1    3    3    0    0 -0.57621455766E+02 -0.36518813654E+01 -0.13232758712E+03  0.14437506265E+03  0.00000000000E+00 0. -1.
        -12    1    3    3    0    0  0.20012467469E+02 -0.15348665212E+02 -0.14665027180E+03  0.14880316730E+03  0.00000000000E+00 0.  1.
        -11    1    4    4    0    0 -0.22766610107E+02  0.32078894718E+02 -0.24628700031E+01  0.39413700038E+02  0.00000000000E+00 0.  1.
         11    1    4    4    0    0  0.25456221460E+02 -0.42439280123E+02 -0.24543750590E+02  0.55240450771E+02  0.00000000000E+00 0. -1.
         -3    1    1    2    0  502  0.34919376945E+02  0.29360931982E+02  0.15480250170E+03  0.16138538269E+03  0.00000000000E+00 0.  1.
<scales pt_clust_5="13000.00000" pt_clust_6="13000.00000" pt_clust_7="13000.00000" pt_clust_8="13000.00000" pt_clust_9="45.62266"></scales>
<clustering>
<clus scale="   45.623">  1  9  2 -1</clus>
<clus scale="   79.683">  5  6 -1 -1</clus>
<clus scale="   86.823">  2  5  1 -1</clus>
<clus scale="   90.086">  7  8 -1 -1</clus>
<clus scale="   45.623">  1  5  2 -1</clus>
</clustering>
</event>
<event>
 9    1  0.7835476E-005  0.1656808E+03  0.7546771E-02  0.1205540E+00
         21   -1    0    0  501  502  0.00000000000E+00  0.00000000000E+00  0.46634337842E+03  0.46634337842E+03  0.00000000000E+00 0. -1.
         -2   -1    0    0    0  501 -0.00000000000E+00 -0.00000000000E+00 -0.29044347579E+03  0.29044347579E+03  0.00000000000E+00 0.  1.
        -24    2    1    2    0    0 -0.28623955220E+02 -0.51003210932E+02 -0.21766517109E+03  0.23944124316E+03  0.80828979235E+02 0.  0.
         23    2    1    2    0    0 -0.69308804281E+02 -0.94382767715E+02  0.24678940715E+03  0.28871708163E+03  0.93491842170E+02 0.  0.
         13    1    3    3    0    0 -0.12523879699E+02  0.17060762707E+02 -0.10281074399E+03  0.10496650069E+03  0.00000000000E+00 0. -1.
        -14    1    3    3    0    0 -0.16100075521E+02 -0.68063973639E+02 -0.11485442710E+03  0.13447474247E+03  0.00000000000E+00 0.  1.
        -11    1    4    4    0    0 -0.37062301721E+02 -0.42079210839E+02  0.30423403135E+02  0.63795435981E+02  0.00000000000E+00 0.  1.
         11    1    4    4    0    0 -0.32246502561E+02 -0.52303556876E+02  0.21636600401E+03  0.22492164565E+03  0.00000000000E+00 0. -1.
         -1    1    1    2    0  502  0.97932759502E+02  0.14538597865E+03  0.14677566657E+03  0.22862852943E+03  0.00000000000E+00 0.  1.
<scales pt_clust_5="13000.00000" pt_clust_6="13000.00000" pt_clust_7="13000.00000" pt_clust_8="13000.00000" pt_clust_9="136.78242"></scales>
<clustering>
<clus scale="   80.829">  5  6 -1 -1</clus>
<clus scale="   93.492">  7  8 -1 -1</clus>
<clus scale="   99.770">  2  5  1 -1</clus>
<clus scale="  136.782">  1  9  2 -1</clus>
<clus scale="  136.782">  1  5  2 -1</clus>
</clustering>
</event>
<event>
 9    1  0.7835476E-005  0.1236354E+03  0.7546771E-02  0.1239784E+00
         21   -1    0    0  501  502  0.00000000000E+00  0.00000000000E+00  0.21479776356E+02  0.21479776356E+02  0.00000000000E+00 0. -1.
          1   -1    0    0  502    0 -0.00000000000E+00 -0.00000000000E+00 -0.97541907733E+03  0.97541907733E+03  0.00000000000E+00 0. -1.
         23    2    1    2    0    0  0.54240711947E+02  0.50066188342E+02 -0.37515124208E+03  0.39315928059E+03  0.91581042939E+02 0.  0.
        -24    2    1    2    0    0 -0.34974751546E+02 -0.89908475892E+02 -0.44518398612E+03  0.46299642631E+03  0.82886319713E+02 0.  0.
         11    1    4    4    0    0 -0.21108166756E+02 -0.10116689565E+03 -0.41711007883E+03  0.42972213504E+03  0.00000000000E+00 0. -1.
        -12    1    4    4    0    0 -0.13866584791E+02  0.11258419758E+02 -0.28073907286E+02  0.33274291270E+02  0.00000000000E+00 0.  1.
        -13    1    3    3    0    0  0.31285956099E+02  0.71298084694E+02 -0.32386484162E+03  0.33309257507E+03  0.00000000000E+00 0.  1.
         13    1    3    3    0    0  0.22954755848E+02 -0.21231896353E+02 -0.51286400464E+02  0.60066705514E+02  0.00000000000E+00 0. -1.
          2    1    1    2  501    0 -0.19265960401E+02  0.39842287550E+02 -0.13360407277E+03  0.14074314679E+03  0.00000000000E+00 0. -1.
<scales pt_clust_5="13000.00000" pt_clust_6="13000.00000" pt_clust_7="13000.00000" pt_clust_8="13000.00000" pt_clust_9="44.25590"></scales>
<clustering>
<clus scale="   44.256">  1  9  2 -1</clus>
<clus scale="   82.886">  5  6 -1 -1</clus>
<clus scale="   91.581">  7  8 -1 -1</clus>
<clus scale="  117.340">  1  5  2 -1</clus>
<clus scale="   44.256">  1  5  2 -1</clus>
</clustering>
</event>
<event>
 9    1  0.7835476E-005  0.2039982E+03  0.7546771E-02  0.1147171E+00
         21   -1    0    0  501  502  0.00000000000E+00  0.00000000000E+00  0.49438120096E+03  0.49438120096E+03  0.00000000000E+00 0.  1.
         -4   -1    0    0    0  501 -0.00000000000E+00 -0.00000000000E+00 -0.12522893875E+03  0.12522893875E+03  0.00000000000E+00 0.  1.
         23    2    1    2    0    0 -0.17318995000E+02  0.15386901318E+03  0.10832834551E+03  0.20999817261E+03  0.91589198348E+02 0.  0.
        -24    2    1    2    0    0  0.47664812645E+02 -0.21383448708E+03  0.14454264919E+03  0.27530612254E+03  0.83088876761E+02 0.  0.
         13    1    4    4    0    0  0.38138312584E+02 -0.33671417282E+02  0.51185184422E+02  0.72167986898E+02  0.00000000000E+00 0. -1.
        -14    1    4    4    0    0  0.95265000616E+01 -0.18016306980E+03  0.93357464767E+02  0.20313813564E+03  0.00000000000E+00 0.  1.
        -11    1    3    3    0    0  0.37363412849E+02  0.67742307436E+02  0.54648987392E+02  0.94718301608E+02  0.00000000000E+00 0.  1.
         11    1    3    3    0    0 -0.54682407849E+02  0.86126705742E+02  0.53679358117E+02  0.11527987100E+03  0.00000000000E+00 0. -1.
         -3    1    1    2    0  502 -0.30345817645E+02  0.59965473906E+02  0.11628126751E+03  0.13430584456E+03  0.00000000000E+00 0.  1.
<scales pt_clust_5="13000.00000" pt_clust_6="13000.00000" pt_clust_7="13000.00000" pt_clust_8="13000.00000" pt_clust_9="67.20660"></scales>
<clustering>
<clus scale="   67.207">  1  9  2 -1</clus>
<clus scale="   83.089">  5  6 -1 -1</clus>
<clus scale="   91.589">  7  8 -1 -1</clus>
<clus scale="  200.326">  1  5  2 -1</clus>
<clus scale="   67.207">  1  5  2 -1</clus>
</clustering>
</event>
<event>
 9    1  0.7835476E-005  0.1840517E+03  0.7546771E-02  0.1173506E+00
         21   -1    0    0  501  502  0.00000000000E+00  0.00000000000E+00  0.11060759841E+03  0.11060759841E+03  0.00000000000E+00 0. -1.
          1   -1    0    0  502    0 -0.00000000000E+00 -0.00000000000E+00 -0.15269583268E+04  0.15269583268E+04  0.00000000000E+00 0. -1.
        -24    2    1    2    0    0  0.12105409025E+03 -0.23190527675E+02 -0.74644081460E+02  0.16558128498E+03  0.81569171248E+02 0.  0.
         23    2    1    2    0    0 -0.26757683851E+03  0.55613666241E+02 -0.12761226768E+04  0.13082121370E+04  0.90772599811E+02 0.  0.
         13    1    3    3    0    0  0.19206650006E+02  0.12356124562E+02  0.13277533523E+02  0.26417079989E+02  0.00000000000E+00 0. -1.
        -14    1    3    3    0    0  0.10184744024E+03 -0.35546652237E+02 -0.87921614982E+02  0.13916420499E+03  0.00000000000E+00 0.  1.
        -11    1    4    4    0    0 -0.86954331580E+02 -0.24547902421E+02 -0.40570838393E+03  0.41564762490E+03  0.00000000000E+00 0.  1.
         11    1    4    4    0    0 -0.18062250693E+03  0.80161568662E+02 -0.87041429284E+03  0.89256451211E+03  0.00000000000E+00 0. -1.
          2    1    1    2  501    0  0.14652274826E+03 -0.32423138566E+02 -0.65583970178E+02  0.16377250324E+03  0.00000000000E+00 0. -1.
<scales pt_clust_5="13000.00000" pt_clust_6="13000.00000" pt_clust_7="13000.00000" pt_clust_8="13000.00000" pt_clust_9="160.11051"></scales>
<clustering>
<clus scale="   81.569">  5  6 -1 -1</clus>
<clus scale="   90.773">  7  8 -1 -1</clus>
<clus scale="  147.802">  2  5  1 -1</clus>
<clus scale="  160.111">  1  9  2 -1</clus>
<clus scale="  160.111">  1  5  2 -1</clus>
</clustering>
</event>
<event>
 9    1  0.7835476E-005  0.1126736E+03  0.7546771E-02  0.1260197E+00
         21   -1    0    0  501  502  0.00000000000E+00  0.00000000000E+00  0.39720645540E+03  0.39720645540E+03  0.00000000000E+00 0. -1.
          3   -1    0    0  502    0 -0.00000000000E+00 -0.00000000000E+00 -0.46688062552E+02  0.46688062552E+02  0.00000000000E+00 0. -1.
        -24    2    1    2    0    0 -0.70572188073E+02  0.15872210236E+02  0.78623368389E+02  0.13343594161E+03  0.79944703831E+02 0.  0.
         23    2    1    2    0    0  0.43873661167E+02 -0.16687051860E+02  0.26261748996E+03  0.28218229737E+03  0.91954048702E+02 0.  0.
         13    1    3    3    0    0 -0.86309251768E+02  0.18694452186E+02  0.52294207207E+02  0.10263261465E+03  0.00000000000E+00 0. -1.
        -14    1    3    3    0    0  0.15737063694E+02 -0.28222419503E+01  0.26329161182E+02  0.30803326961E+02  0.00000000000E+00 0.  1.
        -11    1    4    4    0    0  0.37908131012E+02  0.33342763432E+02  0.10136155020E+03  0.11323837746E+03  0.00000000000E+00 0.  1.
         11    1    4    4    0    0  0.59655301553E+01 -0.50029815292E+02  0.16125593976E+03  0.16894391991E+03  0.00000000000E+00 0. -1.
          4    1    1    2  501    0  0.26698526906E+02  0.81484162408E+00  0.92775344989E+01  0.28276278967E+02  0.00000000000E+00 0. -1.
<scales pt_clust_5="13000.00000" pt_clust_6="13000.00000" pt_clust_7="13000.00000" pt_clust_8="13000.00000" pt_clust_9="26.71097"></scales>
<clustering>
<clus scale="   26.711">  1  9  2 -1</clus>
<clus scale="   79.945">  5  6 -1 -1</clus>
<clus scale="   91.954">  7  8 -1 -1</clus>
<clus scale="  103.106">  2  5  1 -1</clus>
<clus scale="   26.711">  1  5  2 -1</clus>
</clustering>
</event>
<event>
 9    1  0.7835476E-005  0.1163355E+03  0.7546771E-02  0.1254697E+00
         -2   -1    0    0    0  501 -0.00000000000E+00  0.00000000000E+00  0.21734052433E+03  0.21734052433E+03  0.00000000000E+00 0.  1.
         21   -1    0    0  501  502  0.00000000000E+00 -0.00000000000E+00 -0.26640594293E+03  0.26640594293E+03  0.00000000000E+00 0.  1.
         23    2    1    2    0    0  0.10179169213E+03  0.95288863302E+01  0.93736081811E+02  0.16617775577E+03  0.91521829186E+02 0.  0.
        -24    2    1    2    0    0 -0.25463360238E+02 -0.61049908354E+02  0.43615080120E+02  0.10964667934E+03  0.75793436732E+02 0.  0.
         11    1    4    4    0    0  0.24194328794E+02 -0.81153196679E+01  0.11260582050E+01  0.25543922294E+02  0.00000000000E+00 0. -1.
        -12    1    4    4    0    0 -0.49657689031E+02 -0.52934588686E+02  0.42489021915E+02  0.84102757045E+02  0.00000000000E+00 0.  1.
        -13    1    3    3    0    0  0.68708330034E+02  0.18709664005E+02  0.10770007678E+03  0.12911310034E+03  0.00000000000E+00 0.  1.
         13    1    3    3    0    0  0.33083362097E+02 -0.91807776748E+01 -0.13963994964E+02  0.37064655424E+02  0.00000000000E+00 0. -1.
         -1    1    1    2    0  502 -0.76328331893E+02  0.51521022024E+02 -0.18641658052E+03  0.20792203215E+03  0.00000000000E+00 0.  1.
<scales pt_clust_5="13000.00000" pt_clust_6="13000.00000" pt_clust_7="13000.00000" pt_clust_8="13000.00000" pt_clust_9="92.08925"></scales>
<clustering>
<clus scale="   75.793">  5  6 -1 -1</clus>
<clus scale="   91.522">  7  8 -1 -1</clus>
<clus scale="   92.089">  2  9  1 -1</clus>
<clus scale="  104.414">  2  5  1 -1</clus>
<clus scale="   92.089">  2  5  1 -1</clus>
</clustering>
</event>
<event>
 9    1  0.7835476E-005  0.1186184E+03  0.7546771E-02  0.1249599E+00
         -2   -1    0    0    0  501 -0.00000000000E+00  0.00000000000E+00  0.13149199380E+03  0.13149199380E+03  0.00000000000E+00 0.  1.
         21   -1    0    0  501  502  0.00000000000E+00 -0.00000000000E+00 -0.16899841260E+03  0.16899841260E+03  0.00000000000E+00 0. -1.
         23    2    1    2    0    0 -0.33175134791E+02  0.79615582457E+02  0.65943868546E+02  0.13907508752E+03  0.86914070385E+02 0.  0.
        -24    2    1    2    0    0  0.35519179521E+02 -0.54364865064E+02 -0.88471121692E+02  0.13196249766E+03  0.73278992540E+02 0.  0.
         13    1    4    4    0    0  0.42210899547E+02 -0.44857596798E+02 -0.98788890871E+02  0.11641825025E+03  0.00000000000E+00 0. -1.
        -14    1    4    4    0    0 -0.66917200257E+01 -0.95072682656E+01  0.10317769179E+02  0.15544247412E+02  0.00000000000E+00 0.  1.
        -11    1    3    3    0    0 -0.55708136747E+02  0.62075271390E+02  0.21306349009E+02  0.86085401353E+02  0.00000000000E+00 0.  1.
         11    1    3    3    0    0  0.22533001956E+02  0.17540311067E+02  0.44637519537E+02  0.52989686165E+02  0.00000000000E+00 0. -1.
         -1    1    1    2    0  502 -0.23440447299E+01 -0.25250717393E+02 -0.14979165648E+02  0.29452821224E+02  0.00000000000E+00 0.  1.
<scales pt_clust_5="13000.00000" pt_clust_6="13000.00000" pt_clust_7="13000.00000" pt_clust_8="13000.00000" pt_clust_9="25.35928"></scales>
<clustering>
<clus scale="   25.359">  2  9  1 -1</clus>
<clus scale="   73.279">  5  6 -1 -1</clus>
<clus scale="   86.914">  7  8 -1 -1</clus>
<clus scale="  109.023">  2  5  1 -1</clus>
<clus scale="   25.359">  2  5  1 -1</clus>
</clustering>
</event>
<event>
 9    1  0.1155834E-004  0.4940180E+03  0.7546771E-02  0.1015362E+00
          1   -1    0    0  502    0 -0.00000000000E+00  0.00000000000E+00  0.14979604543E+04  0.14979604543E+04  0.00000000000E+00 0. -1.
         21   -1    0    0  501  502  0.00000000000E+00 -0.00000000000E+00 -0.18815172837E+03  0.18815172837E+03  0.00000000000E+00 0.  1.
         23    2    1    2    0    0  0.50314303689E+03 -0.76791536658E+02  0.65006661332E+03  0.83058083686E+03  0.90708704858E+02 0.  0.
        -24    2    1    2    0    0 -0.45046742109E+03  0.10481896662E+03  0.50995823841E+03  0.69430024986E+03  0.89930633288E+02 0.  0.
         11    1    4    4    0    0 -0.41604126058E+03  0.82676917905E+02  0.49198488302E+03  0.64959597318E+03  0.00000000000E+00 0. -1.
        -12    1    4    4    0    0 -0.34426160506E+02  0.22142048720E+02  0.17973355392E+02  0.44704276671E+02  0.00000000000E+00 0.  1.
        -11    1    3    3    0    0  0.78676936307E+02 -0.47739463380E+00  0.15632319378E+03  0.17500636882E+03  0.00000000000E+00 0. -1.
         11    1    3    3    0    0  0.42446610058E+03 -0.76314142025E+02  0.49374341954E+03  0.65557446805E+03  0.00000000000E+00 0.  1.
          2    1    1    2  501    0 -0.52675615799E+02 -0.28027429966E+02  0.14978387419E+03  0.16123109594E+03  0.00000000000E+00 0. -1.
<scales pt_clust_5="13000.00000" pt_clust_6="13000.00000" pt_clust_7="13000.00000" pt_clust_8="13000.00000" pt_clust_9="59.66792"></scales>
<clustering>
<clus scale="   59.668">  2  9  1 -1</clus>
<clus scale="   89.931">  5  6 -1 -1</clus>
<clus scale="   90.709">  7  8 -1 -1</clus>
<clus scale="  493.876">  2  5  1 -1</clus>
<clus scale="   59.668">  2  5  1 -1</clus>
</clustering>
</event>
<event>
 9    1  0.7835476E-005  0.9810870E+02  0.7546771E-02  0.1294071E+00
         21   -1    0    0  501  502  0.00000000000E+00  0.00000000000E+00  0.35467601274E+03  0.35467601274E+03  0.00000000000E+00 0. -1.
          3   -1    0    0  502    0 -0.00000000000E+00 -0.00000000000E+00 -0.13427617140E+03  0.13427617140E+03  0.00000000000E+00 0. -1.
        -24    2    1    2    0    0 -0.92561424818E+01 -0.12892318956E+00 -0.93700993961E+02  0.12398567527E+03  0.80665225518E+02 0.  0.
         23    2    1    2    0    0  0.47472119644E+02  0.42357101786E+02  0.14085040272E+03  0.18259493113E+03  0.97233464982E+02 0.  0.
         11    1    3    3    0    0 -0.24296632463E+02  0.11238033458E+02 -0.10045421595E+03  0.10395994059E+03  0.00000000000E+00 0. -1.
        -12    1    3    3    0    0  0.15040489981E+02 -0.11366956648E+02  0.67532219881E+01  0.20025734681E+02  0.00000000000E+00 0.  1.
        -13    1    4    4    0    0  0.77732300020E+02  0.28059740991E+02  0.10344028037E+03  0.13239921123E+03  0.00000000000E+00 0.  1.
         13    1    4    4    0    0 -0.30260180376E+02  0.14297360795E+02  0.37410122350E+02  0.50195719900E+02  0.00000000000E+00 0. -1.
          4    1    1    2  501    0 -0.38215977162E+02 -0.42228178596E+02  0.17325043258E+03  0.18237157774E+03  0.00000000000E+00 0. -1.
<scales pt_clust_5="13000.00000" pt_clust_6="13000.00000" pt_clust_7="13000.00000" pt_clust_8="13000.00000" pt_clust_9="56.95331"></scales>
<clustering>
<clus scale="   56.953">  1  9  2 -1</clus>
<clus scale="   80.665">  5  6 -1 -1</clus>
<clus scale="   81.718">  2  5  1 -1</clus>
<clus scale="   97.233">  7  8 -1 -1</clus>
<clus scale="   56.953">  1  5  2 -1</clus>
</clustering>
</event>
<event>
 9    1  0.7835476E-005  0.1339538E+03  0.7546771E-02  0.1224841E+00
          1   -1    0    0  502    0 -0.00000000000E+00  0.00000000000E+00  0.33232233514E+03  0.33232233514E+03  0.00000000000E+00 0. -1.
         21   -1    0    0  501  502  0.00000000000E+00 -0.00000000000E+00 -0.84177808159E+02  0.84177808159E+02  0.00000000000E+00 0. -1.
         23    2    1    2    0    0 -0.92502007704E+02  0.71555115473E+01  0.14281086498E+03  0.19462441631E+03  0.94211981690E+02 0.  0.
        -24    2    1    2    0    0  0.99858247536E+02  0.36196838819E+02  0.34268862066E+02  0.13830691500E+03  0.81685782657E+02 0.  0.
         13    1    4    4    0    0  0.98659825011E+02  0.54021988527E+02  0.17557343135E+02  0.11384373770E+03  0.00000000000E+00 0. -1.
        -14    1    4    4    0    0  0.11984225250E+01 -0.17825149708E+02  0.16711518931E+02  0.24463177300E+02  0.00000000000E+00 0.  1.
        -13    1    3    3    0    0 -0.40692555484E+02  0.50341452486E+02  0.72521424949E+02  0.97208554083E+02  0.00000000000E+00 0.  1.
         13    1    3    3    0    0 -0.51809452220E+02 -0.43185940939E+02  0.70289440028E+02  0.97415862228E+02  0.00000000000E+00 0. -1.
          2    1    1    2  501    0 -0.73562398317E+01 -0.43352350366E+02  0.71064799940E+02  0.83568811989E+02  0.00000000000E+00 0. -1.
<scales pt_clust_5="13000.00000" pt_clust_6="13000.00000" pt_clust_7="13000.00000" pt_clust_8="13000.00000" pt_clust_9="43.97206"></scales>
<clustering>
<clus scale="   43.972">  2  9  1 -1</clus>
<clus scale="   81.686">  5  6 -1 -1</clus>
<clus scale="   94.212">  7  8 -1 -1</clus>
<clus scale="  125.460">  2  5  1 -1</clus>
<clus scale="   43.972">  2  5  1 -1</clus>
</clustering>
</event>
<event>
 9    1  0.7835476E-005  0.1759958E+03  0.7546771E-02  0.1195512E+00
         21   -1    0    0  501  502  0.00000000000E+00  0.00000000000E+00  0.34700585593E+03  0.34700585593E+03  0.00000000000E+00 0. -1.
         -2   -1    0    0    0  501 -0.00000000000E+00 -0.00000000000E+00 -0.27897857202E+03  0.27897857202E+03  0.00000000000E+00 0.  1.
         23    2    1    2    0    0  0.59814957632E+01  0.47264305627E+02 -0.17837824098E+03  0.20621505591E+03  0.91848568583E+02 0.  0.
        -24    2    1    2    0    0 -0.13480366849E+03 -0.11284576338E+03  0.12353700033E+03  0.23005180799E+03  0.82196402343E+02 0.  0.
         11    1    4    4    0    0 -0.96443831393E+02 -0.28161162566E+02  0.54899374476E+02  0.11449194299E+03  0.00000000000E+00 0. -1.
        -12    1    4    4    0    0 -0.38359837095E+02 -0.84684600811E+02  0.68637625855E+02  0.11555986500E+03  0.00000000000E+00 0.  1.
        -13    1    3    3    0    0 -0.42230892081E+02  0.23905840379E+02 -0.68203456147E+02  0.83705727884E+02  0.00000000000E+00 0. -1.
         13    1    3    3    0    0  0.48212387844E+02  0.23358465248E+02 -0.11017478483E+03  0.12250932802E+03  0.00000000000E+00 0.  1.
         -1    1    1    2    0  502  0.12882217273E+03  0.65581457749E+02  0.12286852455E+03  0.18971756406E+03  0.00000000000E+00 0.  1.
<scales pt_clust_5="13000.00000" pt_clust_6="13000.00000" pt_clust_7="13000.00000" pt_clust_8="13000.00000" pt_clust_9="155.62216"></scales>
<clustering>
<clus scale="   82.196">  5  6 -1 -1</clus>
<clus scale="   91.849">  7  8 -1 -1</clus>
<clus scale="  103.469">  2  7  1 -1</clus>
<clus scale="  155.622">  1  9  2 -1</clus>
<clus scale="  155.622">  1  5  2 -1</clus>
</clustering>
</event>
<event>
 9    1  0.7835476E-005  0.1526002E+03  0.7546771E-02  0.1198897E+00
         21   -1    0    0  501  502  0.00000000000E+00  0.00000000000E+00  0.28502096179E+03  0.28502096179E+03  0.00000000000E+00 0.  1.
          3   -1    0    0  502    0 -0.00000000000E+00 -0.00000000000E+00 -0.14360041049E+03  0.14360041049E+03  0.00000000000E+00 0. -1.
        -24    2    1    2    0    0  0.11228865586E+03  0.71074787465E+02 -0.58006511245E+02  0.16565232304E+03  0.80097247985E+02 0.  0.
         23    2    1    2    0    0 -0.85240912970E+02 -0.45500120966E+02  0.13454833270E+03  0.18817002819E+03  0.89266070961E+02 0.  0.
         11    1    3    3    0    0  0.47776071604E+02 -0.82975601790E+01 -0.88398288601E+00  0.48499319052E+02  0.00000000000E+00 0. -1.
        -12    1    3    3    0    0  0.64512584258E+02  0.79372347645E+02 -0.57122528359E+02  0.11715300399E+03  0.00000000000E+00 0.  1.
        -11    1    4    4    0    0 -0.65809837494E+02 -0.64043967455E+02  0.13252936466E+03  0.16123460229E+03  0.00000000000E+00 0.  1.
         11    1    4    4    0    0 -0.19431075476E+02  0.18543846489E+02  0.20189680480E+01  0.26935425906E+02  0.00000000000E+00 0. -1.
          4    1    1    2  501    0 -0.27047742891E+02 -0.25574666500E+02  0.64878729845E+02  0.74799021039E+02  0.00000000000E+00 0. -1.
<scales pt_clust_5="13000.00000" pt_clust_6="13000.00000" pt_clust_7="13000.00000" pt_clust_8="13000.00000" pt_clust_9="37.22424"></scales>
<clustering>
<clus scale="   37.224">  1  9  2 -1</clus>
<clus scale="   80.097">  5  6 -1 -1</clus>
<clus scale="   89.266">  7  8 -1 -1</clus>
<clus scale="  147.424">  2  5  1 -1</clus>
<clus scale="   37.224">  1  5  2 -1</clus>
</clustering>
</event>
<event>
 9    1  0.7835476E-005  0.1214202E+03  0.7546771E-02  0.1249930E+00
          3   -1    0    0  502    0 -0.00000000000E+00  0.00000000000E+00  0.18667107069E+03  0.18667107069E+03  0.00000000000E+00 0. -1.
         21   -1    0    0  501  502  0.00000000000E+00 -0.00000000000E+00 -0.14485064530E+03  0.14485064530E+03  0.00000000000E+00 0. -1.
        -24    2    1    2    0    0 -0.54409410413E+02 -0.24475999654E+02  0.53312158257E+02  0.11418675477E+03  0.81467602436E+02 0.  0.
         23    2    1    2    0    0 -0.48417677051E+02 -0.18124273128E+02 -0.10690112943E+02  0.10602981420E+03  0.91952608756E+02 0.  0.
         11    1    3    3    0    0 -0.90166440273E+01 -0.46151411776E+02  0.41027668640E+02  0.62406107654E+02  0.00000000000E+00 0. -1.
        -12    1    3    3    0    0 -0.45392766385E+02  0.21675412122E+02  0.12284489618E+02  0.51780647118E+02  0.00000000000E+00 0.  1.
        -13    1    4    4    0    0 -0.73245906067E+02 -0.27323963972E+02 -0.13747556381E+02  0.79376048460E+02  0.00000000000E+00 0. -1.
         13    1    4    4    0    0  0.24828229016E+02  0.91996908446E+01  0.30574434381E+01  0.26653765740E+02  0.00000000000E+00 0.  1.
          4    1    1    2  501    0  0.10282708746E+03  0.42600272782E+02 -0.80161992751E+00  0.11130514701E+03  0.00000000000E+00 0. -1.
<scales pt_clust_5="13000.00000" pt_clust_6="13000.00000" pt_clust_7="13000.00000" pt_clust_8="13000.00000" pt_clust_9="79.29436"></scales>
<clustering>
<clus scale="   81.468">  5  6 -1 -1</clus>
<clus scale="   91.953">  7  8 -1 -1</clus>
<clus scale="  100.977">  1  5  2 -1</clus>
<clus scale="   79.294">  2  9  1 -1</clus>
<clus scale="   79.294">  2  5  1 -1</clus>
</clustering>
</event>
<event>
 9    1  0.7835476E-005  0.2426883E+03  0.7546771E-02  0.1119154E+00
          1   -1    0    0  502    0 -0.00000000000E+00  0.00000000000E+00  0.17673476875E+03  0.17673476875E+03  0.00000000000E+00 0. -1.
         21   -1    0    0  501  502  0.00000000000E+00 -0.00000000000E+00 -0.39812261725E+03  0.39812261725E+03  0.00000000000E+00 0.  1.
        -24    2    1    2    0    0 -0.20205555423E+03  0.12211388937E+03 -0.82408095740E+02  0.26118778893E+03  0.75430218537E+02 0.  0.
         23    2    1    2    0    0  0.18487653188E+03 -0.94947531409E+02 -0.15670296052E+03  0.27696480301E+03  0.94653676681E+02 0.  0.
         13    1    3    3    0    0 -0.75974683028E+02  0.32695126132E+02  0.63353998573E+01  0.82953366570E+02  0.00000000000E+00 0. -1.
        -14    1    3    3    0    0 -0.12608087121E+03  0.89418763233E+02 -0.88743495597E+02  0.17823442236E+03  0.00000000000E+00 0.  1.
        -13    1    4    4    0    0  0.14294035961E+03 -0.64889753400E+02 -0.61339473371E+02  0.16853829682E+03  0.00000000000E+00 0. -1.
         13    1    4    4    0    0  0.41936172277E+02 -0.30057778009E+02 -0.95363487148E+02  0.10842650619E+03  0.00000000000E+00 0.  1.
          2    1    1    2  501    0  0.17179022350E+02 -0.27166357957E+02  0.17723207761E+02  0.36704794058E+02  0.00000000000E+00 0. -1.
<scales pt_clust_5="13000.00000" pt_clust_6="13000.00000" pt_clust_7="13000.00000" pt_clust_8="13000.00000" pt_clust_9="32.14235"></scales>
<clustering>
<clus scale="   32.142">  2  9  1 -1</clus>
<clus scale="   75.430">  5  6 -1 -1</clus>
<clus scale="   94.654">  7  8 -1 -1</clus>
<clus scale="  235.856">  1  5  2 -1</clus>
<clus scale="   32.142">  2  5  1 -1</clus>
</clustering>
</event>
<event>
 9    1  0.7835476E-005  0.1281415E+03  0.7546771E-02  0.1234153E+00
          3   -1    0    0  502    0 -0.00000000000E+00  0.00000000000E+00  0.40346687007E+03  0.40346687007E+03  0.00000000000E+00 0. -1.
         21   -1    0    0  501  502  0.00000000000E+00 -0.00000000000E+00 -0.54491671972E+02  0.54491671972E+02  0.00000000000E+00 0. -1.
        -24    2    1    2    0    0 -0.46094330314E+02  0.91070264257E+02  0.19318986942E+03  0.23228793630E+03  0.78847190095E+02 0.  0.
         23    2    1    2    0    0  0.98796626315E+01 -0.73984992514E+02  0.13632795508E+03  0.18115096902E+03  0.93053615678E+02 0.  0.
         11    1    3    3    0    0 -0.39869902344E+02  0.28433797499E+02  0.30121085895E+02  0.57492345305E+02  0.00000000000E+00 0. -1.
        -12    1    3    3    0    0 -0.62244279695E+01  0.62636466758E+02  0.16306878353E+03  0.17479559100E+03  0.00000000000E+00 0.  1.
        -13    1    4    4    0    0  0.26741734035E+02  0.46916868936E+01  0.75646196252E+02  0.80370885727E+02  0.00000000000E+00 0.  1.
         13    1    4    4    0    0 -0.16862071404E+02 -0.78676679408E+02  0.60681758825E+02  0.10078008329E+03  0.00000000000E+00 0. -1.
          4    1    1    2  501    0  0.36214667682E+02 -0.17085271743E+02  0.19457373595E+02  0.44519636713E+02  0.00000000000E+00 0. -1.
<scales pt_clust_5="13000.00000" pt_clust_6="13000.00000" pt_clust_7="13000.00000" pt_clust_8="13000.00000" pt_clust_9="40.04259"></scales>
<clustering>
<clus scale="   40.043">  2  9  1 -1</clus>
<clus scale="   78.847">  5  6 -1 -1</clus>
<clus scale="   93.054">  7  8 -1 -1</clus>
<clus scale="  118.229">  1  5  2 -1</clus>
<clus scale="   40.043">  2  5  1 -1</clus>
</clustering>
</event>
<event>
 9    1  0.7835476E-005  0.1015582E+03  0.7546771E-02  0.1283478E+00
         21   -1    0    0  501  502  0.00000000000E+00  0.00000000000E+00  0.48403447171E+03  0.48403447171E+03  0.00000000000E+00 0.  1.
         -2   -1    0    0    0  501 -0.00000000000E+00 -0.00000000000E+00 -0.38869929160E+02  0.38869929160E+02  0.00000000000E+00 0.  1.
         23    2    1    2    0    0 -0.21621181470E+02  0.33269834397E+02  0.71875160742E+02  0.12347984502E+03  0.92232727522E+02 0.  0.
        -24    2    1    2    0    0  0.48913220136E+02 -0.29352036196E+02  0.34994186188E+03  0.36329546502E+03  0.79184866454E+02 0.  0.
         11    1    4    4    0    0  0.12312315667E+02 -0.34706032544E+02  0.55922743951E+02  0.66958607386E+02  0.00000000000E+00 0. -1.
        -12    1    4    4    0    0  0.36600904469E+02  0.53539963484E+01  0.29401911793E+03  0.29633685763E+03  0.00000000000E+00 0.  1.
        -11    1    3    3    0    0 -0.26542221522E+02 -0.17096233314E+02  0.65191969368E+02  0.72434546916E+02  0.00000000000E+00 0.  1.
         11    1    3    3    0    0  0.49210400514E+01  0.50366067711E+02  0.66831913734E+01  0.51045298107E+02  0.00000000000E+00 0. -1.
         -1    1    1    2    0  502 -0.27292038665E+02 -0.39177982016E+01  0.23347519932E+02  0.36129090830E+02  0.00000000000E+00 0.  1.
<scales pt_clust_5="13000.00000" pt_clust_6="13000.00000" pt_clust_7="13000.00000" pt_clust_8="13000.00000" pt_clust_9="27.57182"></scales>
<clustering>
<clus scale="   27.572">  1  9  2 -1</clus>
<clus scale="   79.185">  5  6 -1 -1</clus>
<clus scale="   89.875">  1  5  2 -1</clus>
<clus scale="   92.233">  7  8 -1 -1</clus>
<clus scale="   27.572">  1  5  2 -1</clus>
</clustering>
</event>
<event>
 9    1  0.9119417E-005  0.5541036E+03  0.7546771E-02  0.1058914E+00
          1   -1    0    0  502    0 -0.00000000000E+00  0.00000000000E+00  0.12294295805E+04  0.12294295805E+04  0.00000000000E+00 0. -1.
         21   -1    0    0  501  502  0.00000000000E+00 -0.00000000000E+00 -0.29448020786E+03  0.29448020786E+03  0.00000000000E+00 0. -1.
        -24    2    1    2    0    0  0.55435803587E+02 -0.16597938577E+02  0.58150970243E+02  0.11379677246E+03  0.78864124908E+02 0.  0.
         23    2    1    2    0    0  0.14938117457E+03  0.52552785653E+03  0.48394280195E+03  0.73535737217E+03  0.89752804616E+02 0.  0.
         13    1    3    3    0    0  0.52020022037E+02 -0.89405621542E+01 -0.22363966439E+01  0.52830084368E+02  0.00000000000E+00 0. -1.
        -14    1    3    3    0    0  0.34157815506E+01 -0.76573764230E+01  0.60387366887E+02  0.60966688091E+02  0.00000000000E+00 0.  1.
        -13    1    4    4    0    0  0.12717906387E+03  0.48092289056E+03  0.46812181551E+03  0.68308079691E+03  0.00000000000E+00 0. -1.
         13    1    4    4    0    0  0.22202110697E+02  0.44604965968E+02  0.15820986440E+02  0.52276575255E+02  0.00000000000E+00 0.  1.
          2    1    1    2  501    0 -0.20481697816E+03 -0.50892991795E+03  0.39285560042E+03  0.67475564371E+03  0.00000000000E+00 0. -1.
<scales pt_clust_5="13000.00000" pt_clust_6="13000.00000" pt_clust_7="13000.00000" pt_clust_8="13000.00000" pt_clust_9="546.78629"></scales>
<clustering>
<clus scale="   78.864">  5  6 -1 -1</clus>
<clus scale="   89.753">  7  8 -1 -1</clus>
<clus scale="   97.817">  1  5  2 -1</clus>
<clus scale="  546.786">  2  9  1 -1</clus>
<clus scale="  546.786">  2  5  1 -1</clus>
</clustering>
</event>
<event>
 9    1  0.7835476E-005  0.1175130E+03  0.7546771E-02  0.1251494E+00
         21   -1    0    0  501  502  0.00000000000E+00  0.00000000000E+00  0.39302228558E+02  0.39302228558E+02  0.00000000000E+00 0. -1.
          1   -1    0    0  502    0 -0.00000000000E+00 -0.00000000000E+00 -0.40069509367E+03  0.40069509367E+03  0.00000000000E+00 0. -1.
        -24    2    1    2    0    0 -0.36683702944E+02  0.56581493171E+02 -0.17100579260E+03  0.19971949449E+03  0.78088001282E+02 0.  0.
         23    2    1    2    0    0  0.34941410711E+02 -0.78227925125E+02 -0.16181203826E+03  0.20438721363E+03  0.90832190982E+02 0.  0.
         11    1    3    3    0    0 -0.33268389208E+02  0.48170486738E+02 -0.46179608267E+02  0.74563648870E+02  0.00000000000E+00 0. -1.
        -12    1    3    3    0    0 -0.34153137359E+01  0.84110064336E+01 -0.12482618433E+03  0.12515584562E+03  0.00000000000E+00 0.  1.
        -13    1    4    4    0    0 -0.22829523961E+02 -0.56423437550E+02 -0.61040654236E+02  0.86201815171E+02  0.00000000000E+00 0. -1.
         13    1    4    4    0    0  0.57770934672E+02 -0.21804487575E+02 -0.10077138402E+03  0.11818539846E+03  0.00000000000E+00 0.  1.
          2    1    1    2  501    0  0.17422922333E+01  0.21646431953E+02 -0.28575034250E+02  0.35890614106E+02  0.00000000000E+00 0. -1.
<scales pt_clust_5="13000.00000" pt_clust_6="13000.00000" pt_clust_7="13000.00000" pt_clust_8="13000.00000" pt_clust_9="21.71644"></scales>
<clustering>
<clus scale="   21.716">  1  9  2 -1</clus>
<clus scale="   78.088">  5  6 -1 -1</clus>
<clus scale="   90.832">  7  8 -1 -1</clus>
<clus scale="  107.966">  2  5  1 -1</clus>
<clus scale="   21.716">  1  5  2 -1</clus>
</clustering>
</event>
<event>
 9    1  0.7835476E-005  0.1102428E+03  0.7546771E-02  0.1265129E+00
          3   -1    0    0  502    0 -0.00000000000E+00  0.00000000000E+00  0.12401120831E+03  0.12401120831E+03  0.00000000000E+00 0. -1.
         21   -1    0    0  501  502  0.00000000000E+00 -0.00000000000E+00 -0.20657475280E+03  0.20657475280E+03  0.00000000000E+00 0.  1.
         23    2    1    2    0    0  0.50972987461E+02  0.80231833186E+02 -0.20059343747E+02  0.13428419304E+03  0.92706389869E+02 0.  0.
        -24    2    1    2    0    0 -0.10952686493E+01 -0.17116718056E+02 -0.79349292943E+02  0.11411258555E+03  0.80194702063E+02 0.  0.
         11    1    4    4    0    0 -0.23339580664E+02  0.18419628795E+02 -0.70808554723E+01  0.30563986401E+02  0.00000000000E+00 0. -1.
        -12    1    4    4    0    0  0.22244312014E+02 -0.35536346851E+02 -0.72268437471E+02  0.83548599144E+02  0.00000000000E+00 0.  1.
        -11    1    3    3    0    0  0.64297354367E+02  0.22584006820E+02 -0.29695253488E+02  0.74337038025E+02  0.00000000000E+00 0.  1.
         11    1    3    3    0    0 -0.13324366906E+02  0.57647826366E+02  0.96359097410E+01  0.59947155017E+02  0.00000000000E+00 0. -1.
          4    1    1    2  501    0 -0.49877718811E+02 -0.63115115130E+02  0.16845092196E+02  0.82189182517E+02  0.00000000000E+00 0. -1.
<scales pt_clust_5="13000.00000" pt_clust_6="13000.00000" pt_clust_7="13000.00000" pt_clust_8="13000.00000" pt_clust_9="80.44446"></scales>
<clustering>
<clus scale="   80.195">  5  6 -1 -1</clus>
<clus scale="   80.444">  2  9  1 -1</clus>
<clus scale="   92.706">  7  8 -1 -1</clus>
<clus scale="   99.951">  2  5  1 -1</clus>
<clus scale="   80.444">  2  5  1 -1</clus>
</clustering>
</event>
<event>
 9    1  0.7835476E-005  0.9606432E+02  0.7546771E-02  0.1295812E+00
          3   -1    0    0  502    0 -0.00000000000E+00  0.00000000000E+00  0.23411259426E+03  0.23411259426E+03  0.00000000000E+00 0. -1.
         21   -1    0    0  501  502  0.00000000000E+00 -0.00000000000E+00 -0.83864684237E+02  0.83864684237E+02  0.00000000000E+00 0. -1.
         23    2    1    2    0    0 -0.30190566386E+02 -0.88685271885E+00  0.14636564450E+03  0.17516138652E+03  0.91358374716E+02 0.  0.
        -24    2    1    2    0    0  0.24357945564E+02  0.27801226159E+02 -0.36084334822E+02  0.94280007250E+02  0.78869657407E+02 0.  0.
         11    1    4    4    0    0  0.51020901792E+02  0.49660324706E+01 -0.27363035483E+02  0.58107913480E+02  0.00000000000E+00 0. -1.
        -12    1    4    4    0    0 -0.26662956228E+02  0.22835193688E+02 -0.87212993387E+01  0.36172093770E+02  0.00000000000E+00 0.  1.
        -11    1    3    3    0    0  0.37748194419E+00 -0.39215870089E+02  0.31605754178E+02  0.50368151212E+02  0.00000000000E+00 0.  1.
         11    1    3    3    0    0 -0.30568048330E+02  0.38329017370E+02  0.11475989032E+03  0.12479323531E+03  0.00000000000E+00 0. -1.
          4    1    1    2  501    0  0.58326208222E+01 -0.26914373440E+02  0.39966600347E+02  0.48535884731E+02  0.00000000000E+00 0. -1.
<scales pt_clust_5="13000.00000" pt_clust_6="13000.00000" pt_clust_7="13000.00000" pt_clust_8="13000.00000" pt_clust_9="27.53913"></scales>
<clustering>
<clus scale="   27.539">  2  9  1 -1</clus>
<clus scale="   78.870">  5  6 -1 -1</clus>
<clus scale="   84.276">  2  5  1 -1</clus>
<clus scale="   91.358">  7  8 -1 -1</clus>
<clus scale="   27.539">  2  5  1 -1</clus>
</clustering>
</event>
<event>
 9    1  0.7835476E-005  0.9817445E+02  0.7546771E-02  0.1288893E+00
         21   -1    0    0  501  502  0.00000000000E+00  0.00000000000E+00  0.19121496585E+03  0.19121496585E+03  0.00000000000E+00 0. -1.
          1   -1    0    0  502    0 -0.00000000000E+00 -0.00000000000E+00 -0.30198183236E+03  0.30198183236E+03  0.00000000000E+00 0. -1.
         23    2    1    2    0    0 -0.31406238326E+02 -0.31975346115E+02 -0.24285522423E+03  0.26309139210E+03  0.90717396871E+02 0.  0.
        -24    2    1    2    0    0 -0.76904704629E+01  0.19739685849E+02 -0.74687224749E+01  0.84659737027E+02  0.81625306889E+02 0.  0.
         13    1    4    4    0    0 -0.26266469210E+02  0.40240194120E+02  0.13536359354E+02  0.49924279185E+02  0.00000000000E+00 0. -1.
        -14    1    4    4    0    0  0.18575998747E+02 -0.20500508272E+02 -0.21005081829E+02  0.34735457842E+02  0.00000000000E+00 0.  1.
        -13    1    3    3    0    0 -0.55707523611E+02 -0.20304110055E+02 -0.89327131071E+02  0.10721437132E+03  0.00000000000E+00 0. -1.
         13    1    3    3    0    0  0.24301285285E+02 -0.11671236060E+02 -0.15352809316E+03  0.15587702078E+03  0.00000000000E+00 0.  1.
          2    1    1    2  501    0  0.39096708789E+02  0.12235660266E+02  0.13955708020E+03  0.14544566908E+03  0.00000000000E+00 0. -1.
<scales pt_clust_5="13000.00000" pt_clust_6="13000.00000" pt_clust_7="13000.00000" pt_clust_8="13000.00000" pt_clust_9="40.96662"></scales>
<clustering>
<clus scale="   40.967">  1  9  2 -1</clus>
<clus scale="   81.625">  5  6 -1 -1</clus>
<clus scale="   89.840">  1  5  2 -1</clus>
<clus scale="   90.717">  7  8 -1 -1</clus>
<clus scale="   40.967">  1  5  2 -1</clus>
</clustering>
</event>
<event>
 9    1  0.7835476E-005  0.1949068E+03  0.7546771E-02  0.1155247E+00
         21   -1    0    0  501  502  0.00000000000E+00  0.00000000000E+00  0.35285171300E+02  0.35285171300E+02  0.00000000000E+00 0. -1.
          1   -1    0    0  502    0 -0.00000000000E+00 -0.00000000000E+00 -0.15805382343E+04  0.15805382343E+04  0.00000000000E+00 0. -1.
        -24    2    1    2    0    0  0.14212865282E+03  0.99027300100E+02 -0.96885226307E+03  0.98736713018E+03  0.78817396409E+02 0.  0.
         23    2    1    2    0    0 -0.16515659199E+03 -0.59219743861E+02 -0.39869719598E+03  0.44489838709E+03  0.90506589835E+02 0.  0.
         11    1    3    3    0    0  0.13278014462E+03  0.55371169294E+02 -0.67670293777E+03  0.69182613363E+03  0.00000000000E+00 0. -1.
        -12    1    3    3    0    0  0.93485082024E+01  0.43656130806E+02 -0.29214932530E+03  0.29554099654E+03  0.00000000000E+00 0.  1.
        -13    1    4    4    0    0 -0.91767073859E+02 -0.76793446606E+02 -0.27643404424E+03  0.30122119796E+03  0.00000000000E+00 0. -1.
         13    1    4    4    0    0 -0.73389518135E+02  0.17573702745E+02 -0.12226315175E+03  0.14367718913E+03  0.00000000000E+00 0.  1.
          2    1    1    2  501    0  0.23027939170E+02 -0.39807556238E+02 -0.17770360398E+03  0.18355788837E+03  0.00000000000E+00 0. -1.
<scales pt_clust_5="13000.00000" pt_clust_6="13000.00000" pt_clust_7="13000.00000" pt_clust_8="13000.00000" pt_clust_9="45.98836"></scales>
<clustering>
<clus scale="   45.988">  1  9  2 -1</clus>
<clus scale="   78.817">  5  6 -1 -1</clus>
<clus scale="   90.507">  7  8 -1 -1</clus>
<clus scale="  189.761">  2  5  1 -1</clus>
<clus scale="   45.988">  1  5  2 -1</clus>
</clustering>
</event>
<event>
 9    1  0.7835476E-005  0.3845851E+03  0.7546771E-02  0.1085110E+00
          1   -1    0    0  502    0 -0.00000000000E+00  0.00000000000E+00  0.23565906196E+03  0.23565906196E+03  0.00000000000E+00 0. -1.
         21   -1    0    0  501  502  0.00000000000E+00 -0.00000000000E+00 -0.23655607769E+04  0.23655607769E+04  0.00000000000E+00 0. -1.
        -24    2    1    2    0    0  0.10738011393E+03 -0.48159996881E+02  0.13340032543E+03  0.19548621270E+03  0.81051455043E+02 0.  0.
         23    2    1    2    0    0  0.27880707930E+03  0.21752290401E+03 -0.13714162257E+04  0.14191817274E+04  0.90800385753E+02 0.  0.
         13    1    3    3    0    0  0.11030266358E+03 -0.62124157577E+02  0.10822525965E+03  0.16654967840E+03  0.00000000000E+00 0. -1.
        -14    1    3    3    0    0 -0.29225496556E+01  0.13964160696E+02  0.25175065779E+02  0.28936534302E+02  0.00000000000E+00 0.  1.
        -13    1    4    4    0    0  0.58245818875E+02  0.92622153242E+02 -0.34515090288E+03  0.36207814688E+03  0.00000000000E+00 0. -1.
         13    1    4    4    0    0  0.22056126043E+03  0.12490075077E+03 -0.10262653228E+04  0.10571035805E+04  0.00000000000E+00 0.  1.
          2    1    1    2  501    0 -0.38618719323E+03 -0.16936290713E+03 -0.89188581462E+03  0.98655189871E+03  0.00000000000E+00 0. -1.
<scales pt_clust_5="13000.00000" pt_clust_6="13000.00000" pt_clust_7="13000.00000" pt_clust_8="13000.00000" pt_clust_9="373.71260"></scales>
<clustering>
<clus scale="   81.051">  5  6 -1 -1</clus>
<clus scale="   90.800">  7  8 -1 -1</clus>
<clus scale="  142.896">  1  5  2 -1</clus>
<clus scale="  373.713">  2  9  1 -1</clus>
<clus scale="  373.713">  2  5  1 -1</clus>
</clustering>
</event>
<event>
 9    1  0.7835476E-005  0.1235775E+03  0.7546771E-02  0.1242851E+00
          1   -1    0    0  502    0 -0.00000000000E+00  0.00000000000E+00  0.22131091678E+03  0.22131091678E+03  0.00000000000E+00 0. -1.
         21   -1    0    0  501  502  0.00000000000E+00 -0.00000000000E+00 -0.15910922441E+03  0.15910922441E+03  0.00000000000E+00 0. -1.
        -24    2    1    2    0    0  0.33637199454E+02  0.71604432299E+02  0.15465713091E+03  0.19110793842E+03  0.79654002241E+02 0.  0.
         23    2    1    2    0    0 -0.48387657349E+02 -0.48627371306E+02 -0.32183108250E+02  0.12314366691E+03  0.97070199441E+02 0.  0.
         11    1    3    3    0    0  0.54706015553E+02  0.50759237045E+02  0.73654413818E+02  0.10485333070E+03  0.00000000000E+00 0. -1.
        -12    1    3    3    0    0 -0.21068816099E+02  0.20845195254E+02  0.81002717095E+02  0.86254607725E+02  0.00000000000E+00 0.  1.
        -13    1    4    4    0    0  0.39667428663E+01 -0.42069310458E+02 -0.51802092369E+02  0.66850719556E+02  0.00000000000E+00 0.  1.
         13    1    4    4    0    0 -0.52354400215E+02 -0.65580608488E+01  0.19618984118E+02  0.56292947354E+02  0.00000000000E+00 0. -1.
          2    1    1    2  501    0  0.14750457894E+02 -0.22977060992E+02 -0.60272330286E+02  0.66168535862E+02  0.00000000000E+00 0. -1.
<scales pt_clust_5="13000.00000" pt_clust_6="13000.00000" pt_clust_7="13000.00000" pt_clust_8="13000.00000" pt_clust_9="27.30424"></scales>
<clustering>
<clus scale="   27.304">  2  9  1 -1</clus>
<clus scale="   79.654">  5  6 -1 -1</clus>
<clus scale="   97.070">  7  8 -1 -1</clus>
<clus scale="  110.424">  1  5  2 -1</clus>
<clus scale="   27.304">  2  5  1 -1</clus>
</clustering>
</event>
<event>
 9    1  0.7835476E-005  0.9996472E+02  0.7546771E-02  0.1284641E+00
          1   -1    0    0  502    0 -0.00000000000E+00  0.00000000000E+00  0.70244185357E+03  0.70244185357E+03  0.00000000000E+00 0. -1.
         21   -1    0    0  501  502  0.00000000000E+00 -0.00000000000E+00 -0.67884299092E+02  0.67884299092E+02  0.00000000000E+00 0. -1.
        -24    2    1    2    0    0  0.30875313160E+02 -0.33459627343E+02  0.50713677398E+03  0.51554353131E+03  0.80774956072E+02 0.  0.
         23    2    1    2    0    0  0.28663665966E+02  0.67772272159E+02  0.14324960813E+03  0.18426454272E+03  0.89544876197E+02 0.  0.
         11    1    3    3    0    0  0.53571629161E+02 -0.16577199118E+01  0.28452170750E+03  0.28952593929E+03  0.00000000000E+00 0. -1.
        -12    1    3    3    0    0 -0.22696316001E+02 -0.31801907431E+02  0.22261506648E+03  0.22601759202E+03  0.00000000000E+00 0.  1.
        -13    1    4    4    0    0 -0.29886868324E+02  0.42476679364E+02  0.69453673883E+02  0.86725463411E+02  0.00000000000E+00 0.  1.
         13    1    4    4    0    0  0.58550534290E+02  0.25295592795E+02  0.73795934252E+02  0.97539079310E+02  0.00000000000E+00 0. -1.
          2    1    1    2  501    0 -0.59538979126E+02 -0.34312644816E+02 -0.15828827635E+02  0.70518078632E+02  0.00000000000E+00 0. -1.
<scales pt_clust_5="13000.00000" pt_clust_6="13000.00000" pt_clust_7="13000.00000" pt_clust_8="13000.00000" pt_clust_9="68.71861"></scales>
<clustering>
<clus scale="   68.719">  2  9  1 -1</clus>
<clus scale="   80.775">  5  6 -1 -1</clus>
<clus scale="   89.545">  7  8 -1 -1</clus>
<clus scale="   92.191">  1  5  2 -1</clus>
<clus scale="   68.719">  2  5  1 -1</clus>
</clustering>
</event>
<event>
 9    1  0.7835476E-005  0.1120254E+03  0.7546771E-02  0.1276533E+00
         21   -1    0    0  501  502  0.00000000000E+00  0.00000000000E+00  0.81732183616E+02  0.81732183616E+02  0.00000000000E+00 0. -1.
         -2   -1    0    0    0  501 -0.00000000000E+00 -0.00000000000E+00 -0.26050467804E+03  0.26050467804E+03  0.00000000000E+00 0.  1.
         23    2    1    2    0    0  0.62751407682E+01 -0.58338429386E+01 -0.18776992664E+03  0.21880132534E+03  0.11199581913E+03 0.  0.
        -24    2    1    2    0    0  0.20631569614E+02 -0.21302366217E+02 -0.65102815804E+01  0.82194366382E+02  0.76381133977E+02 0.  0.
         13    1    4    4    0    0  0.32285509216E+02 -0.11090343830E+02  0.28138000494E+02  0.44239087959E+02  0.00000000000E+00 0. -1.
        -14    1    4    4    0    0 -0.11653939602E+02 -0.10212022388E+02 -0.34648282075E+02  0.37955278424E+02  0.00000000000E+00 0.  1.
        -13    1    3    3    0    0 -0.38037684928E+02  0.12574986631E+01 -0.16332130056E+03  0.16769703037E+03  0.00000000000E+00 0.  1.
         13    1    3    3    0    0  0.44312825696E+02 -0.70913416017E+01 -0.24448626078E+02  0.51104294966E+02  0.00000000000E+00 0. -1.
         -1    1    1    2    0  502 -0.26906710383E+02  0.27136209156E+02  0.15507713793E+02  0.41241169940E+02  0.00000000000E+00 0.  1.
<scales pt_clust_5="13000.00000" pt_clust_6="13000.00000" pt_clust_7="13000.00000" pt_clust_8="13000.00000" pt_clust_9="38.21446"></scales>
<clustering>
<clus scale="   38.214">  1  9  2 -1</clus>
<clus scale="   76.381">  5  6 -1 -1</clus>
<clus scale="   76.425">  1  5  2 -1</clus>
<clus scale="  111.996">  7  8 -1 -1</clus>
<clus scale="   38.214">  1  5  2 -1</clus>
</clustering>
</event>
<event>
 9    1  0.7835476E-005  0.1337591E+03  0.7546771E-02  0.1233822E+00
         -2   -1    0    0    0  501 -0.00000000000E+00  0.00000000000E+00  0.64396156651E+03  0.64396156651E+03  0.00000000000E+00 0.  1.
         21   -1    0    0  501  502  0.00000000000E+00 -0.00000000000E+00 -0.54429988518E+02  0.54429988518E+02  0.00000000000E+00 0. -1.
         23    2    1    2    0    0  0.44598236897E+02  0.18636004725E+01  0.10986264905E+03  0.15173406893E+03  0.94662295969E+02 0.  0.
        -24    2    1    2    0    0 -0.36885203482E+02  0.10299724325E+03  0.16159151646E+03  0.21165222082E+03  0.81950558454E+02 0.  0.
         11    1    4    4    0    0 -0.46956498792E+02  0.11153075993E+03  0.15570018783E+03  0.19719678415E+03  0.00000000000E+00 0. -1.
        -12    1    4    4    0    0  0.10071295310E+02 -0.85335166791E+01  0.58913286333E+01  0.14455436666E+02  0.00000000000E+00 0.  1.
        -11    1    3    3    0    0  0.25636352342E+01  0.22165418847E+02  0.10198018830E+03  0.10439270484E+03  0.00000000000E+00 0.  1.
         11    1    3    3    0    0  0.42034601663E+02 -0.20301818375E+02  0.78824607429E+01  0.47341364088E+02  0.00000000000E+00 0. -1.
         -1    1    1    2    0  502 -0.77130334156E+01 -0.10486084373E+03  0.31807741248E+03  0.33500526528E+03  0.00000000000E+00 0.  1.
<scales pt_clust_5="13000.00000" pt_clust_6="13000.00000" pt_clust_7="13000.00000" pt_clust_8="13000.00000" pt_clust_9="105.71473"></scales>
<clustering>
<clus scale="   81.951">  5  6 -1 -1</clus>
<clus scale="   94.662">  7  8 -1 -1</clus>
<clus scale="  104.659">  1  7  2 -1</clus>
<clus scale="  105.715">  2  9  1 -1</clus>
<clus scale="  105.715">  2  5  1 -1</clus>
</clustering>
</event>
<event>
 9    1  0.7835476E-005  0.1884437E+03  0.7546771E-02  0.1162946E+00
         21   -1    0    0  501  502  0.00000000000E+00  0.00000000000E+00  0.10904764833E+04  0.10904764833E+04  0.00000000000E+00 0.  1.
         -2   -1    0    0    0  501 -0.00000000000E+00 -0.00000000000E+00 -0.10395191804E+03  0.10395191804E+03  0.00000000000E+00 0.  1.
        -24    2    1    2    0    0 -0.15650582499E+03 -0.73686509080E+01  0.44838092718E+03  0.48148959189E+03  0.78983548702E+02 0.  0.
         23    2    1    2    0    0  0.13342338775E+02  0.16525301047E+03  0.43875647416E+03  0.47777702871E+03  0.90978404376E+02 0.  0.
         11    1    3    3    0    0 -0.58552410681E+02 -0.65194689267E+01  0.74447872614E+02  0.94938790852E+02  0.00000000000E+00 0. -1.
        -12    1    3    3    0    0 -0.97953414313E+02 -0.84918198122E+00  0.37393305457E+03  0.38655080104E+03  0.00000000000E+00 0.  1.
        -13    1    4    4    0    0 -0.25078364176E+02  0.76307075136E+01  0.48264347209E+02  0.54923576526E+02  0.00000000000E+00 0. -1.
         13    1    4    4    0    0  0.38420702951E+02  0.15762230296E+03  0.39049212696E+03  0.42285345218E+03  0.00000000000E+00 0.  1.
         -1    1    1    2    0  502  0.14316348622E+03 -0.15788435957E+03  0.99387163954E+02  0.23516178078E+03  0.00000000000E+00 0.  1.
<scales pt_clust_5="13000.00000" pt_clust_6="13000.00000" pt_clust_7="13000.00000" pt_clust_8="13000.00000" pt_clust_9="165.02723"></scales>
<clustering>
<clus scale="   78.984">  5  6 -1 -1</clus>
<clus scale="   90.978">  7  8 -1 -1</clus>
<clus scale="  175.462">  2  5  1 -1</clus>
<clus scale="  165.027">  1  9  2 -1</clus>
<clus scale="  165.027">  1  5  2 -1</clus>
</clustering>
</event>
<event>
 9    1  0.7835476E-005  0.1129499E+03  0.7546771E-02  0.1257917E+00
         21   -1    0    0  501  502  0.00000000000E+00  0.00000000000E+00  0.89335297504E+02  0.89335297504E+02  0.00000000000E+00 0.  1.
          1   -1    0    0  502    0 -0.00000000000E+00 -0.00000000000E+00 -0.36722916338E+03  0.36722916338E+03  0.00000000000E+00 0. -1.
         23    2    1    2    0    0 -0.64479024296E+02 -0.32479186177E+02 -0.29277674401E+03  0.31396606773E+03  0.87430130611E+02 0.  0.
        -24    2    1    2    0    0  0.47448281173E+02  0.53119544631E+02  0.31118221389E+02  0.11129892065E+03  0.79662291132E+02 0.  0.
         13    1    4    4    0    0  0.58651606382E+02  0.64588998936E+02  0.36232519929E+02  0.94469811131E+02  0.00000000000E+00 0. -1.
        -14    1    4    4    0    0 -0.11203325209E+02 -0.11469454305E+02 -0.51142985398E+01  0.16829109523E+02  0.00000000000E+00 0.  1.
        -11    1    3    3    0    0 -0.20084085541E+02  0.21867288756E+02 -0.16979796400E+03  0.17237429445E+03  0.00000000000E+00 0.  1.
         11    1    3    3    0    0 -0.44394938755E+02 -0.54346474933E+02 -0.12297878001E+03  0.14159177327E+03  0.00000000000E+00 0. -1.
          2    1    1    2  501    0  0.17030743123E+02 -0.20640358454E+02 -0.16235343250E+02  0.31299472502E+02  0.00000000000E+00 0. -1.
<scales pt_clust_5="13000.00000" pt_clust_6="13000.00000" pt_clust_7="13000.00000" pt_clust_8="13000.00000" pt_clust_9="26.75950"></scales>
<clustering>
<clus scale="   26.759">  1  9  2 -1</clus>
<clus scale="   79.662">  5  6 -1 -1</clus>
<clus scale="   87.430">  7  8 -1 -1</clus>
<clus scale="  107.050">  1  5  2 -1</clus>
<clus scale="   26.759">  1  5  2 -1</clus>
</clustering>
</event>
<event>
 9    1  0.7835476E-005  0.2349430E+03  0.7546771E-02  0.1150497E+00
          1   -1    0    0  502    0 -0.00000000000E+00  0.00000000000E+00  0.11862480491E+04  0.11862480491E+04  0.00000000000E+00 0. -1.
         21   -1    0    0  501  502  0.00000000000E+00 -0.00000000000E+00 -0.10259044074E+03  0.10259044074E+03  0.00000000000E+00 0. -1.
        -24    2    1    2    0    0 -0.51233446060E+02 -0.74254195197E+02  0.47998520115E+03  0.49504575693E+03  0.80907086391E+02 0.  0.
         23    2    1    2    0    0  0.25174085301E+03  0.17942311290E+02  0.48484225303E+03  0.55401188705E+03  0.90342553951E+02 0.  0.
         11    1    3    3    0    0 -0.38250144498E+02 -0.86904156481E+02  0.31313852251E+03  0.32721726765E+03  0.00000000000E+00 0. -1.
        -12    1    3    3    0    0 -0.12983301562E+02  0.12649961284E+02  0.16684667865E+03  0.16782848929E+03  0.00000000000E+00 0.  1.
        -11    1    4    4    0    0  0.80185978332E+02 -0.33554990873E+02  0.12779674517E+03  0.15455658061E+03  0.00000000000E+00 0.  1.
         11    1    4    4    0    0  0.17155487468E+03  0.51497302163E+02  0.35704550786E+03  0.39945530644E+03  0.00000000000E+00 0. -1.
          2    1    1    2  501    0 -0.20050740695E+03  0.56311883907E+02  0.11883015421E+03  0.23978084590E+03  0.00000000000E+00 0. -1.
<scales pt_clust_5="13000.00000" pt_clust_6="13000.00000" pt_clust_7="13000.00000" pt_clust_8="13000.00000" pt_clust_9="216.87882"></scales>
<clustering>
<clus scale="   80.907">  5  6 -1 -1</clus>
<clus scale="   90.343">  7  8 -1 -1</clus>
<clus scale="  121.180">  1  5  2 -1</clus>
<clus scale="  216.879">  2  9  1 -1</clus>
<clus scale="  216.879">  2  5  1 -1</clus>
</clustering>
</event>
<event>
 9    1  0.7835476E-005  0.1385940E+03  0.7546771E-02  0.1218615E+00
         21   -1    0    0  501  502  0.00000000000E+00  0.00000000000E+00  0.15553263068E+03  0.15553263068E+03  0.00000000000E+00 0.  1.
          1   -1    0    0  502    0 -0.00000000000E+00 -0.00000000000E+00 -0.16322067809E+03  0.16322067809E+03  0.00000000000E+00 0. -1.
         23    2    1    2    0    0  0.19341016720E+02 -0.10058305171E+03 -0.55546743673E+02  0.14729678820E+03  0.90110364902E+02 0.  0.
        -24    2    1    2    0    0  0.59554020885E+01  0.11321146553E+03  0.45285263367E+02  0.14306623706E+03  0.74598192795E+02 0.  0.
         13    1    4    4    0    0 -0.16221811901E+02  0.63820799673E+02  0.57662483050E+02  0.87528301730E+02  0.00000000000E+00 0. -1.
        -14    1    4    4    0    0  0.22177213989E+02  0.49390665857E+02 -0.12377219684E+02  0.55537935334E+02  0.00000000000E+00 0.  1.
        -11    1    3    3    0    0  0.48159237215E+02 -0.23852791762E+02 -0.29428951304E+02  0.61272595659E+02  0.00000000000E+00 0. -1.
         11    1    3    3    0    0 -0.28818220495E+02 -0.76730259953E+02 -0.26117792370E+02  0.86024192546E+02  0.00000000000E+00 0.  1.
          2    1    1    2  501    0 -0.25296418809E+02 -0.12628413815E+02  0.25734328945E+01  0.28390283494E+02  0.00000000000E+00 0. -1.
<scales pt_clust_5="13000.00000" pt_clust_6="13000.00000" pt_clust_7="13000.00000" pt_clust_8="13000.00000" pt_clust_9="28.27341"></scales>
<clustering>
<clus scale="   28.273">  1  9  2 -1</clus>
<clus scale="   74.598">  5  6 -1 -1</clus>
<clus scale="   90.110">  7  8 -1 -1</clus>
<clus scale="  129.048">  1  5  2 -1</clus>
<clus scale="   28.273">  1  5  2 -1</clus>
</clustering>
</event>
<event>
 9    1  0.7835476E-005  0.1444480E+03  0.7546771E-02  0.1218245E+00
         21   -1    0    0  501  502  0.00000000000E+00  0.00000000000E+00  0.10338252435E+03  0.10338252435E+03  0.00000000000E+00 0.  1.
          1   -1    0    0  502    0 -0.00000000000E+00 -0.00000000000E+00 -0.42670056650E+03  0.42670056650E+03  0.00000000000E+00 0. -1.
         23    2    1    2    0    0  0.30831922333E+02  0.62356600455E+02 -0.19415461328E+03  0.22559409445E+03  0.91420613306E+02 0.  0.
        -24    2    1    2    0    0 -0.15016867709E+02  0.86994114899E+02 -0.51576493094E+02  0.13544614759E+03  0.88837165170E+02 0.  0.
         11    1    4    4    0    0 -0.31603982010E+02  0.42233342999E+02  0.13774304080E+02  0.54517872232E+02  0.00000000000E+00 0. -1.
        -12    1    4    4    0    0  0.16587114302E+02  0.44760771900E+02 -0.65350797174E+02  0.80928275363E+02  0.00000000000E+00 0.  1.
        -11    1    3    3    0    0  0.29479738405E+02  0.21244011992E+02 -0.11128916704E+02  0.38002839486E+02  0.00000000000E+00 0.  1.
         11    1    3    3    0    0  0.13521839276E+01  0.41112588463E+02 -0.18302569658E+03  0.18759125497E+03  0.00000000000E+00 0. -1.
          2    1    1    2  501    0 -0.15815054624E+02 -0.14935071535E+03 -0.77586935765E+02  0.16904284880E+03  0.00000000000E+00 0. -1.
<scales pt_clust_5="13000.00000" pt_clust_6="13000.00000" pt_clust_7="13000.00000" pt_clust_8="13000.00000" pt_clust_9="113.89988"></scales>
<clustering>
<clus scale="   88.837">  5  6 -1 -1</clus>
<clus scale="   91.421">  7  8 -1 -1</clus>
<clus scale="  114.877">  2  7  1 -1</clus>
<clus scale="  113.900">  1  9  2 -1</clus>
<clus scale="  113.900">  1  5  2 -1</clus>
</clustering>
</event>
<event>
 9    1  0.7835476E-005  0.1072783E+03  0.7546771E-02  0.1278683E+00
         21   -1    0    0  501  502  0.00000000000E+00  0.00000000000E+00  0.74024429098E+02  0.74024429098E+02  0.00000000000E+00 0.  1.
         -4   -1    0    0    0  501 -0.00000000000E+00 -0.00000000000E+00 -0.25990899760E+03  0.25990899760E+03  0.00000000000E+00 0.  1.
         23    2    1    2    0    0  0.53833036293E+02  0.20526396603E+02 -0.20664705179E+03  0.23356054919E+03  0.92348239672E+02 0.  0.
        -24    2    1    2    0    0 -0.45610607583E+02 -0.20494709757E+01  0.16791263122E+02  0.79762790068E+02  0.63210982486E+02 0.  0.
         13    1    4    4    0    0 -0.14098967361E+02 -0.31327914826E+02  0.25348227184E+01  0.34447706081E+02  0.00000000000E+00 0. -1.
        -14    1    4    4    0    0 -0.31511640221E+02  0.29278443851E+02  0.14256440404E+02  0.45315083987E+02  0.00000000000E+00 0.  1.
        -13    1    3    3    0    0 -0.14626857754E+02 -0.22913042440E+02 -0.62934149484E+02  0.68554063723E+02  0.00000000000E+00 0. -1.
         13    1    3    3    0    0  0.68459894047E+02  0.43439439043E+02 -0.14371290231E+03  0.16500648547E+03  0.00000000000E+00 0.  1.
         -3    1    1    2    0  502 -0.82224287106E+01 -0.18476925627E+02  0.39712201694E+01  0.20610087437E+02  0.00000000000E+00 0.  1.
<scales pt_clust_5="13000.00000" pt_clust_6="13000.00000" pt_clust_7="13000.00000" pt_clust_8="13000.00000" pt_clust_9="20.22387"></scales>
<clustering>
<clus scale="   20.224">  1  9  2 -1</clus>
<clus scale="   63.211">  5  6 -1 -1</clus>
<clus scale="   83.523">  1  5  2 -1</clus>
<clus scale="   92.348">  7  8 -1 -1</clus>
<clus scale="   20.224">  1  5  2 -1</clus>
</clustering>
</event>
<event>
 9    1  0.7835476E-005  0.2706691E+03  0.7546771E-02  0.1113747E+00
         21   -1    0    0  501  502  0.00000000000E+00  0.00000000000E+00  0.52237901443E+03  0.52237901443E+03  0.00000000000E+00 0. -1.
          3   -1    0    0  502    0 -0.00000000000E+00 -0.00000000000E+00 -0.82763014455E+03  0.82763014455E+03  0.00000000000E+00 0. -1.
        -24    2    1    2    0    0 -0.80498460235E+02  0.15783710947E+03 -0.20055409659E+03  0.27958734805E+03  0.80960387237E+02 0.  0.
         23    2    1    2    0    0  0.32163853718E+03 -0.21278895913E+03 -0.47901779476E+03  0.62177465025E+03  0.91734280814E+02 0.  0.
         11    1    3    3    0    0 -0.81532419885E+02  0.83081241072E+02 -0.14756304870E+03  0.18794914592E+03  0.00000000000E+00 0. -1.
        -12    1    3    3    0    0  0.10339596502E+01  0.74755868398E+02 -0.52991047900E+02  0.91638202132E+02  0.00000000000E+00 0.  1.
        -13    1    4    4    0    0  0.10720162393E+03 -0.79848558018E+02 -0.10208279259E+03  0.16819297528E+03  0.00000000000E+00 0.  1.
         13    1    4    4    0    0  0.21443691325E+03 -0.13294040111E+03 -0.37693500217E+03  0.45358167497E+03  0.00000000000E+00 0. -1.
          4    1    1    2  501    0 -0.24114007694E+03  0.54951849659E+02  0.37432076124E+03  0.44864716067E+03  0.00000000000E+00 0. -1.
<scales pt_clust_5="13000.00000" pt_clust_6="13000.00000" pt_clust_7="13000.00000" pt_clust_8="13000.00000" pt_clust_9="254.64990"></scales>
<clustering>
<clus scale="   80.960">  5  6 -1 -1</clus>
<clus scale="   91.734">  7  8 -1 -1</clus>
<clus scale="  194.800">  2  5  1 -1</clus>
<clus scale="  254.650">  1  9  2 -1</clus>
<clus scale="  254.650">  1  5  2 -1</clus>
</clustering>
</event>
<event>
 9    1  0.7835476E-005  0.9816824E+02  0.7546771E-02  0.1290168E+00
         21   -1    0    0  501  502  0.00000000000E+00  0.00000000000E+00  0.22587721273E+03  0.22587721273E+03  0.00000000000E+00 0. -1.
          1   -1    0    0  502    0 -0.00000000000E+00 -0.00000000000E+00 -0.93874881445E+02  0.93874881445E+02  0.00000000000E+00 0. -1.
         23    2    1    2    0    0  0.45782075027E+02  0.19302387483E+02 -0.11564491349E+02  0.10472685833E+03  0.91462543364E+02 0.  0.
        -24    2    1    2    0    0 -0.19587993438E+02  0.34630807122E+02  0.46290986083E+02  0.10075578338E+03  0.80161650451E+02 0.  0.
         11    1    4    4    0    0 -0.42006684886E+02  0.33551779548E+02  0.52996410545E+01  0.54021937037E+02  0.00000000000E+00 0. -1.
        -12    1    4    4    0    0  0.22418691448E+02  0.10790275742E+01  0.40991345028E+02  0.46733846342E+02  0.00000000000E+00 0.  1.
        -11    1    3    3    0    0  0.20386534702E+02 -0.19979025882E+02 -0.40631336679E+02  0.49655591756E+02  0.00000000000E+00 0.  1.
         11    1    3    3    0    0  0.25395540325E+02  0.39281413365E+02  0.29066845330E+02  0.55071266571E+02  0.00000000000E+00 0. -1.
          2    1    1    2  501    0 -0.26194081589E+02 -0.53933194605E+02  0.97275836548E+02  0.11426945247E+03  0.00000000000E+00 0. -1.
<scales pt_clust_5="13000.00000" pt_clust_6="13000.00000" pt_clust_7="13000.00000" pt_clust_8="13000.00000" pt_clust_9="59.95765"></scales>
<clustering>
<clus scale="   59.958">  1  9  2 -1</clus>
<clus scale="   80.162">  5  6 -1 -1</clus>
<clus scale="   87.735">  1  5  2 -1</clus>
<clus scale="   91.463">  7  8 -1 -1</clus>
<clus scale="   59.958">  1  5  2 -1</clus>
</clustering>
</event>
<event>
 9    1  0.7835476E-005  0.1098025E+03  0.7546771E-02  0.1265863E+00
         21   -1    0    0  501  502  0.00000000000E+00  0.00000000000E+00  0.62191852050E+02  0.62191852050E+02  0.00000000000E+00 0.  1.
          3   -1    0    0  502    0 -0.00000000000E+00 -0.00000000000E+00 -0.62288057449E+03  0.62288057449E+03  0.00000000000E+00 0. -1.
         23    2    1    2    0    0 -0.29099643389E+02 -0.49946037906E+02 -0.50944291216E+03  0.52097513005E+03  0.92420827932E+02 0.  0.
        -24    2    1    2    0    0 -0.10925486818E+01  0.77660130933E+02 -0.51904628689E+02  0.12310859736E+03  0.80183206883E+02 0.  0.
         11    1    4    4    0    0 -0.34150034375E+02  0.13077575291E+02 -0.30066612563E+02  0.47341831548E+02  0.00000000000E+00 0. -1.
        -12    1    4    4    0    0  0.33057485694E+02  0.64582555642E+02 -0.21838016126E+02  0.75766765814E+02  0.00000000000E+00 0.  1.
        -11    1    3    3    0    0  0.27414025265E+02 -0.43225168807E+02 -0.20787578001E+03  0.21408475871E+03  0.00000000000E+00 0.  1.
         11    1    3    3    0    0 -0.56513668655E+02 -0.67208690997E+01 -0.30156713215E+03  0.30689037134E+03  0.00000000000E+00 0. -1.
          4    1    1    2  501    0  0.30192192071E+02 -0.27714093026E+02  0.65881840813E+00  0.40988699126E+02  0.00000000000E+00 0. -1.
<scales pt_clust_5="13000.00000" pt_clust_6="13000.00000" pt_clust_7="13000.00000" pt_clust_8="13000.00000" pt_clust_9="40.98340"></scales>
<clustering>
<clus scale="   40.983">  1  9  2 -1</clus>
<clus scale="   80.183">  5  6 -1 -1</clus>
<clus scale="   92.421">  7  8 -1 -1</clus>
<clus scale="   99.721">  1  5  2 -1</clus>
<clus scale="   40.983">  1  5  2 -1</clus>
</clustering>
</event>
<event>
 9    1  0.7835476E-005  0.1012394E+03  0.7546771E-02  0.1282704E+00
          1   -1    0    0  502    0 -0.00000000000E+00  0.00000000000E+00  0.29732613829E+03  0.29732613829E+03  0.00000000000E+00 0. -1.
         21   -1    0    0  501  502  0.00000000000E+00 -0.00000000000E+00 -0.14704796620E+03  0.14704796620E+03  0.00000000000E+00 0. -1.
        -24    2    1    2    0    0  0.16866566481E+02  0.55586752390E+02  0.22392447017E+03  0.24417407927E+03  0.78130944840E+02 0.  0.
         23    2    1    2    0    0 -0.11567766348E+02 -0.13533388729E+02  0.24083948084E+02  0.93674142474E+02  0.88757211449E+02 0.  0.
         13    1    3    3    0    0  0.37313351019E+02  0.26714241550E+02  0.18888573803E+03  0.19438044885E+03  0.00000000000E+00 0. -1.
        -14    1    3    3    0    0 -0.20446784539E+02  0.28872510841E+02  0.35038732139E+02  0.49793630417E+02  0.00000000000E+00 0.  1.
        -11    1    4    4    0    0 -0.30932101134E+02  0.22662577245E+02 -0.10763264229E+02  0.39827567649E+02  0.00000000000E+00 0. -1.
         11    1    4    4    0    0  0.19364334785E+02 -0.36195965974E+02  0.34847212313E+02  0.53846574826E+02  0.00000000000E+00 0.  1.
          2    1    1    2  501    0 -0.52988001323E+01 -0.42053363661E+02 -0.97730246162E+02  0.10652588274E+03  0.00000000000E+00 0. -1.
<scales pt_clust_5="13000.00000" pt_clust_6="13000.00000" pt_clust_7="13000.00000" pt_clust_8="13000.00000" pt_clust_9="42.38588"></scales>
<clustering>
<clus scale="   42.386">  2  9  1 -1</clus>
<clus scale="   78.131">  5  6 -1 -1</clus>
<clus scale="   88.757">  7  8 -1 -1</clus>
<clus scale="   92.065">  1  5  2 -1</clus>
<clus scale="   42.386">  2  5  1 -1</clus>
</clustering>
</event>
<event>
 9    1  0.7835476E-005  0.1107857E+03  0.7546771E-02  0.1263937E+00
          3   -1    0    0  502    0 -0.00000000000E+00  0.00000000000E+00  0.44907076901E+03  0.44907076901E+03  0.00000000000E+00 0. -1.
         21   -1    0    0  501  502  0.00000000000E+00 -0.00000000000E+00 -0.34216196523E+02  0.34216196523E+02  0.00000000000E+00 0. -1.
         23    2    1    2    0    0  0.36179298429E+02  0.43961160631E+02  0.21043634886E+03  0.23689885352E+03  0.92715072111E+02 0.  0.
        -24    2    1    2    0    0 -0.60204174983E+02 -0.32832697763E+02  0.13116732977E+03  0.16849889049E+03  0.80526262608E+02 0.  0.
         11    1    4    4    0    0 -0.63408962937E+02 -0.51698234354E+02  0.12292916870E+03  0.14766510940E+03  0.00000000000E+00 0. -1.
        -12    1    4    4    0    0  0.32047879543E+01  0.18865536591E+02  0.82381610643E+01  0.20833781088E+02  0.00000000000E+00 0.  1.
        -13    1    3    3    0    0  0.58304744576E+01  0.68740885586E+02  0.12160707351E+03  0.13981267508E+03  0.00000000000E+00 0. -1.
         13    1    3    3    0    0  0.30348823972E+02 -0.24779724955E+02  0.88829275346E+02  0.97086178439E+02  0.00000000000E+00 0.  1.
          4    1    1    2  501    0  0.24024876554E+02 -0.11128462869E+02  0.73250893856E+02  0.77889221526E+02  0.00000000000E+00 0. -1.
<scales pt_clust_5="13000.00000" pt_clust_6="13000.00000" pt_clust_7="13000.00000" pt_clust_8="13000.00000" pt_clust_9="26.47712"></scales>
<clustering>
<clus scale="   26.477">  2  9  1 -1</clus>
<clus scale="   80.526">  5  6 -1 -1</clus>
<clus scale="   92.715">  7  8 -1 -1</clus>
<clus scale="  100.806">  2  5  1 -1</clus>
<clus scale="   26.477">  2  5  1 -1</clus>
</clustering>
</event>
<event>
 9    1  0.7835476E-005  0.1069381E+03  0.7546771E-02  0.1270646E+00
          1   -1    0    0  502    0 -0.00000000000E+00  0.00000000000E+00  0.14244341605E+03  0.14244341605E+03  0.00000000000E+00 0. -1.
         21   -1    0    0  501  502  0.00000000000E+00 -0.00000000000E+00 -0.13053783682E+03  0.13053783682E+03  0.00000000000E+00 0. -1.
         23    2    1    2    0    0  0.17658740723E+02 -0.26967122319E+02  0.61153802567E+01  0.97936394579E+02  0.92277205730E+02 0.  0.
        -24    2    1    2    0    0 -0.21622348312E+02  0.82246805168E+02 -0.57837902689E+01  0.11842762816E+03  0.82216713473E+02 0.  0.
         11    1    4    4    0    0 -0.19875337793E+02  0.94362311128E+02 -0.21207117522E+02  0.98737108765E+02  0.00000000000E+00 0. -1.
        -12    1    4    4    0    0 -0.17470105193E+01 -0.12115505960E+02  0.15423327253E+02  0.19690519393E+02  0.00000000000E+00 0.  1.
        -13    1    3    3    0    0 -0.22020137883E+02  0.96071172779E+01  0.30410838348E+02  0.38755673957E+02  0.00000000000E+00 0.  1.
         13    1    3    3    0    0  0.39678878607E+02 -0.36574239596E+02 -0.24295458091E+02  0.59180720622E+02  0.00000000000E+00 0. -1.
          2    1    1    2  501    0  0.39636075888E+01 -0.55279682850E+02  0.11573989238E+02  0.56617230133E+02  0.00000000000E+00 0. -1.
<scales pt_clust_5="13000.00000" pt_clust_6="13000.00000" pt_clust_7="13000.00000" pt_clust_8="13000.00000" pt_clust_9="55.42163"></scales>
<clustering>
<clus scale="   55.422">  2  9  1 -1</clus>
<clus scale="   82.217">  5  6 -1 -1</clus>
<clus scale="   92.277">  7  8 -1 -1</clus>
<clus scale="   98.388">  2  5  1 -1</clus>
<clus scale="   55.422">  2  5  1 -1</clus>
</clustering>
</event>
<event>
 9    1  0.7835476E-005  0.1373276E+03  0.7546771E-02  0.1220741E+00
          1   -1    0    0  502    0 -0.00000000000E+00  0.00000000000E+00  0.80870787772E+03  0.80870787772E+03  0.00000000000E+00 0. -1.
         21   -1    0    0  501  502  0.00000000000E+00 -0.00000000000E+00 -0.37544776016E+02  0.37544776016E+02  0.00000000000E+00 0. -1.
        -24    2    1    2    0    0 -0.40112266989E+02 -0.10764665706E+03  0.27689582926E+03  0.30927450809E+03  0.76043568778E+02 0.  0.
         23    2    1    2    0    0 -0.35437335000E+01  0.89644277183E+02  0.19310513681E+03  0.23213627845E+03  0.92460821051E+02 0.  0.
         11    1    3    3    0    0 -0.10010637593E+02 -0.95754651929E+02  0.24744582879E+03  0.26551573290E+03  0.00000000000E+00 0. -1.
        -12    1    3    3    0    0 -0.30101629396E+02 -0.11892005132E+02  0.29450000465E+02  0.43758775185E+02  0.00000000000E+00 0.  1.
        -13    1    4    4    0    0 -0.45988135494E+02  0.56674769383E+02  0.90094865612E+02  0.11594836308E+03  0.00000000000E+00 0. -1.
         13    1    4    4    0    0  0.42444401994E+02  0.32969507800E+02  0.10301027120E+03  0.11618791537E+03  0.00000000000E+00 0.  1.
          2    1    1    2  501    0  0.43656000489E+02  0.18002379878E+02  0.30116213564E+03  0.30484186721E+03  0.00000000000E+00 0. -1.
<scales pt_clust_5="13000.00000" pt_clust_6="13000.00000" pt_clust_7="13000.00000" pt_clust_8="13000.00000" pt_clust_9="47.22218"></scales>
<clustering>
<clus scale="   47.222">  2  9  1 -1</clus>
<clus scale="   76.044">  5  6 -1 -1</clus>
<clus scale="   92.461">  7  8 -1 -1</clus>
<clus scale="  126.856">  1  5  2 -1</clus>
<clus scale="   47.222">  2  5  1 -1</clus>
</clustering>
</event>
<event>
 9    1  0.7835476E-005  0.1046458E+03  0.7546771E-02  0.1275310E+00
          1   -1    0    0  502    0 -0.00000000000E+00  0.00000000000E+00  0.44321379809E+03  0.44321379809E+03  0.00000000000E+00 0. -1.
         21   -1    0    0  501  502  0.00000000000E+00 -0.00000000000E+00 -0.85688775146E+02  0.85688775146E+02  0.00000000000E+00 0. -1.
         23    2    1    2    0    0 -0.45851398937E+02  0.14610598446E+02  0.22979116090E+03  0.25221554299E+03  0.92156834399E+02 0.  0.
        -24    2    1    2    0    0  0.10018584554E+02 -0.10365166637E+03  0.21304374192E+02  0.13337081257E+03  0.80559650622E+02 0.  0.
         11    1    4    4    0    0  0.83093657175E+01 -0.11745504971E+03  0.19200863478E+02  0.11930384495E+03  0.00000000000E+00 0. -1.
        -12    1    4    4    0    0  0.17092188368E+01  0.13803383342E+02  0.21035107139E+01  0.14066967621E+02  0.00000000000E+00 0.  1.
        -13    1    3    3    0    0  0.25980145136E+02  0.16489325876E+02  0.51552473735E+02  0.60037682811E+02  0.00000000000E+00 0.  1.
         13    1    3    3    0    0 -0.71831544073E+02 -0.18787274301E+01  0.17823868717E+03  0.19217786018E+03  0.00000000000E+00 0. -1.
          2    1    1    2  501    0  0.35832814383E+02  0.89041067925E+02  0.10642948785E+03  0.14331621767E+03  0.00000000000E+00 0. -1.
<scales pt_clust_5="13000.00000" pt_clust_6="13000.00000" pt_clust_7="13000.00000" pt_clust_8="13000.00000" pt_clust_9="95.98079"></scales>
<clustering>
<clus scale="   80.560">  5  6 -1 -1</clus>
<clus scale="   92.157">  7  8 -1 -1</clus>
<clus scale="   95.981">  2  9  1 -1</clus>
<clus scale="   95.981">  2  5  1 -1</clus>
<clus scale="   95.981">  2  5  1 -1</clus>
</clustering>
</event>
<event>
 9    1  0.7835476E-005  0.9633705E+02  0.7546771E-02  0.1292164E+00
          3   -1    0    0  502    0 -0.00000000000E+00  0.00000000000E+00  0.89257558174E+02  0.89257558174E+02  0.00000000000E+00 0. -1.
         21   -1    0    0  501  502  0.00000000000E+00 -0.00000000000E+00 -0.33128793543E+03  0.33128793543E+03  0.00000000000E+00 0.  1.
         23    2    1    2    0    0  0.23693896405E+02  0.16960231531E+02  0.16057396254E+02  0.94734098364E+02  0.88699826595E+02 0.  0.
        -24    2    1    2    0    0 -0.93526836529E+02  0.61043779363E+01 -0.17979855869E+03  0.21839716484E+03  0.81149660009E+02 0.  0.
         13    1    4    4    0    0 -0.73954056340E+02  0.18662887724E+01 -0.55464918143E+02  0.92461033022E+02  0.00000000000E+00 0. -1.
        -14    1    4    4    0    0 -0.19572780189E+02  0.42380891639E+01 -0.12433364055E+03  0.12593613182E+03  0.00000000000E+00 0.  1.
        -13    1    3    3    0    0 -0.23744970163E+02  0.12411895500E+02 -0.21261700990E+02  0.34204366489E+02  0.00000000000E+00 0.  1.
         13    1    3    3    0    0  0.47438866568E+02  0.45483360314E+01  0.37319097243E+02  0.60529731876E+02  0.00000000000E+00 0. -1.
          4    1    1    2  501    0  0.69832940124E+02 -0.23064609468E+02 -0.78289214817E+02  0.10741423040E+03  0.00000000000E+00 0. -1.
<scales pt_clust_5="13000.00000" pt_clust_6="13000.00000" pt_clust_7="13000.00000" pt_clust_8="13000.00000" pt_clust_9="73.54329"></scales>
<clustering>
<clus scale="   73.543">  2  9  1 -1</clus>
<clus scale="   81.150">  5  6 -1 -1</clus>
<clus scale="   88.700">  7  8 -1 -1</clus>
<clus scale="   89.434">  2  5  1 -1</clus>
<clus scale="   73.543">  2  5  1 -1</clus>
</clustering>
</event>
<event>
 9    1  0.7835476E-005  0.1977794E+03  0.7546771E-02  0.1152873E+00
          1   -1    0    0  502    0 -0.00000000000E+00  0.00000000000E+00  0.19073757298E+04  0.19073757298E+04  0.00000000000E+00 0. -1.
         21   -1    0    0  501  502  0.00000000000E+00 -0.00000000000E+00 -0.43622685261E+02  0.43622685261E+02  0.00000000000E+00 0.  1.
         23    2    1    2    0    0 -0.11482753695E+02  0.18675086790E+03  0.84847873033E+03  0.87366147840E+03  0.91435675313E+02 0.  0.
        -24    2    1    2    0    0 -0.72229055827E+02 -0.14798814669E+03  0.26649144730E+03  0.32289277214E+03  0.78259330096E+02 0.  0.
         13    1    4    4    0    0 -0.21911187524E+02 -0.15127574016E+02  0.10258756585E+03  0.10598656661E+03  0.00000000000E+00 0. -1.
        -14    1    4    4    0    0 -0.50317868303E+02 -0.13286057268E+03  0.16390388145E+03  0.21690620553E+03  0.00000000000E+00 0.  1.
        -11    1    3    3    0    0  0.23369396861E+02  0.88676425731E+01  0.69114671217E+02  0.73495588792E+02  0.00000000000E+00 0. -1.
         11    1    3    3    0    0 -0.34852150556E+02  0.17788322533E+03  0.77936405911E+03  0.80016588961E+03  0.00000000000E+00 0.  1.
          2    1    1    2  501    0  0.83711809521E+02 -0.38762721210E+02  0.74878286690E+03  0.75444416451E+03  0.00000000000E+00 0. -1.
<scales pt_clust_5="13000.00000" pt_clust_6="13000.00000" pt_clust_7="13000.00000" pt_clust_8="13000.00000" pt_clust_9="92.25088"></scales>
<clustering>
<clus scale="   78.259">  5  6 -1 -1</clus>
<clus scale="   91.436">  7  8 -1 -1</clus>
<clus scale="   92.251">  2  9  1 -1</clus>
<clus scale="  192.044">  2  5  1 -1</clus>
<clus scale="   92.251">  2  5  1 -1</clus>
</clustering>
</event>
<event>
 9    1  0.7835476E-005  0.1207476E+03  0.7546771E-02  0.1242857E+00
         21   -1    0    0  501  502  0.00000000000E+00  0.00000000000E+00  0.63469564014E+02  0.63469564014E+02  0.00000000000E+00 0.  1.
          1   -1    0    0  502    0 -0.00000000000E+00 -0.00000000000E+00 -0.38298252259E+03  0.38298252259E+03  0.00000000000E+00 0. -1.
        -24    2    1    2    0    0  0.32479512359E+02  0.85243431888E+02 -0.17901920031E+03  0.21712380842E+03  0.82301352959E+02 0.  0.
         23    2    1    2    0    0 -0.49883098849E+02 -0.67674789502E+02 -0.34158057909E+02  0.12015491519E+03  0.78754238226E+02 0.  0.
         11    1    3    3    0    0 -0.23347376699E+02  0.38082086730E+02 -0.99817901046E+02  0.10935702400E+03  0.00000000000E+00 0. -1.
        -12    1    3    3    0    0  0.55826889058E+02  0.47161345158E+02 -0.79201299265E+02  0.10776678442E+03  0.00000000000E+00 0.  1.
        -11    1    4    4    0    0 -0.62915079607E+02 -0.50749476512E+02 -0.11528411077E+01  0.80840247716E+02  0.00000000000E+00 0.  1.
         11    1    4    4    0    0  0.13031980757E+02 -0.16925312990E+02 -0.33005216801E+02  0.39314667471E+02  0.00000000000E+00 0. -1.
          2    1    1    2  501    0  0.17403586491E+02 -0.17568642386E+02 -0.10633570035E+03  0.10917336299E+03  0.00000000000E+00 0. -1.
<scales pt_clust_5="13000.00000" pt_clust_6="13000.00000" pt_clust_7="13000.00000" pt_clust_8="13000.00000" pt_clust_9="24.72939"></scales>
<clustering>
<clus scale="   24.729">  1  9  2 -1</clus>
<clus scale="   78.754">  7  8 -1 -1</clus>
<clus scale="   82.301">  5  6 -1 -1</clus>
<clus scale="  118.358">  1  7  2 -1</clus>
<clus scale="   24.729">  1  5  2 -1</clus>
</clustering>
</event>
<event>
 9    1  0.7835476E-005  0.9957188E+02  0.7546771E-02  0.1285805E+00
         21   -1    0    0  501  502  0.00000000000E+00  0.00000000000E+00  0.16376722536E+03  0.16376722536E+03  0.00000000000E+00 0.  1.
         -4   -1    0    0    0  501 -0.00000000000E+00 -0.00000000000E+00 -0.27121461042E+03  0.27121461042E+03  0.00000000000E+00 0.  1.
         23    2    1    2    0    0 -0.37614725364E+02 -0.17770393653E+02 -0.23688093872E+03  0.25736759815E+03  0.91623397632E+02 0.  0.
        -24    2    1    2    0    0  0.19996098087E+02 -0.90627206428E+00  0.61070672750E+02  0.10458878074E+03  0.82513760782E+02 0.  0.
         13    1    4    4    0    0  0.42825409507E+02 -0.24854161286E+02  0.48159155100E+02  0.69072782285E+02  0.00000000000E+00 0. -1.
        -14    1    4    4    0    0 -0.22829311420E+02  0.23947889222E+02  0.12911517650E+02  0.35515998453E+02  0.00000000000E+00 0.  1.
        -11    1    3    3    0    0  0.19796959844E+02 -0.34480047789E+02 -0.76747843989E+02  0.86435090510E+02  0.00000000000E+00 0. -1.
         11    1    3    3    0    0 -0.57411685208E+02  0.16709654136E+02 -0.16013309473E+03  0.17093250764E+03  0.00000000000E+00 0.  1.
         -3    1    1    2    0  502  0.17618627277E+02  0.18676665717E+02  0.68362880901E+02  0.73025456893E+02  0.00000000000E+00 0.  1.
<scales pt_clust_5="13000.00000" pt_clust_6="13000.00000" pt_clust_7="13000.00000" pt_clust_8="13000.00000" pt_clust_9="25.67555"></scales>
<clustering>
<clus scale="   25.676">  1  9  2 -1</clus>
<clus scale="   82.514">  5  6 -1 -1</clus>
<clus scale="   91.259">  1  5  2 -1</clus>
<clus scale="   91.623">  7  8 -1 -1</clus>
<clus scale="   25.676">  1  5  2 -1</clus>
</clustering>
</event>
<event>
 9    1  0.7835476E-005  0.9957211E+02  0.7546771E-02  0.1287827E+00
         -2   -1    0    0    0  501 -0.00000000000E+00  0.00000000000E+00  0.75660483925E+02  0.75660483925E+02  0.00000000000E+00 0.  1.
         21   -1    0    0  501  502  0.00000000000E+00 -0.00000000000E+00 -0.16310889135E+03  0.16310889135E+03  0.00000000000E+00 0.  1.
        -24    2    1    2    0    0 -0.93430332842E+01 -0.30494496106E+02 -0.22765104141E+02  0.88760972857E+02  0.79643290818E+02 0.  0.
         23    2    1    2    0    0 -0.14907314048E+02  0.45869639678E+02 -0.38421149941E+02  0.11109599972E+03  0.92411495684E+02 0.  0.
         13    1    3    3    0    0 -0.25625429549E+02  0.82369352844E+01  0.16236124170E+02  0.31434399478E+02  0.00000000000E+00 0. -1.
        -14    1    3    3    0    0  0.16282396265E+02 -0.38731431390E+02 -0.39001228311E+02  0.57326573379E+02  0.00000000000E+00 0.  1.
        -11    1    4    4    0    0 -0.43263461584E+02  0.58479335524E+02 -0.31661961011E+02  0.79334983246E+02  0.00000000000E+00 0.  1.
         11    1    4    4    0    0  0.28356147536E+02 -0.12609695846E+02 -0.67591889299E+01  0.31761016473E+02  0.00000000000E+00 0. -1.
         -1    1    1    2    0  502  0.24250347332E+02 -0.15375143573E+02 -0.26262153345E+02  0.38912402700E+02  0.00000000000E+00 0.  1.
<scales pt_clust_5="13000.00000" pt_clust_6="13000.00000" pt_clust_7="13000.00000" pt_clust_8="13000.00000" pt_clust_9="28.71366"></scales>
<clustering>
<clus scale="   28.714">  2  9  1 -1</clus>
<clus scale="   79.643">  5  6 -1 -1</clus>
<clus scale="   87.851">  1  5  2 -1</clus>
<clus scale="   92.411">  7  8 -1 -1</clus>
<clus scale="   28.714">  2  5  1 -1</clus>
</clustering>
</event>
<event>
 9    1  0.7835476E-005  0.1318922E+03  0.7546771E-02  0.1227753E+00
         21   -1    0    0  501  502  0.00000000000E+00  0.00000000000E+00  0.28179807500E+03  0.28179807500E+03  0.00000000000E+00 0.  1.
         -2   -1    0    0    0  501 -0.00000000000E+00 -0.00000000000E+00 -0.36435303642E+03  0.36435303642E+03  0.00000000000E+00 0.  1.
         23    2    1    2    0    0  0.91166485921E+02  0.14262080528E+02 -0.94062119951E+02  0.16053612980E+03  0.91702952329E+02 0.  0.
        -24    2    1    2    0    0 -0.92269305270E+02 -0.10613026136E+03  0.21114177203E+03  0.26585384363E+03  0.79499441547E+02 0.  0.
         13    1    4    4    0    0 -0.19228853931E+02 -0.23714215800E+02  0.33881247141E+01  0.30717946604E+02  0.00000000000E+00 0. -1.
        -14    1    4    4    0    0 -0.73040451339E+02 -0.82416045556E+02  0.20775364732E+03  0.23513589703E+03  0.00000000000E+00 0.  1.
        -13    1    3    3    0    0  0.82038915780E+02 -0.11641721692E+02 -0.25528737219E+02  0.86704266391E+02  0.00000000000E+00 0.  1.
         13    1    3    3    0    0  0.91275701411E+01  0.25903802220E+02 -0.68533382731E+02  0.73831863411E+02  0.00000000000E+00 0. -1.
         -1    1    1    2    0  502  0.11028193490E+01  0.91868180828E+02 -0.19963461350E+03  0.21976113798E+03  0.00000000000E+00 0.  1.
<scales pt_clust_5="13000.00000" pt_clust_6="13000.00000" pt_clust_7="13000.00000" pt_clust_8="13000.00000" pt_clust_9="91.87485"></scales>
<clustering>
<clus scale="   79.499">  5  6 -1 -1</clus>
<clus scale="   91.703">  7  8 -1 -1</clus>
<clus scale="   91.875">  1  9  2 -1</clus>
<clus scale="  123.719">  1  5  2 -1</clus>
<clus scale="   91.875">  1  5  2 -1</clus>
</clustering>
</event>
<event>
 9    1  0.7835476E-005  0.1248553E+03  0.7546771E-02  0.1243654E+00
         21   -1    0    0  501  502  0.00000000000E+00  0.00000000000E+00  0.67540508305E+03  0.67540508305E+03  0.00000000000E+00 0. -1.
          1   -1    0    0  502    0 -0.00000000000E+00 -0.00000000000E+00 -0.31541140714E+02  0.31541140714E+02  0.00000000000E+00 0. -1.
         23    2    1    2    0    0 -0.75209439993E+01  0.68684525981E+02  0.21105969780E+03  0.24530586147E+03  0.10418560807E+03 0.  0.
        -24    2    1    2    0    0  0.42321464187E+02 -0.59559761696E+02  0.21283798723E+03  0.23875139468E+03  0.79773103936E+02 0.  0.
         13    1    4    4    0    0  0.45426549366E+02 -0.71029780535E+01  0.51338434198E+02  0.68917766290E+02  0.00000000000E+00 0. -1.
        -14    1    4    4    0    0 -0.31050851789E+01 -0.52456783643E+02  0.16149955303E+03  0.16983362839E+03  0.00000000000E+00 0.  1.
        -13    1    3    3    0    0 -0.34199392463E+02  0.84525349195E+02  0.13251539986E+03  0.16085541428E+03  0.00000000000E+00 0. -1.
         13    1    3    3    0    0  0.26678448464E+02 -0.15840823215E+02  0.78544297933E+02  0.84450447188E+02  0.00000000000E+00 0.  1.
          2    1    1    2  501    0 -0.34800520188E+02 -0.91247642842E+01  0.21996625732E+03  0.22288896762E+03  0.00000000000E+00 0. -1.
<scales pt_clust_5="13000.00000" pt_clust_6="13000.00000" pt_clust_7="13000.00000" pt_clust_8="13000.00000" pt_clust_9="35.97690"></scales>
<clustering>
<clus scale="   35.977">  1  9  2 -1</clus>
<clus scale="   79.773">  5  6 -1 -1</clus>
<clus scale="  104.186">  7  8 -1 -1</clus>
<clus scale="  105.347">  1  5  2 -1</clus>
<clus scale="   35.977">  1  5  2 -1</clus>
</clustering>
</event>
<event>
 9    1  0.7835476E-005  0.1691650E+03  0.7546771E-02  0.1183929E+00
         21   -1    0    0  501  502  0.00000000000E+00  0.00000000000E+00  0.23493387266E+03  0.23493387266E+03  0.00000000000E+00 0. -1.
          1   -1    0    0  502    0 -0.00000000000E+00 -0.00000000000E+00 -0.35980912381E+03  0.35980912381E+03  0.00000000000E+00 0. -1.
         23    2    1    2    0    0  0.26965582469E+02 -0.13056765654E+03 -0.29836698882E+03  0.34514457043E+03  0.11102638834E+03 0.  0.
        -24    2    1    2    0    0 -0.47262942222E+02  0.79983807129E+02  0.13826552039E+03  0.18470162320E+03  0.79788096699E+02 0.  0.
         13    1    4    4    0    0 -0.44546724640E+02  0.40567857699E+02  0.25880652373E+02  0.65574155897E+02  0.00000000000E+00 0. -1.
        -14    1    4    4    0    0 -0.27162175814E+01  0.39415949431E+02  0.11238486802E+03  0.11912746731E+03  0.00000000000E+00 0.  1.
        -13    1    3    3    0    0  0.40109097972E+02 -0.67160525892E+02 -0.25618602906E+03  0.26786294530E+03  0.00000000000E+00 0. -1.
         13    1    3    3    0    0 -0.13143515504E+02 -0.63407130647E+02 -0.42180959761E+02  0.77281625132E+02  0.00000000000E+00 0.  1.
          2    1    1    2  501    0  0.20297359753E+02  0.50583849410E+02  0.35226217277E+02  0.64896802831E+02  0.00000000000E+00 0. -1.
<scales pt_clust_5="13000.00000" pt_clust_6="13000.00000" pt_clust_7="13000.00000" pt_clust_8="13000.00000" pt_clust_9="54.50421"></scales>
<clustering>
<clus scale="   54.504">  1  9  2 -1</clus>
<clus scale="   79.788">  5  6 -1 -1</clus>
<clus scale="  111.026">  7  8 -1 -1</clus>
<clus scale="  150.519">  1  5  2 -1</clus>
<clus scale="   54.504">  1  5  2 -1</clus>
</clustering>
</event>
<event>
 9    1  0.7835476E-005  0.9787121E+02  0.7546771E-02  0.1289594E+00
          1   -1    0    0  502    0 -0.00000000000E+00  0.00000000000E+00  0.63941305387E+03  0.63941305387E+03  0.00000000000E+00 0. -1.
         21   -1    0    0  501  502  0.00000000000E+00 -0.00000000000E+00 -0.33333337417E+02  0.33333337417E+02  0.00000000000E+00 0. -1.
        -24    2    1    2    0    0 -0.13574201676E+01  0.36711506896E+02  0.12703110032E+03  0.15427863634E+03  0.79469615920E+02 0.  0.
         23    2    1    2    0    0 -0.58314558467E+02 -0.27179696723E+02  0.16142641042E+03  0.19514830610E+03  0.88797813883E+02 0.  0.
         11    1    3    3    0    0  0.28771604489E+02  0.32843660398E+02  0.11235842677E+03  0.12054429608E+03  0.00000000000E+00 0. -1.
        -12    1    3    3    0    0 -0.30129024657E+02  0.38678464986E+01  0.14672673555E+02  0.33734340257E+02  0.00000000000E+00 0.  1.
        -13    1    4    4    0    0  0.13414832963E+02  0.19604411069E+02  0.29697543840E+02  0.38029393723E+02  0.00000000000E+00 0.  1.
         13    1    4    4    0    0 -0.71729391430E+02 -0.46784107792E+02  0.13172886658E+03  0.15711891238E+03  0.00000000000E+00 0. -1.
          2    1    1    2  501    0  0.59671978634E+02 -0.95318101733E+01  0.31762220572E+03  0.32331944885E+03  0.00000000000E+00 0. -1.
<scales pt_clust_5="13000.00000" pt_clust_6="13000.00000" pt_clust_7="13000.00000" pt_clust_8="13000.00000" pt_clust_9="60.42850"></scales>
<clustering>
<clus scale="   60.429">  2  9  1 -1</clus>
<clus scale="   79.470">  5  6 -1 -1</clus>
<clus scale="   88.798">  7  8 -1 -1</clus>
<clus scale="   89.494">  1  5  2 -1</clus>
<clus scale="   60.429">  2  5  1 -1</clus>
</clustering>
</event>
<event>
 9    1  0.7835476E-005  0.1300205E+03  0.7546771E-02  0.1231697E+00
          1   -1    0    0  502    0 -0.00000000000E+00  0.00000000000E+00  0.35774887842E+03  0.35774887842E+03  0.00000000000E+00 0. -1.
         21   -1    0    0  501  502  0.00000000000E+00 -0.00000000000E+00 -0.75432052343E+02  0.75432052343E+02  0.00000000000E+00 0.  1.
         23    2    1    2    0    0 -0.58387018018E+02  0.62595796961E+02  0.21781283077E+03  0.25316914151E+03  0.96565559563E+02 0.  0.
        -24    2    1    2    0    0  0.75918339809E+02 -0.50586658889E+02  0.86331901834E+02  0.14954830055E+03  0.81171993602E+02 0.  0.
         11    1    4    4    0    0  0.85626935820E+02 -0.22844647879E+02  0.80200236648E+02  0.11952375510E+03  0.00000000000E+00 0. -1.
        -12    1    4    4    0    0 -0.97085960112E+01 -0.27742011009E+02  0.61316651858E+01  0.30024545447E+02  0.00000000000E+00 0.  1.
        -13    1    3    3    0    0 -0.13353580496E+02  0.78942078607E+02  0.12005368008E+03  0.14430196114E+03  0.00000000000E+00 0.  1.
         13    1    3    3    0    0 -0.45033437522E+02 -0.16346281646E+02  0.97759150687E+02  0.10886718037E+03  0.00000000000E+00 0. -1.
          2    1    1    2  501    0 -0.17531321791E+02 -0.12009138072E+02 -0.21827906526E+02  0.30463488708E+02  0.00000000000E+00 0. -1.
<scales pt_clust_5="13000.00000" pt_clust_6="13000.00000" pt_clust_7="13000.00000" pt_clust_8="13000.00000" pt_clust_9="21.25010"></scales>
<clustering>
<clus scale="   21.250">  2  9  1 -1</clus>
<clus scale="   81.172">  5  6 -1 -1</clus>
<clus scale="   96.566">  7  8 -1 -1</clus>
<clus scale="  119.035">  2  5  1 -1</clus>
<clus scale="   21.250">  2  5  1 -1</clus>
</clustering>
</event>
<event>
 9    1  0.7835476E-005  0.1664391E+03  0.7546771E-02  0.1183122E+00
         21   -1    0    0  501  502  0.00000000000E+00  0.00000000000E+00  0.20798946533E+03  0.20798946533E+03  0.00000000000E+00 0.  1.
          1   -1    0    0  502    0 -0.00000000000E+00 -0.00000000000E+00 -0.35543959911E+03  0.35543959911E+03  0.00000000000E+00 0. -1.
         23    2    1    2    0    0  0.97683939078E+02 -0.11024579798E+03 -0.20989248874E+03  0.27196019405E+03  0.90615685154E+02 0.  0.
        -24    2    1    2    0    0 -0.43732632500E+02  0.12508527407E+03 -0.52646023369E+02  0.16349899753E+03  0.80009058749E+02 0.  0.
         13    1    4    4    0    0 -0.30456732929E+02  0.11190575380E+03 -0.72059097649E+02  0.13653945901E+03  0.00000000000E+00 0. -1.
        -14    1    4    4    0    0 -0.13275899571E+02  0.13179520276E+02  0.19413074280E+02  0.26959538519E+02  0.00000000000E+00 0.  1.
        -13    1    3    3    0    0  0.91092468806E+02 -0.41947754348E+02 -0.95006753117E+02  0.13814389276E+03  0.00000000000E+00 0.  1.
         13    1    3    3    0    0  0.65914702718E+01 -0.68298043628E+02 -0.11488573562E+03  0.13381630130E+03  0.00000000000E+00 0. -1.
          2    1    1    2  501    0 -0.53951306578E+02 -0.14839476097E+02  0.11508837833E+03  0.12796987285E+03  0.00000000000E+00 0. -1.
<scales pt_clust_5="13000.00000" pt_clust_6="13000.00000" pt_clust_7="13000.00000" pt_clust_8="13000.00000" pt_clust_9="55.95492"></scales>
<clustering>
<clus scale="   55.955">  1  9  2 -1</clus>
<clus scale="   80.009">  5  6 -1 -1</clus>
<clus scale="   90.616">  7  8 -1 -1</clus>
<clus scale="  160.911">  1  5  2 -1</clus>
<clus scale="   55.955">  1  5  2 -1</clus>
</clustering>
</event>
<event>
 9    1  0.7835476E-005  0.1265530E+03  0.7546771E-02  0.1235811E+00
         -4   -1    0    0    0  501 -0.00000000000E+00  0.00000000000E+00  0.37714880266E+03  0.37714880266E+03  0.00000000000E+00 0.  1.
         21   -1    0    0  501  502  0.00000000000E+00 -0.00000000000E+00 -0.80201732112E+02  0.80201732112E+02  0.00000000000E+00 0. -1.
        -24    2    1    2    0    0 -0.96146446965E+02  0.10836575859E+02  0.23540337816E+03  0.26672689652E+03  0.79792958596E+02 0.  0.
         23    2    1    2    0    0  0.59145752241E+02  0.28840097959E+02  0.53929189642E+01  0.11254547733E+03  0.91145102090E+02 0.  0.
         13    1    3    3    0    0 -0.74243329287E+02  0.32120604429E+02  0.10365253201E+03  0.13148251809E+03  0.00000000000E+00 0. -1.
        -14    1    3    3    0    0 -0.21903117678E+02 -0.21284028569E+02  0.13175084615E+03  0.13524437843E+03  0.00000000000E+00 0.  1.
        -13    1    4    4    0    0  0.13555447626E+02 -0.27836194537E+02  0.21943881557E+02  0.37949147875E+02  0.00000000000E+00 0.  1.
         13    1    4    4    0    0  0.45590304614E+02  0.56676292497E+02 -0.16550962593E+02  0.74596329459E+02  0.00000000000E+00 0. -1.
         -3    1    1    2    0  502  0.37000694724E+02 -0.39676673819E+02  0.56150773432E+02  0.78078160918E+02  0.00000000000E+00 0.  1.
<scales pt_clust_5="13000.00000" pt_clust_6="13000.00000" pt_clust_7="13000.00000" pt_clust_8="13000.00000" pt_clust_9="54.25212"></scales>
<clustering>
<clus scale="   54.252">  2  9  1 -1</clus>
<clus scale="   79.793">  5  6 -1 -1</clus>
<clus scale="   91.145">  7  8 -1 -1</clus>
<clus scale="  118.639">  1  5  2 -1</clus>
<clus scale="   54.252">  2  5  1 -1</clus>
</clustering>
</event>
<event>
 9    1  0.7835476E-005  0.9391260E+02  0.7546771E-02  0.1298255E+00
         21   -1    0    0  501  502  0.00000000000E+00  0.00000000000E+00  0.19112499011E+02  0.19112499011E+02  0.00000000000E+00 0. -1.
          3   -1    0    0  502    0 -0.00000000000E+00 -0.00000000000E+00 -0.87281341369E+03  0.87281341369E+03  0.00000000000E+00 0. -1.
         23    2    1    2    0    0  0.23815987226E+01 -0.30608522947E+02 -0.44220562495E+03  0.45264432385E+03  0.91643414854E+02 0.  0.
        -24    2    1    2    0    0  0.13655745529E+02 -0.42600470040E+01 -0.13073061551E+03  0.15590583853E+03  0.83734755445E+02 0.  0.
         13    1    4    4    0    0 -0.36991517480E+01 -0.42005790127E+02 -0.52594076486E+02  0.67411475353E+02  0.00000000000E+00 0. -1.
        -14    1    4    4    0    0  0.17354897277E+02  0.37745743123E+02 -0.78136539021E+02  0.88494363174E+02  0.00000000000E+00 0.  1.
        -11    1    3    3    0    0  0.28154721114E+02 -0.54601803498E+02 -0.27928805451E+03  0.28596479269E+03  0.00000000000E+00 0. -1.
         11    1    3    3    0    0 -0.25773122391E+02  0.23993280551E+02 -0.16291757044E+03  0.16667953116E+03  0.00000000000E+00 0.  1.
          4    1    1    2  501    0 -0.16037344251E+02  0.34868569951E+02 -0.28076467421E+03  0.28337575032E+03  0.00000000000E+00 0. -1.
<scales pt_clust_5="13000.00000" pt_clust_6="13000.00000" pt_clust_7="13000.00000" pt_clust_8="13000.00000" pt_clust_9="38.37988"></scales>
<clustering>
<clus scale="   38.380">  1  9  2 -1</clus>
<clus scale="   83.735">  5  6 -1 -1</clus>
<clus scale="   86.212">  1  5  2 -1</clus>
<clus scale="   91.643">  7  8 -1 -1</clus>
<clus scale="   38.380">  1  5  2 -1</clus>
</clustering>
</event>
<event>
 9    1  0.7835476E-005  0.1688172E+03  0.7546771E-02  0.1180553E+00
         21   -1    0    0  501  502  0.00000000000E+00  0.00000000000E+00  0.36778281014E+02  0.36778281014E+02  0.00000000000E+00 0. -1.
          1   -1    0    0  502    0 -0.00000000000E+00 -0.00000000000E+00 -0.10617008965E+04  0.10617008965E+04  0.00000000000E+00 0. -1.
        -24    2    1    2    0    0 -0.12031862130E+03  0.19030079364E+02 -0.32126796914E+03  0.35287072152E+03  0.80410966650E+02 0.  0.
         23    2    1    2    0    0  0.16664262592E+03 -0.27708481496E+01 -0.47120978441E+03  0.50803554120E+03  0.91016524995E+02 0.  0.
         13    1    3    3    0    0 -0.12572638349E+03  0.32706920655E+02 -0.27158990943E+03  0.30106136429E+03  0.00000000000E+00 0. -1.
        -14    1    3    3    0    0  0.54077621948E+01 -0.13676841291E+02 -0.49678059711E+02  0.51809357228E+02  0.00000000000E+00 0.  1.
        -13    1    4    4    0    0  0.53340425238E+02 -0.36872129842E+02 -0.10728553053E+03  0.12535924372E+03  0.00000000000E+00 0.  1.
         13    1    4    4    0    0  0.11330220069E+03  0.34101281692E+02 -0.36392425388E+03  0.38267629748E+03  0.00000000000E+00 0. -1.
          2    1    1    2  501    0 -0.46324004625E+02 -0.16259231214E+02 -0.23244486190E+03  0.23757291476E+03  0.00000000000E+00 0. -1.
<scales pt_clust_5="13000.00000" pt_clust_6="13000.00000" pt_clust_7="13000.00000" pt_clust_8="13000.00000" pt_clust_9="49.09459"></scales>
<clustering>
<clus scale="   49.095">  1  9  2 -1</clus>
<clus scale="   80.411">  5  6 -1 -1</clus>
<clus scale="   91.017">  7  8 -1 -1</clus>
<clus scale="  163.344">  2  5  1 -1</clus>
<clus scale="   49.095">  1  5  2 -1</clus>
</clustering>
</event>
<event>
 9    1  0.7835476E-005  0.1074348E+03  0.7546771E-02  0.1269346E+00
         21   -1    0    0  501  502  0.00000000000E+00  0.00000000000E+00  0.14541952779E+03  0.14541952779E+03  0.00000000000E+00 0. -1.
          3   -1    0    0  502    0 -0.00000000000E+00 -0.00000000000E+00 -0.15062720483E+03  0.15062720483E+03  0.00000000000E+00 0. -1.
        -24    2    1    2    0    0 -0.30495898154E+02  0.59507238439E+02 -0.67852920190E+02  0.12450524088E+03  0.80164986108E+02 0.  0.
         23    2    1    2    0    0  0.49849353852E+02 -0.95456957291E+01  0.56450853671E+02  0.11760558108E+03  0.89823690838E+02 0.  0.
         11    1    3    3    0    0 -0.20776875869E+02  0.66117817043E+02 -0.81176871327E+02  0.10673766317E+03  0.00000000000E+00 0. -1.
        -12    1    3    3    0    0 -0.97190222853E+01 -0.66105786039E+01  0.13323951137E+02  0.17767577707E+02  0.00000000000E+00 0.  1.
        -13    1    4    4    0    0  0.74229648272E+02 -0.51027456537E+01  0.27087016107E+02  0.79181974827E+02  0.00000000000E+00 0.  1.
         13    1    4    4    0    0 -0.24380294421E+02 -0.44429500754E+01  0.29363837564E+02  0.38423606258E+02  0.00000000000E+00 0. -1.
          4    1    1    2  501    0 -0.19353455697E+02 -0.49961542710E+02  0.61943894786E+01  0.53935910657E+02  0.00000000000E+00 0. -1.
<scales pt_clust_5="13000.00000" pt_clust_6="13000.00000" pt_clust_7="13000.00000" pt_clust_8="13000.00000" pt_clust_9="53.57903"></scales>
<clustering>
<clus scale="   53.579">  1  9  2 -1</clus>
<clus scale="   80.165">  5  6 -1 -1</clus>
<clus scale="   89.824">  7  8 -1 -1</clus>
<clus scale="   99.501">  2  5  1 -1</clus>
<clus scale="   53.579">  1  5  2 -1</clus>
</clustering>
</event>
<event>
 9    1  0.1142303E-004  0.1092678E+03  0.7546771E-02  0.1268025E+00
         21   -1    0    0  501  502  0.00000000000E+00  0.00000000000E+00  0.35144350410E+03  0.35144350410E+03  0.00000000000E+00 0. -1.
          1   -1    0    0  502    0 -0.00000000000E+00 -0.00000000000E+00 -0.20055983314E+03  0.20055983314E+03  0.00000000000E+00 0. -1.
         23    2    1    2    0    0 -0.53262695222E+02 -0.29848768004E+02 -0.16346900384E+03  0.19851163208E+03  0.94640843189E+02 0.  0.
        -24    2    1    2    0    0  0.22561498990E+02 -0.52665029986E+01  0.83857073628E+02  0.11832396106E+03  0.80198464280E+02 0.  0.
         11    1    4    4    0    0 -0.12591824920E+02 -0.34931647254E+02  0.32124918147E+02  0.49099739313E+02  0.00000000000E+00 0. -1.
        -12    1    4    4    0    0  0.35153323910E+02  0.29665144255E+02  0.51732155481E+02  0.69224221746E+02  0.00000000000E+00 0.  1.
        -13    1    3    3    0    0  0.11416716819E+02 -0.18814030933E+02  0.38308603693E+00  0.22010359783E+02  0.00000000000E+00 0.  1.
         13    1    3    3    0    0 -0.64679412041E+02 -0.11034737071E+02 -0.16385208988E+03  0.17650127229E+03  0.00000000000E+00 0. -1.
          2    1    1    2  501    0  0.30701196232E+02  0.35115271003E+02  0.23049560117E+03  0.23516774410E+03  0.00000000000E+00 0. -1.
<scales pt_clust_5="13000.00000" pt_clust_6="13000.00000" pt_clust_7="13000.00000" pt_clust_8="13000.00000" pt_clust_9="46.64382"></scales>
<clustering>
<clus scale="   46.644">  1  9  2 -1</clus>
<clus scale="   80.198">  5  6 -1 -1</clus>
<clus scale="   94.641">  7  8 -1 -1</clus>
<clus scale="   97.028">  1  5  2 -1</clus>
<clus scale="   46.644">  1  5  2 -1</clus>
</clustering>
</event>
<event>
 9    1  0.7835476E-005  0.1945770E+03  0.7546771E-02  0.1167984E+00
          1   -1    0    0  502    0 -0.00000000000E+00  0.00000000000E+00  0.94626765949E+03  0.94626765949E+03  0.00000000000E+00 0. -1.
         21   -1    0    0  501  502  0.00000000000E+00 -0.00000000000E+00 -0.90012676778E+02  0.90012676778E+02  0.00000000000E+00 0. -1.
        -24    2    1    2    0    0 -0.90203036432E+02  0.36634170629E+02  0.70648337712E+02  0.15852374768E+03  0.10324698891E+03 0.  0.
         23    2    1    2    0    0  0.22544303386E+03  0.14440762005E+02  0.53179681408E+03  0.58566424715E+03  0.95716570186E+02 0.  0.
         13    1    3    3    0    0 -0.23037910769E+02  0.11005588757E+02  0.81875200059E+02  0.85763726022E+02  0.00000000000E+00 0. -1.
        -14    1    3    3    0    0 -0.67165125663E+02  0.25628581872E+02 -0.11226862347E+02  0.72760021662E+02  0.00000000000E+00 0.  1.
        -11    1    4    4    0    0  0.54656023241E+02  0.44530297267E+02  0.18365761185E+03  0.19672403677E+03  0.00000000000E+00 0.  1.
         11    1    4    4    0    0  0.17078701062E+03 -0.30089535262E+02  0.34813920222E+03  0.38894021038E+03  0.00000000000E+00 0. -1.
          2    1    1    2  501    0 -0.13523999743E+03 -0.51074932634E+02  0.25380983092E+03  0.29209234143E+03  0.00000000000E+00 0. -1.
<scales pt_clust_5="13000.00000" pt_clust_6="13000.00000" pt_clust_7="13000.00000" pt_clust_8="13000.00000" pt_clust_9="169.40649"></scales>
<clustering>
<clus scale="   95.717">  7  8 -1 -1</clus>
<clus scale="  103.247">  5  6 -1 -1</clus>
<clus scale="  141.911">  1  5  2 -1</clus>
<clus scale="  169.406">  2  9  1 -1</clus>
<clus scale="  169.406">  2  5  1 -1</clus>
</clustering>
</event>
<event>
 9    1  0.7835476E-005  0.4104676E+03  0.7546771E-02  0.1040468E+00
         21   -1    0    0  501  502  0.00000000000E+00  0.00000000000E+00  0.18820591489E+03  0.18820591489E+03  0.00000000000E+00 0. -1.
          1   -1    0    0  502    0 -0.00000000000E+00 -0.00000000000E+00 -0.97650568268E+03  0.97650568268E+03  0.00000000000E+00 0. -1.
         23    2    1    2    0    0 -0.24787206437E+03 -0.30781280746E+03 -0.48001890412E+03  0.62842772903E+03  0.91181015380E+02 0.  0.
        -24    2    1    2    0    0  0.23972469766E+03  0.32994755846E+03 -0.28710467803E+03  0.50458595655E+03  0.76449783550E+02 0.  0.
         11    1    4    4    0    0  0.18933760299E+03  0.24761773766E+03 -0.17816219267E+03  0.35903347867E+03  0.00000000000E+00 0. -1.
        -12    1    4    4    0    0  0.50387094667E+02  0.82329820798E+02 -0.10894248535E+03  0.14555247788E+03  0.00000000000E+00 0.  1.
        -13    1    3    3    0    0 -0.24875912559E+03 -0.27260770375E+03 -0.45132882345E+03  0.58300409054E+03  0.00000000000E+00 0. -1.
         13    1    3    3    0    0  0.88706121608E+00 -0.35205103708E+02 -0.28690080670E+02  0.45423638489E+02  0.00000000000E+00 0.  1.
          2    1    1    2  501    0  0.81473667191E+01 -0.22134751002E+02 -0.21176185632E+02  0.31697911987E+02  0.00000000000E+00 0. -1.
<scales pt_clust_5="13000.00000" pt_clust_6="13000.00000" pt_clust_7="13000.00000" pt_clust_8="13000.00000" pt_clust_9="23.58658"></scales>
<clustering>
<clus scale="   23.587">  1  9  2 -1</clus>
<clus scale="   76.450">  5  6 -1 -1</clus>
<clus scale="   91.181">  7  8 -1 -1</clus>
<clus scale="  407.448">  1  5  2 -1</clus>
<clus scale="   23.587">  1  5  2 -1</clus>
</clustering>
</event>
<event>
 9    1  0.7835476E-005  0.9576844E+02  0.7546771E-02  0.1293728E+00
         21   -1    0    0  501  502  0.00000000000E+00  0.00000000000E+00  0.11398594742E+03  0.11398594742E+03  0.00000000000E+00 0.  1.
         -4   -1    0    0    0  501 -0.00000000000E+00 -0.00000000000E+00 -0.33006239471E+03  0.33006239471E+03  0.00000000000E+00 0.  1.
        -24    2    1    2    0    0  0.35035613053E+02  0.21522510672E+02 -0.20763582245E+03  0.22733526033E+03  0.82933546735E+02 0.  0.
         23    2    1    2    0    0 -0.18364494827E+02  0.37830157515E+02 -0.75740293237E+02  0.12544473697E+03  0.90727143267E+02 0.  0.
         11    1    3    3    0    0  0.42266452163E+02 -0.22548848509E+02 -0.10682342215E+03  0.11707325513E+03  0.00000000000E+00 0. -1.
        -12    1    3    3    0    0 -0.72308391098E+01  0.44071359181E+02 -0.10081240030E+03  0.11026200519E+03  0.00000000000E+00 0.  1.
        -11    1    4    4    0    0  0.33014069200E+01  0.62597189602E+02 -0.66232765228E+02  0.91192579871E+02  0.00000000000E+00 0.  1.
         11    1    4    4    0    0 -0.21665901748E+02 -0.24767032087E+02 -0.95075280088E+01  0.34252157097E+02  0.00000000000E+00 0. -1.
         -3    1    1    2    0  502 -0.16671118226E+02 -0.59352668187E+02  0.67299668398E+02  0.91268344843E+02  0.00000000000E+00 0.  1.
<scales pt_clust_5="13000.00000" pt_clust_6="13000.00000" pt_clust_7="13000.00000" pt_clust_8="13000.00000" pt_clust_9="61.64954"></scales>
<clustering>
<clus scale="   61.650">  1  9  2 -1</clus>
<clus scale="   82.934">  5  6 -1 -1</clus>
<clus scale="   88.420">  2  5  1 -1</clus>
<clus scale="   90.727">  7  8 -1 -1</clus>
<clus scale="   61.650">  1  5  2 -1</clus>
</clustering>
</event>
<event>
 9    1  0.7835476E-005  0.1317015E+03  0.7546771E-02  0.1227300E+00
         21   -1    0    0  501  502  0.00000000000E+00  0.00000000000E+00  0.32833789201E+03  0.32833789201E+03  0.00000000000E+00 0.  1.
         -2   -1    0    0    0  501 -0.00000000000E+00 -0.00000000000E+00 -0.15706017336E+03  0.15706017336E+03  0.00000000000E+00 0.  1.
        -24    2    1    2    0    0 -0.27300704559E+02  0.88470376339E+02 -0.86422583627E+02  0.15055642271E+03  0.81400476030E+02 0.  0.
         23    2    1    2    0    0  0.57972813855E+02 -0.10745486762E+03  0.25712807222E+03  0.29876510395E+03  0.90765335316E+02 0.  0.
         11    1    3    3    0    0  0.18377714057E+02  0.27309491587E+02  0.29164846564E+01  0.33046249219E+02  0.00000000000E+00 0. -1.
        -12    1    3    3    0    0 -0.45678418616E+02  0.61160884752E+02 -0.89339068284E+02  0.11751017349E+03  0.00000000000E+00 0.  1.
        -13    1    4    4    0    0 -0.68635007114E+01 -0.75785708932E+02  0.16533495704E+03  0.18200612446E+03  0.00000000000E+00 0.  1.
         13    1    4    4    0    0  0.64836314567E+02 -0.31669158688E+02  0.91793115180E+02  0.11675897950E+03  0.00000000000E+00 0. -1.
         -1    1    1    2    0  502 -0.30672109296E+02  0.18984491280E+02  0.57223005552E+00  0.36076538707E+02  0.00000000000E+00 0.  1.
<scales pt_clust_5="13000.00000" pt_clust_6="13000.00000" pt_clust_7="13000.00000" pt_clust_8="13000.00000" pt_clust_9="36.07202"></scales>
<clustering>
<clus scale="   36.072">  1  9  2 -1</clus>
<clus scale="   81.400">  5  6 -1 -1</clus>
<clus scale="   90.765">  7  8 -1 -1</clus>
<clus scale="  125.431">  2  5  1 -1</clus>
<clus scale="   36.072">  1  5  2 -1</clus>
</clustering>
</event>
<event>
 9    1  0.8178705E-005  0.1626011E+03  0.7546771E-02  0.1187495E+00
         21   -1    0    0  501  502  0.00000000000E+00  0.00000000000E+00  0.14525664378E+03  0.14525664378E+03  0.00000000000E+00 0. -1.
          1   -1    0    0  502    0 -0.00000000000E+00 -0.00000000000E+00 -0.45957395744E+03  0.45957395744E+03  0.00000000000E+00 0. -1.
        -24    2    1    2    0    0 -0.10143286877E+03 -0.94517168319E+02 -0.29125822618E+03  0.33243624057E+03  0.80376475122E+02 0.  0.
         23    2    1    2    0    0  0.75001672157E+02  0.79100238802E+02  0.81086240176E+02  0.16384695560E+03  0.91590108138E+02 0.  0.
         11    1    3    3    0    0 -0.81481596684E+02 -0.10634813693E+03 -0.26782072103E+03  0.29946137554E+03  0.00000000000E+00 0. -1.
        -12    1    3    3    0    0 -0.19951272090E+02  0.11830968609E+02 -0.23437505145E+02  0.32974865029E+02  0.00000000000E+00 0.  1.
        -11    1    4    4    0    0  0.28655983329E+02  0.90207362302E+02  0.56310142444E+02  0.11013339973E+03  0.00000000000E+00 0. -1.
         11    1    4    4    0    0  0.46345688828E+02 -0.11107123500E+02  0.24776097732E+02  0.53713555870E+02  0.00000000000E+00 0.  1.
          2    1    1    2  501    0  0.26431196616E+02  0.15416929517E+02 -0.10414532766E+03  0.10854740505E+03  0.00000000000E+00 0. -1.
<scales pt_clust_5="13000.00000" pt_clust_6="13000.00000" pt_clust_7="13000.00000" pt_clust_8="13000.00000" pt_clust_9="30.59887"></scales>
<clustering>
<clus scale="   30.599">  1  9  2 -1</clus>
<clus scale="   80.376">  5  6 -1 -1</clus>
<clus scale="   91.590">  7  8 -1 -1</clus>
<clus scale="  156.559">  2  5  1 -1</clus>
<clus scale="   30.599">  1  5  2 -1</clus>
</clustering>
</event>
<event>
 9    1  0.7835476E-005  0.2867498E+03  0.7546771E-02  0.1140504E+00
         21   -1    0    0  501  502  0.00000000000E+00  0.00000000000E+00  0.12934653996E+04  0.12934653996E+04  0.00000000000E+00 0. -1.
          1   -1    0    0  502    0 -0.00000000000E+00 -0.00000000000E+00 -0.92162965950E+02  0.92162965950E+02  0.00000000000E+00 0. -1.
        -24    2    1    2    0    0  0.16248205626E+02 -0.22746004886E+02  0.55134948139E+02  0.10099644589E+03  0.79868859082E+02 0.  0.
         23    2    1    2    0    0  0.24178172443E+03 -0.87244154184E+02  0.37152777438E+03  0.46077273148E+03  0.90601756214E+02 0.  0.
         11    1    3    3    0    0  0.26112006058E+02 -0.14859105247E+02 -0.12244860864E+02  0.32443281071E+02  0.00000000000E+00 0. -1.
        -12    1    3    3    0    0 -0.98638004321E+01 -0.78868996390E+01  0.67379809002E+02  0.68553164814E+02  0.00000000000E+00 0.  1.
        -13    1    4    4    0    0  0.19720529213E+03 -0.10398053745E+03  0.32565477848E+03  0.39465543726E+03  0.00000000000E+00 0. -1.
         13    1    4    4    0    0  0.44576432296E+02  0.16736383270E+02  0.45872995900E+02  0.66117294213E+02  0.00000000000E+00 0.  1.
          2    1    1    2  501    0 -0.25802993005E+03  0.10999015907E+03  0.77463971110E+03  0.82385918816E+03  0.00000000000E+00 0. -1.
<scales pt_clust_5="13000.00000" pt_clust_6="13000.00000" pt_clust_7="13000.00000" pt_clust_8="13000.00000" pt_clust_9="272.06023"></scales>
<clustering>
<clus scale="   79.869">  5  6 -1 -1</clus>
<clus scale="   84.619">  2  5  1 -1</clus>
<clus scale="   90.602">  7  8 -1 -1</clus>
<clus scale="  272.060">  1  9  2 -1</clus>
<clus scale="  272.060">  1  5  2 -1</clus>
</clustering>
</event>
<event>
 9    1  0.7835476E-005  0.1586460E+03  0.7546771E-02  0.1201392E+00
          3   -1    0    0  502    0 -0.00000000000E+00  0.00000000000E+00  0.13086520986E+03  0.13086520986E+03  0.00000000000E+00 0. -1.
         21   -1    0    0  501  502  0.00000000000E+00 -0.00000000000E+00 -0.42026879653E+03  0.42026879653E+03  0.00000000000E+00 0. -1.
         23    2    1    2    0    0  0.39985020074E+02  0.54247992546E+02  0.24609196375E+01  0.12430964824E+03  0.10442789854E+03 0.  0.
        -24    2    1    2    0    0  0.11693763803E+03  0.56634597582E+01 -0.15248785534E+03  0.20855857161E+03  0.80855709762E+02 0.  0.
         13    1    4    4    0    0  0.10707660052E+03 -0.15485749729E+02 -0.15020391405E+03  0.18511191917E+03  0.00000000000E+00 0. -1.
        -14    1    4    4    0    0  0.98610375132E+01  0.21149209487E+02 -0.22839412896E+01  0.23446652439E+02  0.00000000000E+00 0.  1.
        -13    1    3    3    0    0  0.14777365616E+02  0.29899409999E+02 -0.50669705633E+02  0.60661061002E+02  0.00000000000E+00 0.  1.
         13    1    3    3    0    0  0.25207654457E+02  0.24348582547E+02  0.53130625271E+02  0.63648587235E+02  0.00000000000E+00 0. -1.
          4    1    1    2  501    0 -0.15692265810E+03 -0.59911452304E+02 -0.13937665097E+03  0.21826578655E+03  0.00000000000E+00 0. -1.
<scales pt_clust_5="13000.00000" pt_clust_6="13000.00000" pt_clust_7="13000.00000" pt_clust_8="13000.00000" pt_clust_9="136.49512"></scales>
<clustering>
<clus scale="   80.856">  5  6 -1 -1</clus>
<clus scale="  104.428">  7  8 -1 -1</clus>
<clus scale="  124.285">  1  7  2 -1</clus>
<clus scale="  136.495">  2  9  1 -1</clus>
<clus scale="  136.495">  2  5  1 -1</clus>
</clustering>
</event>
<event>
 9    1  0.7835476E-005  0.1377089E+03  0.7546771E-02  0.1228864E+00
         21   -1    0    0  501  502  0.00000000000E+00  0.00000000000E+00  0.30380344842E+03  0.30380344842E+03  0.00000000000E+00 0.  1.
          3   -1    0    0  502    0 -0.00000000000E+00 -0.00000000000E+00 -0.11771912810E+03  0.11771912810E+03  0.00000000000E+00 0. -1.
        -24    2    1    2    0    0  0.55841012098E+02 -0.51809127325E+02 -0.52477516914E+02  0.12304321250E+03  0.81137772053E+02 0.  0.
         23    2    1    2    0    0 -0.22573544586E+02  0.97709001521E+01  0.19213093986E+03  0.22755852668E+03  0.11943010344E+03 0.  0.
         11    1    3    3    0    0  0.59206726304E+02  0.17269558396E-01 -0.31125878368E+02  0.66889887442E+02  0.00000000000E+00 0. -1.
        -12    1    3    3    0    0 -0.33657142062E+01 -0.51826396883E+02 -0.21351638546E+02  0.56153325054E+02  0.00000000000E+00 0.  1.
        -11    1    4    4    0    0  0.49141560443E+01  0.36203737866E+02  0.53512035225E+01  0.36925532417E+02  0.00000000000E+00 0. -1.
         11    1    4    4    0    0 -0.27487700631E+02 -0.26432837714E+02  0.18677973633E+03  0.19063299426E+03  0.00000000000E+00 0.  1.
          4    1    1    2  501    0 -0.33267467511E+02  0.42038227173E+02  0.46430897380E+02  0.70920837347E+02  0.00000000000E+00 0. -1.
<scales pt_clust_5="13000.00000" pt_clust_6="13000.00000" pt_clust_7="13000.00000" pt_clust_8="13000.00000" pt_clust_9="53.60911"></scales>
<clustering>
<clus scale="   53.609">  1  9  2 -1</clus>
<clus scale="   81.138">  5  6 -1 -1</clus>
<clus scale="  106.224">  2  5  1 -1</clus>
<clus scale="  119.430">  7  8 -1 -1</clus>
<clus scale="   53.609">  1  5  2 -1</clus>
</clustering>
</event>
<event>
 9    1  0.7835476E-005  0.1817622E+03  0.7546771E-02  0.1166389E+00
         -4   -1    0    0    0  501 -0.00000000000E+00  0.00000000000E+00  0.15239830511E+03  0.15239830511E+03  0.00000000000E+00 0.  1.
         21   -1    0    0  501  502  0.00000000000E+00 -0.00000000000E+00 -0.27004113557E+03  0.27004113557E+03  0.00000000000E+00 0. -1.
        -24    2    1    2    0    0 -0.68021228976E+02 -0.13553339693E+03  0.23290008928E+01  0.17736899751E+03  0.91968188828E+02 0.  0.
         23    2    1    2    0    0  0.52116631931E+02  0.15488173696E+03 -0.10657769629E+03  0.21666767353E+03  0.94242133028E+02 0.  0.
         13    1    3    3    0    0  0.70555079707E+01 -0.46952529781E+02 -0.30829393502E+02  0.56610703487E+02  0.00000000000E+00 0. -1.
        -14    1    3    3    0    0 -0.75076736947E+02 -0.88580867149E+02  0.33158394395E+02  0.12075829402E+03  0.00000000000E+00 0.  1.
        -13    1    4    4    0    0  0.79233498799E+02  0.10487196385E+03 -0.68557715509E+02  0.14824384132E+03  0.00000000000E+00 0.  1.
         13    1    4    4    0    0 -0.27116866868E+02  0.50009773113E+02 -0.38019980780E+02  0.68423832209E+02  0.00000000000E+00 0. -1.
         -3    1    1    2    0  502  0.15904597045E+02 -0.19348340033E+02 -0.13394135062E+02  0.28402769641E+02  0.00000000000E+00 0.  1.
<scales pt_clust_5="13000.00000" pt_clust_6="13000.00000" pt_clust_7="13000.00000" pt_clust_8="13000.00000" pt_clust_9="25.04625"></scales>
<clustering>
<clus scale="   25.046">  2  9  1 -1</clus>
<clus scale="   91.968">  5  6 -1 -1</clus>
<clus scale="   94.242">  7  8 -1 -1</clus>
<clus scale="  180.594">  1  5  2 -1</clus>
<clus scale="   25.046">  2  5  1 -1</clus>
</clustering>
</event>
<event>
 9    1  0.7835476E-005  0.9374323E+02  0.7546771E-02  0.1298535E+00
         21   -1    0    0  501  502  0.00000000000E+00  0.00000000000E+00  0.13850454855E+03  0.13850454855E+03  0.00000000000E+00 0. -1.
         -4   -1    0    0    0  501 -0.00000000000E+00 -0.00000000000E+00 -0.15480441514E+03  0.15480441514E+03  0.00000000000E+00 0.  1.
        -24    2    1    2    0    0  0.12315557323E+02  0.10740766737E+02 -0.59656885988E+02  0.10396854912E+03  0.83567207319E+02 0.  0.
         23    2    1    2    0    0 -0.57428878989E+02  0.16756190860E+02  0.70504207380E+02  0.12994122026E+03  0.91296393082E+02 0.  0.
         11    1    3    3    0    0 -0.14377545778E+02 -0.26017670349E+02 -0.95439262956E+00  0.29741282055E+02  0.00000000000E+00 0. -1.
        -12    1    3    3    0    0  0.26693103101E+02  0.36758437086E+02 -0.58702493358E+02  0.74227267070E+02  0.00000000000E+00 0.  1.
        -13    1    4    4    0    0 -0.81553414744E+02  0.48264553467E+01  0.47266570903E+02  0.94384229893E+02  0.00000000000E+00 0. -1.
         13    1    4    4    0    0  0.24124535755E+02  0.11929735514E+02  0.23237636476E+02  0.35556990365E+02  0.00000000000E+00 0.  1.
         -3    1    1    2    0  502  0.45113321666E+02 -0.27496957598E+02 -0.27147187981E+02  0.59399194306E+02  0.00000000000E+00 0.  1.
<scales pt_clust_5="13000.00000" pt_clust_6="13000.00000" pt_clust_7="13000.00000" pt_clust_8="13000.00000" pt_clust_9="52.83273"></scales>
<clustering>
<clus scale="   52.833">  1  9  2 -1</clus>
<clus scale="   83.567">  5  6 -1 -1</clus>
<clus scale="   86.234">  2  5  1 -1</clus>
<clus scale="   91.296">  7  8 -1 -1</clus>
<clus scale="   52.833">  1  5  2 -1</clus>
</clustering>
</event>
<event>
 9    1  0.7835476E-005  0.1263410E+03  0.7546771E-02  0.1236631E+00
         21   -1    0    0  501  502  0.00000000000E+00  0.00000000000E+00  0.10761852853E+04  0.10761852853E+04  0.00000000000E+00 0. -1.
          1   -1    0    0  502    0 -0.00000000000E+00 -0.00000000000E+00 -0.26109390520E+02  0.26109390520E+02  0.00000000000E+00 0. -1.
         23    2    1    2    0    0  0.82941222954E+02  0.52706145908E+02  0.32979316178E+03  0.35638097785E+03  0.92664381174E+02 0.  0.
        -24    2    1    2    0    0 -0.84383732633E+02  0.22748263982E+02  0.43526521781E+03  0.45107402497E+03  0.79836509944E+02 0.  0.
         11    1    4    4    0    0 -0.91589472376E+02  0.36075865465E+02  0.40966985767E+03  0.42133062054E+03  0.00000000000E+00 0. -1.
        -12    1    4    4    0    0  0.72057397430E+01 -0.13327601483E+02  0.25595360142E+02  0.29743404434E+02  0.00000000000E+00 0.  1.
        -11    1    3    3    0    0  0.12860708967E+02  0.22596512263E+02  0.10394106356E+02  0.28000672287E+02  0.00000000000E+00 0.  1.
         11    1    3    3    0    0  0.70080513988E+02  0.30109633645E+02  0.31939905542E+03  0.32838030557E+03  0.00000000000E+00 0. -1.
          2    1    1    2  501    0  0.14425096789E+01 -0.75454409890E+02  0.28501751516E+03  0.29483967297E+03  0.00000000000E+00 0. -1.
<scales pt_clust_5="13000.00000" pt_clust_6="13000.00000" pt_clust_7="13000.00000" pt_clust_8="13000.00000" pt_clust_9="75.46820"></scales>
<clustering>
<clus scale="   75.468">  1  9  2 -1</clus>
<clus scale="   79.837">  5  6 -1 -1</clus>
<clus scale="   92.664">  7  8 -1 -1</clus>
<clus scale="  117.257">  1  5  2 -1</clus>
<clus scale="   75.468">  1  5  2 -1</clus>
</clustering>
</event>
<event>
 9    1  0.7835476E-005  0.9652625E+02  0.7546771E-02  0.1293104E+00
         21   -1    0    0  501  502  0.00000000000E+00  0.00000000000E+00  0.32026722879E+03  0.32026722879E+03  0.00000000000E+00 0.  1.
         -4   -1    0    0    0  501 -0.00000000000E+00 -0.00000000000E+00 -0.10284953380E+03  0.10284953380E+03  0.00000000000E+00 0.  1.
        -24    2    1    2    0    0  0.19899401026E+02 -0.24379520014E+02 -0.47856027610E+02  0.97825849067E+02  0.79305423583E+02 0.  0.
         23    2    1    2    0    0 -0.71989434924E+02  0.17730642700E+02  0.10456909362E+03  0.15622419008E+03  0.89299763695E+02 0.  0.
         11    1    3    3    0    0  0.14434780061E+01 -0.49979723487E+02 -0.14848592480E+02  0.52158768076E+02  0.00000000000E+00 0. -1.
        -12    1    3    3    0    0  0.18455923020E+02  0.25600203472E+02 -0.33007435130E+02  0.45667080991E+02  0.00000000000E+00 0.  1.
        -13    1    4    4    0    0 -0.29891612429E+02 -0.31933166513E+02  0.16602551377E+02  0.46785471349E+02  0.00000000000E+00 0.  1.
         13    1    4    4    0    0 -0.42097822495E+02  0.49663809213E+02  0.87966542239E+02  0.10943871873E+03  0.00000000000E+00 0. -1.
         -3    1    1    2    0  502  0.52090033898E+02  0.66488773148E+01  0.16070462898E+03  0.16906672345E+03  0.00000000000E+00 0.  1.
<scales pt_clust_5="13000.00000" pt_clust_6="13000.00000" pt_clust_7="13000.00000" pt_clust_8="13000.00000" pt_clust_9="52.51266"></scales>
<clustering>
<clus scale="   52.513">  1  9  2 -1</clus>
<clus scale="   79.305">  5  6 -1 -1</clus>
<clus scale="   87.363">  2  5  1 -1</clus>
<clus scale="   89.300">  7  8 -1 -1</clus>
<clus scale="   52.513">  1  5  2 -1</clus>
</clustering>
</event>
<event>
 9    1  0.7835476E-005  0.4449890E+03  0.7546771E-02  0.1029358E+00
         21   -1    0    0  501  502  0.00000000000E+00  0.00000000000E+00  0.69544526509E+03  0.69544526509E+03  0.00000000000E+00 0. -1.
         -4   -1    0    0    0  501 -0.00000000000E+00 -0.00000000000E+00 -0.42121202666E+03  0.42121202666E+03  0.00000000000E+00 0.  1.
         23    2    1    2    0    0 -0.36152936485E+03 -0.17245001238E+03  0.67516349981E+02  0.41637837571E+03  0.91487735917E+02 0.  0.
        -24    2    1    2    0    0  0.47364657351E+03  0.15524037194E+03  0.26739669848E+03  0.57163802228E+03  0.82634039410E+02 0.  0.
         11    1    4    4    0    0  0.25479685080E+03  0.12595920238E+03  0.15866807875E+03  0.32551914698E+03  0.00000000000E+00 0. -1.
        -12    1    4    4    0    0  0.21884972272E+03  0.29281169558E+02  0.10872861974E+03  0.24611887529E+03  0.00000000000E+00 0.  1.
        -13    1    3    3    0    0 -0.13364284017E+03 -0.11385665985E+03  0.29555404246E+02  0.17803727037E+03  0.00000000000E+00 0.  1.
         13    1    3    3    0    0 -0.22788652468E+03 -0.58593352529E+02  0.37960945735E+02  0.23834110533E+03  0.00000000000E+00 0. -1.
         -3    1    1    2    0  502 -0.11211720867E+03  0.17209640441E+02 -0.60679810034E+02  0.12864089377E+03  0.00000000000E+00 0.  1.
<scales pt_clust_5="13000.00000" pt_clust_6="13000.00000" pt_clust_7="13000.00000" pt_clust_8="13000.00000" pt_clust_9="113.43039"></scales>
<clustering>
<clus scale="   82.634">  5  6 -1 -1</clus>
<clus scale="   91.488">  7  8 -1 -1</clus>
<clus scale="  113.430">  1  9  2 -1</clus>
<clus scale="  443.253">  1  5  2 -1</clus>
<clus scale="  113.430">  1  5  2 -1</clus>
</clustering>
</event>
<event>
 9    1  0.7835476E-005  0.2009760E+03  0.7546771E-02  0.1150139E+00
         21   -1    0    0  501  502  0.00000000000E+00  0.00000000000E+00  0.43568688255E+03  0.43568688255E+03  0.00000000000E+00 0.  1.
          1   -1    0    0  502    0 -0.00000000000E+00 -0.00000000000E+00 -0.15927744011E+03  0.15927744011E+03  0.00000000000E+00 0. -1.
         23    2    1    2    0    0  0.13396643662E+03 -0.12831293943E+03 -0.35597294320E+02  0.21080480145E+03  0.93596369523E+02 0.  0.
        -24    2    1    2    0    0 -0.12329201662E+03  0.98940298380E+02  0.19760815197E+03  0.26556891666E+03  0.80546655823E+02 0.  0.
         11    1    4    4    0    0 -0.67334608126E+02  0.84806630463E+02  0.17007654669E+03  0.20162377280E+03  0.00000000000E+00 0. -1.
        -12    1    4    4    0    0 -0.55957408495E+02  0.14133667917E+02  0.27531605275E+02  0.63945143860E+02  0.00000000000E+00 0.  1.
        -11    1    3    3    0    0  0.13891706287E+03 -0.97312138462E+02 -0.93214731931E+01  0.16986610171E+03  0.00000000000E+00 0.  1.
         11    1    3    3    0    0 -0.49506262485E+01 -0.31000800965E+02 -0.26275821126E+02  0.40938699743E+02  0.00000000000E+00 0. -1.
          2    1    1    2  501    0 -0.10674419997E+02  0.29372641047E+02  0.11439858480E+03  0.11859060455E+03  0.00000000000E+00 0. -1.
<scales pt_clust_5="13000.00000" pt_clust_6="13000.00000" pt_clust_7="13000.00000" pt_clust_8="13000.00000" pt_clust_9="31.25212"></scales>
<clustering>
<clus scale="   31.252">  1  9  2 -1</clus>
<clus scale="   80.547">  5  6 -1 -1</clus>
<clus scale="   93.596">  7  8 -1 -1</clus>
<clus scale="  195.240">  1  5  2 -1</clus>
<clus scale="   31.252">  1  5  2 -1</clus>
</clustering>
</event>
<event>
 9    1  0.7835476E-005  0.1553221E+03  0.7546771E-02  0.1196250E+00
         -2   -1    0    0    0  501 -0.00000000000E+00  0.00000000000E+00  0.39648845723E+03  0.39648845723E+03  0.00000000000E+00 0.  1.
         21   -1    0    0  501  502  0.00000000000E+00 -0.00000000000E+00 -0.42388207817E+03  0.42388207817E+03  0.00000000000E+00 0. -1.
        -24    2    1    2    0    0 -0.12239890093E+03  0.15054961051E+02  0.29461322646E+03  0.32942686214E+03  0.80727699682E+02 0.  0.
         23    2    1    2    0    0  0.14006220588E+03 -0.41909059263E+02 -0.38387087037E+03  0.42122787683E+03  0.93286056472E+02 0.  0.
         13    1    3    3    0    0 -0.12169554117E+03  0.24779599859E+02  0.20791963178E+03  0.24218671844E+03  0.00000000000E+00 0. -1.
        -14    1    3    3    0    0 -0.70335975995E+00 -0.97246388074E+01  0.86693594675E+02  0.87240143699E+02  0.00000000000E+00 0.  1.
        -11    1    4    4    0    0  0.73715127588E+02 -0.17581245336E+02 -0.83955812052E+02  0.11309994960E+03  0.00000000000E+00 0.  1.
         11    1    4    4    0    0  0.66347078289E+02 -0.24327813927E+02 -0.29991505832E+03  0.30812792722E+03  0.00000000000E+00 0. -1.
         -1    1    1    2    0  502 -0.17663304946E+02  0.26854098211E+02  0.61864022979E+02  0.69715796428E+02  0.00000000000E+00 0.  1.
<scales pt_clust_5="13000.00000" pt_clust_6="13000.00000" pt_clust_7="13000.00000" pt_clust_8="13000.00000" pt_clust_9="32.14243"></scales>
<clustering>
<clus scale="   32.142">  2  9  1 -1</clus>
<clus scale="   80.728">  5  6 -1 -1</clus>
<clus scale="   93.286">  7  8 -1 -1</clus>
<clus scale="  148.120">  1  5  2 -1</clus>
<clus scale="   32.142">  2  5  1 -1</clus>
</clustering>
</event>
<event>
 9    1  0.7835476E-005  0.1574709E+03  0.7546771E-02  0.1215283E+00
         -4   -1    0    0    0  501 -0.00000000000E+00  0.00000000000E+00  0.12552299912E+04  0.12552299912E+04  0.00000000000E+00 0.  1.
         21   -1    0    0  501  502  0.00000000000E+00 -0.00000000000E+00 -0.68292390913E+02  0.68292390913E+02  0.00000000000E+00 0.  1.
        -24    2    1    2    0    0  0.17119268270E+02  0.48027854754E+02  0.75063254560E+03  0.75654389646E+03  0.79433648937E+02 0.  0.
         23    2    1    2    0    0  0.85825939015E+02  0.40686683601E+02  0.40732244520E+03  0.42802534005E+03  0.90953940690E+02 0.  0.
         13    1    3    3    0    0 -0.13375396154E+02  0.18423770445E+02  0.53832630060E+02  0.58449025645E+02  0.00000000000E+00 0. -1.
        -14    1    3    3    0    0  0.30494664424E+02  0.29604084309E+02  0.69679991554E+03  0.69809487081E+03  0.00000000000E+00 0.  1.
        -13    1    4    4    0    0  0.11703595636E+02  0.34262108677E+02  0.43135477792E+02  0.56316389144E+02  0.00000000000E+00 0. -1.
         13    1    4    4    0    0  0.74122343379E+02  0.64245749243E+01  0.36418696741E+03  0.37170895090E+03  0.00000000000E+00 0.  1.
         -3    1    1    2    0  502 -0.10294520729E+03 -0.88714538355E+02  0.28982609479E+02  0.13895314560E+03  0.00000000000E+00 0.  1.
<scales pt_clust_5="13000.00000" pt_clust_6="13000.00000" pt_clust_7="13000.00000" pt_clust_8="13000.00000" pt_clust_9="128.54747"></scales>
<clustering>
<clus scale="   79.434">  5  6 -1 -1</clus>
<clus scale="   90.954">  7  8 -1 -1</clus>
<clus scale="   94.390">  1  5  2 -1</clus>
<clus scale="  128.547">  2  9  1 -1</clus>
<clus scale="  128.547">  2  5  1 -1</clus>
</clustering>
</event>
<event>
 9    1  0.7835476E-005  0.4784860E+03  0.7546771E-02  0.1019709E+00
         21   -1    0    0  501  502  0.00000000000E+00  0.00000000000E+00  0.29743508699E+03  0.29743508699E+03  0.00000000000E+00 0. -1.
          1   -1    0    0  502    0 -0.00000000000E+00 -0.00000000000E+00 -0.10860497361E+04  0.10860497361E+04  0.00000000000E+00 0. -1.
         23    2    1    2    0    0  0.45406748685E+03 -0.57817724258E+02 -0.46458629504E+03  0.65842233540E+03  0.90329255290E+02 0.  0.
        -24    2    1    2    0    0 -0.46137223540E+03  0.19739017669E+03 -0.23638139334E+03  0.56009031262E+03  0.77445295053E+02 0.  0.
         11    1    4    4    0    0 -0.15105279564E+03  0.86520663811E+02 -0.11634866026E+03  0.20937951925E+03  0.00000000000E+00 0. -1.
        -12    1    4    4    0    0 -0.31031943976E+03  0.11086951288E+03 -0.12003273308E+03  0.35071079337E+03  0.00000000000E+00 0.  1.
        -11    1    3    3    0    0  0.10505068544E+03 -0.10780116955E+02 -0.57856782637E+02  0.12041289270E+03  0.00000000000E+00 0.  1.
         11    1    3    3    0    0  0.34901680141E+03 -0.47037607303E+02 -0.40672951241E+03  0.53800944270E+03  0.00000000000E+00 0. -1.
          2    1    1    2  501    0  0.73047485492E+01 -0.13957245243E+03 -0.87646960743E+02  0.16497217510E+03  0.00000000000E+00 0. -1.
<scales pt_clust_5="13000.00000" pt_clust_6="13000.00000" pt_clust_7="13000.00000" pt_clust_8="13000.00000" pt_clust_9="139.76347"></scales>
<clustering>
<clus scale="   77.445">  5  6 -1 -1</clus>
<clus scale="   90.329">  7  8 -1 -1</clus>
<clus scale="  139.763">  1  9  2 -1</clus>
<clus scale="  476.222">  1  5  2 -1</clus>
<clus scale="  139.763">  1  5  2 -1</clus>
</clustering>
</event>
<event>
 9    1  0.7835476E-005  0.9845124E+02  0.7546771E-02  0.1288110E+00
         21   -1    0    0  501  502  0.00000000000E+00  0.00000000000E+00  0.69661080991E+02  0.69661080991E+02  0.00000000000E+00 0.  1.
          1   -1    0    0  502    0 -0.00000000000E+00 -0.00000000000E+00 -0.30237871167E+03  0.30237871167E+03  0.00000000000E+00 0. -1.
        -24    2    1    2    0    0  0.40063523947E+02  0.14162967270E+02 -0.23241484622E+03  0.24948487499E+03  0.80127189609E+02 0.  0.
         23    2    1    2    0    0 -0.28026159026E+02 -0.32221558100E+02  0.84077916674E+01  0.99169345332E+02  0.89107652291E+02 0.  0.
         13    1    3    3    0    0  0.64092476753E+02  0.60083367651E+01 -0.18190195766E+03  0.19295664769E+03  0.00000000000E+00 0. -1.
        -14    1    3    3    0    0 -0.24028952806E+02  0.81546305048E+01 -0.50512888557E+02  0.56528227302E+02  0.00000000000E+00 0.  1.
        -11    1    4    4    0    0 -0.11949105554E+02  0.28364142867E+02  0.18154429985E+02  0.35733584373E+02  0.00000000000E+00 0. -1.
         11    1    4    4    0    0 -0.16077053472E+02 -0.60585700966E+02 -0.97466383172E+01  0.63435760959E+02  0.00000000000E+00 0.  1.
          2    1    1    2  501    0 -0.12037364921E+02  0.18058590830E+02 -0.87105761272E+01  0.23385572336E+02  0.00000000000E+00 0. -1.
<scales pt_clust_5="13000.00000" pt_clust_6="13000.00000" pt_clust_7="13000.00000" pt_clust_8="13000.00000" pt_clust_9="21.70278"></scales>
<clustering>
<clus scale="   21.703">  1  9  2 -1</clus>
<clus scale="   80.127">  5  6 -1 -1</clus>
<clus scale="   89.108">  7  8 -1 -1</clus>
<clus scale="   90.404">  2  5  1 -1</clus>
<clus scale="   21.703">  1  5  2 -1</clus>
</clustering>
</event>
<event>
 9    1  0.7835476E-005  0.2474670E+03  0.7546771E-02  0.1144760E+00
          3   -1    0    0  502    0 -0.00000000000E+00  0.00000000000E+00  0.10030067882E+03  0.10030067882E+03  0.00000000000E+00 0. -1.
         21   -1    0    0  501  502  0.00000000000E+00 -0.00000000000E+00 -0.12421339585E+04  0.12421339585E+04  0.00000000000E+00 0.  1.
        -24    2    1    2    0    0  0.65946103716E+02  0.60852561971E+02 -0.20630386955E+03  0.23809715747E+03  0.77955416172E+02 0.  0.
         23    2    1    2    0    0 -0.27723184111E+03  0.49844837113E+00 -0.24981629022E+03  0.38419298595E+03  0.91314453474E+02 0.  0.
         13    1    3    3    0    0  0.26492257146E+02  0.40813842927E+02 -0.31937195214E+02  0.58203040309E+02  0.00000000000E+00 0. -1.
        -14    1    3    3    0    0  0.39453846570E+02  0.20038719044E+02 -0.17436667434E+03  0.17989411716E+03  0.00000000000E+00 0.  1.
        -11    1    4    4    0    0 -0.25618605471E+03 -0.23478927559E+02 -0.23707677261E+03  0.34983989306E+03  0.00000000000E+00 0.  1.
         11    1    4    4    0    0 -0.21045786406E+02  0.23977375930E+02 -0.12739517616E+02  0.34353092889E+02  0.00000000000E+00 0. -1.
          4    1    1    2  501    0  0.21128573740E+03 -0.61351010342E+02 -0.68571311992E+03  0.72014449392E+03  0.00000000000E+00 0. -1.
<scales pt_clust_5="13000.00000" pt_clust_6="13000.00000" pt_clust_7="13000.00000" pt_clust_8="13000.00000" pt_clust_9="230.00342"></scales>
<clustering>
<clus scale="   77.955">  5  6 -1 -1</clus>
<clus scale="   91.314">  7  8 -1 -1</clus>
<clus scale="  118.865">  1  5  2 -1</clus>
<clus scale="  230.003">  2  9  1 -1</clus>
<clus scale="  230.003">  2  5  1 -1</clus>
</clustering>
</event>
<event>
 9    1  0.7835476E-005  0.3153947E+03  0.7546771E-02  0.1111251E+00
          1   -1    0    0  502    0 -0.00000000000E+00  0.00000000000E+00  0.80857609794E+03  0.80857609794E+03  0.00000000000E+00 0. -1.
         21   -1    0    0  501  502  0.00000000000E+00 -0.00000000000E+00 -0.20602383205E+03  0.20602383205E+03  0.00000000000E+00 0. -1.
         23    2    1    2    0    0 -0.92096590386E+02 -0.16900789134E+02  0.26863296191E+03  0.29894487634E+03  0.91852883620E+02 0.  0.
        -24    2    1    2    0    0 -0.23821522194E+03  0.10090836128E+03  0.24070506277E+03  0.36231094333E+03  0.80008143796E+02 0.  0.
         13    1    4    4    0    0 -0.24020038218E+03  0.93673992518E+02  0.21553018083E+03  0.33604210945E+03  0.00000000000E+00 0. -1.
        -14    1    4    4    0    0  0.19851602465E+01  0.72343687577E+01  0.25174881941E+02  0.26268833877E+02  0.00000000000E+00 0.  1.
        -13    1    3    3    0    0 -0.79326944675E+02 -0.49199036261E+02  0.22177566029E+03  0.24061951878E+03  0.00000000000E+00 0. -1.
         13    1    3    3    0    0 -0.12769645711E+02  0.32298247128E+02  0.46857301621E+02  0.58325357559E+02  0.00000000000E+00 0.  1.
          2    1    1    2  501    0  0.33031181232E+03 -0.84007572142E+02  0.93214241208E+02  0.35334411033E+03  0.00000000000E+00 0. -1.
<scales pt_clust_5="13000.00000" pt_clust_6="13000.00000" pt_clust_7="13000.00000" pt_clust_8="13000.00000" pt_clust_9="305.07793"></scales>
<clustering>
<clus scale="   80.008">  5  6 -1 -1</clus>
<clus scale="   91.853">  7  8 -1 -1</clus>
<clus scale="  131.165">  1  7  2 -1</clus>
<clus scale="  305.078">  2  9  1 -1</clus>
<clus scale="  305.078">  2  5  1 -1</clus>
</clustering>
</event>
<event>
 9    1  0.7835476E-005  0.1221052E+03  0.7546771E-02  0.1253584E+00
         21   -1    0    0  501  502  0.00000000000E+00  0.00000000000E+00  0.19376476859E+03  0.19376476859E+03  0.00000000000E+00 0. -1.
          1   -1    0    0  502    0 -0.00000000000E+00 -0.00000000000E+00 -0.25084554787E+03  0.25084554787E+03  0.00000000000E+00 0. -1.
         23    2    1    2    0    0  0.63360100917E+02  0.46630835275E+02 -0.19926317617E+03  0.23425946943E+03  0.94777362579E+02 0.  0.
        -24    2    1    2    0    0 -0.73517224236E+02 -0.17406426852E+02  0.33072975034E+02  0.96939652087E+02  0.50948096275E+02 0.  0.
         13    1    4    4    0    0 -0.11955226368E+02 -0.26204107200E+02  0.12927027890E+02  0.31570408958E+02  0.00000000000E+00 0. -1.
        -14    1    4    4    0    0 -0.61561997868E+02  0.87976803482E+01  0.20145947144E+02  0.65369243129E+02  0.00000000000E+00 0.  1.
        -13    1    3    3    0    0  0.54246158126E+02  0.75330035858E+02 -0.15645874711E+03  0.18192470838E+03  0.00000000000E+00 0. -1.
         13    1    3    3    0    0  0.91139427914E+01 -0.28699200583E+02 -0.42804429056E+02  0.52334761049E+02  0.00000000000E+00 0.  1.
          2    1    1    2  501    0  0.10157123319E+02 -0.29224408423E+02  0.10910942184E+03  0.11341119494E+03  0.00000000000E+00 0. -1.
<scales pt_clust_5="13000.00000" pt_clust_6="13000.00000" pt_clust_7="13000.00000" pt_clust_8="13000.00000" pt_clust_9="30.93919"></scales>
<clustering>
<clus scale="   30.939">  1  9  2 -1</clus>
<clus scale="   50.948">  5  6 -1 -1</clus>
<clus scale="   92.318">  1  5  2 -1</clus>
<clus scale="   94.777">  7  8 -1 -1</clus>
<clus scale="   30.939">  1  5  2 -1</clus>
</clustering>
</event>
<event>
 9    1  0.7835476E-005  0.1091354E+03  0.7546771E-02  0.1267370E+00
         21   -1    0    0  501  502  0.00000000000E+00  0.00000000000E+00  0.10691366655E+03  0.10691366655E+03  0.00000000000E+00 0.  1.
         -2   -1    0    0    0  501 -0.00000000000E+00 -0.00000000000E+00 -0.29317042688E+03  0.29317042688E+03  0.00000000000E+00 0.  1.
        -24    2    1    2    0    0 -0.11437528560E+02 -0.87673163094E+02 -0.84679849757E+02  0.14538399058E+03  0.78411907101E+02 0.  0.
         23    2    1    2    0    0  0.18092043794E+02 -0.22239002780E+01  0.27686032064E+02  0.97109897206E+02  0.91277313626E+02 0.  0.
         11    1    3    3    0    0 -0.14085713959E+02 -0.20472138308E+02  0.12013948370E+02  0.27601643793E+02  0.00000000000E+00 0. -1.
        -12    1    3    3    0    0  0.26481853992E+01 -0.67201024786E+02 -0.96693798126E+02  0.11778234679E+03  0.00000000000E+00 0.  1.
        -11    1    4    4    0    0 -0.28338235457E+02 -0.71408544957E+01  0.39321392209E+02  0.48992032791E+02  0.00000000000E+00 0.  1.
         11    1    4    4    0    0  0.46430279251E+02  0.49169542177E+01 -0.11635360145E+02  0.48117864415E+02  0.00000000000E+00 0. -1.
         -1    1    1    2    0  502 -0.66545152341E+01  0.89897063372E+02 -0.12926294264E+03  0.15759020564E+03  0.00000000000E+00 0.  1.
<scales pt_clust_5="13000.00000" pt_clust_6="13000.00000" pt_clust_7="13000.00000" pt_clust_8="13000.00000" pt_clust_9="90.14307"></scales>
<clustering>
<clus scale="   78.412">  5  6 -1 -1</clus>
<clus scale="   90.143">  1  9  2 -1</clus>
<clus scale="   91.277">  7  8 -1 -1</clus>
<clus scale="   98.628">  2  5  1 -1</clus>
<clus scale="   90.143">  1  5  2 -1</clus>
</clustering>
</event>
<event>
 9    1  0.7835476E-005  0.3169377E+03  0.7546771E-02  0.1135948E+00
         -2   -1    0    0    0  501 -0.00000000000E+00  0.00000000000E+00  0.14267866386E+04  0.14267866386E+04  0.00000000000E+00 0.  1.
         21   -1    0    0  501  502  0.00000000000E+00 -0.00000000000E+00 -0.85708053977E+02  0.85708053977E+02  0.00000000000E+00 0. -1.
        -24    2    1    2    0    0 -0.11489134542E+02  0.12346768613E+02  0.11281094019E+03  0.13275012448E+03  0.67910561877E+02 0.  0.
         23    2    1    2    0    0 -0.40468029191E+02 -0.30397117896E+03  0.50937288833E+03  0.60221385235E+03  0.95732155404E+02 0.  0.
         11    1    3    3    0    0 -0.13995321018E+02  0.29080568561E+02  0.11115907868E+03  0.11574925162E+03  0.00000000000E+00 0. -1.
        -12    1    3    3    0    0  0.25061864758E+01 -0.16733799948E+02  0.16518615102E+01  0.17000872854E+02  0.00000000000E+00 0.  1.
        -13    1    4    4    0    0 -0.35594667869E+02 -0.32223949125E+02  0.57615066912E+02  0.74999061416E+02  0.00000000000E+00 0.  1.
         13    1    4    4    0    0 -0.48733613216E+01 -0.27174722983E+03  0.45175782141E+03  0.52721479094E+03  0.00000000000E+00 0. -1.
         -1    1    1    2    0  502  0.51957163733E+02  0.29162441035E+03  0.71889475607E+03  0.77753071571E+03  0.00000000000E+00 0.  1.
<scales pt_clust_5="13000.00000" pt_clust_6="13000.00000" pt_clust_7="13000.00000" pt_clust_8="13000.00000" pt_clust_9="302.13404"></scales>
<clustering>
<clus scale="   67.911">  5  6 -1 -1</clus>
<clus scale="   69.974">  1  5  2 -1</clus>
<clus scale="   95.732">  7  8 -1 -1</clus>
<clus scale="  302.134">  2  9  1 -1</clus>
<clus scale="  302.134">  2  5  1 -1</clus>
</clustering>
</event>
<event>
 9    1  0.7835476E-005  0.1322101E+03  0.7546771E-02  0.1227888E+00
         21   -1    0    0  501  502  0.00000000000E+00  0.00000000000E+00  0.27134126754E+03  0.27134126754E+03  0.00000000000E+00 0.  1.
          1   -1    0    0  502    0 -0.00000000000E+00 -0.00000000000E+00 -0.13547690154E+03  0.13547690154E+03  0.00000000000E+00 0. -1.
        -24    2    1    2    0    0 -0.43860011035E+02 -0.67833159513E+02 -0.43055154184E+02  0.12255664642E+03  0.81494461054E+02 0.  0.
         23    2    1    2    0    0  0.63407576031E+02  0.11199243958E+03  0.91882323522E+02  0.18472447972E+03  0.95487930172E+02 0.  0.
         13    1    3    3    0    0 -0.25438659092E+02 -0.22687787561E+02 -0.61590340986E+02  0.70393402983E+02  0.00000000000E+00 0. -1.
        -14    1    3    3    0    0 -0.18421351943E+02 -0.45145371953E+02  0.18535186802E+02  0.52163243438E+02  0.00000000000E+00 0.  1.
        -13    1    4    4    0    0  0.85780115838E+02  0.10730245137E+03  0.77803827727E+02  0.15787805406E+03  0.00000000000E+00 0.  1.
         13    1    4    4    0    0 -0.22372539806E+02  0.46899882084E+01  0.14078495795E+02  0.26846425658E+02  0.00000000000E+00 0. -1.
          2    1    1    2  501    0 -0.19547564996E+02 -0.44159280068E+02  0.87037196666E+02  0.99537042939E+02  0.00000000000E+00 0. -1.
<scales pt_clust_5="13000.00000" pt_clust_6="13000.00000" pt_clust_7="13000.00000" pt_clust_8="13000.00000" pt_clust_9="48.29233"></scales>
<clustering>
<clus scale="   48.292">  1  9  2 -1</clus>
<clus scale="   81.494">  5  6 -1 -1</clus>
<clus scale="   95.488">  7  8 -1 -1</clus>
<clus scale="  122.486">  2  5  1 -1</clus>
<clus scale="   48.292">  1  5  2 -1</clus>
</clustering>
</event>
<event>
 9    1  0.7835476E-005  0.3834670E+03  0.7546771E-02  0.1049885E+00
          1   -1    0    0  502    0 -0.00000000000E+00  0.00000000000E+00  0.26894571514E+04  0.26894571514E+04  0.00000000000E+00 0. -1.
         21   -1    0    0  501  502  0.00000000000E+00 -0.00000000000E+00 -0.25371684826E+03  0.25371684826E+03  0.00000000000E+00 0. -1.
        -24    2    1    2    0    0 -0.17043239680E+03 -0.33511077777E+03  0.16790194701E+04  0.17224911133E+04  0.80763971174E+02 0.  0.
         23    2    1    2    0    0 -0.12920220649E+02  0.39770902951E+03  0.89426467635E+03  0.98308020901E+03  0.91640502556E+02 0.  0.
         11    1    3    3    0    0 -0.72016739654E+02 -0.13936926608E+03  0.88516042178E+03  0.89895449018E+03  0.00000000000E+00 0. -1.
        -12    1    3    3    0    0 -0.98415657150E+02 -0.19574151169E+03  0.79385904831E+03  0.82353662308E+03  0.00000000000E+00 0.  1.
        -13    1    4    4    0    0  0.28028704482E+01  0.12380187095E+03  0.18518995578E+03  0.22277809375E+03  0.00000000000E+00 0. -1.
         13    1    4    4    0    0 -0.15723091098E+02  0.27390715856E+03  0.70907472057E+03  0.76030211526E+03  0.00000000000E+00 0.  1.
          2    1    1    2  501    0  0.18335261745E+03 -0.62598251741E+02 -0.13754384334E+03  0.23760267736E+03  0.00000000000E+00 0. -1.
<scales pt_clust_5="13000.00000" pt_clust_6="13000.00000" pt_clust_7="13000.00000" pt_clust_8="13000.00000" pt_clust_9="193.74396"></scales>
<clustering>
<clus scale="   80.764">  5  6 -1 -1</clus>
<clus scale="   91.641">  7  8 -1 -1</clus>
<clus scale="  193.744">  2  9  1 -1</clus>
<clus scale="  381.014">  1  5  2 -1</clus>
<clus scale="  193.744">  2  5  1 -1</clus>
</clustering>
</event>
<event>
 9    1  0.7835476E-005  0.1888838E+03  0.7546771E-02  0.1160958E+00
         21   -1    0    0  501  502  0.00000000000E+00  0.00000000000E+00  0.12607031408E+03  0.12607031408E+03  0.00000000000E+00 0. -1.
          1   -1    0    0  502    0 -0.00000000000E+00 -0.00000000000E+00 -0.12239284014E+04  0.12239284014E+04  0.00000000000E+00 0. -1.
         23    2    1    2    0    0  0.99799475744E+02  0.15062103092E+03 -0.98046211677E+03  0.10012346644E+04  0.92294422180E+02 0.  0.
        -24    2    1    2    0    0 -0.59714076609E+02 -0.11237525866E+03 -0.19978248247E+03  0.24948104313E+03  0.78318458062E+02 0.  0.
         11    1    4    4    0    0  0.43354614476E+01 -0.58801273278E+02 -0.12137194107E+03  0.13493529577E+03  0.00000000000E+00 0. -1.
        -12    1    4    4    0    0 -0.64049538057E+02 -0.53573985385E+02 -0.78410541400E+02  0.11454574736E+03  0.00000000000E+00 0.  1.
        -11    1    3    3    0    0  0.66698072663E+02  0.27017433374E+02 -0.27488379910E+03  0.28414728155E+03  0.00000000000E+00 0.  1.
         11    1    3    3    0    0  0.33101403081E+02  0.12360359755E+03 -0.70557831767E+03  0.71708738281E+03  0.00000000000E+00 0. -1.
          2    1    1    2  501    0 -0.40085399134E+02 -0.38245772258E+02  0.82386511949E+02  0.99283007965E+02  0.00000000000E+00 0. -1.
<scales pt_clust_5="13000.00000" pt_clust_6="13000.00000" pt_clust_7="13000.00000" pt_clust_8="13000.00000" pt_clust_9="55.40378"></scales>
<clustering>
<clus scale="   55.404">  1  9  2 -1</clus>
<clus scale="   78.318">  5  6 -1 -1</clus>
<clus scale="   92.294">  7  8 -1 -1</clus>
<clus scale="  182.463">  1  5  2 -1</clus>
<clus scale="   55.404">  1  5  2 -1</clus>
</clustering>
</event>
<event>
 9    1  0.7835476E-005  0.1337089E+03  0.7546771E-02  0.1225424E+00
         -4   -1    0    0    0  501 -0.00000000000E+00  0.00000000000E+00  0.34899776649E+03  0.34899776649E+03  0.00000000000E+00 0.  1.
         21   -1    0    0  501  502  0.00000000000E+00 -0.00000000000E+00 -0.19051295263E+03  0.19051295263E+03  0.00000000000E+00 0.  1.
        -24    2    1    2    0    0 -0.94917340881E+02  0.33714182247E+02  0.24799061289E+03  0.27798313013E+03  0.75028853562E+02 0.  0.
         23    2    1    2    0    0  0.76280519145E+02 -0.65268530891E+02  0.29024092606E+02  0.13746170627E+03  0.89300750357E+02 0.  0.
         13    1    3    3    0    0 -0.10559249117E+03  0.40339566900E+02  0.22322320194E+03  0.25021121624E+03  0.00000000000E+00 0. -1.
        -14    1    3    3    0    0  0.10675150287E+02 -0.66253846533E+01  0.24767410951E+02  0.27771913882E+02  0.00000000000E+00 0.  1.
        -13    1    4    4    0    0  0.83003044058E+02 -0.38456339571E+02  0.48602320126E+02  0.10358851721E+03  0.00000000000E+00 0.  1.
         13    1    4    4    0    0 -0.67225249123E+01 -0.26812191320E+02 -0.19578227520E+02  0.33873189064E+02  0.00000000000E+00 0. -1.
         -3    1    1    2    0  502  0.18636821736E+02  0.31554348644E+02 -0.11852989164E+03  0.12406588272E+03  0.00000000000E+00 0.  1.
<scales pt_clust_5="13000.00000" pt_clust_6="13000.00000" pt_clust_7="13000.00000" pt_clust_8="13000.00000" pt_clust_9="36.64707"></scales>
<clustering>
<clus scale="   36.647">  2  9  1 -1</clus>
<clus scale="   75.029">  5  6 -1 -1</clus>
<clus scale="   89.301">  7  8 -1 -1</clus>
<clus scale="  124.631">  1  5  2 -1</clus>
<clus scale="   36.647">  2  5  1 -1</clus>
</clustering>
</event>
<event>
 9    1  0.7835476E-005  0.1226248E+03  0.7546771E-02  0.1243417E+00
          1   -1    0    0  502    0 -0.00000000000E+00  0.00000000000E+00  0.21586007554E+03  0.21586007554E+03  0.00000000000E+00 0. -1.
         21   -1    0    0  501  502  0.00000000000E+00 -0.00000000000E+00 -0.15517197068E+03  0.15517197068E+03  0.00000000000E+00 0. -1.
         23    2    1    2    0    0  0.85095041036E+02  0.24336462033E+02  0.84942364862E+02  0.15429147725E+03  0.93580047066E+02 0.  0.
        -24    2    1    2    0    0 -0.33179142058E+02 -0.80392830157E+02  0.32276084856E+02  0.12169712173E+03  0.78769163863E+02 0.  0.
         13    1    4    4    0    0 -0.31110236201E+02 -0.91408026632E+02  0.43439242438E+02  0.10587842987E+03  0.00000000000E+00 0. -1.
        -14    1    4    4    0    0 -0.20689058573E+01  0.11015196475E+02 -0.11163157583E+02  0.15818691856E+02  0.00000000000E+00 0.  1.
        -11    1    3    3    0    0  0.69473501428E+02 -0.26136976558E+02  0.36961263465E+02  0.82920708760E+02  0.00000000000E+00 0.  1.
         11    1    3    3    0    0  0.15621539608E+02  0.50473438591E+02  0.47981101398E+02  0.71370768486E+02  0.00000000000E+00 0. -1.
          2    1    1    2  501    0 -0.51915898978E+02  0.56056368123E+02 -0.56530344863E+02  0.95043447245E+02  0.00000000000E+00 0. -1.
<scales pt_clust_5="13000.00000" pt_clust_6="13000.00000" pt_clust_7="13000.00000" pt_clust_8="13000.00000" pt_clust_9="76.40404"></scales>
<clustering>
<clus scale="   76.404">  2  9  1 -1</clus>
<clus scale="   78.769">  5  6 -1 -1</clus>
<clus scale="   93.580">  7  8 -1 -1</clus>
<clus scale="  111.733">  2  5  1 -1</clus>
<clus scale="   76.404">  2  5  1 -1</clus>
</clustering>
</event>
<event>
 9    1  0.7835476E-005  0.1744096E+03  0.7546771E-02  0.1174495E+00
          1   -1    0    0  502    0 -0.00000000000E+00  0.00000000000E+00  0.45148712529E+03  0.45148712529E+03  0.00000000000E+00 0. -1.
         21   -1    0    0  501  502  0.00000000000E+00 -0.00000000000E+00 -0.14055029761E+03  0.14055029761E+03  0.00000000000E+00 0. -1.
         23    2    1    2    0    0 -0.16504929411E+03  0.87376370605E+02  0.24777391166E+03  0.32289529709E+03  0.89406722091E+02 0.  0.
        -24    2    1    2    0    0  0.11451526667E+03  0.20902937789E+02  0.44797166188E+02  0.14824796829E+03  0.80124870635E+02 0.  0.
         13    1    4    4    0    0  0.93084043299E+02  0.28657645326E+02 -0.65946281849E+00  0.97397816422E+02  0.00000000000E+00 0. -1.
        -14    1    4    4    0    0  0.21431223371E+02 -0.77547075376E+01  0.45456629006E+02  0.50850151866E+02  0.00000000000E+00 0.  1.
        -13    1    3    3    0    0 -0.39174786925E+02 -0.15391656554E+02  0.72888804584E+02  0.84168550278E+02  0.00000000000E+00 0.  1.
         13    1    3    3    0    0 -0.12587450719E+03  0.10276802716E+03  0.17488510708E+03  0.23872674681E+03  0.00000000000E+00 0. -1.
          2    1    1    2  501    0  0.50534027444E+02 -0.10827930839E+03  0.18365749829E+02  0.12089415752E+03  0.00000000000E+00 0. -1.
<scales pt_clust_5="13000.00000" pt_clust_6="13000.00000" pt_clust_7="13000.00000" pt_clust_8="13000.00000" pt_clust_9="119.49099"></scales>
<clustering>
<clus scale="   80.125">  5  6 -1 -1</clus>
<clus scale="   89.407">  7  8 -1 -1</clus>
<clus scale="  119.491">  2  9  1 -1</clus>
<clus scale="  169.839">  2  5  1 -1</clus>
<clus scale="  119.491">  2  5  1 -1</clus>
</clustering>
</event>
<event>
 9    1  0.7835476E-005  0.1396564E+03  0.7546771E-02  0.1215960E+00
          1   -1    0    0  502    0 -0.00000000000E+00  0.00000000000E+00  0.10071294495E+04  0.10071294495E+04  0.00000000000E+00 0. -1.
         21   -1    0    0  501  502  0.00000000000E+00 -0.00000000000E+00 -0.52322984404E+02  0.52322984404E+02  0.00000000000E+00 0. -1.
        -24    2    1    2    0    0  0.31241685308E+02  0.13029380479E+03  0.61644064024E+03  0.63598698636E+03  0.80795206589E+02 0.  0.
         23    2    1    2    0    0 -0.74129269675E+02 -0.45357329646E+02  0.29142916950E+03  0.31736832546E+03  0.90770354185E+02 0.  0.
         11    1    3    3    0    0 -0.20120609996E+02  0.74711333266E+02  0.37749326951E+03  0.38534113561E+03  0.00000000000E+00 0. -1.
        -12    1    3    3    0    0  0.51362295303E+02  0.55582471519E+02  0.23894737073E+03  0.25064585075E+03  0.00000000000E+00 0.  1.
        -13    1    4    4    0    0 -0.43290672251E+01 -0.21239740312E+02  0.59304913145E+01  0.22473053170E+02  0.00000000000E+00 0. -1.
         13    1    4    4    0    0 -0.69800202449E+02 -0.24117589334E+02  0.28549867818E+03  0.29489527229E+03  0.00000000000E+00 0.  1.
          2    1    1    2  501    0  0.42887584367E+02 -0.84936475139E+02  0.46936655391E+02  0.10609712212E+03  0.00000000000E+00 0. -1.
<scales pt_clust_5="13000.00000" pt_clust_6="13000.00000" pt_clust_7="13000.00000" pt_clust_8="13000.00000" pt_clust_9="95.15014"></scales>
<clustering>
<clus scale="   80.795">  5  6 -1 -1</clus>
<clus scale="   90.770">  7  8 -1 -1</clus>
<clus scale="   95.150">  2  9  1 -1</clus>
<clus scale="  133.389">  1  5  2 -1</clus>
<clus scale="   95.150">  2  5  1 -1</clus>
</clustering>
</event>
<event>
 9    1  0.7835476E-005  0.1589672E+03  0.7546771E-02  0.1193097E+00
         21   -1    0    0  501  502  0.00000000000E+00  0.00000000000E+00  0.22419243566E+03  0.22419243566E+03  0.00000000000E+00 0.  1.
          3   -1    0    0  502    0 -0.00000000000E+00 -0.00000000000E+00 -0.41399334682E+03  0.41399334682E+03  0.00000000000E+00 0. -1.
         23    2    1    2    0    0 -0.79208271099E+01 -0.12884353817E+03 -0.34406841453E+03  0.38036498285E+03  0.98137910447E+02 0.  0.
        -24    2    1    2    0    0  0.31286511871E+02  0.10278272972E+03  0.41581905005E+02  0.13982433765E+03  0.79237965790E+02 0.  0.
         11    1    4    4    0    0  0.37559116368E+02  0.28130439392E+02 -0.11124157462E+02  0.48226089640E+02  0.00000000000E+00 0. -1.
        -12    1    4    4    0    0 -0.62726044966E+01  0.74652290325E+02  0.52706062467E+02  0.91598248011E+02  0.00000000000E+00 0.  1.
        -11    1    3    3    0    0  0.38046745623E+02 -0.42867957387E+02 -0.76511839271E+02  0.95599572027E+02  0.00000000000E+00 0. -1.
         11    1    3    3    0    0 -0.45967572733E+02 -0.85975580788E+02 -0.26755657526E+03  0.28476541082E+03  0.00000000000E+00 0.  1.
          4    1    1    2  501    0 -0.23365684761E+02  0.26060808457E+02  0.11268559836E+03  0.11799646198E+03  0.00000000000E+00 0. -1.
<scales pt_clust_5="13000.00000" pt_clust_6="13000.00000" pt_clust_7="13000.00000" pt_clust_8="13000.00000" pt_clust_9="35.00173"></scales>
<clustering>
<clus scale="   35.002">  1  9  2 -1</clus>
<clus scale="   79.238">  5  6 -1 -1</clus>
<clus scale="   98.138">  7  8 -1 -1</clus>
<clus scale="  148.048">  1  5  2 -1</clus>
<clus scale="   35.002">  1  5  2 -1</clus>
</clustering>
</event>
<event>
 9    1  0.7835476E-005  0.1089177E+03  0.7546771E-02  0.1266184E+00
         -2   -1    0    0    0  501 -0.00000000000E+00  0.00000000000E+00  0.11387430718E+03  0.11387430718E+03  0.00000000000E+00 0.  1.
         21   -1    0    0  501  502  0.00000000000E+00 -0.00000000000E+00 -0.26620284887E+03  0.26620284887E+03  0.00000000000E+00 0.  1.
        -24    2    1    2    0    0  0.57925205849E+02  0.29527066556E+02  0.70372073509E+02  0.12519461803E+03  0.80587136209E+02 0.  0.
         23    2    1    2    0    0 -0.33928575106E+02 -0.19378928620E+02 -0.17928920003E+03  0.20425276459E+03  0.89709996724E+02 0.  0.
         11    1    3    3    0    0  0.60981178086E+02  0.29055400941E+02  0.14311484395E+02  0.69048815994E+02  0.00000000000E+00 0. -1.
        -12    1    3    3    0    0 -0.30559722373E+01  0.47166561464E+00  0.56060589114E+02  0.56145802038E+02  0.00000000000E+00 0.  1.
        -11    1    4    4    0    0 -0.13980914871E+02 -0.55091609407E+02 -0.10890855200E+03  0.12284797152E+03  0.00000000000E+00 0. -1.
         11    1    4    4    0    0 -0.19947660234E+02  0.35712680787E+02 -0.70380648031E+02  0.81404793072E+02  0.00000000000E+00 0.  1.
         -1    1    1    2    0  502 -0.23996630744E+02 -0.10148137935E+02 -0.43411415159E+02  0.50629773421E+02  0.00000000000E+00 0.  1.
<scales pt_clust_5="13000.00000" pt_clust_6="13000.00000" pt_clust_7="13000.00000" pt_clust_8="13000.00000" pt_clust_9="26.05423"></scales>
<clustering>
<clus scale="   26.054">  2  9  1 -1</clus>
<clus scale="   80.587">  5  6 -1 -1</clus>
<clus scale="   89.710">  7  8 -1 -1</clus>
<clus scale="  101.536">  1  5  2 -1</clus>
<clus scale="   26.054">  2  5  1 -1</clus>
</clustering>
</event>
<event>
 9    1  0.7835476E-005  0.1271276E+03  0.7546771E-02  0.1237787E+00
          1   -1    0    0  502    0 -0.00000000000E+00  0.00000000000E+00  0.35157744053E+03  0.35157744053E+03  0.00000000000E+00 0. -1.
         21   -1    0    0  501  502  0.00000000000E+00 -0.00000000000E+00 -0.98614717834E+02  0.98614717834E+02  0.00000000000E+00 0.  1.
         23    2    1    2    0    0  0.71679580399E+02 -0.34255875743E+02  0.16838387719E+03  0.21034806886E+03  0.97886427574E+02 0.  0.
        -24    2    1    2    0    0 -0.39100622165E+02  0.99123374295E+02  0.48771164199E+01  0.13204081263E+03  0.77824725824E+02 0.  0.
         11    1    4    4    0    0 -0.34096517346E+02  0.12353543855E+02  0.23420572410E+02  0.43170658472E+02  0.00000000000E+00 0. -1.
        -12    1    4    4    0    0 -0.50041048186E+01  0.86769830439E+02 -0.18543455990E+02  0.88870154155E+02  0.00000000000E+00 0.  1.
        -11    1    3    3    0    0  0.87898778502E+02 -0.17041539459E+02  0.84209573994E+02  0.12291404184E+03  0.00000000000E+00 0. -1.
         11    1    3    3    0    0 -0.16219198104E+02 -0.17214336284E+02  0.84174303200E+02  0.87434027015E+02  0.00000000000E+00 0.  1.
          2    1    1    2  501    0 -0.32578958234E+02 -0.64867498552E+02  0.79701729086E+02  0.10780327689E+03  0.00000000000E+00 0. -1.
<scales pt_clust_5="13000.00000" pt_clust_6="13000.00000" pt_clust_7="13000.00000" pt_clust_8="13000.00000" pt_clust_9="72.58916"></scales>
<clustering>
<clus scale="   72.589">  2  9  1 -1</clus>
<clus scale="   77.825">  5  6 -1 -1</clus>
<clus scale="   97.886">  7  8 -1 -1</clus>
<clus scale="  112.412">  2  5  1 -1</clus>
<clus scale="   72.589">  2  5  1 -1</clus>
</clustering>
</event>
<event>
 9    1  0.7835476E-005  0.1677224E+03  0.7546771E-02  0.1192175E+00
         -2   -1    0    0    0  501 -0.00000000000E+00  0.00000000000E+00  0.43801002575E+03  0.43801002575E+03  0.00000000000E+00 0.  1.
         21   -1    0    0  501  502  0.00000000000E+00 -0.00000000000E+00 -0.14671522791E+03  0.14671522791E+03  0.00000000000E+00 0.  1.
        -24    2    1    2    0    0 -0.31064842595E+02  0.94526883375E+02  0.21509561571E+03  0.25062505513E+03  0.81525690671E+02 0.  0.
         23    2    1    2    0    0 -0.12447625429E+03 -0.44790020992E+02  0.32547682947E+02  0.16506694239E+03  0.93205471640E+02 0.  0.
         11    1    3    3    0    0  0.12579702559E+02  0.52626348735E+02  0.15961150510E+03  0.16853371787E+03  0.00000000000E+00 0. -1.
        -12    1    3    3    0    0 -0.43644545153E+02  0.41900534639E+02  0.55484110605E+02  0.82091337267E+02  0.00000000000E+00 0.  1.
        -13    1    4    4    0    0 -0.10226996701E+03 -0.21452568148E+02 -0.17098126723E+02  0.10588533784E+03  0.00000000000E+00 0.  1.
         13    1    4    4    0    0 -0.22206287285E+02 -0.23337452844E+02  0.49645809670E+02  0.59181604557E+02  0.00000000000E+00 0. -1.
         -1    1    1    2    0  502  0.15554109688E+03 -0.49736862382E+02  0.43651499187E+02  0.16903325614E+03  0.00000000000E+00 0.  1.
<scales pt_clust_5="13000.00000" pt_clust_6="13000.00000" pt_clust_7="13000.00000" pt_clust_8="13000.00000" pt_clust_9="139.44020"></scales>
<clustering>
<clus scale="   81.526">  5  6 -1 -1</clus>
<clus scale="   93.205">  7  8 -1 -1</clus>
<clus scale="  128.634">  1  5  2 -1</clus>
<clus scale="  139.440">  2  9  1 -1</clus>
<clus scale="  139.440">  2  5  1 -1</clus>
</clustering>
</event>
<event>
 9    1  0.7835476E-005  0.1331314E+03  0.7546771E-02  0.1224651E+00
          1   -1    0    0  502    0 -0.00000000000E+00  0.00000000000E+00  0.41308736704E+03  0.41308736704E+03  0.00000000000E+00 0. -1.
         21   -1    0    0  501  502  0.00000000000E+00 -0.00000000000E+00 -0.66820348537E+02  0.66820348537E+02  0.00000000000E+00 0.  1.
         23    2    1    2    0    0  0.70790246680E+02 -0.72357768918E+02  0.30077821327E+03  0.32988602593E+03  0.90057485951E+02 0.  0.
        -24    2    1    2    0    0 -0.50552309264E+02  0.74128836239E+02  0.43608631032E+02  0.12961958571E+03  0.82758105131E+02 0.  0.
         11    1    4    4    0    0  0.22053490978E+02  0.11803925882E+02  0.17195110817E+02  0.30353928355E+02  0.00000000000E+00 0. -1.
        -12    1    4    4    0    0 -0.72605800242E+02  0.62324910357E+02  0.26413520215E+02  0.99265657354E+02  0.00000000000E+00 0.  1.
        -11    1    3    3    0    0  0.14555660463E+02 -0.43053952689E+02  0.37034759514E+02  0.58626645017E+02  0.00000000000E+00 0.  1.
         11    1    3    3    0    0  0.56234586217E+02 -0.29303816230E+02  0.26374345376E+03  0.27125938091E+03  0.00000000000E+00 0. -1.
          2    1    1    2  501    0 -0.20237937416E+02 -0.17710673212E+01  0.18801742030E+01  0.20402103944E+02  0.00000000000E+00 0. -1.
<scales pt_clust_5="13000.00000" pt_clust_6="13000.00000" pt_clust_7="13000.00000" pt_clust_8="13000.00000" pt_clust_9="20.31528"></scales>
<clustering>
<clus scale="   20.315">  2  9  1 -1</clus>
<clus scale="   82.758">  5  6 -1 -1</clus>
<clus scale="   90.057">  7  8 -1 -1</clus>
<clus scale="  128.306">  2  5  1 -1</clus>
<clus scale="   20.315">  2  5  1 -1</clus>
</clustering>
</event>
<event>
 9    1  0.7835476E-005  0.1324804E+03  0.7546771E-02  0.1226225E+00
          3   -1    0    0  502    0 -0.00000000000E+00  0.00000000000E+00  0.58561161436E+02  0.58561161436E+02  0.00000000000E+00 0. -1.
         21   -1    0    0  501  502  0.00000000000E+00 -0.00000000000E+00 -0.50709974330E+03  0.50709974330E+03  0.00000000000E+00 0. -1.
        -24    2    1    2    0    0  0.63054635185E+02 -0.60736281340E+02 -0.87106295605E+02  0.14686768683E+03  0.79484764645E+02 0.  0.
         23    2    1    2    0    0 -0.66442320513E+02  0.11077827629E+03 -0.30647903379E+03  0.34439202418E+03  0.89387133953E+02 0.  0.
         11    1    3    3    0    0  0.43920767164E+02 -0.32217849005E+02 -0.13462785340E+01  0.54487026426E+02  0.00000000000E+00 0. -1.
        -12    1    3    3    0    0  0.19133868021E+02 -0.28518432335E+02 -0.85760017071E+02  0.92380660402E+02  0.00000000000E+00 0.  1.
        -13    1    4    4    0    0 -0.43558363607E+02  0.25916448541E+02 -0.42435961829E+02  0.66104494563E+02  0.00000000000E+00 0.  1.
         13    1    4    4    0    0 -0.22883956906E+02  0.84861827751E+02 -0.26404307196E+03  0.27828752962E+03  0.00000000000E+00 0. -1.
          4    1    1    2  501    0  0.33876853281E+01 -0.50041994952E+02 -0.54953252471E+02  0.74401193726E+02  0.00000000000E+00 0. -1.
<scales pt_clust_5="13000.00000" pt_clust_6="13000.00000" pt_clust_7="13000.00000" pt_clust_8="13000.00000" pt_clust_9="50.15656"></scales>
<clustering>
<clus scale="   50.157">  2  9  1 -1</clus>
<clus scale="   79.485">  5  6 -1 -1</clus>
<clus scale="   89.387">  7  8 -1 -1</clus>
<clus scale="  126.011">  1  5  2 -1</clus>
<clus scale="   50.157">  2  5  1 -1</clus>
</clustering>
</event>
<event>
 9    1  0.7835476E-005  0.1101406E+03  0.7546771E-02  0.1263731E+00
         21   -1    0    0  501  502  0.00000000000E+00  0.00000000000E+00  0.56891241437E+02  0.56891241437E+02  0.00000000000E+00 0.  1.
          1   -1    0    0  502    0 -0.00000000000E+00 -0.00000000000E+00 -0.36843225783E+03  0.36843225783E+03  0.00000000000E+00 0. -1.
         23    2    1    2    0    0 -0.28163415603E+02 -0.44687278338E+02 -0.20691384716E+03  0.23238327281E+03  0.91643409528E+02 0.  0.
        -24    2    1    2    0    0  0.65476906205E+02  0.57259292405E+02 -0.63181341118E+02  0.13577285127E+03  0.82924866369E+02 0.  0.
         11    1    4    4    0    0  0.59474672035E+02  0.50455930592E+01 -0.57551139622E+02  0.82914584331E+02  0.00000000000E+00 0. -1.
        -12    1    4    4    0    0  0.60022341700E+01  0.52213699346E+02 -0.56302014958E+01  0.52858266934E+02  0.00000000000E+00 0.  1.
        -11    1    3    3    0    0  0.69364121521E+01 -0.64369030786E+02 -0.11342275131E+03  0.13059941214E+03  0.00000000000E+00 0.  1.
         11    1    3    3    0    0 -0.35099827755E+02  0.19681752448E+02 -0.93491095852E+02  0.10178386066E+03  0.00000000000E+00 0. -1.
          2    1    1    2  501    0 -0.37313490602E+02 -0.12572014067E+02 -0.41445828116E+02  0.57167375196E+02  0.00000000000E+00 0. -1.
<scales pt_clust_5="13000.00000" pt_clust_6="13000.00000" pt_clust_7="13000.00000" pt_clust_8="13000.00000" pt_clust_9="39.37451"></scales>
<clustering>
<clus scale="   39.375">  1  9  2 -1</clus>
<clus scale="   82.925">  5  6 -1 -1</clus>
<clus scale="   91.643">  7  8 -1 -1</clus>
<clus scale="  103.000">  1  5  2 -1</clus>
<clus scale="   39.375">  1  5  2 -1</clus>
</clustering>
</event>
<event>
 9    1  0.7835476E-005  0.2545845E+03  0.7546771E-02  0.1111101E+00
         21   -1    0    0  501  502  0.00000000000E+00  0.00000000000E+00  0.14089478310E+03  0.14089478310E+03  0.00000000000E+00 0. -1.
          3   -1    0    0  502    0 -0.00000000000E+00 -0.00000000000E+00 -0.84313998392E+03  0.84313998392E+03  0.00000000000E+00 0. -1.
        -24    2    1    2    0    0 -0.16228218370E+03  0.17844095004E+03 -0.57615229819E+03  0.62970216429E+03  0.79979154847E+02 0.  0.
         23    2    1    2    0    0  0.10652528280E+03 -0.20096665734E+03 -0.39122178855E+02  0.24859639190E+03  0.92381751171E+02 0.  0.
         11    1    3    3    0    0 -0.13731748403E+03  0.13431944052E+03 -0.51846713382E+03  0.55290683879E+03  0.00000000000E+00 0. -1.
        -12    1    3    3    0    0 -0.24964699672E+02  0.44121509517E+02 -0.57685164363E+02  0.76795325504E+02  0.00000000000E+00 0.  1.
        -11    1    4    4    0    0  0.31924975122E+02 -0.15403743711E+03 -0.22570156443E+02  0.15892182994E+03  0.00000000000E+00 0. -1.
         11    1    4    4    0    0  0.74600307682E+02 -0.46929220224E+02 -0.16552022412E+02  0.89674561962E+02  0.00000000000E+00 0.  1.
          4    1    1    2  501    0  0.55756900900E+02  0.22525707296E+02 -0.86970723770E+02  0.10573621083E+03  0.00000000000E+00 0. -1.
<scales pt_clust_5="13000.00000" pt_clust_6="13000.00000" pt_clust_7="13000.00000" pt_clust_8="13000.00000" pt_clust_9="60.13521"></scales>
<clustering>
<clus scale="   60.135">  1  9  2 -1</clus>
<clus scale="   79.979">  5  6 -1 -1</clus>
<clus scale="   92.382">  7  8 -1 -1</clus>
<clus scale="  250.351">  2  5  1 -1</clus>
<clus scale="   60.135">  1  5  2 -1</clus>
</clustering>
</event>
<event>
 9    1  0.7835476E-005  0.9576688E+02  0.7546771E-02  0.1296772E+00
         21   -1    0    0  501  502  0.00000000000E+00  0.00000000000E+00  0.21181468194E+02  0.21181468194E+02  0.00000000000E+00 0. -1.
         -2   -1    0    0    0  501 -0.00000000000E+00 -0.00000000000E+00 -0.73620280695E+03  0.73620280695E+03  0.00000000000E+00 0.  1.
        -24    2    1    2    0    0 -0.18263310107E+02  0.15582110339E+02 -0.37451057046E+03  0.38421951670E+03  0.82402178173E+02 0.  0.
         23    2    1    2    0    0 -0.17950377771E+02  0.40061851906E+01 -0.15086239488E+03  0.17909869225E+03  0.94755547554E+02 0.  0.
         13    1    3    3    0    0 -0.16291543411E+02  0.44011839827E+02 -0.13307363155E+03  0.14110651241E+03  0.00000000000E+00 0. -1.
        -14    1    3    3    0    0 -0.19717666969E+01 -0.28429729487E+02 -0.24143693891E+03  0.24311300428E+03  0.00000000000E+00 0.  1.
        -13    1    4    4    0    0 -0.40248313766E+02 -0.13368293575E+02 -0.23194247356E+02  0.48338505816E+02  0.00000000000E+00 0. -1.
         13    1    4    4    0    0  0.22297935995E+02  0.17374478765E+02 -0.12766814753E+03  0.13076018643E+03  0.00000000000E+00 0.  1.
         -1    1    1    2    0  502  0.36213687879E+02 -0.19588295530E+02 -0.18964837341E+03  0.19406606620E+03  0.00000000000E+00 0.  1.
<scales pt_clust_5="13000.00000" pt_clust_6="13000.00000" pt_clust_7="13000.00000" pt_clust_8="13000.00000" pt_clust_9="41.17201"></scales>
<clustering>
<clus scale="   41.172">  1  9  2 -1</clus>
<clus scale="   82.402">  5  6 -1 -1</clus>
<clus scale="   83.563">  2  5  1 -1</clus>
<clus scale="   94.756">  7  8 -1 -1</clus>
<clus scale="   41.172">  1  5  2 -1</clus>
</clustering>
</event>
<event>
 9    1  0.7835476E-005  0.9354086E+02  0.7546771E-02  0.1301043E+00
          3   -1    0    0  502    0 -0.00000000000E+00  0.00000000000E+00  0.16300605790E+03  0.16300605790E+03  0.00000000000E+00 0. -1.
         21   -1    0    0  501  502  0.00000000000E+00 -0.00000000000E+00 -0.12686673463E+03  0.12686673463E+03  0.00000000000E+00 0. -1.
        -24    2    1    2    0    0 -0.82750929013E+01 -0.23745514752E+02  0.97795102986E+02  0.12923143302E+03  0.80650818211E+02 0.  0.
         23    2    1    2    0    0 -0.87760402500E+01  0.40315521232E+01  0.17324157305E+01  0.92103451855E+02  0.91579322362E+02 0.  0.
         11    1    3    3    0    0 -0.35251301421E+02 -0.37818864582E+01  0.87050842306E+02  0.93993649058E+02  0.00000000000E+00 0. -1.
        -12    1    3    3    0    0  0.26976208520E+02 -0.19963628294E+02  0.10744260681E+02  0.35237783959E+02  0.00000000000E+00 0.  1.
        -11    1    4    4    0    0  0.26631212593E+02  0.17932111732E+02  0.30599346204E+02  0.44352024795E+02  0.00000000000E+00 0.  1.
         11    1    4    4    0    0 -0.35407252843E+02 -0.13900559608E+02 -0.28866930473E+02  0.47751427060E+02  0.00000000000E+00 0. -1.
          4    1    1    2  501    0  0.17051133151E+02  0.19713962629E+02 -0.63388195450E+02  0.68537907662E+02  0.00000000000E+00 0. -1.
<scales pt_clust_5="13000.00000" pt_clust_6="13000.00000" pt_clust_7="13000.00000" pt_clust_8="13000.00000" pt_clust_9="26.06495"></scales>
<clustering>
<clus scale="   26.065">  2  9  1 -1</clus>
<clus scale="   80.651">  5  6 -1 -1</clus>
<clus scale="   82.871">  1  5  2 -1</clus>
<clus scale="   91.579">  7  8 -1 -1</clus>
<clus scale="   26.065">  2  5  1 -1</clus>
</clustering>
</event>
<event>
 9    1  0.7835476E-005  0.9677377E+02  0.7546771E-02  0.1291308E+00
          1   -1    0    0  502    0 -0.00000000000E+00  0.00000000000E+00  0.67179483217E+03  0.67179483217E+03  0.00000000000E+00 0. -1.
         21   -1    0    0  501  502  0.00000000000E+00 -0.00000000000E+00 -0.20791856296E+02  0.20791856296E+02  0.00000000000E+00 0.  1.
        -24    2    1    2    0    0 -0.35245878549E+02  0.83614108532E+01  0.42767132266E+03  0.43655538176E+03  0.79785061081E+02 0.  0.
         23    2    1    2    0    0  0.51676095702E+02 -0.21444861362E+02  0.18080545132E+03  0.20860128920E+03  0.87713087299E+02 0.  0.
         13    1    3    3    0    0 -0.48251714160E+01  0.41685804937E+02  0.18204660316E+03  0.18682064750E+03  0.00000000000E+00 0. -1.
        -14    1    3    3    0    0 -0.30420707133E+02 -0.33324394083E+02  0.24562471950E+03  0.24973473426E+03  0.00000000000E+00 0.  1.
        -13    1    4    4    0    0  0.29916350088E+02 -0.27650630862E+02  0.18144795190E+03  0.18596479408E+03  0.00000000000E+00 0. -1.
         13    1    4    4    0    0  0.21759745614E+02  0.62057694999E+01 -0.64250057974E+00  0.22636495119E+02  0.00000000000E+00 0.  1.
          2    1    1    2  501    0 -0.16430217152E+02  0.13083450509E+02  0.42526201892E+02  0.47430017502E+02  0.00000000000E+00 0. -1.
<scales pt_clust_5="13000.00000" pt_clust_6="13000.00000" pt_clust_7="13000.00000" pt_clust_8="13000.00000" pt_clust_9="21.00306"></scales>
<clustering>
<clus scale="   21.003">  2  9  1 -1</clus>
<clus scale="   79.785">  5  6 -1 -1</clus>
<clus scale="   87.713">  7  8 -1 -1</clus>
<clus scale="   89.651">  1  5  2 -1</clus>
<clus scale="   21.003">  2  5  1 -1</clus>
</clustering>
</event>
<event>
 9    1  0.7835476E-005  0.2429819E+03  0.7546771E-02  0.1117846E+00
         21   -1    0    0  501  502  0.00000000000E+00  0.00000000000E+00  0.71765398114E+02  0.71765398114E+02  0.00000000000E+00 0. -1.
          1   -1    0    0  502    0 -0.00000000000E+00 -0.00000000000E+00 -0.11428654644E+04  0.11428654644E+04  0.00000000000E+00 0. -1.
         23    2    1    2    0    0  0.14780437213E+03  0.15227770354E+03 -0.56313908517E+03  0.60719237653E+03  0.80760890605E+02 0.  0.
        -24    2    1    2    0    0 -0.16034686929E+03 -0.20828581905E+03 -0.40292163311E+03  0.48774100119E+03  0.80320239712E+02 0.  0.
         13    1    4    4    0    0 -0.14305495206E+03 -0.16371156969E+03 -0.27104116910E+03  0.34746152695E+03  0.00000000000E+00 0. -1.
        -14    1    4    4    0    0 -0.17291917226E+02 -0.44574249355E+02 -0.13188046401E+03  0.14027947424E+03  0.00000000000E+00 0.  1.
        -11    1    3    3    0    0  0.82309325094E+02  0.10518415119E+03 -0.24560507723E+03  0.27957178795E+03  0.00000000000E+00 0.  1.
         11    1    3    3    0    0  0.65495047040E+02  0.47093552354E+02 -0.31753400794E+03  0.32762058858E+03  0.00000000000E+00 0. -1.
          2    1    1    2  501    0  0.12542497155E+02  0.56008115507E+02 -0.10503934803E+03  0.11969748482E+03  0.00000000000E+00 0. -1.
<scales pt_clust_5="13000.00000" pt_clust_6="13000.00000" pt_clust_7="13000.00000" pt_clust_8="13000.00000" pt_clust_9="57.39532"></scales>
<clustering>
<clus scale="   57.395">  1  9  2 -1</clus>
<clus scale="   80.320">  5  6 -1 -1</clus>
<clus scale="   80.761">  7  8 -1 -1</clus>
<clus scale="  242.836">  1  5  2 -1</clus>
<clus scale="   57.395">  1  5  2 -1</clus>
</clustering>
</event>
<event>
 9    1  0.7835476E-005  0.9321252E+02  0.7546771E-02  0.1301938E+00
         21   -1    0    0  501  502  0.00000000000E+00  0.00000000000E+00  0.27886792394E+03  0.27886792394E+03  0.00000000000E+00 0.  1.
         -2   -1    0    0    0  501 -0.00000000000E+00 -0.00000000000E+00 -0.96130941767E+02  0.96130941767E+02  0.00000000000E+00 0.  1.
        -24    2    1    2    0    0  0.10352473069E+02  0.49065686700E+02  0.78444904079E+02  0.12306481925E+03  0.80478142685E+02 0.  0.
         23    2    1    2    0    0 -0.29892638892E+01  0.32893832495E+02  0.13298446402E+03  0.16478570944E+03  0.91534269266E+02 0.  0.
         11    1    3    3    0    0 -0.32176936933E+02  0.40003609142E+02  0.42421795757E+02  0.66597693429E+02  0.00000000000E+00 0. -1.
        -12    1    3    3    0    0  0.42529410003E+02  0.90620775577E+01  0.36023108322E+02  0.56467125817E+02  0.00000000000E+00 0.  1.
        -11    1    4    4    0    0 -0.74147051166E+01  0.59974040443E+02  0.12015389901E+03  0.13449469442E+03  0.00000000000E+00 0.  1.
         11    1    4    4    0    0  0.44254412275E+01 -0.27080207948E+02  0.12830565007E+02  0.30291015020E+02  0.00000000000E+00 0. -1.
         -1    1    1    2    0  502 -0.73632091802E+01 -0.81959519195E+02 -0.28692385923E+02  0.87148337024E+02  0.00000000000E+00 0.  1.
<scales pt_clust_5="13000.00000" pt_clust_6="13000.00000" pt_clust_7="13000.00000" pt_clust_8="13000.00000" pt_clust_9="82.28965"></scales>
<clustering>
<clus scale="   80.478">  5  6 -1 -1</clus>
<clus scale="   82.290">  1  9  2 -1</clus>
<clus scale="   82.382">  2  5  1 -1</clus>
<clus scale="   91.534">  7  8 -1 -1</clus>
<clus scale="   82.290">  1  5  2 -1</clus>
</clustering>
</event>
<event>
 9    1  0.7835476E-005  0.1767798E+03  0.7546771E-02  0.1194384E+00
         21   -1    0    0  501  502  0.00000000000E+00  0.00000000000E+00  0.89818606921E+02  0.89818606921E+02  0.00000000000E+00 0. -1.
         -4   -1    0    0    0  501 -0.00000000000E+00 -0.00000000000E+00 -0.61496040533E+03  0.61496040533E+03  0.00000000000E+00 0.  1.
        -24    2    1    2    0    0 -0.37810657973E+02  0.53585026992E+02 -0.22842413397E+03  0.25125717462E+03  0.81557230471E+02 0.  0.
         23    2    1    2    0    0 -0.12682666848E+03 -0.58229532300E+02 -0.21010963525E+03  0.26743591283E+03  0.88883217618E+02 0.  0.
         11    1    3    3    0    0  0.34113008028E+01 -0.19992012175E+02 -0.46936058076E+02  0.51130334163E+02  0.00000000000E+00 0. -1.
        -12    1    3    3    0    0 -0.41221958776E+02  0.73577039166E+02 -0.18148807590E+03  0.20012684046E+03  0.00000000000E+00 0.  1.
        -13    1    4    4    0    0 -0.63860921057E+02  0.90291591620E+01 -0.45954474021E+02  0.79193160285E+02  0.00000000000E+00 0. -1.
         13    1    4    4    0    0 -0.62965747426E+02 -0.67258691462E+02 -0.16415516123E+03  0.18824275254E+03  0.00000000000E+00 0.  1.
         -3    1    1    2    0  502  0.16463732646E+03  0.46445053080E+01 -0.86608029191E+02  0.18608592481E+03  0.00000000000E+00 0.  1.
<scales pt_clust_5="13000.00000" pt_clust_6="13000.00000" pt_clust_7="13000.00000" pt_clust_8="13000.00000" pt_clust_9="152.80988"></scales>
<clustering>
<clus scale="   81.557">  5  6 -1 -1</clus>
<clus scale="   88.883">  7  8 -1 -1</clus>
<clus scale="  104.655">  2  5  1 -1</clus>
<clus scale="  152.810">  1  9  2 -1</clus>
<clus scale="  152.810">  1  5  2 -1</clus>
</clustering>
</event>
<event>
 9    1  0.7835476E-005  0.1036104E+03  0.7546771E-02  0.1287455E+00
          1   -1    0    0  502    0 -0.00000000000E+00  0.00000000000E+00  0.63529113732E+03  0.63529113732E+03  0.00000000000E+00 0. -1.
         21   -1    0    0  501  502  0.00000000000E+00 -0.00000000000E+00 -0.10420165291E+03  0.10420165291E+03  0.00000000000E+00 0. -1.
         23    2    1    2    0    0 -0.23881973392E+00 -0.10593875417E+02  0.52774643667E+03  0.53790877967E+03  0.10352423190E+03 0.  0.
        -24    2    1    2    0    0  0.96491759057E+01 -0.20039091711E+02  0.82632895094E+02  0.11606317467E+03  0.78407865496E+02 0.  0.
         13    1    4    4    0    0  0.14721697535E+01 -0.37955736687E+02  0.87832401839E+02  0.95693970782E+02  0.00000000000E+00 0. -1.
        -14    1    4    4    0    0  0.81770061522E+01  0.17916644976E+02 -0.51995067452E+01  0.20369203892E+02  0.00000000000E+00 0.  1.
        -11    1    3    3    0    0  0.59526407632E+01 -0.56192746096E+02  0.33595224805E+03  0.34067135426E+03  0.00000000000E+00 0. -1.
         11    1    3    3    0    0 -0.61914604971E+01  0.45598870680E+02  0.19179418862E+03  0.19723742540E+03  0.00000000000E+00 0.  1.
          2    1    1    2  501    0 -0.94103561718E+01  0.30632967127E+02 -0.79289847357E+02  0.85520835895E+02  0.00000000000E+00 0. -1.
<scales pt_clust_5="13000.00000" pt_clust_6="13000.00000" pt_clust_7="13000.00000" pt_clust_8="13000.00000" pt_clust_9="32.04580"></scales>
<clustering>
<clus scale="   32.046">  2  9  1 -1</clus>
<clus scale="   78.408">  5  6 -1 -1</clus>
<clus scale="   78.522">  2  5  1 -1</clus>
<clus scale="  103.524">  7  8 -1 -1</clus>
<clus scale="   32.046">  2  5  1 -1</clus>
</clustering>
</event>
<event>
 9    1  0.7835476E-005  0.1633059E+03  0.7546771E-02  0.1186459E+00
          3   -1    0    0  502    0 -0.00000000000E+00  0.00000000000E+00  0.20674086431E+03  0.20674086431E+03  0.00000000000E+00 0. -1.
         21   -1    0    0  501  502  0.00000000000E+00 -0.00000000000E+00 -0.26096042583E+03  0.26096042583E+03  0.00000000000E+00 0.  1.
        -24    2    1    2    0    0  0.12359372837E+03  0.42996311962E+02  0.11090355558E+03  0.18961948259E+03  0.80819904733E+02 0.  0.
         23    2    1    2    0    0 -0.13968511885E+03 -0.77458988713E+02 -0.12123362682E+03  0.22000516600E+03  0.90514382481E+02 0.  0.
         13    1    3    3    0    0  0.66670633471E+02  0.60375793397E+02  0.88039656615E+02  0.12586179298E+03  0.00000000000E+00 0. -1.
        -14    1    3    3    0    0  0.56923094901E+02 -0.17379481435E+02  0.22863898969E+02  0.63757689608E+02  0.00000000000E+00 0.  1.
        -11    1    4    4    0    0 -0.79312982261E+02  0.37670418192E+01 -0.33932297770E+02  0.86348946671E+02  0.00000000000E+00 0. -1.
         11    1    4    4    0    0 -0.60372136585E+02 -0.81226030533E+02 -0.87301329050E+02  0.13365621933E+03  0.00000000000E+00 0.  1.
          4    1    1    2  501    0  0.16091390474E+02  0.34462676751E+02 -0.43889490287E+02  0.58076641552E+02  0.00000000000E+00 0. -1.
<scales pt_clust_5="13000.00000" pt_clust_6="13000.00000" pt_clust_7="13000.00000" pt_clust_8="13000.00000" pt_clust_9="38.03431"></scales>
<clustering>
<clus scale="   38.034">  2  9  1 -1</clus>
<clus scale="   80.820">  5  6 -1 -1</clus>
<clus scale="   90.514">  7  8 -1 -1</clus>
<clus scale="  158.139">  1  5  2 -1</clus>
<clus scale="   38.034">  2  5  1 -1</clus>
</clustering>
</event>
<event>
 9    1  0.7835476E-005  0.4761046E+03  0.7546771E-02  0.1039692E+00
         21   -1    0    0  501  502  0.00000000000E+00  0.00000000000E+00  0.25348168879E+03  0.25348168879E+03  0.00000000000E+00 0. -1.
          1   -1    0    0  502    0 -0.00000000000E+00 -0.00000000000E+00 -0.15338343786E+04  0.15338343786E+04  0.00000000000E+00 0. -1.
         23    2    1    2    0    0 -0.25081157842E+03 -0.12120879928E+02 -0.24212125713E+03  0.36047536252E+03  0.90919856081E+02 0.  0.
        -24    2    1    2    0    0 -0.17154928108E+03 -0.36097227277E+03 -0.52157769175E+03  0.66230275015E+03  0.82894552154E+02 0.  0.
         11    1    4    4    0    0 -0.10312622944E+03 -0.15191357658E+03 -0.28712946205E+03  0.34081678645E+03  0.00000000000E+00 0. -1.
        -12    1    4    4    0    0 -0.68423051643E+02 -0.20905869618E+03 -0.23444822970E+03  0.32148596370E+03  0.00000000000E+00 0.  1.
        -11    1    3    3    0    0 -0.99347946962E+02  0.10130263996E+02 -0.15484834935E+03  0.18425701645E+03  0.00000000000E+00 0.  1.
         11    1    3    3    0    0 -0.15146363146E+03 -0.22251143923E+02 -0.87272907786E+02  0.17621834607E+03  0.00000000000E+00 0. -1.
          2    1    1    2  501    0  0.42236085950E+03  0.37309315269E+03 -0.51665374096E+03  0.76453795476E+03  0.00000000000E+00 0. -1.
<scales pt_clust_5="13000.00000" pt_clust_6="13000.00000" pt_clust_7="13000.00000" pt_clust_8="13000.00000" pt_clust_9="468.83294"></scales>
<clustering>
<clus scale="   82.895">  5  6 -1 -1</clus>
<clus scale="   90.920">  7  8 -1 -1</clus>
<clus scale="  267.058">  2  7  1 -1</clus>
<clus scale="  468.833">  1  9  2 -1</clus>
<clus scale="  468.833">  1  5  2 -1</clus>
</clustering>
</event>
<event>
 9    1  0.7835476E-005  0.1403911E+03  0.7546771E-02  0.1214582E+00
          3   -1    0    0  502    0 -0.00000000000E+00  0.00000000000E+00  0.33791398454E+03  0.33791398454E+03  0.00000000000E+00 0. -1.
         21   -1    0    0  501  502  0.00000000000E+00 -0.00000000000E+00 -0.12384724767E+03  0.12384724767E+03  0.00000000000E+00 0. -1.
        -24    2    1    2    0    0  0.52181724175E+02 -0.12548695841E+03  0.21642964175E+03  0.26766580718E+03  0.79581941672E+02 0.  0.
         23    2    1    2    0    0 -0.12911088440E+02  0.65587153949E+02  0.31299340195E+02  0.11495430962E+03  0.88127598601E+02 0.  0.
         13    1    3    3    0    0  0.19311036139E+02 -0.53990525416E+02  0.16236400845E+03  0.17219164960E+03  0.00000000000E+00 0. -1.
        -14    1    3    3    0    0  0.32870688036E+02 -0.71496432994E+02  0.54065633293E+02  0.95474157583E+02  0.00000000000E+00 0.  1.
        -13    1    4    4    0    0 -0.34902215581E+01  0.21262926750E+02 -0.31101140099E+02  0.37836154878E+02  0.00000000000E+00 0. -1.
         13    1    4    4    0    0 -0.94208668823E+01  0.44324227200E+02  0.62400480293E+02  0.77118154740E+02  0.00000000000E+00 0.  1.
          4    1    1    2  501    0 -0.39270635735E+02  0.59899804460E+02 -0.33662245066E+02  0.79141115410E+02  0.00000000000E+00 0. -1.
<scales pt_clust_5="13000.00000" pt_clust_6="13000.00000" pt_clust_7="13000.00000" pt_clust_8="13000.00000" pt_clust_9="71.62520"></scales>
<clustering>
<clus scale="   71.625">  2  9  1 -1</clus>
<clus scale="   79.582">  5  6 -1 -1</clus>
<clus scale="   88.128">  7  8 -1 -1</clus>
<clus scale="  135.191">  1  5  2 -1</clus>
<clus scale="   71.625">  2  5  1 -1</clus>
</clustering>
</event>
<event>
 9    1  0.7835476E-005  0.1122023E+03  0.7546771E-02  0.1258240E+00
         21   -1    0    0  501  502  0.00000000000E+00  0.00000000000E+00  0.64815046241E+03  0.64815046241E+03  0.00000000000E+00 0. -1.
          1   -1    0    0  502    0 -0.00000000000E+00 -0.00000000000E+00 -0.41859087914E+02  0.41859087914E+02  0.00000000000E+00 0. -1.
        -24    2    1    2    0    0  0.65329447776E+02  0.41363693951E+02  0.11313669032E+03  0.16026412275E+03  0.83101061485E+02 0.  0.
         23    2    1    2    0    0 -0.71581304928E+02  0.24197739766E+02  0.21878452867E+03  0.24758169932E+03  0.87867024696E+02 0.  0.
         13    1    3    3    0    0  0.74364210655E+02  0.57475861811E+02  0.85727840463E+02  0.12721152915E+03  0.00000000000E+00 0. -1.
        -14    1    3    3    0    0 -0.90347628788E+01 -0.16112167860E+02  0.27408849856E+02  0.33052593602E+02  0.00000000000E+00 0.  1.
        -13    1    4    4    0    0 -0.88532944430E+02  0.35502251144E+02  0.18453318279E+03  0.20772815802E+03  0.00000000000E+00 0.  1.
         13    1    4    4    0    0  0.16951639503E+02 -0.11304511379E+02  0.34251345885E+02  0.39853541301E+02  0.00000000000E+00 0. -1.
          2    1    1    2  501    0  0.62518571515E+01 -0.65561433717E+02  0.27437015551E+03  0.28216372826E+03  0.00000000000E+00 0. -1.
<scales pt_clust_5="13000.00000" pt_clust_6="13000.00000" pt_clust_7="13000.00000" pt_clust_8="13000.00000" pt_clust_9="65.85884"></scales>
<clustering>
<clus scale="   65.859">  1  9  2 -1</clus>
<clus scale="   83.101">  5  6 -1 -1</clus>
<clus scale="   87.867">  7  8 -1 -1</clus>
<clus scale="  108.510">  2  5  1 -1</clus>
<clus scale="   65.859">  1  5  2 -1</clus>
</clustering>
</event>
<event>
 9    1  0.7835476E-005  0.1483995E+03  0.7546771E-02  0.1229810E+00
          1   -1    0    0  502    0 -0.00000000000E+00  0.00000000000E+00  0.78677641115E+03  0.78677641115E+03  0.00000000000E+00 0. -1.
         21   -1    0    0  501  502  0.00000000000E+00 -0.00000000000E+00 -0.76970722834E+02  0.76970722834E+02  0.00000000000E+00 0. -1.
        -24    2    1    2    0    0  0.17181914325E+02 -0.65013254468E-01  0.54011335572E+03  0.54648941467E+03  0.81443360183E+02 0.  0.
         23    2    1    2    0    0 -0.11335132483E+03 -0.34030262743E+02  0.14139203062E+03  0.21137122133E+03  0.10334169179E+03 0.  0.
         13    1    3    3    0    0 -0.19585074781E+02 -0.29380051141E+02  0.19271706176E+03  0.19592505825E+03  0.00000000000E+00 0. -1.
        -14    1    3    3    0    0  0.36766989106E+02  0.29315037887E+02  0.34739629396E+03  0.35056435642E+03  0.00000000000E+00 0.  1.
        -11    1    4    4    0    0  0.68688790339E+01 -0.34971526645E+02  0.44172993616E+02  0.56757753128E+02  0.00000000000E+00 0.  1.
         11    1    4    4    0    0 -0.12022020386E+03  0.94126390175E+00  0.97219037002E+02  0.15461346820E+03  0.00000000000E+00 0. -1.
          2    1    1    2  501    0  0.96169410504E+02  0.34095275998E+02  0.28300301977E+02  0.10588649798E+03  0.00000000000E+00 0. -1.
<scales pt_clust_5="13000.00000" pt_clust_6="13000.00000" pt_clust_7="13000.00000" pt_clust_8="13000.00000" pt_clust_9="106.50313"></scales>
<clustering>
<clus scale="   81.443">  5  6 -1 -1</clus>
<clus scale="   83.236">  1  5  2 -1</clus>
<clus scale="  103.342">  7  8 -1 -1</clus>
<clus scale="  106.503">  2  9  1 -1</clus>
<clus scale="  106.503">  2  5  1 -1</clus>
</clustering>
</event>
<event>
 9    1  0.7835476E-005  0.1568191E+03  0.7546771E-02  0.1200711E+00
         21   -1    0    0  501  502  0.00000000000E+00  0.00000000000E+00  0.15890394584E+04  0.15890394584E+04  0.00000000000E+00 0. -1.
          3   -1    0    0  502    0 -0.00000000000E+00 -0.00000000000E+00 -0.31123478192E+02  0.31123478192E+02  0.00000000000E+00 0. -1.
        -24    2    1    2    0    0  0.82184603694E+02  0.62212468411E+02  0.40809183363E+03  0.42847822506E+03  0.80186933909E+02 0.  0.
         23    2    1    2    0    0  0.76999178821E+02 -0.71998261898E+02  0.32418571863E+03  0.35078397299E+03  0.82706664093E+02 0.  0.
         11    1    3    3    0    0  0.76387195784E+02  0.94551983761E+01  0.26050688859E+03  0.27163991507E+03  0.00000000000E+00 0. -1.
        -12    1    3    3    0    0  0.57974079098E+01  0.52757270035E+02  0.14758494504E+03  0.15683830999E+03  0.00000000000E+00 0.  1.
        -11    1    4    4    0    0  0.18165461875E+02 -0.70650329896E+02  0.21028639237E+03  0.22257991809E+03  0.00000000000E+00 0.  1.
         11    1    4    4    0    0  0.58833716946E+02 -0.13479320025E+01  0.11389932626E+03  0.12820405490E+03  0.00000000000E+00 0. -1.
          4    1    1    2  501    0 -0.15918378251E+03  0.97857934876E+01  0.82563842791E+03  0.84090073850E+03  0.00000000000E+00 0. -1.
<scales pt_clust_5="13000.00000" pt_clust_6="13000.00000" pt_clust_7="13000.00000" pt_clust_8="13000.00000" pt_clust_9="133.23604"></scales>
<clustering>
<clus scale="   80.187">  5  6 -1 -1</clus>
<clus scale="   82.707">  7  8 -1 -1</clus>
<clus scale="  130.593">  2  5  1 -1</clus>
<clus scale="  133.236">  1  9  2 -1</clus>
<clus scale="  133.236">  1  5  2 -1</clus>
</clustering>
</event>
<event>
 9    1  0.7835476E-005  0.2141029E+03  0.7546771E-02  0.1162580E+00
          3   -1    0    0  502    0 -0.00000000000E+00  0.00000000000E+00  0.12508362829E+03  0.12508362829E+03  0.00000000000E+00 0. -1.
         21   -1    0    0  501  502  0.00000000000E+00 -0.00000000000E+00 -0.59747597471E+03  0.59747597471E+03  0.00000000000E+00 0. -1.
         23    2    1    2    0    0 -0.48575082501E+02 -0.58085707132E+02 -0.14853228877E+03  0.19136265197E+03  0.93937935611E+02 0.  0.
        -24    2    1    2    0    0  0.19844591096E+03  0.11878336374E+03 -0.25994496738E+03  0.35732743240E+03  0.81371007130E+02 0.  0.
         13    1    4    4    0    0  0.18809665277E+03  0.79520023103E+02 -0.22375768390E+03  0.30293775922E+03  0.00000000000E+00 0. -1.
        -14    1    4    4    0    0  0.10349258196E+02  0.39263340638E+02 -0.36187283478E+02  0.54389673182E+02  0.00000000000E+00 0.  1.
        -11    1    3    3    0    0 -0.29766598248E+02 -0.74996234704E+02 -0.14484463199E+03  0.16580245175E+03  0.00000000000E+00 0.  1.
         11    1    3    3    0    0 -0.18808484253E+02  0.16910527572E+02 -0.36876567885E+01  0.25560200219E+02  0.00000000000E+00 0. -1.
          4    1    1    2  501    0 -0.14987082846E+03 -0.60697656610E+02 -0.63915090264E+02  0.17386951862E+03  0.00000000000E+00 0. -1.
<scales pt_clust_5="13000.00000" pt_clust_6="13000.00000" pt_clust_7="13000.00000" pt_clust_8="13000.00000" pt_clust_9="198.03747"></scales>
<clustering>
<clus scale="   81.371">  5  6 -1 -1</clus>
<clus scale="   93.938">  7  8 -1 -1</clus>
<clus scale="  120.656">  1  7  2 -1</clus>
<clus scale="  198.037">  2  9  1 -1</clus>
<clus scale="  198.037">  2  5  1 -1</clus>
</clustering>
</event>
<event>
 9    1  0.7835476E-005  0.1018766E+03  0.7546771E-02  0.1280861E+00
         -2   -1    0    0    0  501 -0.00000000000E+00  0.00000000000E+00  0.23229478707E+03  0.23229478707E+03  0.00000000000E+00 0.  1.
         21   -1    0    0  501  502  0.00000000000E+00 -0.00000000000E+00 -0.11158432220E+03  0.11158432220E+03  0.00000000000E+00 0.  1.
         23    2    1    2    0    0  0.51209532170E+02  0.45133110263E+02  0.11768298888E+03  0.16359024306E+03  0.90846397425E+02 0.  0.
        -24    2    1    2    0    0 -0.27952509602E+02  0.37510394476E+02  0.83643299800E+01  0.94269566139E+02  0.81415088265E+02 0.  0.
         13    1    4    4    0    0 -0.65725078713E+01 -0.25359311074E+02  0.94656738368E+01  0.27854829008E+02  0.00000000000E+00 0. -1.
        -14    1    4    4    0    0 -0.21380001731E+02  0.62869705550E+02 -0.11013438568E+01  0.66414737131E+02  0.00000000000E+00 0.  1.
        -11    1    3    3    0    0  0.67510575934E+02  0.11956051344E+02  0.10317920891E+03  0.12388129067E+03  0.00000000000E+00 0.  1.
         11    1    3    3    0    0 -0.16301043764E+02  0.33177058919E+02  0.14503779969E+02  0.39708952388E+02  0.00000000000E+00 0. -1.
         -1    1    1    2    0  502 -0.23257022568E+02 -0.82643504739E+02 -0.53368539937E+01  0.86019300072E+02  0.00000000000E+00 0.  1.
<scales pt_clust_5="13000.00000" pt_clust_6="13000.00000" pt_clust_7="13000.00000" pt_clust_8="13000.00000" pt_clust_9="85.85358"></scales>
<clustering>
<clus scale="   81.415">  5  6 -1 -1</clus>
<clus scale="   85.854">  2  9  1 -1</clus>
<clus scale="   90.846">  7  8 -1 -1</clus>
<clus scale="   93.564">  2  5  1 -1</clus>
<clus scale="   85.854">  2  5  1 -1</clus>
</clustering>
</event>
<event>
 9    1  0.7835476E-005  0.1060516E+03  0.7546771E-02  0.1272556E+00
         -2   -1    0    0    0  501 -0.00000000000E+00  0.00000000000E+00  0.15659269033E+03  0.15659269033E+03  0.00000000000E+00 0.  1.
         21   -1    0    0  501  502  0.00000000000E+00 -0.00000000000E+00 -0.29321712270E+03  0.29321712270E+03  0.00000000000E+00 0.  1.
         23    2    1    2    0    0  0.37107547887E+02 -0.43593444075E+02  0.12423460627E+03  0.16410259495E+03  0.90653548182E+02 0.  0.
        -24    2    1    2    0    0 -0.32385964669E+02  0.16747637191E+02 -0.18011787804E+03  0.20048911137E+03  0.80150481769E+02 0.  0.
         11    1    4    4    0    0 -0.72702724790E+01  0.30621331232E+02 -0.16515914450E+03  0.16813109706E+03  0.00000000000E+00 0. -1.
        -12    1    4    4    0    0 -0.25115692190E+02 -0.13873694041E+02 -0.14958733543E+02  0.32358014304E+02  0.00000000000E+00 0.  1.
        -11    1    3    3    0    0  0.28827444874E+02  0.41331628991E+01  0.10974368442E+03  0.11354197851E+03  0.00000000000E+00 0.  1.
         11    1    3    3    0    0  0.82801030130E+01 -0.47726606974E+02  0.14490921853E+02  0.50560616445E+02  0.00000000000E+00 0. -1.
         -1    1    1    2    0  502 -0.47215832185E+01  0.26845806884E+02 -0.80741160601E+02  0.85218106705E+02  0.00000000000E+00 0.  1.
<scales pt_clust_5="13000.00000" pt_clust_6="13000.00000" pt_clust_7="13000.00000" pt_clust_8="13000.00000" pt_clust_9="27.25786"></scales>
<clustering>
<clus scale="   27.258">  2  9  1 -1</clus>
<clus scale="   80.150">  5  6 -1 -1</clus>
<clus scale="   90.654">  7  8 -1 -1</clus>
<clus scale="   97.226">  2  5  1 -1</clus>
<clus scale="   27.258">  2  5  1 -1</clus>
</clustering>
</event>
<event>
 9    1  0.7835476E-005  0.1012733E+03  0.7546771E-02  0.1282800E+00
          1   -1    0    0  502    0 -0.00000000000E+00  0.00000000000E+00  0.43147198394E+03  0.43147198394E+03  0.00000000000E+00 0. -1.
         21   -1    0    0  501  502  0.00000000000E+00 -0.00000000000E+00 -0.33838385885E+02  0.33838385885E+02  0.00000000000E+00 0.  1.
         23    2    1    2    0    0  0.55204220973E+02  0.11208933579E+02  0.24746770328E+03  0.26970995777E+03  0.91269112784E+02 0.  0.
        -24    2    1    2    0    0 -0.28919849693E+02  0.15608179123E+02  0.11415455326E+03  0.14357308822E+03  0.80634959353E+02 0.  0.
         13    1    4    4    0    0 -0.36345215173E+02  0.12233242333E+01  0.12073919652E+03  0.12609688642E+03  0.00000000000E+00 0. -1.
        -14    1    4    4    0    0  0.74253654805E+01  0.14384854890E+02 -0.65846432574E+01  0.17476201806E+02  0.00000000000E+00 0.  1.
        -13    1    3    3    0    0  0.52664762801E+02 -0.31020695829E+02  0.10952541993E+03  0.12542598782E+03  0.00000000000E+00 0.  1.
         13    1    3    3    0    0  0.25394581724E+01  0.42229629408E+02  0.13794228335E+03  0.14428396995E+03  0.00000000000E+00 0. -1.
          2    1    1    2  501    0 -0.26284371281E+02 -0.26817112702E+02  0.36011341508E+02  0.52027323826E+02  0.00000000000E+00 0. -1.
<scales pt_clust_5="13000.00000" pt_clust_6="13000.00000" pt_clust_7="13000.00000" pt_clust_8="13000.00000" pt_clust_9="37.55031"></scales>
<clustering>
<clus scale="   37.550">  2  9  1 -1</clus>
<clus scale="   80.635">  5  6 -1 -1</clus>
<clus scale="   91.269">  7  8 -1 -1</clus>
<clus scale="   91.805">  2  5  1 -1</clus>
<clus scale="   37.550">  2  5  1 -1</clus>
</clustering>
</event>
<event>
 9    1  0.9566577E-005  0.1029500E+03  0.7546771E-02  0.1279705E+00
         21   -1    0    0  501  502  0.00000000000E+00  0.00000000000E+00  0.13764450031E+03  0.13764450031E+03  0.00000000000E+00 0.  1.
          1   -1    0    0  502    0 -0.00000000000E+00 -0.00000000000E+00 -0.27427384626E+03  0.27427384626E+03  0.00000000000E+00 0. -1.
         23    2    1    2    0    0  0.53181295871E+02  0.14218837222E+01 -0.89542798316E+02  0.13853574396E+03  0.91345320851E+02 0.  0.
        -24    2    1    2    0    0 -0.21553097276E+02  0.29193182997E+01  0.96109165871E+02  0.12667131693E+03  0.79596434255E+02 0.  0.
         11    1    4    4    0    0  0.14245225034E+02 -0.14645883118E+02 -0.22326232013E+01  0.20552686805E+02  0.00000000000E+00 0. -1.
        -12    1    4    4    0    0 -0.35798322309E+02  0.17565201417E+02  0.98341789072E+02  0.10611863012E+03  0.00000000000E+00 0.  1.
        -11    1    3    3    0    0 -0.21852682855E+02 -0.15924729252E+02 -0.34698302699E+02  0.43989873379E+02  0.00000000000E+00 0.  1.
         11    1    3    3    0    0  0.75033978725E+02  0.17346612975E+02 -0.54844495617E+02  0.94545870584E+02  0.00000000000E+00 0. -1.
          2    1    1    2  501    0 -0.31628198595E+02 -0.43412020220E+01 -0.14319571350E+03  0.14671128568E+03  0.00000000000E+00 0. -1.
<scales pt_clust_5="13000.00000" pt_clust_6="13000.00000" pt_clust_7="13000.00000" pt_clust_8="13000.00000" pt_clust_9="31.92476"></scales>
<clustering>
<clus scale="   31.925">  1  9  2 -1</clus>
<clus scale="   79.596">  5  6 -1 -1</clus>
<clus scale="   91.345">  7  8 -1 -1</clus>
<clus scale="   92.684">  1  5  2 -1</clus>
<clus scale="   31.925">  1  5  2 -1</clus>
</clustering>
</event>
<event>
 9    1  0.7835476E-005  0.1033219E+03  0.7546771E-02  0.1276240E+00
          3   -1    0    0  502    0 -0.00000000000E+00  0.00000000000E+00  0.25143901898E+03  0.25143901898E+03  0.00000000000E+00 0. -1.
         21   -1    0    0  501  502  0.00000000000E+00 -0.00000000000E+00 -0.79058203975E+02  0.79058203975E+02  0.00000000000E+00 0.  1.
         23    2    1    2    0    0 -0.48066110093E+02  0.20690430889E+02  0.16923931642E+03  0.19866356238E+03  0.89926747550E+02 0.  0.
        -24    2    1    2    0    0  0.29047752155E+02 -0.44726216399E+02  0.11879359289E+02  0.99962558727E+02  0.83708945947E+02 0.  0.
         13    1    4    4    0    0  0.52356071828E+01  0.20565213209E+02  0.21015835823E+02  0.29866451618E+02  0.00000000000E+00 0. -1.
        -14    1    4    4    0    0  0.23812144972E+02 -0.65291429608E+02 -0.91364765335E+01  0.70096107109E+02  0.00000000000E+00 0.  1.
        -13    1    3    3    0    0  0.13505265000E+02  0.30776384503E+02  0.99821555857E+02  0.10532768411E+03  0.00000000000E+00 0. -1.
         13    1    3    3    0    0 -0.61571375092E+02 -0.10085953613E+02  0.69417760562E+02  0.93335878270E+02  0.00000000000E+00 0.  1.
          4    1    1    2  501    0  0.19018357938E+02  0.24035785509E+02 -0.87378607008E+01  0.31871101853E+02  0.00000000000E+00 0. -1.
<scales pt_clust_5="13000.00000" pt_clust_6="13000.00000" pt_clust_7="13000.00000" pt_clust_8="13000.00000" pt_clust_9="30.64991"></scales>
<clustering>
<clus scale="   30.650">  2  9  1 -1</clus>
<clus scale="   83.709">  5  6 -1 -1</clus>
<clus scale="   89.927">  7  8 -1 -1</clus>
<clus scale="   97.958">  2  5  1 -1</clus>
<clus scale="   30.650">  2  5  1 -1</clus>
</clustering>
</event>
<event>
 9    1  0.7835476E-005  0.1680594E+03  0.7546771E-02  0.1206129E+00
         21   -1    0    0  501  502  0.00000000000E+00  0.00000000000E+00  0.47464887557E+02  0.47464887557E+02  0.00000000000E+00 0.  1.
          1   -1    0    0  502    0 -0.00000000000E+00 -0.00000000000E+00 -0.17783518238E+04  0.17783518238E+04  0.00000000000E+00 0. -1.
        -24    2    1    2    0    0  0.14286124193E+02 -0.46163375782E+02 -0.19629946902E+03  0.21781369848E+03  0.81081287008E+02 0.  0.
         23    2    1    2    0    0  0.20970735669E+02 -0.12545243506E+03 -0.18262861086E+03  0.24473936192E+03  0.10181385245E+03 0.  0.
         11    1    3    3    0    0 -0.14560316571E+02 -0.55540310694E+02 -0.85895143100E+02  0.10331846175E+03  0.00000000000E+00 0. -1.
        -12    1    3    3    0    0  0.28846440764E+02  0.93769349121E+01 -0.11040432592E+03  0.11449523673E+03  0.00000000000E+00 0.  1.
        -13    1    4    4    0    0 -0.24040657273E+02 -0.51506656673E+02 -0.19551285523E+02  0.60109413983E+02  0.00000000000E+00 0.  1.
         13    1    4    4    0    0  0.45011392942E+02 -0.73945778391E+02 -0.16307732533E+03  0.18462994793E+03  0.00000000000E+00 0. -1.
          2    1    1    2  501    0 -0.35256859862E+02  0.17161581085E+03 -0.13519588563E+04  0.13632636509E+04  0.00000000000E+00 0. -1.
<scales pt_clust_5="13000.00000" pt_clust_6="13000.00000" pt_clust_7="13000.00000" pt_clust_8="13000.00000" pt_clust_9="133.70834"></scales>
<clustering>
<clus scale="   81.081">  5  6 -1 -1</clus>
<clus scale="   94.389">  2  5  1 -1</clus>
<clus scale="  101.814">  7  8 -1 -1</clus>
<clus scale="  133.708">  1  9  2 -1</clus>
<clus scale="  133.708">  1  5  2 -1</clus>
</clustering>
</event>
<event>
 9    1  0.7835476E-005  0.1072726E+03  0.7546771E-02  0.1266836E+00
         21   -1    0    0  501  502  0.00000000000E+00  0.00000000000E+00  0.34921911516E+03  0.34921911516E+03  0.00000000000E+00 0.  1.
         -2   -1    0    0    0  501 -0.00000000000E+00 -0.00000000000E+00 -0.52904430026E+02  0.52904430026E+02  0.00000000000E+00 0.  1.
        -24    2    1    2    0    0  0.27459620095E+02  0.74464151176E+02  0.54968695974E+02  0.12505453759E+03  0.79486723977E+02 0.  0.
         23    2    1    2    0    0  0.76284881417E+01 -0.60608896786E+02  0.18545065375E+03  0.20963435823E+03  0.76308498709E+02 0.  0.
         11    1    3    3    0    0  0.42561162528E+02  0.69026183302E+02  0.15654633425E+02  0.82590157311E+02  0.00000000000E+00 0. -1.
        -12    1    3    3    0    0 -0.15101542433E+02  0.54379678743E+01  0.39314062548E+02  0.42464380279E+02  0.00000000000E+00 0.  1.
        -13    1    4    4    0    0 -0.29981998225E+02 -0.30859572380E+02  0.50099010708E+02  0.66038960462E+02  0.00000000000E+00 0. -1.
         13    1    4    4    0    0  0.37610486366E+02 -0.29749324406E+02  0.13535164304E+03  0.14359539777E+03  0.00000000000E+00 0.  1.
         -1    1    1    2    0  502 -0.35088108236E+02 -0.13855254391E+02  0.55895335415E+02  0.67434649365E+02  0.00000000000E+00 0.  1.
<scales pt_clust_5="13000.00000" pt_clust_6="13000.00000" pt_clust_7="13000.00000" pt_clust_8="13000.00000" pt_clust_9="37.72457"></scales>
<clustering>
<clus scale="   37.725">  1  9  2 -1</clus>
<clus scale="   76.308">  7  8 -1 -1</clus>
<clus scale="   79.487">  5  6 -1 -1</clus>
<clus scale="  104.939">  1  7  2 -1</clus>
<clus scale="   37.725">  1  5  2 -1</clus>
</clustering>
</event>
<event>
 9    1  0.7835476E-005  0.1617557E+03  0.7546771E-02  0.1207926E+00
         21   -1    0    0  501  502  0.00000000000E+00  0.00000000000E+00  0.82253389958E+03  0.82253389958E+03  0.00000000000E+00 0.  1.
         -2   -1    0    0    0  501 -0.00000000000E+00 -0.00000000000E+00 -0.72222352335E+02  0.72222352335E+02  0.00000000000E+00 0.  1.
        -24    2    1    2    0    0  0.12968401502E+02  0.61391634049E+02  0.27928940429E+02  0.10561521881E+03  0.80233637348E+02 0.  0.
         23    2    1    2    0    0 -0.13193343640E+03 -0.79966169366E+02  0.56054668470E+03  0.58742698159E+03  0.84005077770E+02 0.  0.
         11    1    3    3    0    0  0.15948938078E+02 -0.16561589856E+02  0.12223612659E+02  0.26039807811E+02  0.00000000000E+00 0. -1.
        -12    1    3    3    0    0 -0.29805365767E+01  0.77953223905E+02  0.15705327769E+02  0.79575411000E+02  0.00000000000E+00 0.  1.
        -11    1    4    4    0    0 -0.89579755869E+02 -0.84132471586E+02  0.31323531336E+03  0.33648055958E+03  0.00000000000E+00 0.  1.
         11    1    4    4    0    0 -0.42353680531E+02  0.41663022209E+01  0.24731137134E+03  0.25094642202E+03  0.00000000000E+00 0. -1.
         -1    1    1    2    0  502  0.11896503490E+03  0.18574535317E+02  0.16183592212E+03  0.20171405152E+03  0.00000000000E+00 0.  1.
<scales pt_clust_5="13000.00000" pt_clust_6="13000.00000" pt_clust_7="13000.00000" pt_clust_8="13000.00000" pt_clust_9="138.23200"></scales>
<clustering>
<clus scale="   80.234">  5  6 -1 -1</clus>
<clus scale="   84.005">  7  8 -1 -1</clus>
<clus scale="  101.856">  2  5  1 -1</clus>
<clus scale="  138.232">  1  9  2 -1</clus>
<clus scale="  138.232">  1  5  2 -1</clus>
</clustering>
</event>
<event>
 9    1  0.7835476E-005  0.1049716E+03  0.7546771E-02  0.1274421E+00
         21   -1    0    0  501  502  0.00000000000E+00  0.00000000000E+00  0.55284988823E+02  0.55284988823E+02  0.00000000000E+00 0. -1.
         -2   -1    0    0    0  501 -0.00000000000E+00 -0.00000000000E+00 -0.26857722303E+03  0.26857722303E+03  0.00000000000E+00 0.  1.
         23    2    1    2    0    0 -0.72384129829E-01  0.57444839070E+02 -0.12046218170E+03  0.16052078503E+03  0.89195686174E+02 0.  0.
        -24    2    1    2    0    0 -0.34127190954E+02 -0.47981492575E+02 -0.71319810322E+02  0.12184616948E+03  0.79328966212E+02 0.  0.
         11    1    4    4    0    0 -0.57355904127E+02 -0.16849651540E+02 -0.39712073205E+02  0.71768093562E+02  0.00000000000E+00 0. -1.
        -12    1    4    4    0    0  0.23228713173E+02 -0.31131841035E+02 -0.31607737117E+02  0.50078075917E+02  0.00000000000E+00 0.  1.
        -13    1    3    3    0    0  0.36251049715E+02 -0.21126756700E+01 -0.39748742809E+02  0.53838318685E+02  0.00000000000E+00 0. -1.
         13    1    3    3    0    0 -0.36323433844E+02  0.59557514740E+02 -0.80713438894E+02  0.10668246635E+03  0.00000000000E+00 0.  1.
         -1    1    1    2    0  502  0.34199575084E+02 -0.94633464945E+01 -0.21510242180E+02  0.41495257337E+02  0.00000000000E+00 0.  1.
<scales pt_clust_5="13000.00000" pt_clust_6="13000.00000" pt_clust_7="13000.00000" pt_clust_8="13000.00000" pt_clust_9="35.48473"></scales>
<clustering>
<clus scale="   35.485">  1  9  2 -1</clus>
<clus scale="   79.329">  5  6 -1 -1</clus>
<clus scale="   89.196">  7  8 -1 -1</clus>
<clus scale="   96.728">  1  5  2 -1</clus>
<clus scale="   35.485">  1  5  2 -1</clus>
</clustering>
</event>
<event>
 9    1  0.7835476E-005  0.1731417E+03  0.7546771E-02  0.1190583E+00
         -4   -1    0    0    0  501 -0.00000000000E+00  0.00000000000E+00  0.95554889583E+02  0.95554889583E+02  0.00000000000E+00 0.  1.
         21   -1    0    0  501  502  0.00000000000E+00 -0.00000000000E+00 -0.93282411205E+03  0.93282411205E+03  0.00000000000E+00 0.  1.
         23    2    1    2    0    0  0.81228820867E+02  0.10439882539E+02 -0.42808001234E+03  0.44488132936E+03  0.89217642627E+02 0.  0.
        -24    2    1    2    0    0 -0.21446218221E+03  0.27491884564E+02 -0.11545034415E+03  0.25873242026E+03  0.82848367604E+02 0.  0.
         11    1    4    4    0    0 -0.87315671833E+02 -0.16700195454E+02 -0.79855458966E+02  0.11949818996E+03  0.00000000000E+00 0. -1.
        -12    1    4    4    0    0 -0.12714651038E+03  0.44192080019E+02 -0.35594885181E+02  0.13923423031E+03  0.00000000000E+00 0.  1.
        -13    1    3    3    0    0  0.43683535981E+02  0.47965825877E+02 -0.18420119033E+03  0.19529221768E+03  0.00000000000E+00 0. -1.
         13    1    3    3    0    0  0.37545284885E+02 -0.37525943339E+02 -0.24387882201E+03  0.24958911168E+03  0.00000000000E+00 0.  1.
         -3    1    1    2    0  502  0.13323336134E+03 -0.37931767103E+02 -0.29373886597E+03  0.32476525201E+03  0.00000000000E+00 0.  1.
<scales pt_clust_5="13000.00000" pt_clust_6="13000.00000" pt_clust_7="13000.00000" pt_clust_8="13000.00000" pt_clust_9="152.03348"></scales>
<clustering>
<clus scale="   82.848">  5  6 -1 -1</clus>
<clus scale="   89.218">  7  8 -1 -1</clus>
<clus scale="  121.107">  1  7  2 -1</clus>
<clus scale="  152.033">  2  9  1 -1</clus>
<clus scale="  152.033">  2  5  1 -1</clus>
</clustering>
</event>
<event>
 9    1  0.7835476E-005  0.1606635E+03  0.7546771E-02  0.1211528E+00
          1   -1    0    0  502    0 -0.00000000000E+00  0.00000000000E+00  0.42733178782E+03  0.42733178782E+03  0.00000000000E+00 0. -1.
         21   -1    0    0  501  502  0.00000000000E+00 -0.00000000000E+00 -0.14423028188E+03  0.14423028188E+03  0.00000000000E+00 0. -1.
         23    2    1    2    0    0 -0.18976425177E+02  0.22658407718E+02  0.17128986254E+03  0.19647865485E+03  0.91597689099E+02 0.  0.
        -24    2    1    2    0    0 -0.11722605227E+03  0.25347485078E+02  0.16683149460E+03  0.22054259620E+03  0.80136426283E+02 0.  0.
         13    1    4    4    0    0 -0.57825599211E+02 -0.26079781742E+02  0.94048725016E+02  0.11344213334E+03  0.00000000000E+00 0. -1.
        -14    1    4    4    0    0 -0.59400453059E+02  0.51427266820E+02  0.72782769582E+02  0.10710046286E+03  0.00000000000E+00 0.  1.
        -11    1    3    3    0    0  0.21750954226E+02 -0.23734436606E+02  0.80401468665E+02  0.86607295618E+02  0.00000000000E+00 0. -1.
         11    1    3    3    0    0 -0.40727379403E+02  0.46392844324E+02  0.90888393875E+02  0.10987135923E+03  0.00000000000E+00 0.  1.
          2    1    1    2  501    0  0.13620247745E+03 -0.48005892796E+02 -0.55019851190E+02  0.15454081866E+03  0.00000000000E+00 0. -1.
<scales pt_clust_5="13000.00000" pt_clust_6="13000.00000" pt_clust_7="13000.00000" pt_clust_8="13000.00000" pt_clust_9="139.25126"></scales>
<clustering>
<clus scale="   80.136">  5  6 -1 -1</clus>
<clus scale="   91.598">  7  8 -1 -1</clus>
<clus scale="   96.248">  1  7  2 -1</clus>
<clus scale="  139.251">  2  9  1 -1</clus>
<clus scale="  139.251">  2  5  1 -1</clus>
</clustering>
</event>
<event>
 9    1  0.7835476E-005  0.9244595E+02  0.7546771E-02  0.1302920E+00
         21   -1    0    0  501  502  0.00000000000E+00  0.00000000000E+00  0.12946996413E+03  0.12946996413E+03  0.00000000000E+00 0. -1.
          1   -1    0    0  502    0 -0.00000000000E+00 -0.00000000000E+00 -0.13391568320E+03  0.13391568320E+03  0.00000000000E+00 0. -1.
         23    2    1    2    0    0  0.45344612851E+01 -0.72230181739E+01 -0.72394967933E+02  0.11683850104E+03  0.91309750921E+02 0.  0.
        -24    2    1    2    0    0  0.70825370911E+01  0.31847852967E+02  0.18164137032E+02  0.89803032045E+02  0.81671296183E+02 0.  0.
         11    1    4    4    0    0  0.21352029199E+02  0.33691219855E+02 -0.23106105562E+02  0.46096632854E+02  0.00000000000E+00 0. -1.
        -12    1    4    4    0    0 -0.14269492108E+02 -0.18433668887E+01  0.41270242594E+02  0.43706399191E+02  0.00000000000E+00 0.  1.
        -13    1    3    3    0    0  0.19726464945E+02 -0.42410354843E+02 -0.17611971116E+02  0.49979527246E+02  0.00000000000E+00 0. -1.
         13    1    3    3    0    0 -0.15192003660E+02  0.35187336669E+02 -0.54782996817E+02  0.66858973798E+02  0.00000000000E+00 0.  1.
          2    1    1    2  501    0 -0.11616998376E+02 -0.24624834793E+02  0.49785111832E+02  0.56744114232E+02  0.00000000000E+00 0. -1.
<scales pt_clust_5="13000.00000" pt_clust_6="13000.00000" pt_clust_7="13000.00000" pt_clust_8="13000.00000" pt_clust_9="27.22751"></scales>
<clustering>
<clus scale="   27.228">  1  9  2 -1</clus>
<clus scale="   81.671">  5  6 -1 -1</clus>
<clus scale="   82.940">  1  5  2 -1</clus>
<clus scale="   91.310">  7  8 -1 -1</clus>
<clus scale="   27.228">  1  5  2 -1</clus>
</clustering>
</event>
<event>
 9    1  0.7835476E-005  0.1049911E+03  0.7546771E-02  0.1274513E+00
          1   -1    0    0  502    0 -0.00000000000E+00  0.00000000000E+00  0.74688055915E+02  0.74688055915E+02  0.00000000000E+00 0. -1.
         21   -1    0    0  501  502  0.00000000000E+00 -0.00000000000E+00 -0.41064798901E+03  0.41064798901E+03  0.00000000000E+00 0.  1.
         23    2    1    2    0    0  0.23640131254E+02  0.39640611581E+02  0.38069493725E+01  0.10240683244E+03  0.91336917915E+02 0.  0.
        -24    2    1    2    0    0 -0.75781436366E+02 -0.48946486552E+02 -0.26228405462E+03  0.28907345284E+03  0.81436792576E+02 0.  0.
         11    1    4    4    0    0 -0.12729013184E+02  0.19644831178E+02 -0.25479273748E+02  0.34599719065E+02  0.00000000000E+00 0. -1.
        -12    1    4    4    0    0 -0.63052423181E+02 -0.68591317731E+02 -0.23680478087E+03  0.25447373377E+03  0.00000000000E+00 0.  1.
        -11    1    3    3    0    0  0.49888635819E+02  0.52742227853E+02  0.68058967760E+01  0.72917342338E+02  0.00000000000E+00 0. -1.
         11    1    3    3    0    0 -0.26248504565E+02 -0.13101616272E+02 -0.29989474035E+01  0.29489490100E+02  0.00000000000E+00 0.  1.
          2    1    1    2  501    0  0.52141305112E+02  0.93058749717E+01 -0.77482827843E+02  0.93855759644E+02  0.00000000000E+00 0. -1.
<scales pt_clust_5="13000.00000" pt_clust_6="13000.00000" pt_clust_7="13000.00000" pt_clust_8="13000.00000" pt_clust_9="52.96522"></scales>
<clustering>
<clus scale="   52.965">  2  9  1 -1</clus>
<clus scale="   81.437">  5  6 -1 -1</clus>
<clus scale="   91.337">  7  8 -1 -1</clus>
<clus scale="   96.502">  2  5  1 -1</clus>
<clus scale="   52.965">  2  5  1 -1</clus>
</clustering>
</event>
<event>
 9    1  0.7835476E-005  0.1115024E+03  0.7546771E-02  0.1262789E+00
         21   -1    0    0  501  502  0.00000000000E+00  0.00000000000E+00  0.53875418399E+02  0.53875418399E+02  0.00000000000E+00 0. -1.
          3   -1    0    0  502    0 -0.00000000000E+00 -0.00000000000E+00 -0.26444831513E+03  0.26444831513E+03  0.00000000000E+00 0. -1.
         23    2    1    2    0    0 -0.60861573654E+02  0.29314924998E+02 -0.11757578163E+03  0.16436825006E+03  0.92894355188E+02 0.  0.
        -24    2    1    2    0    0  0.55018584056E+02 -0.99082057113E+01 -0.58313433279E+02  0.11378436119E+03  0.80132435492E+02 0.  0.
         11    1    4    4    0    0  0.69160779328E+02  0.96282622152E+01 -0.28457213752E+02  0.75403778719E+02  0.00000000000E+00 0. -1.
        -12    1    4    4    0    0 -0.14142195272E+02 -0.19536467927E+02 -0.29856219526E+02  0.38380582468E+02  0.00000000000E+00 0.  1.
        -13    1    3    3    0    0  0.52965452976E+01 -0.25403024148E+02 -0.45012301132E+02  0.51956465249E+02  0.00000000000E+00 0.  1.
         13    1    3    3    0    0 -0.66158118952E+02  0.54717949145E+02 -0.72563480499E+02  0.11241178481E+03  0.00000000000E+00 0. -1.
          4    1    1    2  501    0  0.58429895977E+01 -0.19406719286E+02 -0.34683681822E+02  0.40171122285E+02  0.00000000000E+00 0. -1.
<scales pt_clust_5="13000.00000" pt_clust_6="13000.00000" pt_clust_7="13000.00000" pt_clust_8="13000.00000" pt_clust_9="20.26726"></scales>
<clustering>
<clus scale="   20.267">  1  9  2 -1</clus>
<clus scale="   80.132">  5  6 -1 -1</clus>
<clus scale="   92.894">  7  8 -1 -1</clus>
<clus scale="  101.117">  1  5  2 -1</clus>
<clus scale="   20.267">  1  5  2 -1</clus>
</clustering>
</event>
<event>
 9    1  0.7835476E-005  0.1423370E+03  0.7546771E-02  0.1212153E+00
         21   -1    0    0  501  502  0.00000000000E+00  0.00000000000E+00  0.20477241329E+03  0.20477241329E+03  0.00000000000E+00 0. -1.
          1   -1    0    0  502    0 -0.00000000000E+00 -0.00000000000E+00 -0.15136675401E+03  0.15136675401E+03  0.00000000000E+00 0. -1.
         23    2    1    2    0    0 -0.94848941820E+02 -0.42880936555E+02 -0.10149237635E+01  0.13756511765E+03  0.89933503426E+02 0.  0.
        -24    2    1    2    0    0  0.12655673300E+03  0.52115315993E+01  0.71766107189E+02  0.16637026341E+03  0.80529023807E+02 0.  0.
         11    1    4    4    0    0  0.11025538026E+03 -0.26269371505E+02  0.63691201796E+02  0.13001114545E+03  0.00000000000E+00 0. -1.
        -12    1    4    4    0    0  0.16301352744E+02  0.31480903104E+02  0.80749053937E+01  0.36359117957E+02  0.00000000000E+00 0.  1.
        -13    1    3    3    0    0 -0.24977834560E+02 -0.26152966489E+01 -0.40592711575E+02  0.47733638337E+02  0.00000000000E+00 0.  1.
         13    1    3    3    0    0 -0.69871107260E+02 -0.40265639906E+02  0.39577787811E+02  0.89831479309E+02  0.00000000000E+00 0. -1.
          2    1    1    2  501    0 -0.31707791180E+02  0.37669404955E+02 -0.17345524146E+02  0.52203786253E+02  0.00000000000E+00 0. -1.
<scales pt_clust_5="13000.00000" pt_clust_6="13000.00000" pt_clust_7="13000.00000" pt_clust_8="13000.00000" pt_clust_9="49.23790"></scales>
<clustering>
<clus scale="   49.238">  1  9  2 -1</clus>
<clus scale="   80.529">  5  6 -1 -1</clus>
<clus scale="   89.934">  7  8 -1 -1</clus>
<clus scale="  136.590">  1  5  2 -1</clus>
<clus scale="   49.238">  1  5  2 -1</clus>
</clustering>
</event>
<event>
 9    1  0.7835476E-005  0.4165482E+03  0.7546771E-02  0.1090943E+00
          1   -1    0    0  502    0 -0.00000000000E+00  0.00000000000E+00  0.12746461146E+04  0.12746461146E+04  0.00000000000E+00 0. -1.
         21   -1    0    0  501  502  0.00000000000E+00 -0.00000000000E+00 -0.21028834205E+03  0.21028834205E+03  0.00000000000E+00 0. -1.
        -24    2    1    2    0    0 -0.56327368206E+02  0.12165551220E+02 -0.39432705261E+02  0.10409418755E+03  0.77200314714E+02 0.  0.
         23    2    1    2    0    0  0.39147474402E+03 -0.19527100100E+03  0.62422725445E+03  0.76778867710E+03  0.91959493542E+02 0.  0.
         11    1    3    3    0    0 -0.41283555672E+02 -0.28618667879E+02 -0.33117572870E+02  0.60167547339E+02  0.00000000000E+00 0. -1.
        -12    1    3    3    0    0 -0.15043812534E+02  0.40784219099E+02 -0.63151323911E+01  0.43926640210E+02  0.00000000000E+00 0.  1.
        -11    1    4    4    0    0  0.36942469300E+03 -0.15675871438E+03  0.57850654131E+03  0.70407223824E+03  0.00000000000E+00 0. -1.
         11    1    4    4    0    0  0.22050051023E+02 -0.38512286617E+02  0.45720713144E+02  0.63716438860E+02  0.00000000000E+00 0.  1.
          2    1    1    2  501    0 -0.33514737581E+03  0.18310544978E+03  0.47956322340E+03  0.61305159203E+03  0.00000000000E+00 0. -1.
<scales pt_clust_5="13000.00000" pt_clust_6="13000.00000" pt_clust_7="13000.00000" pt_clust_8="13000.00000" pt_clust_9="406.27065"></scales>
<clustering>
<clus scale="   77.200">  5  6 -1 -1</clus>
<clus scale="   91.959">  7  8 -1 -1</clus>
<clus scale="   96.336">  1  5  2 -1</clus>
<clus scale="  406.271">  2  9  1 -1</clus>
<clus scale="  406.271">  2  5  1 -1</clus>
</clustering>
</event>
<event>
 9    1  0.7835476E-005  0.1053411E+03  0.7546771E-02  0.1275039E+00
         -2   -1    0    0    0  501 -0.00000000000E+00  0.00000000000E+00  0.42996911925E+02  0.42996911925E+02  0.00000000000E+00 0.  1.
         21   -1    0    0  501  502  0.00000000000E+00 -0.00000000000E+00 -0.35979790354E+03  0.35979790354E+03  0.00000000000E+00 0. -1.
         23    2    1    2    0    0  0.24402576948E+02  0.21642261273E+02 -0.13084533486E+03  0.16347399525E+03  0.92408723801E+02 0.  0.
        -24    2    1    2    0    0 -0.41095029177E+02 -0.58978433705E+02 -0.15195941478E+03  0.18613837761E+03  0.79928560678E+02 0.  0.
         13    1    4    4    0    0  0.18422519416E+02 -0.32680558683E+02 -0.84283735538E+02  0.92255927797E+02  0.00000000000E+00 0. -1.
        -14    1    4    4    0    0 -0.59517548594E+02 -0.26297875021E+02 -0.67675679247E+02  0.93882449812E+02  0.00000000000E+00 0.  1.
        -13    1    3    3    0    0  0.57004472075E+02  0.28043746972E+02 -0.73059054653E+02  0.96817286925E+02  0.00000000000E+00 0.  1.
         13    1    3    3    0    0 -0.32601895127E+02 -0.64014856984E+01 -0.57786280202E+02  0.66656708324E+02  0.00000000000E+00 0. -1.
         -1    1    1    2    0  502  0.16692452229E+02  0.37336172431E+02 -0.33996241978E+02  0.53182442609E+02  0.00000000000E+00 0.  1.
<scales pt_clust_5="13000.00000" pt_clust_6="13000.00000" pt_clust_7="13000.00000" pt_clust_8="13000.00000" pt_clust_9="40.89779"></scales>
<clustering>
<clus scale="   40.898">  2  9  1 -1</clus>
<clus scale="   79.929">  5  6 -1 -1</clus>
<clus scale="   92.409">  7  8 -1 -1</clus>
<clus scale="   94.583">  2  5  1 -1</clus>
<clus scale="   40.898">  2  5  1 -1</clus>
</clustering>
</event>
<event>
 9    1  0.7835476E-005  0.1106437E+03  0.7546771E-02  0.1262558E+00
         21   -1    0    0  501  502  0.00000000000E+00  0.00000000000E+00  0.23899994398E+02  0.23899994398E+02  0.00000000000E+00 0.  1.
          1   -1    0    0  502    0 -0.00000000000E+00 -0.00000000000E+00 -0.89959609788E+03  0.89959609788E+03  0.00000000000E+00 0. -1.
        -24    2    1    2    0    0  0.18417635068E+02  0.70464594778E+02 -0.56581932082E+03  0.57640579972E+03  0.82387339651E+02 0.  0.
         23    2    1    2    0    0 -0.27402830783E+01 -0.34319769395E+02 -0.12582893690E+03  0.15887276602E+03  0.90676781479E+02 0.  0.
         13    1    3    3    0    0 -0.31053404830E+02  0.40738272492E+02 -0.30555429697E+03  0.30981825187E+03  0.00000000000E+00 0. -1.
        -14    1    3    3    0    0  0.49471039898E+02  0.29726322285E+02 -0.26026502385E+03  0.26658754784E+03  0.00000000000E+00 0.  1.
        -11    1    4    4    0    0 -0.32469776268E+02 -0.25283036893E+02 -0.15049219053E+02  0.43817774014E+02  0.00000000000E+00 0.  1.
         11    1    4    4    0    0  0.29729493190E+02 -0.90367325019E+01 -0.11077971785E+03  0.11505499201E+03  0.00000000000E+00 0. -1.
          2    1    1    2  501    0 -0.15677351990E+02 -0.36144825382E+02 -0.18404784576E+03  0.18821752654E+03  0.00000000000E+00 0. -1.
<scales pt_clust_5="13000.00000" pt_clust_6="13000.00000" pt_clust_7="13000.00000" pt_clust_8="13000.00000" pt_clust_9="39.39834"></scales>
<clustering>
<clus scale="   39.398">  1  9  2 -1</clus>
<clus scale="   82.387">  5  6 -1 -1</clus>
<clus scale="   90.677">  7  8 -1 -1</clus>
<clus scale="  103.959">  2  5  1 -1</clus>
<clus scale="   39.398">  1  5  2 -1</clus>
</clustering>
</event>
<event>
 9    1  0.7835476E-005  0.1160152E+03  0.7546771E-02  0.1252982E+00
          3   -1    0    0  502    0 -0.00000000000E+00  0.00000000000E+00  0.27233011208E+03  0.27233011208E+03  0.00000000000E+00 0. -1.
         21   -1    0    0  501  502  0.00000000000E+00 -0.00000000000E+00 -0.76851441913E+02  0.76851441913E+02  0.00000000000E+00 0.  1.
         23    2    1    2    0    0 -0.16036508093E+01  0.80279559117E+02  0.12622500538E+03  0.17437770701E+03  0.89596056896E+02 0.  0.
        -24    2    1    2    0    0 -0.26706299452E+02 -0.64733475607E+02  0.87404750500E+02  0.13775528548E+03  0.80207723906E+02 0.  0.
         11    1    4    4    0    0 -0.26910447390E+02  0.11867729010E+02  0.30165333446E+02  0.42130303969E+02  0.00000000000E+00 0. -1.
        -12    1    4    4    0    0  0.20414793838E+00 -0.76601204617E+02  0.57239417054E+02  0.95624981515E+02  0.00000000000E+00 0.  1.
        -13    1    3    3    0    0 -0.16221802167E+02  0.57145851632E+02  0.17016543017E+02  0.61792863347E+02  0.00000000000E+00 0.  1.
         13    1    3    3    0    0  0.14618151357E+02  0.23133707484E+02  0.10920846237E+03  0.11258484367E+03  0.00000000000E+00 0. -1.
          4    1    1    2  501    0  0.28309950261E+02 -0.15546083510E+02 -0.18151085716E+02  0.37048561496E+02  0.00000000000E+00 0. -1.
<scales pt_clust_5="13000.00000" pt_clust_6="13000.00000" pt_clust_7="13000.00000" pt_clust_8="13000.00000" pt_clust_9="32.29758"></scales>
<clustering>
<clus scale="   32.298">  2  9  1 -1</clus>
<clus scale="   80.208">  5  6 -1 -1</clus>
<clus scale="   89.596">  7  8 -1 -1</clus>
<clus scale="  108.928">  2  5  1 -1</clus>
<clus scale="   32.298">  2  5  1 -1</clus>
</clustering>
</event>
<event>
 9    1  0.7835476E-005  0.1122575E+03  0.7546771E-02  0.1262848E+00
          1   -1    0    0  502    0 -0.00000000000E+00  0.00000000000E+00  0.15594465646E+03  0.15594465646E+03  0.00000000000E+00 0. -1.
         21   -1    0    0  501  502  0.00000000000E+00 -0.00000000000E+00 -0.15946347396E+03  0.15946347396E+03  0.00000000000E+00 0. -1.
         23    2    1    2    0    0  0.51496921465E+02  0.21565638916E+02  0.12004610358E+02  0.82753846436E+02  0.59892225938E+02 0.  0.
        -24    2    1    2    0    0 -0.11857456998E+03 -0.59704036008E+02 -0.10385246485E+02  0.15532156665E+03  0.79952705783E+02 0.  0.
         13    1    4    4    0    0 -0.93796819517E+02 -0.83967820100E+01 -0.23054940164E+02  0.96952976053E+02  0.00000000000E+00 0. -1.
        -14    1    4    4    0    0 -0.24777750459E+02 -0.51307253998E+02  0.12669693679E+02  0.58368590599E+02  0.00000000000E+00 0.  1.
        -11    1    3    3    0    0  0.25557172072E+02 -0.99683076432E+01  0.27722548159E+02  0.39000972783E+02  0.00000000000E+00 0.  1.
         11    1    3    3    0    0  0.25939749392E+02  0.31533946559E+02 -0.15717937801E+02  0.43752873653E+02  0.00000000000E+00 0. -1.
          2    1    1    2  501    0  0.67077648511E+02  0.38138397091E+02 -0.51381813739E+01  0.77332717334E+02  0.00000000000E+00 0. -1.
<scales pt_clust_5="13000.00000" pt_clust_6="13000.00000" pt_clust_7="13000.00000" pt_clust_8="13000.00000" pt_clust_9="77.16183"></scales>
<clustering>
<clus scale="   59.892">  7  8 -1 -1</clus>
<clus scale="   77.162">  2  9  1 -1</clus>
<clus scale="   79.953">  5  6 -1 -1</clus>
<clus scale="   98.977">  1  7  2 -1</clus>
<clus scale="   77.162">  2  5  1 -1</clus>
</clustering>
</event>
<event>
 9    1  0.7835476E-005  0.1003216E+03  0.7546771E-02  0.1280985E+00
          1   -1    0    0  502    0 -0.00000000000E+00  0.00000000000E+00  0.96923881709E+02  0.96923881709E+02  0.00000000000E+00 0. -1.
         21   -1    0    0  501  502  0.00000000000E+00 -0.00000000000E+00 -0.14808564615E+03  0.14808564615E+03  0.00000000000E+00 0. -1.
         23    2    1    2    0    0 -0.39026211897E+02 -0.36096707941E+01 -0.55594114108E+01  0.96459733127E+02  0.87963049751E+02 0.  0.
        -24    2    1    2    0    0  0.64144638999E+02 -0.44114999199E+00 -0.56854852076E+02  0.12072959948E+03  0.85020189718E+02 0.  0.
         11    1    4    4    0    0  0.54124425108E+02  0.38336300024E+02 -0.38290571926E+02  0.76585202169E+02  0.00000000000E+00 0. -1.
        -12    1    4    4    0    0  0.10020213891E+02 -0.38777450016E+02 -0.18564280150E+02  0.44144397308E+02  0.00000000000E+00 0.  1.
        -11    1    3    3    0    0 -0.20615873347E+02 -0.36027169360E+02  0.24824800194E+02  0.48365709656E+02  0.00000000000E+00 0. -1.
         11    1    3    3    0    0 -0.18410338551E+02  0.32417498565E+02 -0.30384211605E+02  0.48094023471E+02  0.00000000000E+00 0.  1.
          2    1    1    2  501    0 -0.25118427102E+02  0.40508207861E+01  0.11252499048E+02  0.27820195253E+02  0.00000000000E+00 0. -1.
<scales pt_clust_5="13000.00000" pt_clust_6="13000.00000" pt_clust_7="13000.00000" pt_clust_8="13000.00000" pt_clust_9="25.44298"></scales>
<clustering>
<clus scale="   25.443">  2  9  1 -1</clus>
<clus scale="   85.020">  5  6 -1 -1</clus>
<clus scale="   87.963">  7  8 -1 -1</clus>
<clus scale="   97.752">  2  5  1 -1</clus>
<clus scale="   25.443">  2  5  1 -1</clus>
</clustering>
</event>
<event>
 9    1  0.9903827E-005  0.1420354E+03  0.7546771E-02  0.1213656E+00
         21   -1    0    0  501  502  0.00000000000E+00  0.00000000000E+00  0.15439921381E+03  0.15439921381E+03  0.00000000000E+00 0. -1.
         -4   -1    0    0    0  501 -0.00000000000E+00 -0.00000000000E+00 -0.11343680574E+04  0.11343680574E+04  0.00000000000E+00 0.  1.
         23    2    1    2    0    0  0.72488869260E+02 -0.46268588482E+02 -0.78932702694E+02  0.14973230982E+03  0.93776194227E+02 0.  0.
        -24    2    1    2    0    0 -0.19008075591E+03  0.52689960407E+01  0.22273041520E+02  0.20736513536E+03  0.79660246674E+02 0.  0.
         11    1    4    4    0    0 -0.18949211961E+03 -0.10611446533E+02  0.24326372174E+02  0.19134168019E+03  0.00000000000E+00 0. -1.
        -12    1    4    4    0    0 -0.58863629333E+00  0.15880442574E+02 -0.20533306540E+01  0.16023455177E+02  0.00000000000E+00 0.  1.
        -13    1    3    3    0    0  0.80884886847E+01 -0.57675544692E+02 -0.54949468355E+02  0.80070819761E+02  0.00000000000E+00 0. -1.
         13    1    3    3    0    0  0.64400380576E+02  0.11406956210E+02 -0.23983234339E+02  0.69661490062E+02  0.00000000000E+00 0.  1.
         -3    1    1    2    0  502  0.11759188665E+03  0.40999592441E+02 -0.92330918239E+03  0.93166982600E+03  0.00000000000E+00 0.  1.
<scales pt_clust_5="13000.00000" pt_clust_6="13000.00000" pt_clust_7="13000.00000" pt_clust_8="13000.00000" pt_clust_9="124.53447"></scales>
<clustering>
<clus scale="   79.660">  5  6 -1 -1</clus>
<clus scale="   93.776">  7  8 -1 -1</clus>
<clus scale="  124.534">  1  9  2 -1</clus>
<clus scale="  133.138">  1  5  2 -1</clus>
<clus scale="  124.534">  1  5  2 -1</clus>
</clustering>
</event>
<event>
 9    1  0.7835476E-005  0.1286728E+03  0.7546771E-02  0.1231959E+00
          3   -1    0    0  502    0 -0.00000000000E+00  0.00000000000E+00  0.13001555767E+03  0.13001555767E+03  0.00000000000E+00 0. -1.
         21   -1    0    0  501  502  0.00000000000E+00 -0.00000000000E+00 -0.26348434025E+03  0.26348434025E+03  0.00000000000E+00 0.  1.
         23    2    1    2    0    0 -0.33122932492E+02 -0.82757179957E+02  0.34513854756E+02  0.13058784095E+03  0.88972459464E+02 0.  0.
        -24    2    1    2    0    0  0.47474179864E+02  0.99102612892E+02 -0.18907954506E+03  0.23261006043E+03  0.79254275693E+02 0.  0.
         11    1    4    4    0    0  0.11712014800E+02  0.89010055993E+02 -0.91470338257E+02  0.12816701658E+03  0.00000000000E+00 0. -1.
        -12    1    4    4    0    0  0.35762165064E+02  0.10092556899E+02 -0.97609206804E+02  0.10444304385E+03  0.00000000000E+00 0.  1.
        -11    1    3    3    0    0  0.17785168530E+02 -0.19028572986E+02 -0.19692540575E+02  0.32652640993E+02  0.00000000000E+00 0.  1.
         11    1    3    3    0    0 -0.50908101023E+02 -0.63728606971E+02  0.54206395331E+02  0.97935199959E+02  0.00000000000E+00 0. -1.
          4    1    1    2  501    0 -0.14351247372E+02 -0.16345432935E+02  0.21096907725E+02  0.30301996543E+02  0.00000000000E+00 0. -1.
<scales pt_clust_5="13000.00000" pt_clust_6="13000.00000" pt_clust_7="13000.00000" pt_clust_8="13000.00000" pt_clust_9="21.75160"></scales>
<clustering>
<clus scale="   21.752">  2  9  1 -1</clus>
<clus scale="   79.254">  5  6 -1 -1</clus>
<clus scale="   88.972">  7  8 -1 -1</clus>
<clus scale="  122.155">  2  5  1 -1</clus>
<clus scale="   21.752">  2  5  1 -1</clus>
</clustering>
</event>
<event>
 9    1  0.7835476E-005  0.2241950E+03  0.7546771E-02  0.1131397E+00
          1   -1    0    0  502    0 -0.00000000000E+00  0.00000000000E+00  0.14564394398E+04  0.14564394398E+04  0.00000000000E+00 0. -1.
         21   -1    0    0  501  502  0.00000000000E+00 -0.00000000000E+00 -0.38553892019E+02  0.38553892019E+02  0.00000000000E+00 0. -1.
         23    2    1    2    0    0  0.20846523014E+03  0.15435082979E+02  0.71253818514E+03  0.74793735070E+03  0.89462960611E+02 0.  0.
        -24    2    1    2    0    0 -0.20239715821E+03  0.10565942554E+02  0.60243948630E+03  0.64074085596E+03  0.80865697600E+02 0.  0.
         11    1    4    4    0    0 -0.10079144659E+03  0.32910681665E+02  0.21714708290E+03  0.24165033476E+03  0.00000000000E+00 0. -1.
        -12    1    4    4    0    0 -0.10160571162E+03 -0.22344739112E+02  0.38529240340E+03  0.39909052121E+03  0.00000000000E+00 0.  1.
        -11    1    3    3    0    0  0.43563204608E+02  0.34796293894E+02  0.25976774097E+03  0.26568367303E+03  0.00000000000E+00 0.  1.
         11    1    3    3    0    0  0.16490202553E+03 -0.19361210915E+02  0.45277044417E+03  0.48225367767E+03  0.00000000000E+00 0. -1.
          2    1    1    2  501    0 -0.60680719257E+01 -0.26001025533E+02  0.10290787631E+03  0.10631512513E+03  0.00000000000E+00 0. -1.
<scales pt_clust_5="13000.00000" pt_clust_6="13000.00000" pt_clust_7="13000.00000" pt_clust_8="13000.00000" pt_clust_9="26.69973"></scales>
<clustering>
<clus scale="   26.700">  2  9  1 -1</clus>
<clus scale="   80.866">  5  6 -1 -1</clus>
<clus scale="   89.463">  7  8 -1 -1</clus>
<clus scale="  220.905">  2  5  1 -1</clus>
<clus scale="   26.700">  2  5  1 -1</clus>
</clustering>
</event>
<event>
 9    1  0.7835476E-005  0.1216817E+03  0.7546771E-02  0.1257357E+00
         21   -1    0    0  501  502  0.00000000000E+00  0.00000000000E+00  0.77797887842E+02  0.77797887842E+02  0.00000000000E+00 0.  1.
         -2   -1    0    0    0  501 -0.00000000000E+00 -0.00000000000E+00 -0.29495666418E+03  0.29495666418E+03  0.00000000000E+00 0.  1.
        -24    2    1    2    0    0 -0.45395210556E+02  0.41097295127E+01 -0.11276899575E+03  0.14216654672E+03  0.73599358591E+02 0.  0.
         23    2    1    2    0    0 -0.28812974656E+02 -0.58143711389E+02 -0.65889312408E+02  0.13104498948E+03  0.92846696737E+02 0.  0.
         11    1    3    3    0    0 -0.55850712370E+02  0.26354166989E+02 -0.75803521638E+02  0.97775344963E+02  0.00000000000E+00 0. -1.
        -12    1    3    3    0    0  0.10455501815E+02 -0.22244437476E+02 -0.36965474111E+02  0.44391201753E+02  0.00000000000E+00 0.  1.
        -13    1    4    4    0    0 -0.35032544610E+02 -0.79006475915E+02 -0.66837036767E+02  0.10925425347E+03  0.00000000000E+00 0.  1.
         13    1    4    4    0    0  0.62195699539E+01  0.20862764526E+02  0.94772435911E+00  0.21790736003E+02  0.00000000000E+00 0. -1.
         -1    1    1    2    0  502  0.74208185212E+02  0.54033981876E+02 -0.38500468181E+02  0.99543015828E+02  0.00000000000E+00 0.  1.
<scales pt_clust_5="13000.00000" pt_clust_6="13000.00000" pt_clust_7="13000.00000" pt_clust_8="13000.00000" pt_clust_9="78.65065"></scales>
<clustering>
<clus scale="   73.599">  5  6 -1 -1</clus>
<clus scale="   86.571">  2  5  1 -1</clus>
<clus scale="   78.651">  1  9  2 -1</clus>
<clus scale="   92.847">  7  8 -1 -1</clus>
<clus scale="   78.651">  1  5  2 -1</clus>
</clustering>
</event>
<event>
 9    1  0.7835476E-005  0.1510626E+03  0.7546771E-02  0.1202589E+00
          1   -1    0    0  502    0 -0.00000000000E+00  0.00000000000E+00  0.56125825288E+03  0.56125825288E+03  0.00000000000E+00 0. -1.
         21   -1    0    0  501  502  0.00000000000E+00 -0.00000000000E+00 -0.23966265431E+03  0.23966265431E+03  0.00000000000E+00 0. -1.
         23    2    1    2    0    0  0.23163503673E+02 -0.13441444705E+03  0.39789494879E+03  0.43197770229E+03  0.98389803937E+02 0.  0.
        -24    2    1    2    0    0  0.45241756769E+02  0.82039087735E+02  0.10879595505E+03  0.16477971662E+03  0.80861404277E+02 0.  0.
         13    1    4    4    0    0  0.54709820124E+02  0.20131950034E+02  0.35018749680E+02  0.68005681081E+02  0.00000000000E+00 0. -1.
        -14    1    4    4    0    0 -0.94680633551E+01  0.61907137700E+02  0.73777205365E+02  0.96774035534E+02  0.00000000000E+00 0.  1.
        -13    1    3    3    0    0  0.21362697046E+01 -0.37237847473E+02  0.22324601212E+02  0.43469630225E+02  0.00000000000E+00 0.  1.
         13    1    3    3    0    0  0.21027233968E+02 -0.97176599577E+02  0.37557034758E+03  0.38850807206E+03  0.00000000000E+00 0. -1.
          2    1    1    2  501    0 -0.68405260441E+02  0.52375359315E+02 -0.18509530527E+03  0.20416348829E+03  0.00000000000E+00 0. -1.
<scales pt_clust_5="13000.00000" pt_clust_6="13000.00000" pt_clust_7="13000.00000" pt_clust_8="13000.00000" pt_clust_9="86.15369"></scales>
<clustering>
<clus scale="   80.861">  5  6 -1 -1</clus>
<clus scale="   86.154">  2  9  1 -1</clus>
<clus scale="   98.390">  7  8 -1 -1</clus>
<clus scale="  140.278">  2  5  1 -1</clus>
<clus scale="   86.154">  2  5  1 -1</clus>
</clustering>
</event>
<event>
 9    1  0.7930783E-005  0.1917462E+03  0.7546771E-02  0.1156916E+00
         21   -1    0    0  501  502  0.00000000000E+00  0.00000000000E+00  0.88573597504E+02  0.88573597504E+02  0.00000000000E+00 0. -1.
          1   -1    0    0  502    0 -0.00000000000E+00 -0.00000000000E+00 -0.11022211058E+04  0.11022211058E+04  0.00000000000E+00 0. -1.
         23    2    1    2    0    0  0.13115370595E+03 -0.31421883112E+01 -0.17291232697E+03  0.23203064196E+03  0.82026691134E+02 0.  0.
        -24    2    1    2    0    0 -0.24599781036E+03  0.41812512277E+02 -0.27516853148E+03  0.38036091674E+03  0.81813797010E+02 0.  0.
         13    1    4    4    0    0 -0.21118893275E+03  0.37426759005E+02 -0.27012075108E+03  0.34491556614E+03  0.00000000000E+00 0. -1.
        -14    1    4    4    0    0 -0.34808877604E+02  0.43857532722E+01 -0.50477804079E+01  0.35445350596E+02  0.00000000000E+00 0.  1.
        -13    1    3    3    0    0  0.87420146694E+02  0.36881807046E+02 -0.96689421229E+02  0.13546731678E+03  0.00000000000E+00 0. -1.
         13    1    3    3    0    0  0.43733559258E+02 -0.40023995357E+02 -0.76222905741E+02  0.96563325178E+02  0.00000000000E+00 0.  1.
          2    1    1    2  501    0  0.11484410441E+03 -0.38670323966E+02 -0.56556664989E+03  0.57840314465E+03  0.00000000000E+00 0. -1.
<scales pt_clust_5="13000.00000" pt_clust_6="13000.00000" pt_clust_7="13000.00000" pt_clust_8="13000.00000" pt_clust_9="121.17994"></scales>
<clustering>
<clus scale="   81.814">  5  6 -1 -1</clus>
<clus scale="   82.027">  7  8 -1 -1</clus>
<clus scale="  121.180">  1  9  2 -1</clus>
<clus scale="  191.655">  1  5  2 -1</clus>
<clus scale="  121.180">  1  5  2 -1</clus>
</clustering>
</event>
<event>
 9    1  0.7835476E-005  0.1587254E+03  0.7546771E-02  0.1214928E+00
         21   -1    0    0  501  502  0.00000000000E+00  0.00000000000E+00  0.83865614666E+02  0.83865614666E+02  0.00000000000E+00 0. -1.
          1   -1    0    0  502    0 -0.00000000000E+00 -0.00000000000E+00 -0.94219211042E+03  0.94219211042E+03  0.00000000000E+00 0. -1.
        -24    2    1    2    0    0 -0.47582912413E+02 -0.70758591414E+01 -0.44864950288E+03  0.45815945896E+03  0.79432437076E+02 0.  0.
         23    2    1    2    0    0  0.10014647147E+02 -0.12831653570E+03 -0.26981148662E+02  0.16022366021E+03  0.91532575712E+02 0.  0.
         13    1    3    3    0    0 -0.59158362240E+02 -0.23994901820E+02 -0.23461119696E+03  0.24314168889E+03  0.00000000000E+00 0. -1.
        -14    1    3    3    0    0  0.11575449827E+02  0.16919042678E+02 -0.21403830592E+03  0.21501777007E+03  0.00000000000E+00 0.  1.
        -11    1    4    4    0    0  0.90449924856E+01 -0.80610917729E+02 -0.61109427430E+02  0.10155931305E+03  0.00000000000E+00 0.  1.
         11    1    4    4    0    0  0.96965466145E+00 -0.47705617970E+02  0.34128278768E+02  0.58664347160E+02  0.00000000000E+00 0. -1.
          2    1    1    2  501    0  0.37568265266E+02  0.13539239484E+03 -0.38269584421E+03  0.40767460592E+03  0.00000000000E+00 0. -1.
<scales pt_clust_5="13000.00000" pt_clust_6="13000.00000" pt_clust_7="13000.00000" pt_clust_8="13000.00000" pt_clust_9="129.67476"></scales>
<clustering>
<clus scale="   79.432">  5  6 -1 -1</clus>
<clus scale="   91.533">  7  8 -1 -1</clus>
<clus scale="   92.864">  2  5  1 -1</clus>
<clus scale="  129.675">  1  9  2 -1</clus>
<clus scale="  129.675">  1  5  2 -1</clus>
</clustering>
</event>
<event>
 9    1  0.7835476E-005  0.1666383E+03  0.7546771E-02  0.1191393E+00
          1   -1    0    0  502    0 -0.00000000000E+00  0.00000000000E+00  0.10599450249E+03  0.10599450249E+03  0.00000000000E+00 0. -1.
         21   -1    0    0  501  502  0.00000000000E+00 -0.00000000000E+00 -0.53869782691E+03  0.53869782691E+03  0.00000000000E+00 0. -1.
         23    2    1    2    0    0  0.20981529169E+02  0.97193684032E+02 -0.68883988160E+02  0.15016987115E+03  0.88989603862E+02 0.  0.
        -24    2    1    2    0    0  0.13232165329E+03 -0.79182280753E+02 -0.24203314199E+03  0.29790569010E+03  0.79930625293E+02 0.  0.
         13    1    4    4    0    0  0.11778757532E+03 -0.69630364754E+02 -0.14515972231E+03  0.19948344687E+03  0.00000000000E+00 0. -1.
        -14    1    4    4    0    0  0.14534077968E+02 -0.95519159992E+01 -0.96873419681E+02  0.98422243230E+02  0.00000000000E+00 0.  1.
        -11    1    3    3    0    0  0.50170210374E+02  0.88762207091E+02 -0.60875007245E+02  0.11874993021E+03  0.00000000000E+00 0. -1.
         11    1    3    3    0    0 -0.29188681205E+02  0.84314769404E+01 -0.80089809154E+01  0.31419940948E+02  0.00000000000E+00 0.  1.
          2    1    1    2  501    0 -0.15330318245E+03 -0.18011403279E+02 -0.12178619427E+03  0.19661676814E+03  0.00000000000E+00 0. -1.
<scales pt_clust_5="13000.00000" pt_clust_6="13000.00000" pt_clust_7="13000.00000" pt_clust_8="13000.00000" pt_clust_9="146.21710"></scales>
<clustering>
<clus scale="   79.931">  5  6 -1 -1</clus>
<clus scale="   88.990">  7  8 -1 -1</clus>
<clus scale="  133.439">  1  7  2 -1</clus>
<clus scale="  146.217">  2  9  1 -1</clus>
<clus scale="  146.217">  2  5  1 -1</clus>
</clustering>
</event>
<event>
 9    1  0.7835476E-005  0.1438124E+03  0.7546771E-02  0.1236243E+00
          1   -1    0    0  502    0 -0.00000000000E+00  0.00000000000E+00  0.92482692089E+02  0.92482692089E+02  0.00000000000E+00 0. -1.
         21   -1    0    0  501  502  0.00000000000E+00 -0.00000000000E+00 -0.10817789087E+04  0.10817789087E+04  0.00000000000E+00 0.  1.
        -24    2    1    2    0    0 -0.85590125680E+01  0.14141681584E+01 -0.20676825615E+03  0.22175398336E+03  0.79664677342E+02 0.  0.
         23    2    1    2    0    0 -0.93981045843E+02  0.49048870201E+02  0.22434933013E+02  0.13947241420E+03  0.87812296739E+02 0.  0.
         11    1    3    3    0    0 -0.36040181646E+02  0.24081386524E+01 -0.45187129834E+02  0.57849550798E+02  0.00000000000E+00 0. -1.
        -12    1    3    3    0    0  0.27481169078E+02 -0.99397049403E+00 -0.16158112632E+03  0.16390443256E+03  0.00000000000E+00 0.  1.
        -11    1    4    4    0    0 -0.95415769747E+02  0.94818607378E+01  0.44579016438E+01  0.95989310273E+02  0.00000000000E+00 0.  1.
         11    1    4    4    0    0  0.14347239048E+01  0.39567009463E+02  0.17977031370E+02  0.43483103930E+02  0.00000000000E+00 0. -1.
          2    1    1    2  501    0  0.10254005841E+03 -0.50463038360E+02 -0.80496289346E+03  0.81303520321E+03  0.00000000000E+00 0. -1.
<scales pt_clust_5="13000.00000" pt_clust_6="13000.00000" pt_clust_7="13000.00000" pt_clust_8="13000.00000" pt_clust_9="113.89037"></scales>
<clustering>
<clus scale="   79.665">  5  6 -1 -1</clus>
<clus scale="   80.136">  1  5  2 -1</clus>
<clus scale="   87.812">  7  8 -1 -1</clus>
<clus scale="  113.890">  2  9  1 -1</clus>
<clus scale="  113.890">  2  5  1 -1</clus>
</clustering>
</event>
<event>
 9    1  0.7835476E-005  0.1220155E+03  0.7546771E-02  0.1244383E+00
         21   -1    0    0  501  502  0.00000000000E+00  0.00000000000E+00  0.12063720980E+03  0.12063720980E+03  0.00000000000E+00 0. -1.
          1   -1    0    0  502    0 -0.00000000000E+00 -0.00000000000E+00 -0.79913669786E+03  0.79913669786E+03  0.00000000000E+00 0. -1.
        -24    2    1    2    0    0 -0.19921918979E+02  0.77752681128E+02 -0.64424557863E+03  0.65384842130E+03  0.77608183732E+02 0.  0.
         23    2    1    2    0    0 -0.15350533844E+02 -0.81620938135E+02 -0.12024285264E+03  0.17290286710E+03  0.92409098094E+02 0.  0.
         13    1    3    3    0    0 -0.43516938091E+02  0.58852819233E+02 -0.32328759248E+03  0.33146982621E+03  0.00000000000E+00 0. -1.
        -14    1    3    3    0    0  0.23595019112E+02  0.18899861895E+02 -0.32095798614E+03  0.32237859510E+03  0.00000000000E+00 0.  1.
        -11    1    4    4    0    0  0.53410261841E+01 -0.84223154245E+02 -0.46682250319E+02  0.96443241165E+02  0.00000000000E+00 0.  1.
         11    1    4    4    0    0 -0.20691560028E+02  0.26022161095E+01 -0.73560602318E+02  0.76459625937E+02  0.00000000000E+00 0. -1.
          2    1    1    2  501    0  0.35272452823E+02  0.38682570068E+01  0.85988943200E+02  0.93022619255E+02  0.00000000000E+00 0. -1.
<scales pt_clust_5="13000.00000" pt_clust_6="13000.00000" pt_clust_7="13000.00000" pt_clust_8="13000.00000" pt_clust_9="35.48393"></scales>
<clustering>
<clus scale="   35.484">  1  9  2 -1</clus>
<clus scale="   77.608">  5  6 -1 -1</clus>
<clus scale="   92.409">  7  8 -1 -1</clus>
<clus scale="  111.227">  2  5  1 -1</clus>
<clus scale="   35.484">  1  5  2 -1</clus>
</clustering>
</event>
<event>
 9    1  0.7835476E-005  0.8898272E+02  0.7546771E-02  0.1307108E+00
          3   -1    0    0  502    0 -0.00000000000E+00  0.00000000000E+00  0.52816337456E+03  0.52816337456E+03  0.00000000000E+00 0. -1.
         21   -1    0    0  501  502  0.00000000000E+00 -0.00000000000E+00 -0.33096612929E+02  0.33096612929E+02  0.00000000000E+00 0.  1.
         23    2    1    2    0    0  0.14511531983E+02  0.15902682017E+01  0.36299862803E+03  0.37387011416E+03  0.88304840136E+02 0.  0.
        -24    2    1    2    0    0  0.15921492203E+02 -0.29343922931E+02  0.92405511163E+02  0.13020982497E+03  0.85447412481E+02 0.  0.
         13    1    4    4    0    0  0.54855189085E+01 -0.19461033486E+02  0.10748945091E+03  0.10937460766E+03  0.00000000000E+00 0. -1.
        -14    1    4    4    0    0  0.10435973295E+02 -0.98828894444E+01 -0.15083939750E+02  0.20835217320E+02  0.00000000000E+00 0.  1.
        -11    1    3    3    0    0 -0.33923411878E+02 -0.11991326566E+02  0.20254897689E+03  0.20571990138E+03  0.00000000000E+00 0. -1.
         11    1    3    3    0    0  0.48434943861E+02  0.13581594768E+02  0.16044965115E+03  0.16815021278E+03  0.00000000000E+00 0.  1.
          4    1    1    2  501    0 -0.30433024186E+02  0.27753654729E+02  0.39662622433E+02  0.57180048358E+02  0.00000000000E+00 0. -1.
<scales pt_clust_5="13000.00000" pt_clust_6="13000.00000" pt_clust_7="13000.00000" pt_clust_8="13000.00000" pt_clust_9="41.18779"></scales>
<clustering>
<clus scale="   41.188">  2  9  1 -1</clus>
<clus scale="   85.447">  5  6 -1 -1</clus>
<clus scale="   86.148">  2  5  1 -1</clus>
<clus scale="   88.305">  7  8 -1 -1</clus>
<clus scale="   41.188">  2  5  1 -1</clus>
</clustering>
</event>
<event>
 9    1  0.7835476E-005  0.1224244E+03  0.7546771E-02  0.1242624E+00
         21   -1    0    0  501  502  0.00000000000E+00  0.00000000000E+00  0.16252513936E+03  0.16252513936E+03  0.00000000000E+00 0.  1.
         -4   -1    0    0    0  501 -0.00000000000E+00 -0.00000000000E+00 -0.26578613463E+03  0.26578613463E+03  0.00000000000E+00 0.  1.
         23    2    1    2    0    0  0.54069314244E+02 -0.80819495040E+02 -0.14982568430E+03  0.19943767706E+03  0.88726376210E+02 0.  0.
        -24    2    1    2    0    0 -0.65667614056E+02  0.32810631129E+02 -0.52243436063E+02  0.11840904536E+03  0.76828070129E+02 0.  0.
         11    1    4    4    0    0  0.16506198113E+02  0.13615538739E+02 -0.15222493535E+02  0.26259508387E+02  0.00000000000E+00 0. -1.
        -12    1    4    4    0    0 -0.82173812168E+02  0.19195092390E+02 -0.37020942527E+02  0.92149536970E+02  0.00000000000E+00 0.  1.
        -13    1    3    3    0    0  0.74676061893E+02 -0.65080078806E+02 -0.88406130583E+02  0.13276887738E+03  0.00000000000E+00 0.  1.
         13    1    3    3    0    0 -0.20606747649E+02 -0.15739416234E+02 -0.61419553713E+02  0.66668799677E+02  0.00000000000E+00 0. -1.
         -3    1    1    2    0  502  0.11598299812E+02  0.48008863911E+02  0.98808125080E+02  0.11046455157E+03  0.00000000000E+00 0.  1.
<scales pt_clust_5="13000.00000" pt_clust_6="13000.00000" pt_clust_7="13000.00000" pt_clust_8="13000.00000" pt_clust_9="49.38999"></scales>
<clustering>
<clus scale="   49.390">  1  9  2 -1</clus>
<clus scale="   76.828">  5  6 -1 -1</clus>
<clus scale="   88.726">  7  8 -1 -1</clus>
<clus scale="  114.096">  1  5  2 -1</clus>
<clus scale="   49.390">  1  5  2 -1</clus>
</clustering>
</event>
<event>
 9    1  0.7835476E-005  0.3148677E+03  0.7546771E-02  0.1078036E+00
          1   -1    0    0  502    0 -0.00000000000E+00  0.00000000000E+00  0.14923909500E+04  0.14923909500E+04  0.00000000000E+00 0. -1.
         21   -1    0    0  501  502  0.00000000000E+00 -0.00000000000E+00 -0.61423289655E+02  0.61423289655E+02  0.00000000000E+00 0. -1.
        -24    2    1    2    0    0 -0.15676522904E+03  0.82699602158E+02  0.22509333138E+03  0.29760608482E+03  0.80546959335E+02 0.  0.
         23    2    1    2    0    0 -0.28780874249E+02  0.55917218788E+02  0.24769681129E+03  0.27043630757E+03  0.88470402089E+02 0.  0.
         11    1    3    3    0    0 -0.10183392080E+03  0.93879521336E+02  0.15538191217E+03  0.20815150872E+03  0.00000000000E+00 0. -1.
        -12    1    3    3    0    0 -0.54931308234E+02 -0.11179919178E+02  0.69711419218E+02  0.89454576107E+02  0.00000000000E+00 0.  1.
        -11    1    4    4    0    0  0.25241753136E+02  0.41810622601E+02  0.15187130948E+03  0.15953109072E+03  0.00000000000E+00 0. -1.
         11    1    4    4    0    0 -0.54022627385E+02  0.14106596187E+02  0.95825501812E+02  0.11090521684E+03  0.00000000000E+00 0.  1.
          2    1    1    2  501    0  0.18554610329E+03 -0.13861682095E+03  0.95817751763E+03  0.98577184722E+03  0.00000000000E+00 0. -1.
<scales pt_clust_5="13000.00000" pt_clust_6="13000.00000" pt_clust_7="13000.00000" pt_clust_8="13000.00000" pt_clust_9="231.60750"></scales>
<clustering>
<clus scale="   80.547">  5  6 -1 -1</clus>
<clus scale="   88.470">  7  8 -1 -1</clus>
<clus scale="  103.657">  5  7 -1 -1</clus>
<clus scale="  231.607">  2  9  1 -1</clus>
<clus scale="  231.607">  2  5  1 -1</clus>
</clustering>
</event>
<event>
 9    1  0.7835476E-005  0.2463072E+03  0.7546771E-02  0.1116092E+00
          1   -1    0    0  502    0 -0.00000000000E+00  0.00000000000E+00  0.59239021110E+03  0.59239021110E+03  0.00000000000E+00 0. -1.
         21   -1    0    0  501  502  0.00000000000E+00 -0.00000000000E+00 -0.15812268158E+03  0.15812268158E+03  0.00000000000E+00 0. -1.
         23    2    1    2    0    0 -0.24425731775E+03  0.25646240692E+02  0.21688359439E+03  0.33925667529E+03  0.87961532938E+02 0.  0.
        -24    2    1    2    0    0  0.19492261387E+03 -0.92588308498E+02  0.67601687281E+02  0.23993816459E+03  0.80205451402E+02 0.  0.
         11    1    4    4    0    0  0.13284498288E+03 -0.10053376403E+03  0.38860600697E+02  0.17107008351E+03  0.00000000000E+00 0. -1.
        -12    1    4    4    0    0  0.62077630989E+02  0.79454555336E+01  0.28741086584E+02  0.68868081075E+02  0.00000000000E+00 0.  1.
        -11    1    3    3    0    0 -0.56021006078E+02  0.13796662853E+01  0.73063840189E+01  0.56512298206E+02  0.00000000000E+00 0.  1.
         11    1    3    3    0    0 -0.18823631167E+03  0.24266574407E+02  0.20957721037E+03  0.28274437708E+03  0.00000000000E+00 0. -1.
          2    1    1    2  501    0  0.49334703879E+02  0.66942067806E+02  0.14978224784E+03  0.17131805281E+03  0.00000000000E+00 0. -1.
<scales pt_clust_5="13000.00000" pt_clust_6="13000.00000" pt_clust_7="13000.00000" pt_clust_8="13000.00000" pt_clust_9="83.15744"></scales>
<clustering>
<clus scale="   80.205">  5  6 -1 -1</clus>
<clus scale="   83.157">  2  9  1 -1</clus>
<clus scale="   87.962">  7  8 -1 -1</clus>
<clus scale="  243.645">  2  5  1 -1</clus>
<clus scale="   83.157">  2  5  1 -1</clus>
</clustering>
</event>
<event>
 9    1  0.7835476E-005  0.1040851E+03  0.7546771E-02  0.1275717E+00
         -2   -1    0    0    0  501 -0.00000000000E+00  0.00000000000E+00  0.22543423542E+03  0.22543423542E+03  0.00000000000E+00 0.  1.
         21   -1    0    0  501  502  0.00000000000E+00 -0.00000000000E+00 -0.16344922056E+03  0.16344922056E+03  0.00000000000E+00 0. -1.
         23    2    1    2    0    0 -0.79601432251E+01  0.50058519943E+02  0.14567872500E+03  0.17828905554E+03  0.89417431797E+02 0.  0.
        -24    2    1    2    0    0  0.96172391354E+01 -0.75435487574E+02 -0.12181114938E+03  0.16477218282E+03  0.80801683410E+02 0.  0.
         11    1    4    4    0    0  0.99026609674E+01 -0.56657942190E+02 -0.13158130833E+03  0.14360301462E+03  0.00000000000E+00 0. -1.
        -12    1    4    4    0    0 -0.28542183201E+00 -0.18777545384E+02  0.97701589435E+01  0.21169168195E+02  0.00000000000E+00 0.  1.
        -13    1    3    3    0    0  0.28999393765E+02  0.57467630668E+02  0.10178173515E+03  0.12042846434E+03  0.00000000000E+00 0.  1.
         13    1    3    3    0    0 -0.36959536990E+02 -0.74091107248E+01  0.43896989854E+02  0.57860591204E+02  0.00000000000E+00 0. -1.
         -1    1    1    2    0  502 -0.16570959103E+01  0.25376967631E+02  0.38117439245E+02  0.45822217620E+02  0.00000000000E+00 0.  1.
<scales pt_clust_5="13000.00000" pt_clust_6="13000.00000" pt_clust_7="13000.00000" pt_clust_8="13000.00000" pt_clust_9="25.43103"></scales>
<clustering>
<clus scale="   25.431">  2  9  1 -1</clus>
<clus scale="   80.802">  5  6 -1 -1</clus>
<clus scale="   89.417">  7  8 -1 -1</clus>
<clus scale="   96.784">  2  5  1 -1</clus>
<clus scale="   25.431">  2  5  1 -1</clus>
</clustering>
</event>
<event>
 9    1  0.7835476E-005  0.9805449E+02  0.7546771E-02  0.1292601E+00
         -4   -1    0    0    0  501 -0.00000000000E+00  0.00000000000E+00  0.39136733101E+03  0.39136733101E+03  0.00000000000E+00 0.  1.
         21   -1    0    0  501  502  0.00000000000E+00 -0.00000000000E+00 -0.24953456238E+03  0.24953456238E+03  0.00000000000E+00 0.  1.
         23    2    1    2    0    0  0.10411373802E+02 -0.26615147421E+02  0.25322488784E+03  0.27062765317E+03  0.91102799431E+02 0.  0.
        -24    2    1    2    0    0 -0.43438275943E+02  0.34323660619E+02  0.11093508561E+03  0.14537518854E+03  0.75910175391E+02 0.  0.
         13    1    4    4    0    0 -0.30893527646E+02  0.58298898889E+02  0.69002025909E+02  0.95469635181E+02  0.00000000000E+00 0. -1.
        -14    1    4    4    0    0 -0.12544748297E+02 -0.23975238270E+02  0.41933059701E+02  0.49905553357E+02  0.00000000000E+00 0.  1.
        -13    1    3    3    0    0 -0.35496003819E+02 -0.14870305925E+02  0.57093687610E+02  0.68853332892E+02  0.00000000000E+00 0.  1.
         13    1    3    3    0    0  0.45907377620E+02 -0.11744841496E+02  0.19613120023E+03  0.20177432028E+03  0.00000000000E+00 0. -1.
         -3    1    1    2    0  502  0.33026902141E+02 -0.77085131979E+01 -0.22232720482E+03  0.22489905167E+03  0.00000000000E+00 0.  1.
<scales pt_clust_5="13000.00000" pt_clust_6="13000.00000" pt_clust_7="13000.00000" pt_clust_8="13000.00000" pt_clust_9="33.91456"></scales>
<clustering>
<clus scale="   33.915">  2  9  1 -1</clus>
<clus scale="   75.910">  5  6 -1 -1</clus>
<clus scale="   84.127">  2  5  1 -1</clus>
<clus scale="   91.103">  7  8 -1 -1</clus>
<clus scale="   33.915">  2  5  1 -1</clus>
</clustering>
</event>
<event>
 9    1  0.7835476E-005  0.2011769E+03  0.7546771E-02  0.1150023E+00
         -2   -1    0    0    0  501 -0.00000000000E+00  0.00000000000E+00  0.89842048109E+02  0.89842048109E+02  0.00000000000E+00 0.  1.
         21   -1    0    0  501  502  0.00000000000E+00 -0.00000000000E+00 -0.75420515194E+03  0.75420515194E+03  0.00000000000E+00 0.  1.
         23    2    1    2    0    0  0.15949017582E+03 -0.83703490283E+02 -0.99866790452E+02  0.22589988586E+03  0.92811594788E+02 0.  0.
        -24    2    1    2    0    0 -0.16370747237E+03  0.58959753221E+02 -0.56118466392E+03  0.59282923496E+03  0.79005606069E+02 0.  0.
         11    1    4    4    0    0 -0.43298784358E+02  0.23755241053E+02 -0.68647224806E+02  0.84566764618E+02  0.00000000000E+00 0. -1.
        -12    1    4    4    0    0 -0.12040868801E+03  0.35204512169E+02 -0.49253743912E+03  0.50826247034E+03  0.00000000000E+00 0.  1.
        -11    1    3    3    0    0 -0.63449925997E+01 -0.20573924292E+02  0.14297233392E+01  0.21577520726E+02  0.00000000000E+00 0. -1.
         11    1    3    3    0    0  0.16583516842E+03 -0.63129565992E+02 -0.10129651379E+03  0.20432236513E+03  0.00000000000E+00 0.  1.
         -1    1    1    2    0  502  0.42172965498E+01  0.24743737062E+02 -0.33116494617E+01  0.25318079235E+02  0.00000000000E+00 0.  1.
<scales pt_clust_5="13000.00000" pt_clust_6="13000.00000" pt_clust_7="13000.00000" pt_clust_8="13000.00000" pt_clust_9="25.10057"></scales>
<clustering>
<clus scale="   25.101">  2  9  1 -1</clus>
<clus scale="   79.006">  5  6 -1 -1</clus>
<clus scale="   92.812">  7  8 -1 -1</clus>
<clus scale="  195.192">  2  5  1 -1</clus>
<clus scale="   25.101">  2  5  1 -1</clus>
</clustering>
</event>
<event>
 9    1  0.7835476E-005  0.9136314E+02  0.7546771E-02  0.1305968E+00
          1   -1    0    0  502    0 -0.00000000000E+00  0.00000000000E+00  0.24427542316E+03  0.24427542316E+03  0.00000000000E+00 0. -1.
         21   -1    0    0  501  502  0.00000000000E+00 -0.00000000000E+00 -0.81069373038E+02  0.81069373038E+02  0.00000000000E+00 0. -1.
         23    2    1    2    0    0 -0.10328029527E+02  0.12053339647E+01  0.81088529503E+02  0.12225766201E+03  0.90903604329E+02 0.  0.
        -24    2    1    2    0    0 -0.42219085709E+02  0.30027248601E+02 -0.56831883201E+01  0.96102845510E+02  0.80742624610E+02 0.  0.
         11    1    4    4    0    0 -0.64227928711E+02  0.20140493160E+02 -0.17041574674E+02  0.69435448861E+02  0.00000000000E+00 0. -1.
        -12    1    4    4    0    0  0.22008843002E+02  0.98867554409E+01  0.11358386354E+02  0.26667396648E+02  0.00000000000E+00 0.  1.
        -13    1    3    3    0    0 -0.28367732318E+02 -0.13114753452E+02 -0.63030519081E+01  0.31881867234E+02  0.00000000000E+00 0.  1.
         13    1    3    3    0    0  0.18039702791E+02  0.14320087417E+02  0.87391581411E+02  0.90375794779E+02  0.00000000000E+00 0. -1.
          2    1    1    2  501    0  0.52547115236E+02 -0.31232582565E+02  0.87800708936E+02  0.10698428867E+03  0.00000000000E+00 0. -1.
<scales pt_clust_5="13000.00000" pt_clust_6="13000.00000" pt_clust_7="13000.00000" pt_clust_8="13000.00000" pt_clust_9="61.12837"></scales>
<clustering>
<clus scale="   61.128">  2  9  1 -1</clus>
<clus scale="   80.743">  5  6 -1 -1</clus>
<clus scale="   81.260">  2  5  1 -1</clus>
<clus scale="   90.904">  7  8 -1 -1</clus>
<clus scale="   61.128">  2  5  1 -1</clus>
</clustering>
</event>
<event>
 9    1  0.8206712E-005  0.1923605E+03  0.7546771E-02  0.1191404E+00
         -2   -1    0    0    0  501 -0.00000000000E+00  0.00000000000E+00  0.93261606358E+03  0.93261606358E+03  0.00000000000E+00 0.  1.
         21   -1    0    0  501  502  0.00000000000E+00 -0.00000000000E+00 -0.70743463175E+02  0.70743463175E+02  0.00000000000E+00 0.  1.
        -24    2    1    2    0    0  0.13585414868E+00 -0.17377276198E+02  0.33982826077E+03  0.35072037068E+03  0.84967896317E+02 0.  0.
         23    2    1    2    0    0  0.13446484069E+03 -0.96669302847E+02  0.15222885190E+03  0.24289842805E+03  0.91653016875E+02 0.  0.
         13    1    3    3    0    0 -0.59458787331E+01  0.32718685923E+02  0.92491320765E+02  0.98287894979E+02  0.00000000000E+00 0. -1.
        -14    1    3    3    0    0  0.60817328817E+01 -0.50095962121E+02  0.24733694001E+03  0.25243247570E+03  0.00000000000E+00 0.  1.
        -13    1    4    4    0    0 -0.72150491832E+01 -0.20044950030E+02  0.43870285107E+02  0.48769446088E+02  0.00000000000E+00 0. -1.
         13    1    4    4    0    0  0.14167988987E+03 -0.76624352818E+02  0.10835856680E+03  0.19412898196E+03  0.00000000000E+00 0.  1.
         -1    1    1    2    0  502 -0.13460069484E+03  0.11404657905E+03  0.36981548773E+03  0.40974072803E+03  0.00000000000E+00 0.  1.
<scales pt_clust_5="13000.00000" pt_clust_6="13000.00000" pt_clust_7="13000.00000" pt_clust_8="13000.00000" pt_clust_9="169.12224"></scales>
<clustering>
<clus scale="   84.968">  5  6 -1 -1</clus>
<clus scale="   86.727">  1  5  2 -1</clus>
<clus scale="   91.653">  7  8 -1 -1</clus>
<clus scale="  169.122">  2  9  1 -1</clus>
<clus scale="  169.122">  2  5  1 -1</clus>
</clustering>
</event>
<event>
 9    1  0.7835476E-005  0.1249342E+03  0.7546771E-02  0.1239105E+00
          1   -1    0    0  502    0 -0.00000000000E+00  0.00000000000E+00  0.13586773833E+03  0.13586773833E+03  0.00000000000E+00 0. -1.
         21   -1    0    0  501  502  0.00000000000E+00 -0.00000000000E+00 -0.33213926547E+03  0.33213926547E+03  0.00000000000E+00 0. -1.
         23    2    1    2    0    0 -0.31966293020E+02 -0.84583687549E+02  0.32339472083E+02  0.13376887790E+03  0.93123719600E+02 0.  0.
        -24    2    1    2    0    0 -0.41782999497E+02  0.81080923318E+02 -0.33607079688E+02  0.12572492214E+03  0.79733211838E+02 0.  0.
         11    1    4    4    0    0 -0.34803464531E+02  0.92891777789E+02 -0.11711635081E+02  0.99886565265E+02  0.00000000000E+00 0. -1.
        -12    1    4    4    0    0 -0.69795349656E+01 -0.11810854471E+02 -0.21895444607E+02  0.25838356879E+02  0.00000000000E+00 0.  1.
        -11    1    3    3    0    0 -0.44843340137E+02 -0.36211638470E+02  0.54225553028E+02  0.79136707769E+02  0.00000000000E+00 0.  1.
         11    1    3    3    0    0  0.12877047116E+02 -0.48372049079E+02 -0.21886080945E+02  0.54632170135E+02  0.00000000000E+00 0. -1.
          2    1    1    2  501    0  0.73749292517E+02  0.35027642313E+01 -0.19500391954E+03  0.20851320375E+03  0.00000000000E+00 0. -1.
<scales pt_clust_5="13000.00000" pt_clust_6="13000.00000" pt_clust_7="13000.00000" pt_clust_8="13000.00000" pt_clust_9="73.83243"></scales>
<clustering>
<clus scale="   73.832">  2  9  1 -1</clus>
<clus scale="   79.733">  5  6 -1 -1</clus>
<clus scale="   93.124">  7  8 -1 -1</clus>
<clus scale="  115.299">  2  5  1 -1</clus>
<clus scale="   73.832">  2  5  1 -1</clus>
</clustering>
</event>
<event>
 9    1  0.7835476E-005  0.1184313E+03  0.7546771E-02  0.1249362E+00
         21   -1    0    0  501  502  0.00000000000E+00  0.00000000000E+00  0.38839693083E+03  0.38839693083E+03  0.00000000000E+00 0. -1.
          1   -1    0    0  502    0 -0.00000000000E+00 -0.00000000000E+00 -0.12767121325E+03  0.12767121325E+03  0.00000000000E+00 0. -1.
        -24    2    1    2    0    0 -0.40382086797E+02 -0.73769463338E+02 -0.56827892442E+02  0.12909357698E+03  0.79769014047E+02 0.  0.
         23    2    1    2    0    0  0.62152057822E+01  0.49886253267E+01  0.29213825309E+03  0.30607883295E+03  0.90972401838E+02 0.  0.
         11    1    3    3    0    0  0.44046380234E+01 -0.25009313018E+02 -0.57527006307E+02  0.62882613085E+02  0.00000000000E+00 0. -1.
        -12    1    3    3    0    0 -0.44786724821E+02 -0.48760150320E+02  0.69911386488E+00  0.66210963892E+02  0.00000000000E+00 0.  1.
        -11    1    4    4    0    0 -0.36066346710E+02 -0.11904176100E+02  0.19673502275E+03  0.20036756212E+03  0.00000000000E+00 0. -1.
         11    1    4    4    0    0  0.42281552492E+02  0.16892801427E+02  0.95403230345E+02  0.10571127083E+03  0.00000000000E+00 0.  1.
          2    1    1    2  501    0  0.34166881015E+02  0.68780838011E+02  0.25415356921E+02  0.80895734148E+02  0.00000000000E+00 0. -1.
<scales pt_clust_5="13000.00000" pt_clust_6="13000.00000" pt_clust_7="13000.00000" pt_clust_8="13000.00000" pt_clust_9="76.79964"></scales>
<clustering>
<clus scale="   76.800">  1  9  2 -1</clus>
<clus scale="   79.769">  5  6 -1 -1</clus>
<clus scale="   90.972">  7  8 -1 -1</clus>
<clus scale="  110.059">  2  5  1 -1</clus>
<clus scale="   76.800">  1  5  2 -1</clus>
</clustering>
</event>
<event>
 9    1  0.7835476E-005  0.1030528E+03  0.7546771E-02  0.1276675E+00
         21   -1    0    0  501  502  0.00000000000E+00  0.00000000000E+00  0.24360434688E+02  0.24360434688E+02  0.00000000000E+00 0. -1.
          1   -1    0    0  502    0 -0.00000000000E+00 -0.00000000000E+00 -0.71093134114E+03  0.71093134114E+03  0.00000000000E+00 0. -1.
         23    2    1    2    0    0 -0.50180934804E+02 -0.74667923294E+00 -0.30311743873E+03  0.31835655860E+03  0.83378852199E+02 0.  0.
        -24    2    1    2    0    0  0.80941102632E+02  0.12457686671E+02 -0.19028478476E+03  0.22098247880E+03  0.76930491831E+02 0.  0.
         13    1    4    4    0    0  0.45483255393E+02 -0.30362615514E+02 -0.73231184647E+02  0.91397053272E+02  0.00000000000E+00 0. -1.
        -14    1    4    4    0    0  0.35457847239E+02  0.42820302185E+02 -0.11705360012E+03  0.12958542553E+03  0.00000000000E+00 0.  1.
        -13    1    3    3    0    0 -0.51960130373E+02 -0.22316756228E+02 -0.28369498728E+03  0.28927623228E+03  0.00000000000E+00 0.  1.
         13    1    3    3    0    0  0.17791955692E+01  0.21570076995E+02 -0.19422451456E+02  0.29080326322E+02  0.00000000000E+00 0. -1.
          2    1    1    2  501    0 -0.30760167828E+02 -0.11711007438E+02 -0.19316868296E+03  0.19595273842E+03  0.00000000000E+00 0. -1.
<scales pt_clust_5="13000.00000" pt_clust_6="13000.00000" pt_clust_7="13000.00000" pt_clust_8="13000.00000" pt_clust_9="32.91408"></scales>
<clustering>
<clus scale="   32.914">  1  9  2 -1</clus>
<clus scale="   76.930">  5  6 -1 -1</clus>
<clus scale="   83.379">  7  8 -1 -1</clus>
<clus scale="   97.909">  1  5  2 -1</clus>
<clus scale="   32.914">  1  5  2 -1</clus>
</clustering>
</event>
<event>
 9    1  0.7835476E-005  0.9996368E+02  0.7546771E-02  0.1285288E+00
          3   -1    0    0  502    0 -0.00000000000E+00  0.00000000000E+00  0.91637807209E+02  0.91637807209E+02  0.00000000000E+00 0. -1.
         21   -1    0    0  501  502  0.00000000000E+00 -0.00000000000E+00 -0.18048170540E+03  0.18048170540E+03  0.00000000000E+00 0. -1.
         23    2    1    2    0    0 -0.15256066473E+02 -0.50295444807E+02 -0.53184079108E+01  0.10413608242E+03  0.89742179979E+02 0.  0.
        -24    2    1    2    0    0  0.61010357280E+01  0.24778802868E+02 -0.10436765467E+03  0.13378826356E+03  0.79721267023E+02 0.  0.
         11    1    4    4    0    0  0.18586708548E+02  0.10787873062E+02 -0.11162944114E+03  0.11367926842E+03  0.00000000000E+00 0. -1.
        -12    1    4    4    0    0 -0.12485672820E+02  0.13990929806E+02  0.72617864696E+01  0.20108995135E+02  0.00000000000E+00 0.  1.
        -11    1    3    3    0    0  0.11595153957E+01 -0.37455142284E+02  0.39660396769E+02  0.54563533898E+02  0.00000000000E+00 0. -1.
         11    1    3    3    0    0 -0.16415581869E+02 -0.12840302523E+02 -0.44978804680E+02  0.49572548526E+02  0.00000000000E+00 0.  1.
          4    1    1    2  501    0  0.91550307451E+01  0.25516641939E+02  0.20842164394E+02  0.34195166624E+02  0.00000000000E+00 0. -1.
<scales pt_clust_5="13000.00000" pt_clust_6="13000.00000" pt_clust_7="13000.00000" pt_clust_8="13000.00000" pt_clust_9="27.10930"></scales>
<clustering>
<clus scale="   27.109">  2  9  1 -1</clus>
<clus scale="   79.721">  5  6 -1 -1</clus>
<clus scale="   89.742">  7  8 -1 -1</clus>
<clus scale="   91.074">  2  5  1 -1</clus>
<clus scale="   27.109">  2  5  1 -1</clus>
</clustering>
</event>
<event>
 9    1  0.7835476E-005  0.9625718E+02  0.7546771E-02  0.1295335E+00
          3   -1    0    0  502    0 -0.00000000000E+00  0.00000000000E+00  0.64559664587E+03  0.64559664587E+03  0.00000000000E+00 0. -1.
         21   -1    0    0  501  502  0.00000000000E+00 -0.00000000000E+00 -0.29870606451E+02  0.29870606451E+02  0.00000000000E+00 0.  1.
        -24    2    1    2    0    0 -0.22295135675E+02  0.11143619658E+02  0.22952250326E+03  0.24424075972E+03  0.79697652887E+02 0.  0.
         23    2    1    2    0    0  0.44466536812E+02  0.24165526372E+02  0.11079279487E+03  0.15267778367E+03  0.92055508645E+02 0.  0.
         13    1    3    3    0    0 -0.18267862166E+02 -0.32365985976E+02  0.13646023171E+03  0.14143078404E+03  0.00000000000E+00 0. -1.
        -14    1    3    3    0    0 -0.40272735089E+01  0.43509605635E+02  0.93062271548E+02  0.10280997568E+03  0.00000000000E+00 0.  1.
        -11    1    4    4    0    0  0.17065374870E+02  0.58588671271E+02  0.66139594099E+02  0.89990584665E+02  0.00000000000E+00 0.  1.
         11    1    4    4    0    0  0.27401161943E+02 -0.34423144899E+02  0.44653200767E+02  0.62687199007E+02  0.00000000000E+00 0. -1.
          4    1    1    2  501    0 -0.22171401137E+02 -0.35309146030E+02  0.27541074130E+03  0.27854870893E+03  0.00000000000E+00 0. -1.
<scales pt_clust_5="13000.00000" pt_clust_6="13000.00000" pt_clust_7="13000.00000" pt_clust_8="13000.00000" pt_clust_9="41.69303"></scales>
<clustering>
<clus scale="   41.693">  2  9  1 -1</clus>
<clus scale="   79.698">  5  6 -1 -1</clus>
<clus scale="   84.516">  1  5  2 -1</clus>
<clus scale="   92.056">  7  8 -1 -1</clus>
<clus scale="   41.693">  2  5  1 -1</clus>
</clustering>
</event>
<event>
 9    1  0.7835476E-005  0.1322762E+03  0.7546771E-02  0.1225520E+00
         -4   -1    0    0    0  501 -0.00000000000E+00  0.00000000000E+00  0.81933737363E+02  0.81933737363E+02  0.00000000000E+00 0.  1.
         21   -1    0    0  501  502  0.00000000000E+00 -0.00000000000E+00 -0.32784054931E+03  0.32784054931E+03  0.00000000000E+00 0.  1.
        -24    2    1    2    0    0  0.55027994084E+02 -0.57311682225E+02 -0.12558049112E+03  0.17792262649E+03  0.97843202185E+02 0.  0.
         23    2    1    2    0    0 -0.55876846585E+02  0.83479430836E+02 -0.14258463793E+03  0.19748737207E+03  0.92627457025E+02 0.  0.
         11    1    3    3    0    0  0.28507389621E+02  0.79416884408E+01 -0.97844403908E+02  0.10222166627E+03  0.00000000000E+00 0. -1.
        -12    1    3    3    0    0  0.26520604462E+02 -0.65253370666E+02 -0.27736087210E+02  0.75700960219E+02  0.00000000000E+00 0.  1.
        -13    1    4    4    0    0 -0.59481920623E+02  0.52388062606E+02 -0.14587172340E+03  0.16601556455E+03  0.00000000000E+00 0.  1.
         13    1    4    4    0    0  0.36050740382E+01  0.31091368230E+02  0.32870854751E+01  0.31471807513E+02  0.00000000000E+00 0. -1.
         -3    1    1    2    0  502  0.84885250099E+00 -0.26167748611E+02  0.22258317101E+02  0.34364288121E+02  0.00000000000E+00 0.  1.
<scales pt_clust_5="13000.00000" pt_clust_6="13000.00000" pt_clust_7="13000.00000" pt_clust_8="13000.00000" pt_clust_9="26.18153"></scales>
<clustering>
<clus scale="   26.182">  2  9  1 -1</clus>
<clus scale="   92.627">  7  8 -1 -1</clus>
<clus scale="   97.843">  5  6 -1 -1</clus>
<clus scale="  128.466">  2  7  1 -1</clus>
<clus scale="   26.182">  2  5  1 -1</clus>
</clustering>
</event>
<event>
 9    1  0.7835476E-005  0.1228927E+03  0.7546771E-02  0.1242109E+00
         21   -1    0    0  501  502  0.00000000000E+00  0.00000000000E+00  0.84854493034E+02  0.84854493034E+02  0.00000000000E+00 0.  1.
          1   -1    0    0  502    0 -0.00000000000E+00 -0.00000000000E+00 -0.43210265937E+03  0.43210265937E+03  0.00000000000E+00 0. -1.
        -24    2    1    2    0    0 -0.76232433640E+02  0.55124848055E+02 -0.23878172770E+03  0.26871407038E+03  0.79626662154E+02 0.  0.
         23    2    1    2    0    0  0.78925310777E+02  0.27628524574E+02 -0.10920969166E+03  0.16544257059E+03  0.91934473185E+02 0.  0.
         11    1    3    3    0    0 -0.54967931445E+02  0.65794109250E+02 -0.22598166328E+03  0.24169826321E+03  0.00000000000E+00 0. -1.
        -12    1    3    3    0    0 -0.21264502195E+02 -0.10669261195E+02 -0.12800064420E+02  0.27015807173E+02  0.00000000000E+00 0.  1.
        -13    1    4    4    0    0  0.20621517331E+02  0.61900258389E+01 -0.10042147593E+03  0.10270363297E+03  0.00000000000E+00 0. -1.
         13    1    4    4    0    0  0.58303793446E+02  0.21438498735E+02 -0.87882157290E+01  0.62738937622E+02  0.00000000000E+00 0.  1.
          2    1    1    2  501    0 -0.26928771375E+01 -0.82753372629E+02  0.74325302208E+00  0.82800511434E+02  0.00000000000E+00 0. -1.
<scales pt_clust_5="13000.00000" pt_clust_6="13000.00000" pt_clust_7="13000.00000" pt_clust_8="13000.00000" pt_clust_9="82.79718"></scales>
<clustering>
<clus scale="   79.627">  5  6 -1 -1</clus>
<clus scale="   82.797">  1  9  2 -1</clus>
<clus scale="   91.934">  7  8 -1 -1</clus>
<clus scale="  113.978">  2  5  1 -1</clus>
<clus scale="   82.797">  1  5  2 -1</clus>
</clustering>
</event>
<event>
 9    1  0.7835476E-005  0.9352036E+02  0.7546771E-02  0.1299505E+00
         -2   -1    0    0    0  501 -0.00000000000E+00  0.00000000000E+00  0.22272128966E+03  0.22272128966E+03  0.00000000000E+00 0.  1.
         21   -1    0    0  501  502  0.00000000000E+00 -0.00000000000E+00 -0.67863956977E+02  0.67863956977E+02  0.00000000000E+00 0. -1.
        -24    2    1    2    0    0  0.18167927697E+02  0.28778609548E+02  0.89791757373E+02  0.12703704768E+03  0.83171929316E+02 0.  0.
         23    2    1    2    0    0 -0.14998042592E+02  0.24986409089E+02  0.44403542928E+02  0.10586245564E+03  0.91574685193E+02 0.  0.
         13    1    3    3    0    0 -0.29457939312E+02 -0.61742199769E+01  0.23082562970E+02  0.37930144926E+02  0.00000000000E+00 0. -1.
        -14    1    3    3    0    0  0.47625867009E+02  0.34952829524E+02  0.66709194403E+02  0.89106902751E+02  0.00000000000E+00 0.  1.
        -13    1    4    4    0    0 -0.10283984891E+02 -0.29836324750E+02 -0.49524316009E+01  0.31945159236E+02  0.00000000000E+00 0.  1.
         13    1    4    4    0    0 -0.47140577012E+01  0.54822733839E+02  0.49355974528E+02  0.73917296401E+02  0.00000000000E+00 0. -1.
         -1    1    1    2    0  502 -0.31698851043E+01 -0.53765018636E+02  0.20662032382E+02  0.57685743322E+02  0.00000000000E+00 0.  1.
<scales pt_clust_5="13000.00000" pt_clust_6="13000.00000" pt_clust_7="13000.00000" pt_clust_8="13000.00000" pt_clust_9="53.85838"></scales>
<clustering>
<clus scale="   53.858">  2  9  1 -1</clus>
<clus scale="   83.172">  5  6 -1 -1</clus>
<clus scale="   85.309">  1  5  2 -1</clus>
<clus scale="   91.575">  7  8 -1 -1</clus>
<clus scale="   53.858">  2  5  1 -1</clus>
</clustering>
</event>
<event>
 9    1  0.7835476E-005  0.9921375E+02  0.7546771E-02  0.1287841E+00
         -2   -1    0    0    0  501 -0.00000000000E+00  0.00000000000E+00  0.49810680250E+02  0.49810680250E+02  0.00000000000E+00 0.  1.
         21   -1    0    0  501  502  0.00000000000E+00 -0.00000000000E+00 -0.29909952787E+03  0.29909952787E+03  0.00000000000E+00 0. -1.
         23    2    1    2    0    0  0.23596740628E+02 -0.38654652306E+02 -0.36521303974E+02  0.10870037027E+03  0.91820349262E+02 0.  0.
        -24    2    1    2    0    0 -0.64561361304E+01  0.17119370773E+02 -0.17509750710E+03  0.19355578844E+03  0.80436009955E+02 0.  0.
         11    1    4    4    0    0 -0.26655047905E+02  0.14224722908E+02 -0.16980961464E+03  0.17247648984E+03  0.00000000000E+00 0. -1.
        -12    1    4    4    0    0  0.20198911775E+02  0.28946478650E+01 -0.52878924578E+01  0.21079298608E+02  0.00000000000E+00 0.  1.
        -11    1    3    3    0    0 -0.22167275115E+02 -0.42073649640E+02 -0.40733008767E+02  0.62615957098E+02  0.00000000000E+00 0.  1.
         11    1    3    3    0    0  0.45764015743E+02  0.34189973340E+01  0.42117047934E+01  0.46084413167E+02  0.00000000000E+00 0. -1.
         -1    1    1    2    0  502 -0.17140604498E+02  0.21535281533E+02 -0.37670036550E+02  0.46654049417E+02  0.00000000000E+00 0.  1.
<scales pt_clust_5="13000.00000" pt_clust_6="13000.00000" pt_clust_7="13000.00000" pt_clust_8="13000.00000" pt_clust_9="27.52397"></scales>
<clustering>
<clus scale="   27.524">  2  9  1 -1</clus>
<clus scale="   80.436">  5  6 -1 -1</clus>
<clus scale="   88.783">  2  5  1 -1</clus>
<clus scale="   91.820">  7  8 -1 -1</clus>
<clus scale="   27.524">  2  5  1 -1</clus>
</clustering>
</event>
<event>
 9    1  0.7835476E-005  0.1595788E+03  0.7546771E-02  0.1206252E+00
          1   -1    0    0  502    0 -0.00000000000E+00  0.00000000000E+00  0.28267696161E+03  0.28267696161E+03  0.00000000000E+00 0. -1.
         21   -1    0    0  501  502  0.00000000000E+00 -0.00000000000E+00 -0.16760768156E+03  0.16760768156E+03  0.00000000000E+00 0. -1.
        -24    2    1    2    0    0 -0.72226762143E+02 -0.12016575763E+02  0.67760575125E+02  0.12916265708E+03  0.82038973545E+02 0.  0.
         23    2    1    2    0    0  0.44343974752E+02 -0.12955622709E+03  0.72418690241E+02  0.17466100254E+03  0.80689497690E+02 0.  0.
         13    1    3    3    0    0 -0.34349942060E+02 -0.33816832551E+01  0.81058376589E+02  0.88101161833E+02  0.00000000000E+00 0. -1.
        -14    1    3    3    0    0 -0.37876820083E+02 -0.86348925074E+01 -0.13297801464E+02  0.41061495248E+02  0.00000000000E+00 0.  1.
        -13    1    4    4    0    0  0.14227612200E+02 -0.10520131036E+03  0.17704556940E+02  0.10762523861E+03  0.00000000000E+00 0. -1.
         13    1    4    4    0    0  0.30116362552E+02 -0.24354916729E+02  0.54714133301E+02  0.67035763926E+02  0.00000000000E+00 0.  1.
          2    1    1    2  501    0  0.27882787391E+02  0.14157280285E+03 -0.25109985319E+02  0.14646098355E+03  0.00000000000E+00 0. -1.
<scales pt_clust_5="13000.00000" pt_clust_6="13000.00000" pt_clust_7="13000.00000" pt_clust_8="13000.00000" pt_clust_9="137.67573"></scales>
<clustering>
<clus scale="   80.689">  7  8 -1 -1</clus>
<clus scale="   82.039">  5  6 -1 -1</clus>
<clus scale="  109.961">  1  5  2 -1</clus>
<clus scale="  137.676">  2  9  1 -1</clus>
<clus scale="  137.676">  2  5  1 -1</clus>
</clustering>
</event>
<event>
 9    1  0.8408941E-005  0.9636091E+02  0.7546771E-02  0.1293043E+00
          3   -1    0    0  502    0 -0.00000000000E+00  0.00000000000E+00  0.20171789463E+03  0.20171789463E+03  0.00000000000E+00 0. -1.
         21   -1    0    0  501  502  0.00000000000E+00 -0.00000000000E+00 -0.24421114728E+03  0.24421114728E+03  0.00000000000E+00 0.  1.
        -24    2    1    2    0    0 -0.30528729843E+02 -0.16351108778E+02  0.10251324385E+03  0.13516158558E+03  0.80995845243E+02 0.  0.
         23    2    1    2    0    0  0.42020925482E+02 -0.22265116904E+02 -0.21051000552E+03  0.23386496522E+03  0.90093650837E+02 0.  0.
         13    1    3    3    0    0 -0.47625729771E+02 -0.18668771425E+02  0.27276477740E+02  0.57971884570E+02  0.00000000000E+00 0. -1.
        -14    1    3    3    0    0  0.17096999928E+02  0.23176626468E+01  0.75236766109E+02  0.77189701005E+02  0.00000000000E+00 0.  1.
        -13    1    4    4    0    0  0.10378572830E+02 -0.53646188963E+02 -0.14185148955E+03  0.15201142540E+03  0.00000000000E+00 0.  1.
         13    1    4    4    0    0  0.31642352652E+02  0.31381072059E+02 -0.68658515970E+02  0.81853539814E+02  0.00000000000E+00 0. -1.
          4    1    1    2  501    0 -0.11492195639E+02  0.38616225682E+02  0.65503509025E+02  0.76902491125E+02  0.00000000000E+00 0. -1.
<scales pt_clust_5="13000.00000" pt_clust_6="13000.00000" pt_clust_7="13000.00000" pt_clust_8="13000.00000" pt_clust_9="40.29001"></scales>
<clustering>
<clus scale="   40.290">  2  9  1 -1</clus>
<clus scale="   80.996">  5  6 -1 -1</clus>
<clus scale="   87.914">  1  5  2 -1</clus>
<clus scale="   90.094">  7  8 -1 -1</clus>
<clus scale="   40.290">  2  5  1 -1</clus>
</clustering>
</event>
<event>
 9    1  0.7835476E-005  0.1046119E+03  0.7546771E-02  0.1275204E+00
         -2   -1    0    0    0  501 -0.00000000000E+00  0.00000000000E+00  0.28846187320E+03  0.28846187320E+03  0.00000000000E+00 0.  1.
         21   -1    0    0  501  502  0.00000000000E+00 -0.00000000000E+00 -0.47177402391E+02  0.47177402391E+02  0.00000000000E+00 0. -1.
         23    2    1    2    0    0 -0.31300328018E+01  0.59851309056E+02  0.14580126496E+03  0.18158826292E+03  0.90134965839E+02 0.  0.
        -24    2    1    2    0    0 -0.15148359766E+02 -0.45032826026E+02  0.90525634307E+02  0.13000388000E+03  0.80303736679E+02 0.  0.
         11    1    4    4    0    0 -0.30388886790E+02  0.92214062269E+01  0.13364457067E+02  0.34454716453E+02  0.00000000000E+00 0. -1.
        -12    1    4    4    0    0  0.15240527024E+02 -0.54254232253E+02  0.77161177239E+02  0.95549163546E+02  0.00000000000E+00 0.  1.
        -13    1    3    3    0    0 -0.19961830333E+02  0.70696132770E+02  0.14378534257E+03  0.16146405977E+03  0.00000000000E+00 0.  1.
         13    1    3    3    0    0  0.16831797532E+02 -0.10844823714E+02  0.20159223884E+01  0.20124203155E+02  0.00000000000E+00 0. -1.
         -1    1    1    2    0  502  0.18278392568E+02 -0.14818483030E+02  0.49575715476E+01  0.24047132673E+02  0.00000000000E+00 0.  1.
<scales pt_clust_5="13000.00000" pt_clust_6="13000.00000" pt_clust_7="13000.00000" pt_clust_8="13000.00000" pt_clust_9="23.53056"></scales>
<clustering>
<clus scale="   23.531">  2  9  1 -1</clus>
<clus scale="   80.304">  5  6 -1 -1</clus>
<clus scale="   90.135">  7  8 -1 -1</clus>
<clus scale="   96.271">  2  5  1 -1</clus>
<clus scale="   23.531">  2  5  1 -1</clus>
</clustering>
</event>
<event>
 9    1  0.7835476E-005  0.9821767E+02  0.7546771E-02  0.1285513E+00
         21   -1    0    0  501  502  0.00000000000E+00  0.00000000000E+00  0.44351498100E+02  0.44351498100E+02  0.00000000000E+00 0. -1.
          1   -1    0    0  502    0 -0.00000000000E+00 -0.00000000000E+00 -0.61608946235E+03  0.61608946235E+03  0.00000000000E+00 0. -1.
        -24    2    1    2    0    0  0.50754593011E+02  0.37351341057E+02 -0.33938528760E+03  0.35718611417E+03  0.91806292417E+02 0.  0.
         23    2    1    2    0    0 -0.13784718122E+02  0.96236387194E+01 -0.22558684222E+03  0.24309508489E+03  0.89012156701E+02 0.  0.
         13    1    3    3    0    0 -0.84685446456E+01  0.28105234783E+02 -0.29716417104E+02  0.41769437585E+02  0.00000000000E+00 0. -1.
        -14    1    3    3    0    0  0.59223137657E+02  0.92461062735E+01 -0.30966887050E+03  0.31541667659E+03  0.00000000000E+00 0.  1.
        -11    1    4    4    0    0 -0.23020737215E+02 -0.36714598838E+02 -0.10854441645E+03  0.11687517466E+03  0.00000000000E+00 0.  1.
         11    1    4    4    0    0  0.92360190929E+01  0.46338237558E+02 -0.11704242578E+03  0.12621991024E+03  0.00000000000E+00 0. -1.
          2    1    1    2  501    0 -0.36969874890E+02 -0.46974979776E+02 -0.67658344288E+01  0.60159761385E+02  0.00000000000E+00 0. -1.
<scales pt_clust_5="13000.00000" pt_clust_6="13000.00000" pt_clust_7="13000.00000" pt_clust_8="13000.00000" pt_clust_9="59.77809"></scales>
<clustering>
<clus scale="   59.778">  1  9  2 -1</clus>
<clus scale="   89.012">  7  8 -1 -1</clus>
<clus scale="   91.806">  5  6 -1 -1</clus>
<clus scale="   95.611">  1  7  2 -1</clus>
<clus scale="   59.778">  1  5  2 -1</clus>
</clustering>
</event>
<event>
 9    1  0.7835476E-005  0.9165442E+02  0.7546771E-02  0.1301150E+00
          1   -1    0    0  502    0 -0.00000000000E+00  0.00000000000E+00  0.54905442196E+03  0.54905442196E+03  0.00000000000E+00 0. -1.
         21   -1    0    0  501  502  0.00000000000E+00 -0.00000000000E+00 -0.10668467939E+03  0.10668467939E+03  0.00000000000E+00 0. -1.
        -24    2    1    2    0    0 -0.48783879815E+01 -0.87645998590E+01  0.20031635702E+03  0.21891054810E+03  0.87718688422E+02 0.  0.
         23    2    1    2    0    0 -0.17494448930E+01 -0.43143444323E+02 -0.68333872309E+02  0.12206098335E+03  0.91460090787E+02 0.  0.
         11    1    3    3    0    0 -0.38520322741E+02  0.14656194297E+01  0.43159681715E+02  0.57868138299E+02  0.00000000000E+00 0. -1.
        -12    1    3    3    0    0  0.33641934759E+02 -0.10230219289E+02  0.15715667530E+03  0.16104240980E+03  0.00000000000E+00 0.  1.
        -13    1    4    4    0    0 -0.24016087236E+02 -0.26259708566E+01 -0.71744108317E+02  0.75702610571E+02  0.00000000000E+00 0. -1.
         13    1    4    4    0    0  0.22266642343E+02 -0.40517473467E+02  0.34102360077E+01  0.46358372782E+02  0.00000000000E+00 0.  1.
          2    1    1    2  501    0  0.66278328745E+01  0.51908044182E+02  0.31038725786E+03  0.31476756990E+03  0.00000000000E+00 0. -1.
<scales pt_clust_5="13000.00000" pt_clust_6="13000.00000" pt_clust_7="13000.00000" pt_clust_8="13000.00000" pt_clust_9="52.32949"></scales>
<clustering>
<clus scale="   52.329">  2  9  1 -1</clus>
<clus scale="   87.719">  5  6 -1 -1</clus>
<clus scale="   87.921">  1  5  2 -1</clus>
<clus scale="   91.460">  7  8 -1 -1</clus>
<clus scale="   52.329">  2  5  1 -1</clus>
</clustering>
</event>
<event>
 9    1  0.7835476E-005  0.9455231E+02  0.7546771E-02  0.1298290E+00
         21   -1    0    0  501  502  0.00000000000E+00  0.00000000000E+00  0.40707667607E+02  0.40707667607E+02  0.00000000000E+00 0. -1.
          1   -1    0    0  502    0 -0.00000000000E+00 -0.00000000000E+00 -0.67906056870E+03  0.67906056870E+03  0.00000000000E+00 0. -1.
        -24    2    1    2    0    0  0.85889966474E+01  0.15103052690E+02 -0.38924214619E+03  0.39813517106E+03  0.81855317492E+02 0.  0.
         23    2    1    2    0    0  0.47340428646E+02 -0.30984668997E+02 -0.23934227837E+03  0.26267757793E+03  0.92269268101E+02 0.  0.
         11    1    3    3    0    0  0.28510441376E+02  0.41495268643E+02 -0.21915336833E+03  0.22486196085E+03  0.00000000000E+00 0. -1.
        -12    1    3    3    0    0 -0.19921444728E+02 -0.26392215953E+02 -0.17008877786E+03  0.17327321021E+03  0.00000000000E+00 0.  1.
        -13    1    4    4    0    0 -0.25602642659E+02 -0.21331334043E+02 -0.94773870141E+02  0.10046197084E+03  0.00000000000E+00 0.  1.
         13    1    4    4    0    0  0.72943071305E+02 -0.96533349540E+01 -0.14456840823E+03  0.16221560709E+03  0.00000000000E+00 0. -1.
          2    1    1    2  501    0 -0.55929425293E+02  0.15881616307E+02 -0.97684765308E+01  0.58955487310E+02  0.00000000000E+00 0. -1.
<scales pt_clust_5="13000.00000" pt_clust_6="13000.00000" pt_clust_7="13000.00000" pt_clust_8="13000.00000" pt_clust_9="58.14057"></scales>
<clustering>
<clus scale="   58.141">  1  9  2 -1</clus>
<clus scale="   81.855">  5  6 -1 -1</clus>
<clus scale="   84.420">  2  5  1 -1</clus>
<clus scale="   92.269">  7  8 -1 -1</clus>
<clus scale="   58.141">  1  5  2 -1</clus>
</clustering>
</event>
<event>
 9    1  0.7835476E-005  0.1006328E+03  0.7546771E-02  0.1281799E+00
         21   -1    0    0  501  502  0.00000000000E+00  0.00000000000E+00  0.27662554682E+03  0.27662554682E+03  0.00000000000E+00 0. -1.
          1   -1    0    0  502    0 -0.00000000000E+00 -0.00000000000E+00 -0.26452238627E+03  0.26452238627E+03  0.00000000000E+00 0. -1.
        -24    2    1    2    0    0  0.93951232243E+01 -0.48692486444E+02 -0.10795389122E+03  0.14282251057E+03  0.79277993923E+02 0.  0.
         23    2    1    2    0    0  0.27361307489E+02  0.10747804636E+03  0.22944426762E+03  0.26881735233E+03  0.85544873471E+02 0.  0.
         11    1    3    3    0    0  0.57392053300E+01 -0.68872811573E+02 -0.98278429794E+02  0.12014596296E+03  0.00000000000E+00 0. -1.
        -12    1    3    3    0    0  0.36559178943E+01  0.20180325129E+02 -0.96754614210E+01  0.22676547614E+02  0.00000000000E+00 0.  1.
        -11    1    4    4    0    0  0.32020194729E+02  0.37292179767E+02  0.30602807282E+02  0.57901047968E+02  0.00000000000E+00 0.  1.
         11    1    4    4    0    0 -0.46588872404E+01  0.70185866594E+02  0.19884146033E+03  0.21091630437E+03  0.00000000000E+00 0. -1.
          2    1    1    2  501    0 -0.36756430713E+02 -0.58785559916E+02 -0.10938721584E+03  0.12950807019E+03  0.00000000000E+00 0. -1.
<scales pt_clust_5="13000.00000" pt_clust_6="13000.00000" pt_clust_7="13000.00000" pt_clust_8="13000.00000" pt_clust_9="69.33096"></scales>
<clustering>
<clus scale="   69.331">  1  9  2 -1</clus>
<clus scale="   79.278">  5  6 -1 -1</clus>
<clus scale="   85.545">  7  8 -1 -1</clus>
<clus scale="   95.363">  2  5  1 -1</clus>
<clus scale="   69.331">  1  5  2 -1</clus>
</clustering>
</event>
<event>
 9    1  0.7835476E-005  0.1032189E+03  0.7546771E-02  0.1286714E+00
         21   -1    0    0  501  502  0.00000000000E+00  0.00000000000E+00  0.30990301140E+02  0.30990301140E+02  0.00000000000E+00 0.  1.
         -4   -1    0    0    0  501 -0.00000000000E+00 -0.00000000000E+00 -0.49048081216E+03  0.49048081216E+03  0.00000000000E+00 0.  1.
         23    2    1    2    0    0  0.31946221890E+02 -0.73784276456E+01 -0.18532017934E+03  0.21394168015E+03  0.10174709504E+03 0.  0.
        -24    2    1    2    0    0 -0.14337612005E+01 -0.15965244405E+02 -0.95351551999E+02  0.12463029906E+03  0.78637448306E+02 0.  0.
         11    1    4    4    0    0  0.16401761247E+02  0.28195270757E+02 -0.37822021484E+02  0.49944933419E+02  0.00000000000E+00 0. -1.
        -12    1    4    4    0    0 -0.17835522448E+02 -0.44160515162E+02 -0.57529530515E+02  0.74685365645E+02  0.00000000000E+00 0.  1.
        -11    1    3    3    0    0  0.26569956493E+02 -0.44567227634E+02 -0.45013888365E+02  0.68690978394E+02  0.00000000000E+00 0.  1.
         11    1    3    3    0    0  0.53762653965E+01  0.37188799988E+02 -0.14030629098E+03  0.14525070176E+03  0.00000000000E+00 0. -1.
         -3    1    1    2    0  502 -0.30512460689E+02  0.23343672051E+02 -0.17881877968E+03  0.18289913409E+03  0.00000000000E+00 0.  1.
<scales pt_clust_5="13000.00000" pt_clust_6="13000.00000" pt_clust_7="13000.00000" pt_clust_8="13000.00000" pt_clust_9="38.41795"></scales>
<clustering>
<clus scale="   38.418">  1  9  2 -1</clus>
<clus scale="   78.637">  5  6 -1 -1</clus>
<clus scale="   80.533">  1  5  2 -1</clus>
<clus scale="  101.747">  7  8 -1 -1</clus>
<clus scale="   38.418">  1  5  2 -1</clus>
</clustering>
</event>
<event>
 9    1  0.7835476E-005  0.9211277E+02  0.7546771E-02  0.1300485E+00
         21   -1    0    0  501  502  0.00000000000E+00  0.00000000000E+00  0.20843008237E+02  0.20843008237E+02  0.00000000000E+00 0. -1.
          1   -1    0    0  502    0 -0.00000000000E+00 -0.00000000000E+00 -0.71201452071E+03  0.71201452071E+03  0.00000000000E+00 0. -1.
         23    2    1    2    0    0  0.73411181811E+00  0.11775586268E+02 -0.24420188241E+03  0.25970679470E+03  0.87600550737E+02 0.  0.
        -24    2    1    2    0    0  0.16127766968E+02 -0.50990525628E+02 -0.20582079380E+03  0.22825300936E+03  0.82928273514E+02 0.  0.
         11    1    4    4    0    0  0.30113171707E+02 -0.68661605461E+02 -0.17177625699E+03  0.18742545623E+03  0.00000000000E+00 0. -1.
        -12    1    4    4    0    0 -0.13985404739E+02  0.17671079833E+02 -0.34044536807E+02  0.40827553130E+02  0.00000000000E+00 0.  1.
        -11    1    3    3    0    0 -0.41468039472E+02 -0.72238903216E+01 -0.11375661855E+03  0.12129448113E+03  0.00000000000E+00 0.  1.
         11    1    3    3    0    0  0.42202151290E+02  0.18999476589E+02 -0.13044526387E+03  0.13841231358E+03  0.00000000000E+00 0. -1.
          2    1    1    2  501    0 -0.16861878786E+02  0.39214939360E+02 -0.24114883626E+03  0.24489772488E+03  0.00000000000E+00 0. -1.
<scales pt_clust_5="13000.00000" pt_clust_6="13000.00000" pt_clust_7="13000.00000" pt_clust_8="13000.00000" pt_clust_9="42.68649"></scales>
<clustering>
<clus scale="   42.686">  1  9  2 -1</clus>
<clus scale="   82.928">  5  6 -1 -1</clus>
<clus scale="   87.601">  7  8 -1 -1</clus>
<clus scale="   87.681">  1  5  2 -1</clus>
<clus scale="   42.686">  1  5  2 -1</clus>
</clustering>
</event>
<event>
 9    1  0.7835476E-005  0.2525292E+03  0.7546771E-02  0.1112349E+00
         -2   -1    0    0    0  501 -0.00000000000E+00  0.00000000000E+00  0.88489400050E+02  0.88489400050E+02  0.00000000000E+00 0.  1.
         21   -1    0    0  501  502  0.00000000000E+00 -0.00000000000E+00 -0.96728493565E+03  0.96728493565E+03  0.00000000000E+00 0.  1.
        -24    2    1    2    0    0  0.24815268345E+03  0.53391785416E+02 -0.29072222114E+03  0.39405146890E+03  0.79540638820E+02 0.  0.
         23    2    1    2    0    0 -0.20586820854E+03 -0.61320349694E+02 -0.35601690444E+03  0.42571223911E+03  0.91328909480E+02 0.  0.
         13    1    3    3    0    0  0.16886627304E+03 -0.24818700633E+01 -0.17888857305E+03  0.24601442928E+03  0.00000000000E+00 0. -1.
        -14    1    3    3    0    0  0.79286410415E+02  0.55873655480E+02 -0.11183364809E+03  0.14803703961E+03  0.00000000000E+00 0.  1.
        -13    1    4    4    0    0 -0.36253656234E+02 -0.47025107598E+02 -0.12862641829E+03  0.14167019382E+03  0.00000000000E+00 0.  1.
         13    1    4    4    0    0 -0.16961455231E+03 -0.14295242096E+02 -0.22739048615E+03  0.28404204529E+03  0.00000000000E+00 0. -1.
         -1    1    1    2    0  502 -0.42284474914E+02  0.79285642779E+01 -0.23205641002E+03  0.23601062769E+03  0.00000000000E+00 0.  1.
<scales pt_clust_5="13000.00000" pt_clust_6="13000.00000" pt_clust_7="13000.00000" pt_clust_8="13000.00000" pt_clust_9="43.02138"></scales>
<clustering>
<clus scale="   43.021">  2  9  1 -1</clus>
<clus scale="   79.541">  5  6 -1 -1</clus>
<clus scale="   91.329">  7  8 -1 -1</clus>
<clus scale="  248.509">  1  5  2 -1</clus>
<clus scale="   43.021">  2  5  1 -1</clus>
</clustering>
</event>
<event>
 9    1  0.7835476E-005  0.1481998E+03  0.7546771E-02  0.1203572E+00
         21   -1    0    0  501  502  0.00000000000E+00  0.00000000000E+00  0.15728526400E+03  0.15728526400E+03  0.00000000000E+00 0. -1.
          1   -1    0    0  502    0 -0.00000000000E+00 -0.00000000000E+00 -0.26271057651E+03  0.26271057651E+03  0.00000000000E+00 0. -1.
        -24    2    1    2    0    0  0.13055653136E+03  0.12471546896E+02 -0.15160836801E+03  0.21567584957E+03  0.79563983519E+02 0.  0.
         23    2    1    2    0    0 -0.10235852418E+03 -0.11460963049E+01  0.86936801067E+02  0.15348436153E+03  0.74302495545E+02 0.  0.
         13    1    3    3    0    0  0.56971446800E+02  0.25941152021E+02 -0.11818717518E+03  0.13374190628E+03  0.00000000000E+00 0. -1.
        -14    1    3    3    0    0  0.73585084564E+02 -0.13469605125E+02 -0.33421192825E+02  0.81933943286E+02  0.00000000000E+00 0.  1.
        -13    1    4    4    0    0 -0.70316203816E+02 -0.17069305077E+02  0.92323670351E+02  0.11730042541E+03  0.00000000000E+00 0. -1.
         13    1    4    4    0    0 -0.32042320365E+02  0.15923208772E+02 -0.53868692848E+01  0.36183936114E+02  0.00000000000E+00 0.  1.
          2    1    1    2  501    0 -0.28198007183E+02 -0.11325450591E+02 -0.40753745575E+02  0.50835629420E+02  0.00000000000E+00 0. -1.
<scales pt_clust_5="13000.00000" pt_clust_6="13000.00000" pt_clust_7="13000.00000" pt_clust_8="13000.00000" pt_clust_9="30.38740"></scales>
<clustering>
<clus scale="   30.387">  1  9  2 -1</clus>
<clus scale="   74.302">  7  8 -1 -1</clus>
<clus scale="   79.564">  5  6 -1 -1</clus>
<clus scale="  145.443">  1  7  2 -1</clus>
<clus scale="   30.387">  1  5  2 -1</clus>
</clustering>
</event>
<event>
 9    1  0.7835476E-005  0.9528277E+02  0.7546771E-02  0.1297046E+00
         21   -1    0    0  501  502  0.00000000000E+00  0.00000000000E+00  0.11725231258E+03  0.11725231258E+03  0.00000000000E+00 0. -1.
          1   -1    0    0  502    0 -0.00000000000E+00 -0.00000000000E+00 -0.43731967253E+03  0.43731967253E+03  0.00000000000E+00 0. -1.
        -24    2    1    2    0    0  0.26293062489E+01  0.23895221218E+02 -0.36249317037E+03  0.37238242578E+03  0.81789226784E+02 0.  0.
         23    2    1    2    0    0 -0.31452121764E+02  0.10088715759E+02 -0.24620934333E+02  0.10168534422E+03  0.92966126484E+02 0.  0.
         13    1    3    3    0    0 -0.28782275259E+02 -0.17186151096E+02 -0.13955769460E+03  0.14352746525E+03  0.00000000000E+00 0. -1.
        -14    1    3    3    0    0  0.31411581508E+02  0.41081372314E+02 -0.22293547577E+03  0.22885496053E+03  0.00000000000E+00 0.  1.
        -13    1    4    4    0    0 -0.38600281269E+02 -0.92329560812E+01 -0.53250314961E+02  0.66414043962E+02  0.00000000000E+00 0.  1.
         13    1    4    4    0    0  0.71481595049E+01  0.19321671840E+02  0.28629380628E+02  0.35271300261E+02  0.00000000000E+00 0. -1.
          2    1    1    2  501    0  0.28822815515E+02 -0.33983936976E+02  0.67046744753E+02  0.80504215098E+02  0.00000000000E+00 0. -1.
<scales pt_clust_5="13000.00000" pt_clust_6="13000.00000" pt_clust_7="13000.00000" pt_clust_8="13000.00000" pt_clust_9="44.56077"></scales>
<clustering>
<clus scale="   44.561">  1  9  2 -1</clus>
<clus scale="   81.789">  5  6 -1 -1</clus>
<clus scale="   84.413">  2  5  1 -1</clus>
<clus scale="   92.966">  7  8 -1 -1</clus>
<clus scale="   44.561">  1  5  2 -1</clus>
</clustering>
</event>
<event>
 9    1  0.7835476E-005  0.1198183E+03  0.7546771E-02  0.1247080E+00
         21   -1    0    0  501  502  0.00000000000E+00  0.00000000000E+00  0.31499737974E+03  0.31499737974E+03  0.00000000000E+00 0. -1.
          1   -1    0    0  502    0 -0.00000000000E+00 -0.00000000000E+00 -0.14270303414E+03  0.14270303414E+03  0.00000000000E+00 0. -1.
         23    2    1    2    0    0  0.69748093410E+02  0.23387231726E+02 -0.80752614319E+02  0.14245347645E+03  0.91434397742E+02 0.  0.
        -24    2    1    2    0    0 -0.83998112575E+02 -0.41969255092E+02  0.95433617143E+02  0.15590353324E+03  0.79882633317E+02 0.  0.
         13    1    4    4    0    0 -0.79798438184E+02 -0.51359211425E+02  0.46088034680E+02  0.10549723350E+03  0.00000000000E+00 0. -1.
        -14    1    4    4    0    0 -0.41996743913E+01  0.93899563326E+01  0.49345582464E+02  0.50406299741E+02  0.00000000000E+00 0.  1.
        -13    1    3    3    0    0 -0.26081180389E+01  0.36676387143E+02 -0.54336980186E+01  0.37168329633E+02  0.00000000000E+00 0.  1.
         13    1    3    3    0    0  0.72356211449E+02 -0.13289155417E+02 -0.75318916300E+02  0.10528514681E+03  0.00000000000E+00 0. -1.
          2    1    1    2  501    0  0.14250019165E+02  0.18582023366E+02  0.15761334278E+03  0.15934340420E+03  0.00000000000E+00 0. -1.
<scales pt_clust_5="13000.00000" pt_clust_6="13000.00000" pt_clust_7="13000.00000" pt_clust_8="13000.00000" pt_clust_9="23.41697"></scales>
<clustering>
<clus scale="   23.417">  1  9  2 -1</clus>
<clus scale="   79.883">  5  6 -1 -1</clus>
<clus scale="   91.434">  7  8 -1 -1</clus>
<clus scale="  111.254">  1  5  2 -1</clus>
<clus scale="   23.417">  1  5  2 -1</clus>
</clustering>
</event>
<event>
 9    1  0.7835476E-005  0.2300732E+03  0.7546771E-02  0.1127254E+00
          1   -1    0    0  502    0 -0.00000000000E+00  0.00000000000E+00  0.54657448040E+03  0.54657448040E+03  0.00000000000E+00 0. -1.
         21   -1    0    0  501  502  0.00000000000E+00 -0.00000000000E+00 -0.18226605046E+03  0.18226605046E+03  0.00000000000E+00 0. -1.
         23    2    1    2    0    0 -0.10194297814E+03  0.20404985732E+03  0.31548994207E+03  0.39961935305E+03  0.90183195332E+02 0.  0.
        -24    2    1    2    0    0  0.21246289130E+02 -0.16976461392E+03 -0.51668805589E+02  0.19586027769E+03  0.80125863279E+02 0.  0.
         11    1    4    4    0    0 -0.24286148642E+02 -0.93750981246E+02 -0.45603477041E+02  0.10704550723E+03  0.00000000000E+00 0. -1.
        -12    1    4    4    0    0  0.45532437771E+02 -0.76013632670E+02 -0.60653285475E+01  0.88814770458E+02  0.00000000000E+00 0.  1.
        -13    1    3    3    0    0  0.12468570955E+02  0.39325857299E+02  0.31294129832E+02  0.51781375763E+02  0.00000000000E+00 0.  1.
         13    1    3    3    0    0 -0.11441154910E+03  0.16472400002E+03  0.28419581224E+03  0.34783797728E+03  0.00000000000E+00 0. -1.
          2    1    1    2  501    0  0.80696689014E+02 -0.34285243400E+02  0.10048729346E+03  0.13336090012E+03  0.00000000000E+00 0. -1.
<scales pt_clust_5="13000.00000" pt_clust_6="13000.00000" pt_clust_7="13000.00000" pt_clust_8="13000.00000" pt_clust_9="87.67805"></scales>
<clustering>
<clus scale="   80.126">  5  6 -1 -1</clus>
<clus scale="   87.678">  2  9  1 -1</clus>
<clus scale="   90.183">  7  8 -1 -1</clus>
<clus scale="  226.320">  2  5  1 -1</clus>
<clus scale="   87.678">  2  5  1 -1</clus>
</clustering>
</event>
<event>
 9    1  0.7835476E-005  0.2750296E+03  0.7546771E-02  0.1098805E+00
         21   -1    0    0  501  502  0.00000000000E+00  0.00000000000E+00  0.39178245974E+03  0.39178245974E+03  0.00000000000E+00 0.  1.
          1   -1    0    0  502    0 -0.00000000000E+00 -0.00000000000E+00 -0.10005824226E+04  0.10005824226E+04  0.00000000000E+00 0. -1.
        -24    2    1    2    0    0 -0.19226131207E+03  0.17702854393E+03 -0.87312110496E+03  0.91505955450E+03  0.81792462185E+02 0.  0.
         23    2    1    2    0    0  0.14413523312E+03 -0.18805561021E+03  0.31646856142E+03  0.40549259216E+03  0.90177679983E+02 0.  0.
         13    1    3    3    0    0 -0.89132810933E+02  0.68505894899E+02 -0.51085963889E+03  0.52308248515E+03  0.00000000000E+00 0. -1.
        -14    1    3    3    0    0 -0.10312850114E+03  0.10852264903E+03 -0.36226146607E+03  0.39197706935E+03  0.00000000000E+00 0.  1.
        -11    1    4    4    0    0  0.86052203992E+02 -0.11857441900E+03  0.26095852028E+03  0.29927282530E+03  0.00000000000E+00 0.  1.
         11    1    4    4    0    0  0.58083029125E+02 -0.69481191211E+02  0.55510041143E+02  0.10621976686E+03  0.00000000000E+00 0. -1.
          2    1    1    2  501    0  0.48126078953E+02  0.11027066284E+02 -0.52147419370E+02  0.71812735731E+02  0.00000000000E+00 0. -1.
<scales pt_clust_5="13000.00000" pt_clust_6="13000.00000" pt_clust_7="13000.00000" pt_clust_8="13000.00000" pt_clust_9="49.37325"></scales>
<clustering>
<clus scale="   49.373">  1  9  2 -1</clus>
<clus scale="   81.792">  5  6 -1 -1</clus>
<clus scale="   90.178">  7  8 -1 -1</clus>
<clus scale="  272.395">  2  5  1 -1</clus>
<clus scale="   49.373">  1  5  2 -1</clus>
</clustering>
</event>
<event>
 9    1  0.7835476E-005  0.1100318E+03  0.7546771E-02  0.1268159E+00
         21   -1    0    0  501  502  0.00000000000E+00  0.00000000000E+00  0.63327567473E+02  0.63327567473E+02  0.00000000000E+00 0. -1.
          1   -1    0    0  502    0 -0.00000000000E+00 -0.00000000000E+00 -0.50102468397E+03  0.50102468397E+03  0.00000000000E+00 0. -1.
         23    2    1    2    0    0  0.50821807870E+02  0.84379566598E+00 -0.29103832579E+03  0.31363281487E+03  0.10525524851E+03 0.  0.
        -24    2    1    2    0    0  0.31529661887E+02  0.46064303790E+02 -0.42482175898E+02  0.10988300152E+03  0.84578360656E+02 0.  0.
         13    1    4    4    0    0  0.42690814028E+02  0.65640140337E+02 -0.28306763391E+02  0.83261074215E+02  0.00000000000E+00 0. -1.
        -14    1    4    4    0    0 -0.11161152140E+02 -0.19575836546E+02 -0.14175412507E+02  0.26621927303E+02  0.00000000000E+00 0.  1.
        -13    1    3    3    0    0 -0.28797220183E+02  0.11331204021E+02 -0.43434110735E+02  0.53331023337E+02  0.00000000000E+00 0.  1.
         13    1    3    3    0    0  0.79619028053E+02 -0.10487408355E+02 -0.24760421506E+03  0.26030179154E+03  0.00000000000E+00 0. -1.
          2    1    1    2  501    0 -0.82351469758E+02 -0.46908099456E+02 -0.10417661480E+03  0.14083643505E+03  0.00000000000E+00 0. -1.
<scales pt_clust_5="13000.00000" pt_clust_6="13000.00000" pt_clust_7="13000.00000" pt_clust_8="13000.00000" pt_clust_9="94.77412"></scales>
<clustering>
<clus scale="   84.578">  5  6 -1 -1</clus>
<clus scale="   94.774">  1  9  2 -1</clus>
<clus scale="   94.774">  1  5  2 -1</clus>
<clus scale="  105.255">  7  8 -1 -1</clus>
<clus scale="   94.774">  1  5  2 -1</clus>
</clustering>
</event>
<event>
 9    1  0.8695309E-005  0.9612580E+02  0.7546771E-02  0.1295442E+00
         -4   -1    0    0    0  501 -0.00000000000E+00  0.00000000000E+00  0.14962964614E+03  0.14962964614E+03  0.00000000000E+00 0.  1.
         21   -1    0    0  501  502  0.00000000000E+00 -0.00000000000E+00 -0.32431268475E+03  0.32431268475E+03  0.00000000000E+00 0.  1.
        -24    2    1    2    0    0 -0.14442807538E+02 -0.25787638016E+02  0.10927089441E+03  0.13874441712E+03  0.80226479125E+02 0.  0.
         23    2    1    2    0    0 -0.14137056411E+02 -0.12902360468E+02 -0.26871442020E+03  0.28474033399E+03  0.92213290306E+02 0.  0.
         13    1    3    3    0    0  0.12010822600E+02  0.24994092323E+02  0.28786268798E+02  0.39970161144E+02  0.00000000000E+00 0. -1.
        -14    1    3    3    0    0 -0.26453630137E+02 -0.50781730339E+02  0.80484625609E+02  0.98774255973E+02  0.00000000000E+00 0.  1.
        -13    1    4    4    0    0 -0.53544151647E+02 -0.86703144849E+01 -0.16640987049E+03  0.17502684230E+03  0.00000000000E+00 0.  1.
         13    1    4    4    0    0  0.39407095235E+02 -0.42320459831E+01 -0.10230454971E+03  0.10971349169E+03  0.00000000000E+00 0. -1.
         -3    1    1    2    0  502  0.28579863949E+02  0.38689998484E+02 -0.15239512818E+02  0.50457579777E+02  0.00000000000E+00 0.  1.
<scales pt_clust_5="13000.00000" pt_clust_6="13000.00000" pt_clust_7="13000.00000" pt_clust_8="13000.00000" pt_clust_9="48.10122"></scales>
<clustering>
<clus scale="   48.101">  2  9  1 -1</clus>
<clus scale="   80.226">  5  6 -1 -1</clus>
<clus scale="   84.695">  1  5  2 -1</clus>
<clus scale="   92.213">  7  8 -1 -1</clus>
<clus scale="   48.101">  2  5  1 -1</clus>
</clustering>
</event>
<event>
 9    1  0.7835476E-005  0.9094922E+02  0.7546771E-02  0.1309792E+00
         21   -1    0    0  501  502  0.00000000000E+00  0.00000000000E+00  0.44289199866E+02  0.44289199866E+02  0.00000000000E+00 0.  1.
          1   -1    0    0  502    0 -0.00000000000E+00 -0.00000000000E+00 -0.58681872984E+03  0.58681872984E+03  0.00000000000E+00 0. -1.
         23    2    1    2    0    0  0.45340051526E+01  0.17590168420E+02 -0.19357152913E+03  0.21418794360E+03  0.89869722728E+02 0.  0.
        -24    2    1    2    0    0  0.58135951100E+02  0.20797142115E+02 -0.51130613638E+02  0.11015906683E+03  0.75553758506E+02 0.  0.
         11    1    4    4    0    0 -0.66369944733E+00  0.23065500304E+02 -0.45537842318E+02  0.51050493477E+02  0.00000000000E+00 0. -1.
        -12    1    4    4    0    0  0.58799650548E+02 -0.22683581897E+01 -0.55927713205E+01  0.59108573358E+02  0.00000000000E+00 0.  1.
        -11    1    3    3    0    0  0.57603515539E+01 -0.20955579651E+02 -0.57951927551E+01  0.22492270397E+02  0.00000000000E+00 0. -1.
         11    1    3    3    0    0 -0.12263464013E+01  0.38545748071E+02 -0.18777633638E+03  0.19169567320E+03  0.00000000000E+00 0.  1.
          2    1    1    2  501    0 -0.62669956253E+02 -0.38387310534E+02 -0.29782738720E+03  0.30676091927E+03  0.00000000000E+00 0. -1.
<scales pt_clust_5="13000.00000" pt_clust_6="13000.00000" pt_clust_7="13000.00000" pt_clust_8="13000.00000" pt_clust_9="73.49227"></scales>
<clustering>
<clus scale="   73.492">  1  9  2 -1</clus>
<clus scale="   75.554">  5  6 -1 -1</clus>
<clus scale="   76.835">  1  5  2 -1</clus>
<clus scale="   89.870">  7  8 -1 -1</clus>
<clus scale="   73.492">  1  5  2 -1</clus>
</clustering>
</event>
<event>
 9    1  0.7835476E-005  0.1356338E+03  0.7546771E-02  0.1223238E+00
         21   -1    0    0  501  502  0.00000000000E+00  0.00000000000E+00  0.21857267459E+03  0.21857267459E+03  0.00000000000E+00 0. -1.
          1   -1    0    0  502    0 -0.00000000000E+00 -0.00000000000E+00 -0.17169788590E+03  0.17169788590E+03  0.00000000000E+00 0. -1.
         23    2    1    2    0    0 -0.11389791479E+03 -0.31654736334E+02 -0.58905909351E+02  0.16043961442E+03  0.91083513277E+02 0.  0.
        -24    2    1    2    0    0  0.77491607353E+02 -0.46049873024E+02  0.47419278636E+02  0.12605483702E+03  0.74267717974E+02 0.  0.
         13    1    4    4    0    0  0.35087414487E+02 -0.61313969712E+02  0.20493411841E+02  0.73556165384E+02  0.00000000000E+00 0. -1.
        -14    1    4    4    0    0  0.42404192866E+02  0.15264096688E+02  0.26925866795E+02  0.52498671631E+02  0.00000000000E+00 0.  1.
        -13    1    3    3    0    0 -0.10517296305E+03  0.10720043407E+02 -0.45998784042E+02  0.11529162858E+03  0.00000000000E+00 0. -1.
         13    1    3    3    0    0 -0.87249517398E+01 -0.42374779742E+02 -0.12907125310E+02  0.45147985833E+02  0.00000000000E+00 0.  1.
          2    1    1    2  501    0  0.36406307440E+02  0.77704609358E+02  0.58361419402E+02  0.10377610906E+03  0.00000000000E+00 0. -1.
<scales pt_clust_5="13000.00000" pt_clust_6="13000.00000" pt_clust_7="13000.00000" pt_clust_8="13000.00000" pt_clust_9="85.81040"></scales>
<clustering>
<clus scale="   74.268">  5  6 -1 -1</clus>
<clus scale="   85.810">  1  9  2 -1</clus>
<clus scale="   91.084">  7  8 -1 -1</clus>
<clus scale="  124.964">  1  5  2 -1</clus>
<clus scale="   85.810">  1  5  2 -1</clus>
</clustering>
</event>
<event>
 9    1  0.7835476E-005  0.1829994E+03  0.7546771E-02  0.1200665E+00
         21   -1    0    0  501  502  0.00000000000E+00  0.00000000000E+00  0.32270246419E+03  0.32270246419E+03  0.00000000000E+00 0. -1.
         -2   -1    0    0    0  501 -0.00000000000E+00 -0.00000000000E+00 -0.52674486714E+03  0.52674486714E+03  0.00000000000E+00 0.  1.
        -24    2    1    2    0    0 -0.28709002590E+02 -0.62395618456E+01 -0.38706336878E+03  0.39570857987E+03  0.76838074960E+02 0.  0.
         23    2    1    2    0    0 -0.43711054517E+02  0.14796395974E+03 -0.35467345630E+02  0.18342853730E+03  0.92650450735E+02 0.  0.
         11    1    3    3    0    0  0.22261926681E+02  0.14729043800E+02 -0.14652059899E+03  0.14893228005E+03  0.00000000000E+00 0. -1.
        -12    1    3    3    0    0 -0.50970929271E+02 -0.20968605646E+02 -0.24054276979E+03  0.24677629982E+03  0.00000000000E+00 0.  1.
        -11    1    4    4    0    0  0.98978874737E+01  0.54123390865E+02 -0.50044682862E+02  0.74375936283E+02  0.00000000000E+00 0.  1.
         11    1    4    4    0    0 -0.53608941991E+02  0.93840568876E+02  0.14577337232E+02  0.10905260102E+03  0.00000000000E+00 0. -1.
         -1    1    1    2    0  502  0.72420057107E+02 -0.14172439790E+03  0.21848831146E+03  0.27031021416E+03  0.00000000000E+00 0.  1.
<scales pt_clust_5="13000.00000" pt_clust_6="13000.00000" pt_clust_7="13000.00000" pt_clust_8="13000.00000" pt_clust_9="157.81213"></scales>
<clustering>
<clus scale="   76.838">  5  6 -1 -1</clus>
<clus scale="   82.263">  2  5  1 -1</clus>
<clus scale="   92.650">  7  8 -1 -1</clus>
<clus scale="  157.812">  1  9  2 -1</clus>
<clus scale="  157.812">  1  5  2 -1</clus>
</clustering>
</event>
<event>
 9    1  0.7835476E-005  0.9945030E+02  0.7546771E-02  0.1286865E+00
         21   -1    0    0  501  502  0.00000000000E+00  0.00000000000E+00  0.24636494517E+03  0.24636494517E+03  0.00000000000E+00 0. -1.
          1   -1    0    0  502    0 -0.00000000000E+00 -0.00000000000E+00 -0.72499342476E+02  0.72499342476E+02  0.00000000000E+00 0. -1.
         23    2    1    2    0    0  0.11152755596E+02  0.52334294257E+02  0.15836319483E+02  0.10730958075E+03  0.91658577305E+02 0.  0.
        -24    2    1    2    0    0  0.13886984962E+02 -0.71283665400E+01  0.12637835170E+03  0.15095482262E+03  0.81069160188E+02 0.  0.
         13    1    4    4    0    0  0.45885390153E+02  0.74089469970E+01  0.82972449638E+02  0.95104095201E+02  0.00000000000E+00 0. -1.
        -14    1    4    4    0    0 -0.31998405191E+02 -0.14537313537E+02  0.43405902062E+02  0.55850727421E+02  0.00000000000E+00 0.  1.
        -13    1    3    3    0    0 -0.71522796782E+01  0.73089993846E+02 -0.35429731703E+01  0.73524519474E+02  0.00000000000E+00 0. -1.
         13    1    3    3    0    0  0.18305035274E+02 -0.20755699589E+02  0.19379292653E+02  0.33785061278E+02  0.00000000000E+00 0.  1.
          2    1    1    2  501    0 -0.25039740558E+02 -0.45205927717E+02  0.31650931507E+02  0.60599884268E+02  0.00000000000E+00 0. -1.
<scales pt_clust_5="13000.00000" pt_clust_6="13000.00000" pt_clust_7="13000.00000" pt_clust_8="13000.00000" pt_clust_9="51.67753"></scales>
<clustering>
<clus scale="   51.678">  1  9  2 -1</clus>
<clus scale="   81.069">  5  6 -1 -1</clus>
<clus scale="   89.785">  1  5  2 -1</clus>
<clus scale="   91.659">  7  8 -1 -1</clus>
<clus scale="   51.678">  1  5  2 -1</clus>
</clustering>
</event>
<event>
 9    1  0.7835476E-005  0.1163296E+03  0.7546771E-02  0.1252870E+00
         21   -1    0    0  501  502  0.00000000000E+00  0.00000000000E+00  0.53866608629E+03  0.53866608629E+03  0.00000000000E+00 0. -1.
          3   -1    0    0  502    0 -0.00000000000E+00 -0.00000000000E+00 -0.69038820788E+02  0.69038820788E+02  0.00000000000E+00 0. -1.
         23    2    1    2    0    0  0.19422792297E+02 -0.65594133238E+02  0.37688662677E+02  0.12082854171E+03  0.92191463936E+02 0.  0.
        -24    2    1    2    0    0 -0.50423011015E+02  0.73108974051E+02  0.43805930491E+03  0.45439638096E+03  0.81809011010E+02 0.  0.
         11    1    4    4    0    0 -0.55641568384E+02  0.82719567764E+02  0.30480194001E+03  0.32069102522E+03  0.00000000000E+00 0. -1.
        -12    1    4    4    0    0  0.52185573695E+01 -0.96105937129E+01  0.13325736490E+03  0.13370535574E+03  0.00000000000E+00 0.  1.
        -13    1    3    3    0    0  0.67423709238E+01 -0.88199404304E+02  0.33425177955E+02  0.94561287040E+02  0.00000000000E+00 0. -1.
         13    1    3    3    0    0  0.12680421374E+02  0.22605271066E+02  0.42634847215E+01  0.26267254675E+02  0.00000000000E+00 0.  1.
          4    1    1    2  501    0  0.31000218718E+02 -0.75148408128E+01 -0.61207020845E+01  0.32479984406E+02  0.00000000000E+00 0. -1.
<scales pt_clust_5="13000.00000" pt_clust_6="13000.00000" pt_clust_7="13000.00000" pt_clust_8="13000.00000" pt_clust_9="31.89808"></scales>
<clustering>
<clus scale="   31.898">  1  9  2 -1</clus>
<clus scale="   81.809">  5  6 -1 -1</clus>
<clus scale="   92.191">  7  8 -1 -1</clus>
<clus scale="  108.287">  1  5  2 -1</clus>
<clus scale="   31.898">  1  5  2 -1</clus>
</clustering>
</event>
<event>
 9    1  0.8856625E-005  0.1297098E+03  0.7546771E-02  0.1228893E+00
          1   -1    0    0  502    0 -0.00000000000E+00  0.00000000000E+00  0.51476148037E+03  0.51476148037E+03  0.00000000000E+00 0. -1.
         21   -1    0    0  501  502  0.00000000000E+00 -0.00000000000E+00 -0.19454835033E+03  0.19454835033E+03  0.00000000000E+00 0.  1.
         23    2    1    2    0    0  0.10039294418E+03 -0.24153044820E+02  0.15173399910E+03  0.20497886394E+03  0.91274396008E+02 0.  0.
        -24    2    1    2    0    0 -0.40400709169E+02 -0.77631642088E+02 -0.13233113822E+03  0.18114988936E+03  0.87434907896E+02 0.  0.
         11    1    4    4    0    0 -0.12805913041E+02  0.18100223701E+02 -0.13025074909E+02  0.25715016687E+02  0.00000000000E+00 0. -1.
        -12    1    4    4    0    0 -0.27594796127E+02 -0.95731865789E+02 -0.11930606331E+03  0.15543487268E+03  0.00000000000E+00 0.  1.
        -11    1    3    3    0    0  0.71452369758E+00  0.26139892488E+02  0.30120111561E+02  0.39887662802E+02  0.00000000000E+00 0.  1.
         11    1    3    3    0    0  0.99678420482E+02 -0.50292937307E+02  0.12161388753E+03  0.16509120114E+03  0.00000000000E+00 0. -1.
          2    1    1    2  501    0 -0.59992235011E+02  0.10178468691E+03  0.30081026916E+03  0.32318107739E+03  0.00000000000E+00 0. -1.
<scales pt_clust_5="13000.00000" pt_clust_6="13000.00000" pt_clust_7="13000.00000" pt_clust_8="13000.00000" pt_clust_9="118.14908"></scales>
<clustering>
<clus scale="   87.435">  5  6 -1 -1</clus>
<clus scale="   91.274">  7  8 -1 -1</clus>
<clus scale="  118.149">  2  9  1 -1</clus>
<clus scale="  127.037">  2  5  1 -1</clus>
<clus scale="  118.149">  2  5  1 -1</clus>
</clustering>
</event>
<event>
 9    1  0.7835476E-005  0.2340233E+03  0.7546771E-02  0.1145063E+00
         -4   -1    0    0    0  501 -0.00000000000E+00  0.00000000000E+00  0.45768615864E+03  0.45768615864E+03  0.00000000000E+00 0.  1.
         21   -1    0    0  501  502  0.00000000000E+00 -0.00000000000E+00 -0.21924983765E+03  0.21924983765E+03  0.00000000000E+00 0.  1.
        -24    2    1    2    0    0  0.45957413923E+02  0.10381967533E+03  0.59010269139E+02  0.15150124990E+03  0.81116015531E+02 0.  0.
         23    2    1    2    0    0 -0.18885341447E+03 -0.21960368966E+03  0.15108248566E+03  0.33934723287E+03  0.91865305291E+02 0.  0.
         11    1    3    3    0    0  0.55762444555E+02  0.10211931936E+03  0.29039014647E+02  0.11992109898E+03  0.00000000000E+00 0. -1.
        -12    1    3    3    0    0 -0.98050306326E+01  0.17003559765E+01  0.29971254492E+02  0.31580150918E+02  0.00000000000E+00 0.  1.
        -11    1    4    4    0    0 -0.17788323158E+03 -0.16352587511E+03  0.96056411187E+02  0.26001921091E+03  0.00000000000E+00 0.  1.
         11    1    4    4    0    0 -0.10970182883E+02 -0.56077814548E+02  0.55026074476E+02  0.79328021967E+02  0.00000000000E+00 0. -1.
         -3    1    1    2    0  502  0.14289600055E+03  0.11578401433E+03  0.28343566183E+02  0.18608751352E+03  0.00000000000E+00 0.  1.
<scales pt_clust_5="13000.00000" pt_clust_6="13000.00000" pt_clust_7="13000.00000" pt_clust_8="13000.00000" pt_clust_9="215.23865"></scales>
<clustering>
<clus scale="   81.116">  5  6 -1 -1</clus>
<clus scale="   91.865">  7  8 -1 -1</clus>
<clus scale="  139.536">  1  5  2 -1</clus>
<clus scale="  215.239">  2  9  1 -1</clus>
<clus scale="  215.239">  2  5  1 -1</clus>
</clustering>
</event>
<event>
 9    1  0.7835476E-005  0.1146527E+03  0.7546771E-02  0.1255729E+00
         -2   -1    0    0    0  501 -0.00000000000E+00  0.00000000000E+00  0.51118399862E+03  0.51118399862E+03  0.00000000000E+00 0.  1.
         21   -1    0    0  501  502  0.00000000000E+00 -0.00000000000E+00 -0.39697023149E+02  0.39697023149E+02  0.00000000000E+00 0. -1.
         23    2    1    2    0    0 -0.63819976088E+02 -0.28365277468E+02  0.29074679372E+03  0.31320682519E+03  0.93205359135E+02 0.  0.
        -24    2    1    2    0    0  0.61178782958E+02  0.63750394523E+01  0.70831583049E+02  0.12555619384E+03  0.83449146450E+02 0.  0.
         13    1    4    4    0    0  0.61877889627E+02  0.36768923561E+02  0.40401909066E+02  0.82541754408E+02  0.00000000000E+00 0. -1.
        -14    1    4    4    0    0 -0.69910666899E+00 -0.30393884109E+02  0.30429673982E+02  0.43014439436E+02  0.00000000000E+00 0.  1.
        -11    1    3    3    0    0 -0.59629637722E+02  0.20333860240E+02  0.11910682495E+03  0.13474270042E+03  0.00000000000E+00 0. -1.
         11    1    3    3    0    0 -0.41903383660E+01 -0.48699137708E+02  0.17163996877E+03  0.17846412476E+03  0.00000000000E+00 0.  1.
         -1    1    1    2    0  502  0.26411931300E+01  0.21990238016E+02  0.10990859871E+03  0.11211800274E+03  0.00000000000E+00 0.  1.
<scales pt_clust_5="13000.00000" pt_clust_6="13000.00000" pt_clust_7="13000.00000" pt_clust_8="13000.00000" pt_clust_9="22.14829"></scales>
<clustering>
<clus scale="   22.148">  2  9  1 -1</clus>
<clus scale="   83.449">  5  6 -1 -1</clus>
<clus scale="   93.205">  7  8 -1 -1</clus>
<clus scale="  106.873">  2  5  1 -1</clus>
<clus scale="   22.148">  2  5  1 -1</clus>
</clustering>
</event>
<event>
 9    1  0.7835476E-005  0.9321949E+02  0.7546771E-02  0.1302021E+00
         21   -1    0    0  501  502  0.00000000000E+00  0.00000000000E+00  0.56358559712E+02  0.56358559712E+02  0.00000000000E+00 0.  1.
         -2   -1    0    0    0  501 -0.00000000000E+00 -0.00000000000E+00 -0.34456632570E+03  0.34456632570E+03  0.00000000000E+00 0.  1.
        -24    2    1    2    0    0 -0.61397176685E+01 -0.20315675400E+02 -0.25616507408E+03  0.26938898785E+03  0.80619221034E+02 0.  0.
         23    2    1    2    0    0 -0.15559210423E+01 -0.52808111391E+01 -0.44368309600E+02  0.10210251805E+03  0.91793624172E+02 0.  0.
         13    1    3    3    0    0 -0.30650135629E+02 -0.92635834429E+01 -0.38523675001E+02  0.50093096609E+02  0.00000000000E+00 0. -1.
        -14    1    3    3    0    0  0.24510417961E+02 -0.11052091957E+02 -0.21764139907E+03  0.21929589124E+03  0.00000000000E+00 0.  1.
        -11    1    4    4    0    0  0.75632574324E+01  0.21123523009E+02  0.21177181368E+02  0.30852537950E+02  0.00000000000E+00 0. -1.
         11    1    4    4    0    0 -0.91191784747E+01 -0.26404334148E+02 -0.65545490968E+02  0.71249980099E+02  0.00000000000E+00 0.  1.
         -1    1    1    2    0  502  0.76956387109E+01  0.25596486539E+02  0.12325617684E+02  0.29433379513E+02  0.00000000000E+00 0.  1.
<scales pt_clust_5="13000.00000" pt_clust_6="13000.00000" pt_clust_7="13000.00000" pt_clust_8="13000.00000" pt_clust_9="26.72832"></scales>
<clustering>
<clus scale="   26.728">  1  9  2 -1</clus>
<clus scale="   80.619">  5  6 -1 -1</clus>
<clus scale="   82.239">  2  5  1 -1</clus>
<clus scale="   91.794">  7  8 -1 -1</clus>
<clus scale="   26.728">  1  5  2 -1</clus>
</clustering>
</event>
<event>
 9    1  0.7835476E-005  0.3341265E+03  0.7546771E-02  0.1069584E+00
         21   -1    0    0  501  502  0.00000000000E+00  0.00000000000E+00  0.47824502091E+03  0.47824502091E+03  0.00000000000E+00 0. -1.
          1   -1    0    0  502    0 -0.00000000000E+00 -0.00000000000E+00 -0.89745502548E+03  0.89745502548E+03  0.00000000000E+00 0. -1.
         23    2    1    2    0    0  0.24986382406E+03 -0.18387142965E+03 -0.66501523670E+03  0.73946432611E+03  0.91222756642E+02 0.  0.
        -24    2    1    2    0    0 -0.35636594554E+03  0.13529187259E+03  0.35497490544E+02  0.39554500294E+03  0.99474617776E+02 0.  0.
         11    1    4    4    0    0 -0.49798330722E+02 -0.11321649358E+02  0.21569574059E+02  0.55437352137E+02  0.00000000000E+00 0. -1.
        -12    1    4    4    0    0 -0.30656761482E+03  0.14661352195E+03  0.13927916485E+02  0.34010765080E+03  0.00000000000E+00 0.  1.
        -13    1    3    3    0    0  0.72735167356E+02 -0.82458353952E+02 -0.32270413926E+03  0.34092190631E+03  0.00000000000E+00 0. -1.
         13    1    3    3    0    0  0.17712865671E+03 -0.10141307569E+03 -0.34231109745E+03  0.39854241980E+03  0.00000000000E+00 0.  1.
          2    1    1    2  501    0  0.10650212148E+03  0.48579557059E+02  0.21030774159E+03  0.24069071735E+03  0.00000000000E+00 0. -1.
<scales pt_clust_5="13000.00000" pt_clust_6="13000.00000" pt_clust_7="13000.00000" pt_clust_8="13000.00000" pt_clust_9="117.05843"></scales>
<clustering>
<clus scale="   91.223">  7  8 -1 -1</clus>
<clus scale="   99.475">  5  6 -1 -1</clus>
<clus scale="  117.058">  1  9  2 -1</clus>
<clus scale="  331.763">  2  7  1 -1</clus>
<clus scale="  117.058">  1  5  2 -1</clus>
</clustering>
</event>
<event>
 9    1  0.7835476E-005  0.9642527E+02  0.7546771E-02  0.1294011E+00
          3   -1    0    0  502    0 -0.00000000000E+00  0.00000000000E+00  0.27146216353E+03  0.27146216353E+03  0.00000000000E+00 0. -1.
         21   -1    0    0  501  502  0.00000000000E+00 -0.00000000000E+00 -0.96049885628E+02  0.96049885628E+02  0.00000000000E+00 0. -1.
         23    2    1    2    0    0  0.22104685056E+02  0.19099622182E+02  0.21288364652E+03  0.23345795600E+03  0.91267505676E+02 0.  0.
        -24    2    1    2    0    0 -0.43659149979E+02 -0.82574410046E+01 -0.28659006134E+01  0.91867765200E+02  0.80356494371E+02 0.  0.
         11    1    4    4    0    0 -0.44516284537E+02 -0.18660204969E+02  0.30371962587E+02  0.57029456861E+02  0.00000000000E+00 0. -1.
        -12    1    4    4    0    0  0.85713455808E+00  0.10402763964E+02 -0.33237863201E+02  0.34838308338E+02  0.00000000000E+00 0.  1.
        -11    1    3    3    0    0  0.26632440461E+02 -0.28010826117E+02  0.46458260589E+02  0.60433957686E+02  0.00000000000E+00 0.  1.
         11    1    3    3    0    0 -0.45277554053E+01  0.47110448300E+02  0.16642538593E+03  0.17302399831E+03  0.00000000000E+00 0. -1.
          4    1    1    2  501    0  0.21554464924E+02 -0.10842181178E+02 -0.34605468007E+02  0.42186327961E+02  0.00000000000E+00 0. -1.
<scales pt_clust_5="13000.00000" pt_clust_6="13000.00000" pt_clust_7="13000.00000" pt_clust_8="13000.00000" pt_clust_9="24.12774"></scales>
<clustering>
<clus scale="   24.128">  2  9  1 -1</clus>
<clus scale="   80.356">  5  6 -1 -1</clus>
<clus scale="   86.170">  2  5  1 -1</clus>
<clus scale="   91.268">  7  8 -1 -1</clus>
<clus scale="   24.128">  2  5  1 -1</clus>
</clustering>
</event>
<event>
 9    1  0.7835476E-005  0.1343327E+03  0.7546771E-02  0.1234587E+00
         21   -1    0    0  501  502  0.00000000000E+00  0.00000000000E+00  0.38717504417E+02  0.38717504417E+02  0.00000000000E+00 0. -1.
          1   -1    0    0  502    0 -0.00000000000E+00 -0.00000000000E+00 -0.81846790463E+03  0.81846790463E+03  0.00000000000E+00 0. -1.
        -24    2    1    2    0    0  0.55716230933E+02  0.33866811394E+02 -0.14724384130E+03  0.17895971542E+03  0.78067737505E+02 0.  0.
         23    2    1    2    0    0  0.62549173563E+02 -0.48182982522E+01 -0.41120585572E+03  0.42563012112E+03  0.90194950599E+02 0.  0.
         13    1    3    3    0    0  0.66865730653E+02  0.78015567300E+01 -0.12822178728E+03  0.14481960142E+03  0.00000000000E+00 0. -1.
        -14    1    3    3    0    0 -0.11149499720E+02  0.26065254664E+02 -0.19022054025E+02  0.34140114002E+02  0.00000000000E+00 0.  1.
        -13    1    4    4    0    0  0.37232207445E+02  0.41928728742E+02 -0.23378672276E+03  0.24041731906E+03  0.00000000000E+00 0.  1.
         13    1    4    4    0    0  0.25316966118E+02 -0.46747026994E+02 -0.17741913297E+03  0.18521280206E+03  0.00000000000E+00 0. -1.
          2    1    1    2  501    0 -0.11826540450E+03 -0.29048513142E+02 -0.22130070318E+03  0.25259557250E+03  0.00000000000E+00 0. -1.
<scales pt_clust_5="13000.00000" pt_clust_6="13000.00000" pt_clust_7="13000.00000" pt_clust_8="13000.00000" pt_clust_9="99.54966"></scales>
<clustering>
<clus scale="   78.068">  5  6 -1 -1</clus>
<clus scale="   90.195">  7  8 -1 -1</clus>
<clus scale="  101.715">  2  5  1 -1</clus>
<clus scale="   99.550">  1  9  2 -1</clus>
<clus scale="   99.550">  1  5  2 -1</clus>
</clustering>
</event>
<event>
 9    1  0.7835476E-005  0.2112628E+03  0.7546771E-02  0.1141270E+00
         21   -1    0    0  501  502  0.00000000000E+00  0.00000000000E+00  0.95176243720E+02  0.95176243720E+02  0.00000000000E+00 0. -1.
         -4   -1    0    0    0  501 -0.00000000000E+00 -0.00000000000E+00 -0.60514814184E+03  0.60514814184E+03  0.00000000000E+00 0.  1.
        -24    2    1    2    0    0 -0.18120011304E+03  0.12746641388E+02 -0.29973560036E+03  0.36035571433E+03  0.83778594517E+02 0.  0.
         23    2    1    2    0    0  0.20432394206E+03 -0.37034264198E+02 -0.15392498038E+03  0.27442811466E+03  0.92185034060E+02 0.  0.
         11    1    3    3    0    0 -0.39967264732E+02  0.16785854556E+02 -0.21694975368E+02  0.48474932899E+02  0.00000000000E+00 0. -1.
        -12    1    3    3    0    0 -0.14123284831E+03 -0.40392131685E+01 -0.27804062499E+03  0.31188078143E+03  0.00000000000E+00 0.  1.
        -11    1    4    4    0    0  0.15217935242E+03  0.15755319867E+02 -0.10417645085E+03  0.18509326925E+03  0.00000000000E+00 0. -1.
         11    1    4    4    0    0  0.52144589636E+02 -0.52789584065E+02 -0.49748529528E+02  0.89334845409E+02  0.00000000000E+00 0.  1.
         -3    1    1    2    0  502 -0.23123829020E+02  0.24287622810E+02 -0.56311317377E+02  0.65540556567E+02  0.00000000000E+00 0.  1.
<scales pt_clust_5="13000.00000" pt_clust_6="13000.00000" pt_clust_7="13000.00000" pt_clust_8="13000.00000" pt_clust_9="33.53507"></scales>
<clustering>
<clus scale="   33.535">  1  9  2 -1</clus>
<clus scale="   83.779">  5  6 -1 -1</clus>
<clus scale="   92.185">  7  8 -1 -1</clus>
<clus scale="  207.732">  2  5  1 -1</clus>
<clus scale="   33.535">  1  5  2 -1</clus>
</clustering>
</event>
<event>
 9    1  0.7835476E-005  0.9971425E+02  0.7546771E-02  0.1282891E+00
          1   -1    0    0  502    0 -0.00000000000E+00  0.00000000000E+00  0.47323467176E+03  0.47323467176E+03  0.00000000000E+00 0. -1.
         21   -1    0    0  501  502  0.00000000000E+00 -0.00000000000E+00 -0.49320669161E+02  0.49320669161E+02  0.00000000000E+00 0. -1.
         23    2    1    2    0    0  0.11184490672E+02  0.32260339841E+02  0.24170922600E+03  0.26091744202E+03  0.92134354394E+02 0.  0.
        -24    2    1    2    0    0 -0.51879989420E+02  0.30064205511E+02  0.11511739890E+03  0.16143216644E+03  0.95984056367E+02 0.  0.
         13    1    4    4    0    0 -0.44643973435E+02 -0.13876346228E+02  0.10763998456E+02  0.47973961807E+02  0.00000000000E+00 0. -1.
        -14    1    4    4    0    0 -0.72360159847E+01  0.43940551738E+02  0.10435340044E+03  0.11345820463E+03  0.00000000000E+00 0.  1.
        -11    1    3    3    0    0 -0.11157620452E+02 -0.27268989450E+02  0.12042237971E+03  0.12397435144E+03  0.00000000000E+00 0.  1.
         11    1    3    3    0    0  0.22342111124E+02  0.59529329291E+02  0.12128684629E+03  0.13694309058E+03  0.00000000000E+00 0. -1.
          2    1    1    2  501    0  0.40695498748E+02 -0.62324545352E+02  0.67087377707E+02  0.10020573247E+03  0.00000000000E+00 0. -1.
<scales pt_clust_5="13000.00000" pt_clust_6="13000.00000" pt_clust_7="13000.00000" pt_clust_8="13000.00000" pt_clust_9="74.43435"></scales>
<clustering>
<clus scale="   74.434">  2  9  1 -1</clus>
<clus scale="   92.134">  7  8 -1 -1</clus>
<clus scale="   95.984">  5  6 -1 -1</clus>
<clus scale="   96.014">  1  7  2 -1</clus>
<clus scale="   74.434">  2  5  1 -1</clus>
</clustering>
</event>
<event>
 9    1  0.7835476E-005  0.2972695E+03  0.7546771E-02  0.1122168E+00
         21   -1    0    0  501  502  0.00000000000E+00  0.00000000000E+00  0.16088223826E+03  0.16088223826E+03  0.00000000000E+00 0. -1.
          1   -1    0    0  502    0 -0.00000000000E+00 -0.00000000000E+00 -0.86907906914E+03  0.86907906914E+03  0.00000000000E+00 0. -1.
        -24    2    1    2    0    0  0.80972678252E+02 -0.35790672720E+02 -0.11251298567E+03  0.16378728508E+03  0.79558506334E+02 0.  0.
         23    2    1    2    0    0 -0.30441217472E+03 -0.38340480423E+02 -0.13320524876E+03  0.34722596267E+03  0.93195849140E+02 0.  0.
         11    1    3    3    0    0  0.69516318785E+02 -0.36806990117E+02 -0.12444132425E+03  0.14721724179E+03  0.00000000000E+00 0. -1.
        -12    1    3    3    0    0  0.11456359468E+02  0.10163173976E+01  0.11928338577E+02  0.16570043286E+02  0.00000000000E+00 0.  1.
        -11    1    4    4    0    0 -0.98552778033E+01 -0.21150250822E+02 -0.21505869393E+02  0.31732665012E+02  0.00000000000E+00 0.  1.
         11    1    4    4    0    0 -0.29455689692E+03 -0.17190229601E+02 -0.11169937937E+03  0.31549329766E+03  0.00000000000E+00 0. -1.
          2    1    1    2  501    0  0.22343949647E+03  0.74131153143E+02 -0.46247859644E+03  0.51894805965E+03  0.00000000000E+00 0. -1.
<scales pt_clust_5="13000.00000" pt_clust_6="13000.00000" pt_clust_7="13000.00000" pt_clust_8="13000.00000" pt_clust_9="282.28311"></scales>
<clustering>
<clus scale="   79.559">  5  6 -1 -1</clus>
<clus scale="   93.196">  7  8 -1 -1</clus>
<clus scale="  119.026">  2  5  1 -1</clus>
<clus scale="  282.283">  1  9  2 -1</clus>
<clus scale="  282.283">  1  5  2 -1</clus>
</clustering>
</event>
<event>
 9    1  0.7835476E-005  0.1108336E+03  0.7546771E-02  0.1259902E+00
         -4   -1    0    0    0  501 -0.00000000000E+00  0.00000000000E+00  0.17318336246E+03  0.17318336246E+03  0.00000000000E+00 0.  1.
         21   -1    0    0  501  502  0.00000000000E+00 -0.00000000000E+00 -0.10037368306E+03  0.10037368306E+03  0.00000000000E+00 0. -1.
         23    2    1    2    0    0 -0.16904005194E+02 -0.76047170262E+02  0.57092505023E+02  0.12912516973E+03  0.85702029334E+02 0.  0.
        -24    2    1    2    0    0  0.86158224184E+01  0.56707353392E+02 -0.19916682442E+02  0.10304958196E+03  0.83262150936E+02 0.  0.
         11    1    4    4    0    0  0.35913656779E+02  0.42116563718E+01 -0.24539465211E+02  0.43700276264E+02  0.00000000000E+00 0. -1.
        -12    1    4    4    0    0 -0.27297834361E+02  0.52495697020E+02  0.46227827693E+01  0.59349305699E+02  0.00000000000E+00 0.  1.
        -11    1    3    3    0    0  0.23631814924E+02 -0.51790397894E+02  0.25707009882E+01  0.56985230491E+02  0.00000000000E+00 0.  1.
         11    1    3    3    0    0 -0.40535820118E+02 -0.24256772368E+02  0.54521804034E+02  0.72139939240E+02  0.00000000000E+00 0. -1.
         -3    1    1    2    0  502  0.82881827756E+01  0.19339816870E+02  0.35633856822E+02  0.41382293826E+02  0.00000000000E+00 0.  1.
<scales pt_clust_5="13000.00000" pt_clust_6="13000.00000" pt_clust_7="13000.00000" pt_clust_8="13000.00000" pt_clust_9="21.04098"></scales>
<clustering>
<clus scale="   21.041">  2  9  1 -1</clus>
<clus scale="   83.262">  5  6 -1 -1</clus>
<clus scale="   85.702">  7  8 -1 -1</clus>
<clus scale="  108.958">  2  5  1 -1</clus>
<clus scale="   21.041">  2  5  1 -1</clus>
</clustering>
</event>
<event>
 9    1  0.7835476E-005  0.1227957E+03  0.7546771E-02  0.1247927E+00
         -2   -1    0    0    0  501 -0.00000000000E+00  0.00000000000E+00  0.11422666343E+03  0.11422666343E+03  0.00000000000E+00 0.  1.
         21   -1    0    0  501  502  0.00000000000E+00 -0.00000000000E+00 -0.38602491970E+03  0.38602491970E+03  0.00000000000E+00 0.  1.
         23    2    1    2    0    0 -0.60611131870E+01 -0.38647347990E+02 -0.25856620928E+03  0.27781668487E+03  0.93783107298E+02 0.  0.
        -24    2    1    2    0    0  0.23935586988E+02 -0.66783990103E+02  0.23927617134E+02  0.10922666312E+03  0.79529361977E+02 0.  0.
         13    1    4    4    0    0 -0.26074131649E+02 -0.14213345253E+02  0.21438081378E+02  0.36626095311E+02  0.00000000000E+00 0. -1.
        -14    1    4    4    0    0  0.50009718637E+02 -0.52570644850E+02  0.24895357557E+01  0.72600567811E+02  0.00000000000E+00 0.  1.
        -13    1    3    3    0    0 -0.52380265909E+01  0.29883864479E+02 -0.52308815567E+02  0.60470608272E+02  0.00000000000E+00 0. -1.
         13    1    3    3    0    0 -0.82308659613E+00 -0.68531212469E+02 -0.20625739371E+03  0.21734607660E+03  0.00000000000E+00 0.  1.
         -1    1    1    2    0  502 -0.17874473801E+02  0.10543133809E+03 -0.37159664128E+02  0.11320823514E+03  0.00000000000E+00 0.  1.
<scales pt_clust_5="13000.00000" pt_clust_6="13000.00000" pt_clust_7="13000.00000" pt_clust_8="13000.00000" pt_clust_9="93.56208"></scales>
<clustering>
<clus scale="   79.529">  5  6 -1 -1</clus>
<clus scale="   93.783">  7  8 -1 -1</clus>
<clus scale="  101.615">  1  7  2 -1</clus>
<clus scale="   93.562">  2  9  1 -1</clus>
<clus scale="   93.562">  2  5  1 -1</clus>
</clustering>
</event>
<event>
 9    1  0.7835476E-005  0.1825025E+03  0.7546771E-02  0.1167683E+00
         21   -1    0    0  501  502  0.00000000000E+00  0.00000000000E+00  0.93053594506E+02  0.93053594506E+02  0.00000000000E+00 0. -1.
          1   -1    0    0  502    0 -0.00000000000E+00 -0.00000000000E+00 -0.74210058234E+03  0.74210058234E+03  0.00000000000E+00 0. -1.
        -24    2    1    2    0    0 -0.66251282769E+02 -0.15030875407E+03 -0.59897385099E+03  0.62547844785E+03  0.73970673470E+02 0.  0.
         23    2    1    2    0    0  0.64065525436E+02  0.10796994066E+03 -0.56969071145E+02  0.16672335344E+03  0.93751276686E+02 0.  0.
         13    1    3    3    0    0 -0.60866285430E+02 -0.15630321478E+03 -0.59016917967E+03  0.61354303866E+03  0.00000000000E+00 0. -1.
        -14    1    3    3    0    0 -0.53849973385E+01  0.59944607082E+01 -0.88046713243E+01  0.11935409195E+02  0.00000000000E+00 0.  1.
        -11    1    4    4    0    0 -0.22756501438E+02  0.92352226290E+01 -0.14675700250E+02  0.28609856213E+02  0.00000000000E+00 0. -1.
         11    1    4    4    0    0  0.86822026874E+02  0.98734718030E+02 -0.42293370895E+02  0.13811349723E+03  0.00000000000E+00 0.  1.
          2    1    1    2  501    0  0.21857573329E+01  0.42338813409E+02  0.68959343028E+01  0.42952375556E+02  0.00000000000E+00 0. -1.
<scales pt_clust_5="13000.00000" pt_clust_6="13000.00000" pt_clust_7="13000.00000" pt_clust_8="13000.00000" pt_clust_9="42.39520"></scales>
<clustering>
<clus scale="   42.395">  1  9  2 -1</clus>
<clus scale="   73.971">  5  6 -1 -1</clus>
<clus scale="   93.751">  7  8 -1 -1</clus>
<clus scale="  173.175">  2  5  1 -1</clus>
<clus scale="   42.395">  1  5  2 -1</clus>
</clustering>
</event>
<event>
 9    1  0.7835476E-005  0.9818982E+02  0.7546771E-02  0.1290723E+00
         21   -1    0    0  501  502  0.00000000000E+00  0.00000000000E+00  0.25386184414E+03  0.25386184414E+03  0.00000000000E+00 0. -1.
         -4   -1    0    0    0  501 -0.00000000000E+00 -0.00000000000E+00 -0.67493151211E+02  0.67493151211E+02  0.00000000000E+00 0.  1.
        -24    2    1    2    0    0 -0.19949508046E+02  0.25852415907E+02  0.27906611311E+02  0.90789450999E+02  0.79985093475E+02 0.  0.
         23    2    1    2    0    0  0.37929335882E+02 -0.15260657220E+02  0.17628682377E+03  0.20312140119E+03  0.92248236891E+02 0.  0.
         13    1    3    3    0    0 -0.22681802509E+02 -0.16736273540E+02  0.37632621413E+02  0.47018945240E+02  0.00000000000E+00 0. -1.
        -14    1    3    3    0    0  0.27322944632E+01  0.42588689447E+02 -0.97260101017E+01  0.43770505759E+02  0.00000000000E+00 0.  1.
        -11    1    4    4    0    0 -0.19414534077E+02 -0.11522548490E+02  0.59427494410E+01  0.23345439127E+02  0.00000000000E+00 0.  1.
         11    1    4    4    0    0  0.57343869959E+02 -0.37381087302E+01  0.17034407433E+03  0.17977596207E+03  0.00000000000E+00 0. -1.
         -3    1    1    2    0  502 -0.17979827836E+02 -0.10591758686E+02 -0.17824742149E+02  0.27444143159E+02  0.00000000000E+00 0.  1.
<scales pt_clust_5="13000.00000" pt_clust_6="13000.00000" pt_clust_7="13000.00000" pt_clust_8="13000.00000" pt_clust_9="20.86768"></scales>
<clustering>
<clus scale="   20.868">  1  9  2 -1</clus>
<clus scale="   79.985">  5  6 -1 -1</clus>
<clus scale="   86.770">  2  5  1 -1</clus>
<clus scale="   92.248">  7  8 -1 -1</clus>
<clus scale="   20.868">  1  5  2 -1</clus>
</clustering>
</event>
<event>
 9    1  0.7835476E-005  0.3710390E+03  0.7546771E-02  0.1083643E+00
         21   -1    0    0  501  502  0.00000000000E+00  0.00000000000E+00  0.44073457034E+03  0.44073457034E+03  0.00000000000E+00 0. -1.
          1   -1    0    0  502    0 -0.00000000000E+00 -0.00000000000E+00 -0.56002634265E+03  0.56002634265E+03  0.00000000000E+00 0. -1.
         23    2    1    2    0    0 -0.13748088517E+03 -0.25938296687E+02  0.45225808310E+01  0.16554878455E+03  0.88386409050E+02 0.  0.
        -24    2    1    2    0    0  0.14186257321E+03 -0.33999628265E+03  0.11970362512E+03  0.39563469353E+03  0.80469813953E+02 0.  0.
         13    1    4    4    0    0  0.10956986723E+03 -0.32094975937E+03  0.11354809330E+03  0.35764154308E+03  0.00000000000E+00 0. -1.
        -14    1    4    4    0    0  0.32292705983E+02 -0.19046523286E+02  0.61555318174E+01  0.37993150448E+02  0.00000000000E+00 0.  1.
        -11    1    3    3    0    0 -0.19412724268E+02 -0.13143565457E+02  0.35751068417E+02  0.42752146956E+02  0.00000000000E+00 0.  1.
         11    1    3    3    0    0 -0.11806816091E+03 -0.12794731230E+02 -0.31228487586E+02  0.12279663759E+03  0.00000000000E+00 0. -1.
          2    1    1    2  501    0 -0.43816880389E+01  0.36593457934E+03 -0.24351797826E+03  0.43957743491E+03  0.00000000000E+00 0. -1.
<scales pt_clust_5="13000.00000" pt_clust_6="13000.00000" pt_clust_7="13000.00000" pt_clust_8="13000.00000" pt_clust_9="362.20808"></scales>
<clustering>
<clus scale="   80.470">  5  6 -1 -1</clus>
<clus scale="   88.386">  7  8 -1 -1</clus>
<clus scale="  165.487">  2  7  1 -1</clus>
<clus scale="  362.208">  1  9  2 -1</clus>
<clus scale="  362.208">  1  5  2 -1</clus>
</clustering>
</event>
<event>
 9    1  0.7835476E-005  0.1354617E+03  0.7546771E-02  0.1222306E+00
         21   -1    0    0  501  502  0.00000000000E+00  0.00000000000E+00  0.37278578688E+02  0.37278578688E+02  0.00000000000E+00 0.  1.
          1   -1    0    0  502    0 -0.00000000000E+00 -0.00000000000E+00 -0.92083135045E+03  0.92083135045E+03  0.00000000000E+00 0. -1.
        -24    2    1    2    0    0  0.98113880478E+02 -0.72137210039E+02 -0.47827566035E+03  0.50003089129E+03  0.80331652224E+02 0.  0.
         23    2    1    2    0    0 -0.63709940591E+02  0.43761404576E+01 -0.12538167563E+03  0.16805033478E+03  0.91881680984E+02 0.  0.
         11    1    3    3    0    0  0.10308910597E+03 -0.83363685520E+02 -0.41815376017E+03  0.43866779569E+03  0.00000000000E+00 0. -1.
        -12    1    3    3    0    0 -0.49752254925E+01  0.11226475481E+02 -0.60121900177E+02  0.61363095597E+02  0.00000000000E+00 0.  1.
        -11    1    4    4    0    0 -0.78193654159E+02  0.28362026818E+02 -0.10154524486E+03  0.13126343310E+03  0.00000000000E+00 0.  1.
         11    1    4    4    0    0  0.14483713568E+02 -0.23985886360E+02 -0.23836430770E+02  0.36786901678E+02  0.00000000000E+00 0. -1.
          2    1    1    2  501    0 -0.34403939887E+02  0.67761069581E+02 -0.27989543579E+03  0.29002870307E+03  0.00000000000E+00 0. -1.
<scales pt_clust_5="13000.00000" pt_clust_6="13000.00000" pt_clust_7="13000.00000" pt_clust_8="13000.00000" pt_clust_9="75.99473"></scales>
<clustering>
<clus scale="   75.995">  1  9  2 -1</clus>
<clus scale="   80.332">  5  6 -1 -1</clus>
<clus scale="   91.882">  7  8 -1 -1</clus>
<clus scale="  127.909">  2  5  1 -1</clus>
<clus scale="   75.995">  1  5  2 -1</clus>
</clustering>
</event>
<event>
 9    1  0.7835476E-005  0.1374368E+03  0.7546771E-02  0.1219188E+00
          1   -1    0    0  502    0 -0.00000000000E+00  0.00000000000E+00  0.29534053090E+03  0.29534053090E+03  0.00000000000E+00 0. -1.
         21   -1    0    0  501  502  0.00000000000E+00 -0.00000000000E+00 -0.15129945687E+03  0.15129945687E+03  0.00000000000E+00 0. -1.
        -24    2    1    2    0    0  0.77640726227E+01  0.70653199694E+02 -0.14164379864E+02  0.10802138859E+03  0.80098909386E+02 0.  0.
         23    2    1    2    0    0 -0.22398113733E+02 -0.14454909174E+03  0.99821727256E+01  0.17235104642E+03  0.90604216284E+02 0.  0.
         11    1    3    3    0    0  0.11523354783E+02  0.30184772781E+02 -0.46126363465E+02  0.56316512852E+02  0.00000000000E+00 0. -1.
        -12    1    3    3    0    0 -0.37592821603E+01  0.40468426913E+02  0.31961983601E+02  0.51704875736E+02  0.00000000000E+00 0.  1.
        -13    1    4    4    0    0  0.21857729263E+02 -0.23534372342E+02  0.27537217280E+02  0.42307509329E+02  0.00000000000E+00 0.  1.
         13    1    4    4    0    0 -0.44255842996E+02 -0.12101471940E+03 -0.17555044554E+02  0.13004353710E+03  0.00000000000E+00 0. -1.
          2    1    1    2  501    0  0.14634041110E+02  0.73895892049E+02  0.14822328117E+03  0.16626755276E+03  0.00000000000E+00 0. -1.
<scales pt_clust_5="13000.00000" pt_clust_6="13000.00000" pt_clust_7="13000.00000" pt_clust_8="13000.00000" pt_clust_9="75.33103"></scales>
<clustering>
<clus scale="   75.331">  2  9  1 -1</clus>
<clus scale="   80.099">  5  6 -1 -1</clus>
<clus scale="   90.604">  7  8 -1 -1</clus>
<clus scale="  130.750">  1  5  2 -1</clus>
<clus scale="   75.331">  2  5  1 -1</clus>
</clustering>
</event>
<event>
 9    1  0.7835476E-005  0.1033013E+03  0.7546771E-02  0.1279258E+00
         -2   -1    0    0    0  501 -0.00000000000E+00  0.00000000000E+00  0.22733191304E+03  0.22733191304E+03  0.00000000000E+00 0.  1.
         21   -1    0    0  501  502  0.00000000000E+00 -0.00000000000E+00 -0.12381012677E+03  0.12381012677E+03  0.00000000000E+00 0. -1.
        -24    2    1    2    0    0  0.39441606843E+02  0.43016218107E+02  0.12969501090E+03  0.16336344033E+03  0.80378992361E+02 0.  0.
         23    2    1    2    0    0 -0.35211441373E+02  0.36733388329E+02 -0.84849930494E+01  0.10598148729E+03  0.92579118165E+02 0.  0.
         11    1    3    3    0    0  0.48399611736E+02  0.61747890642E+02  0.10563253854E+03  0.13158099260E+03  0.00000000000E+00 0. -1.
        -12    1    3    3    0    0 -0.89580048928E+01 -0.18731672535E+02  0.24062472360E+02  0.31782447729E+02  0.00000000000E+00 0.  1.
        -11    1    4    4    0    0 -0.19313318455E+02  0.63066022993E+02  0.14562190205E+02  0.67545428487E+02  0.00000000000E+00 0. -1.
         11    1    4    4    0    0 -0.15898122918E+02 -0.26332634664E+02 -0.23047183254E+02  0.38436058807E+02  0.00000000000E+00 0.  1.
         -1    1    1    2    0  502 -0.42301654701E+01 -0.79749606437E+02 -0.17688231579E+02  0.81797112193E+02  0.00000000000E+00 0.  1.
<scales pt_clust_5="13000.00000" pt_clust_6="13000.00000" pt_clust_7="13000.00000" pt_clust_8="13000.00000" pt_clust_9="79.86172"></scales>
<clustering>
<clus scale="   79.862">  2  9  1 -1</clus>
<clus scale="   80.379">  5  6 -1 -1</clus>
<clus scale="   92.526">  1  5  2 -1</clus>
<clus scale="   92.579">  7  8 -1 -1</clus>
<clus scale="   79.862">  2  5  1 -1</clus>
</clustering>
</event>
<event>
 9    1  0.7835476E-005  0.2128269E+03  0.7546771E-02  0.1139493E+00
          3   -1    0    0  502    0 -0.00000000000E+00  0.00000000000E+00  0.10759743949E+04  0.10759743949E+04  0.00000000000E+00 0. -1.
         21   -1    0    0  501  502  0.00000000000E+00 -0.00000000000E+00 -0.17288461075E+03  0.17288461075E+03  0.00000000000E+00 0. -1.
         23    2    1    2    0    0 -0.27770100089E+02  0.18560906518E+03  0.70150916051E+03  0.73017546804E+03  0.76283735519E+02 0.  0.
        -24    2    1    2    0    0  0.11600228998E+03 -0.27908710903E+03  0.43976919537E+02  0.31530706022E+03  0.78348114635E+02 0.  0.
         13    1    4    4    0    0  0.12793975781E+03 -0.25202565600E+03  0.39170162130E+02  0.28534157516E+03  0.00000000000E+00 0. -1.
        -14    1    4    4    0    0 -0.11937467836E+02 -0.27061453024E+02  0.48067574068E+01  0.29965485060E+02  0.00000000000E+00 0.  1.
        -11    1    3    3    0    0  0.11000131141E+02  0.48637867672E+02  0.30139893242E+03  0.30549625451E+03  0.00000000000E+00 0.  1.
         11    1    3    3    0    0 -0.38770231230E+02  0.13697119751E+03  0.40011022809E+03  0.42467921352E+03  0.00000000000E+00 0. -1.
          4    1    1    2  501    0 -0.88232189887E+02  0.93478043850E+02  0.15760370414E+03  0.20337647743E+03  0.00000000000E+00 0. -1.
<scales pt_clust_5="13000.00000" pt_clust_6="13000.00000" pt_clust_7="13000.00000" pt_clust_8="13000.00000" pt_clust_9="128.54214"></scales>
<clustering>
<clus scale="   76.284">  7  8 -1 -1</clus>
<clus scale="   78.348">  5  6 -1 -1</clus>
<clus scale="  128.542">  2  9  1 -1</clus>
<clus scale="  212.076">  1  7  2 -1</clus>
<clus scale="  128.542">  2  5  1 -1</clus>
</clustering>
</event>
<event>
 9    1  0.7835476E-005  0.1870198E+03  0.7546771E-02  0.1162188E+00
          1   -1    0    0  502    0 -0.00000000000E+00  0.00000000000E+00  0.73014051004E+03  0.73014051004E+03  0.00000000000E+00 0. -1.
         21   -1    0    0  501  502  0.00000000000E+00 -0.00000000000E+00 -0.72253618446E+02  0.72253618446E+02  0.00000000000E+00 0. -1.
         23    2    1    2    0    0  0.19653983558E+03 -0.21660193330E+02  0.32524563523E+03  0.39108955816E+03  0.89828994881E+02 0.  0.
        -24    2    1    2    0    0 -0.12690426872E+03  0.34055016143E+02  0.14817758214E+03  0.21374548825E+03  0.80412065962E+02 0.  0.
         13    1    4    4    0    0 -0.12783370920E+03  0.93841792072E+01  0.11369576906E+03  0.17133665086E+03  0.00000000000E+00 0. -1.
        -14    1    4    4    0    0  0.92944047987E+00  0.24670836936E+02  0.34481813079E+02  0.42408837381E+02  0.00000000000E+00 0.  1.
        -11    1    3    3    0    0  0.28415561289E+02 -0.38322994593E+02  0.83294804496E+02  0.95990210407E+02  0.00000000000E+00 0.  1.
         11    1    3    3    0    0  0.16812427429E+03  0.16662801263E+02  0.24195083073E+03  0.29509934775E+03  0.00000000000E+00 0. -1.
          2    1    1    2  501    0 -0.69635566862E+02 -0.12394822813E+02  0.18446367422E+03  0.19755908208E+03  0.00000000000E+00 0. -1.
<scales pt_clust_5="13000.00000" pt_clust_6="13000.00000" pt_clust_7="13000.00000" pt_clust_8="13000.00000" pt_clust_9="70.73011"></scales>
<clustering>
<clus scale="   70.730">  2  9  1 -1</clus>
<clus scale="   80.412">  5  6 -1 -1</clus>
<clus scale="   89.829">  7  8 -1 -1</clus>
<clus scale="  182.683">  2  5  1 -1</clus>
<clus scale="   70.730">  2  5  1 -1</clus>
</clustering>
</event>
<event>
 9    1  0.7835476E-005  0.1152379E+03  0.7546771E-02  0.1258009E+00
         21   -1    0    0  501  502  0.00000000000E+00  0.00000000000E+00  0.11722665434E+03  0.11722665434E+03  0.00000000000E+00 0. -1.
          1   -1    0    0  502    0 -0.00000000000E+00 -0.00000000000E+00 -0.25725969599E+03  0.25725969599E+03  0.00000000000E+00 0. -1.
        -24    2    1    2    0    0 -0.49134658283E+02  0.24545511718E+02 -0.13888287483E+03  0.16984968567E+03  0.80893547394E+02 0.  0.
         23    2    1    2    0    0  0.71497992793E+02 -0.15479386006E+02 -0.63238317266E+02  0.13802396474E+03  0.98488353158E+02 0.  0.
         11    1    3    3    0    0  0.13231281821E+02  0.27443775480E+02 -0.22839198687E+02  0.38076982915E+02  0.00000000000E+00 0. -1.
        -12    1    3    3    0    0 -0.62365940104E+02 -0.28982637615E+01 -0.11604367614E+03  0.13177270275E+03  0.00000000000E+00 0.  1.
        -13    1    4    4    0    0  0.17523401664E+02 -0.50475667050E+02 -0.48207322949E+02  0.71963939275E+02  0.00000000000E+00 0.  1.
         13    1    4    4    0    0  0.53974591128E+02  0.34996281044E+02 -0.15030994317E+02  0.66060025466E+02  0.00000000000E+00 0. -1.
          2    1    1    2  501    0 -0.22363334510E+02 -0.90661257125E+01  0.62088150444E+02  0.66612699926E+02  0.00000000000E+00 0. -1.
<scales pt_clust_5="13000.00000" pt_clust_6="13000.00000" pt_clust_7="13000.00000" pt_clust_8="13000.00000" pt_clust_9="24.13117"></scales>
<clustering>
<clus scale="   24.131">  1  9  2 -1</clus>
<clus scale="   80.894">  5  6 -1 -1</clus>
<clus scale="   98.488">  7  8 -1 -1</clus>
<clus scale="  100.616">  2  5  1 -1</clus>
<clus scale="   24.131">  1  5  2 -1</clus>
</clustering>
</event>
<event>
 9    1  0.7835476E-005  0.1407949E+03  0.7546771E-02  0.1214174E+00
         21   -1    0    0  501  502  0.00000000000E+00  0.00000000000E+00  0.17715916968E+03  0.17715916968E+03  0.00000000000E+00 0. -1.
          1   -1    0    0  502    0 -0.00000000000E+00 -0.00000000000E+00 -0.31894314771E+03  0.31894314771E+03  0.00000000000E+00 0. -1.
        -24    2    1    2    0    0  0.19270576675E+02 -0.11140960280E+03 -0.17037843545E+03  0.21963544968E+03  0.80171471040E+02 0.  0.
         23    2    1    2    0    0 -0.62620436549E+02  0.73109214462E+02  0.11361772317E+03  0.17363163145E+03  0.89289865650E+02 0.  0.
         11    1    3    3    0    0  0.50190491338E+02 -0.73396234222E+02 -0.12005608753E+03  0.14939731180E+03  0.00000000000E+00 0. -1.
        -12    1    3    3    0    0 -0.30919914663E+02 -0.38013368573E+02 -0.50322347913E+02  0.70238137878E+02  0.00000000000E+00 0.  1.
        -11    1    4    4    0    0 -0.42892291228E+01  0.41829431719E+02 -0.10589108832E+00  0.42048900786E+02  0.00000000000E+00 0.  1.
         11    1    4    4    0    0 -0.58331207426E+02  0.31279782743E+02  0.11372361426E+03  0.13158273066E+03  0.00000000000E+00 0. -1.
          2    1    1    2  501    0  0.43349859874E+02  0.38300388333E+02 -0.85023265757E+02  0.10283523626E+03  0.00000000000E+00 0. -1.
<scales pt_clust_5="13000.00000" pt_clust_6="13000.00000" pt_clust_7="13000.00000" pt_clust_8="13000.00000" pt_clust_9="57.84577"></scales>
<clustering>
<clus scale="   57.846">  1  9  2 -1</clus>
<clus scale="   80.171">  5  6 -1 -1</clus>
<clus scale="   89.290">  7  8 -1 -1</clus>
<clus scale="  135.196">  2  5  1 -1</clus>
<clus scale="   57.846">  1  5  2 -1</clus>
</clustering>
</event>
<event>
 9    1  0.7835476E-005  0.1174151E+03  0.7546771E-02  0.1250821E+00
          1   -1    0    0  502    0 -0.00000000000E+00  0.00000000000E+00  0.36750117717E+03  0.36750117717E+03  0.00000000000E+00 0. -1.
         21   -1    0    0  501  502  0.00000000000E+00 -0.00000000000E+00 -0.55571428796E+02  0.55571428796E+02  0.00000000000E+00 0. -1.
        -24    2    1    2    0    0  0.71874325790E+02  0.19607918461E+00  0.18130067112E+03  0.21080947609E+03  0.80029648912E+02 0.  0.
         23    2    1    2    0    0 -0.82363317027E+02 -0.22127065086E+02  0.60756880270E+02  0.13828265278E+03  0.90318162957E+02 0.  0.
         11    1    3    3    0    0  0.52414038768E+02 -0.18111968827E+02  0.43605086970E+02  0.70545577355E+02  0.00000000000E+00 0. -1.
        -12    1    3    3    0    0  0.19460287022E+02  0.18308048011E+02  0.13769558415E+03  0.14026389874E+03  0.00000000000E+00 0.  1.
        -11    1    4    4    0    0 -0.64516241513E+02 -0.43840165695E+02  0.78787937549E+01  0.78398858015E+02  0.00000000000E+00 0.  1.
         11    1    4    4    0    0 -0.17847075514E+02  0.21713100609E+02  0.52878086515E+02  0.59883794769E+02  0.00000000000E+00 0. -1.
          2    1    1    2  501    0  0.10488991237E+02  0.21930985901E+02  0.69872196976E+02  0.73980477087E+02  0.00000000000E+00 0. -1.
<scales pt_clust_5="13000.00000" pt_clust_6="13000.00000" pt_clust_7="13000.00000" pt_clust_8="13000.00000" pt_clust_9="24.31024"></scales>
<clustering>
<clus scale="   24.310">  2  9  1 -1</clus>
<clus scale="   80.030">  5  6 -1 -1</clus>
<clus scale="   90.318">  7  8 -1 -1</clus>
<clus scale="  109.698">  1  5  2 -1</clus>
<clus scale="   24.310">  2  5  1 -1</clus>
</clustering>
</event>
<event>
 9    1  0.7835476E-005  0.1048304E+03  0.7546771E-02  0.1275939E+00
          1   -1    0    0  502    0 -0.00000000000E+00  0.00000000000E+00  0.32959137945E+03  0.32959137945E+03  0.00000000000E+00 0. -1.
         21   -1    0    0  501  502  0.00000000000E+00 -0.00000000000E+00 -0.56894674604E+02  0.56894674604E+02  0.00000000000E+00 0.  1.
        -24    2    1    2    0    0 -0.15050404466E+02 -0.48346224342E+02  0.20583412791E+03  0.22630100320E+03  0.79250134079E+02 0.  0.
         23    2    1    2    0    0 -0.88483296452E+01  0.56081321174E+02  0.77742139914E+02  0.13281086400E+03  0.91495779995E+02 0.  0.
         11    1    3    3    0    0  0.23768943273E+02 -0.25885331014E+02  0.15306628217E+03  0.15704871780E+03  0.00000000000E+00 0. -1.
        -12    1    3    3    0    0 -0.38819347739E+02 -0.22460893328E+02  0.52767845741E+02  0.69252285393E+02  0.00000000000E+00 0.  1.
        -11    1    4    4    0    0  0.80326510161E+01  0.77883049751E+02  0.67568998862E+02  0.10342080317E+03  0.00000000000E+00 0. -1.
         11    1    4    4    0    0 -0.16880980661E+02 -0.21801728577E+02  0.10173141052E+02  0.29390060835E+02  0.00000000000E+00 0.  1.
          2    1    1    2  501    0  0.23898734111E+02 -0.77350968314E+01 -0.10879562983E+02  0.27374186852E+02  0.00000000000E+00 0. -1.
<scales pt_clust_5="13000.00000" pt_clust_6="13000.00000" pt_clust_7="13000.00000" pt_clust_8="13000.00000" pt_clust_9="25.11934"></scales>
<clustering>
<clus scale="   25.119">  2  9  1 -1</clus>
<clus scale="   79.250">  5  6 -1 -1</clus>
<clus scale="   91.496">  7  8 -1 -1</clus>
<clus scale="   94.332">  1  5  2 -1</clus>
<clus scale="   25.119">  2  5  1 -1</clus>
</clustering>
</event>
<event>
 9    1  0.7835476E-005  0.9381060E+02  0.7546771E-02  0.1301887E+00
         21   -1    0    0  501  502  0.00000000000E+00  0.00000000000E+00  0.24099032774E+03  0.24099032774E+03  0.00000000000E+00 0.  1.
         -2   -1    0    0    0  501 -0.00000000000E+00 -0.00000000000E+00 -0.86918751679E+02  0.86918751679E+02  0.00000000000E+00 0.  1.
        -24    2    1    2    0    0 -0.53377943973E+01  0.15046006398E+02 -0.27780519614E+02  0.84729351052E+02  0.78437435591E+02 0.  0.
         23    2    1    2    0    0  0.31676112728E+02 -0.17465280924E+02  0.53558865972E+02  0.11218845885E+03  0.91702159296E+02 0.  0.
         11    1    3    3    0    0 -0.33056804427E+02 -0.28824001123E+01  0.99056989394E+01  0.34629227840E+02  0.00000000000E+00 0. -1.
        -12    1    3    3    0    0  0.27719010029E+02  0.17928406510E+02 -0.37686218554E+02  0.50100123212E+02  0.00000000000E+00 0.  1.
        -13    1    4    4    0    0  0.15191808773E+02  0.23353111396E+02 -0.14289341373E+02  0.31310447818E+02  0.00000000000E+00 0.  1.
         13    1    4    4    0    0  0.16484303955E+02 -0.40818392321E+02  0.67848207345E+02  0.80878011032E+02  0.00000000000E+00 0. -1.
         -1    1    1    2    0  502 -0.26338318331E+02  0.24192745269E+01  0.12829322970E+03  0.13099126951E+03  0.00000000000E+00 0.  1.
<scales pt_clust_5="13000.00000" pt_clust_6="13000.00000" pt_clust_7="13000.00000" pt_clust_8="13000.00000" pt_clust_9="26.44919"></scales>
<clustering>
<clus scale="   26.449">  1  9  2 -1</clus>
<clus scale="   78.437">  5  6 -1 -1</clus>
<clus scale="   80.892">  2  5  1 -1</clus>
<clus scale="   91.702">  7  8 -1 -1</clus>
<clus scale="   26.449">  1  5  2 -1</clus>
</clustering>
</event>
<event>
 9    1  0.7835476E-005  0.1919773E+03  0.7546771E-02  0.1159070E+00
         -4   -1    0    0    0  501 -0.00000000000E+00  0.00000000000E+00  0.26257613811E+03  0.26257613811E+03  0.00000000000E+00 0.  1.
         21   -1    0    0  501  502  0.00000000000E+00 -0.00000000000E+00 -0.22180681637E+03  0.22180681637E+03  0.00000000000E+00 0.  1.
        -24    2    1    2    0    0 -0.76031712634E+02  0.13249382647E+03  0.63722766893E+02  0.18483633827E+03  0.82270563068E+02 0.  0.
         23    2    1    2    0    0  0.12782260369E+03 -0.13757416166E+03 -0.73958768417E+02  0.22667927644E+03  0.10319073102E+03 0.  0.
         11    1    3    3    0    0  0.15204860656E+02  0.40457312943E+02  0.23202501524E+02  0.49054439505E+02  0.00000000000E+00 0. -1.
        -12    1    3    3    0    0 -0.91236573290E+02  0.92036513526E+02  0.40520265368E+02  0.13578189877E+03  0.00000000000E+00 0.  1.
        -11    1    4    4    0    0  0.32961079944E+02 -0.64810037741E+01  0.20459414681E+02  0.39332224067E+02  0.00000000000E+00 0. -1.
         11    1    4    4    0    0  0.94861523750E+02 -0.13109315789E+03 -0.94418183098E+02  0.18734705237E+03  0.00000000000E+00 0.  1.
         -3    1    1    2    0  502 -0.51790891060E+02  0.50803351933E+01  0.51005323269E+02  0.72867339764E+02  0.00000000000E+00 0.  1.
<scales pt_clust_5="13000.00000" pt_clust_6="13000.00000" pt_clust_7="13000.00000" pt_clust_8="13000.00000" pt_clust_9="52.03949"></scales>
<clustering>
<clus scale="   52.039">  2  9  1 -1</clus>
<clus scale="   82.271">  5  6 -1 -1</clus>
<clus scale="  103.191">  7  8 -1 -1</clus>
<clus scale="  181.591">  1  5  2 -1</clus>
<clus scale="   52.039">  2  5  1 -1</clus>
</clustering>
</event>
<event>
 9    1  0.7835476E-005  0.9353978E+02  0.7546771E-02  0.1299473E+00
         -2   -1    0    0    0  501 -0.00000000000E+00  0.00000000000E+00  0.13140399212E+03  0.13140399212E+03  0.00000000000E+00 0.  1.
         21   -1    0    0  501  502  0.00000000000E+00 -0.00000000000E+00 -0.23912073521E+03  0.23912073521E+03  0.00000000000E+00 0. -1.
         23    2    1    2    0    0  0.11167627404E+02 -0.64090020121E+01  0.78039927716E+02  0.12103464459E+03  0.91615302565E+02 0.  0.
        -24    2    1    2    0    0 -0.67709123807E+02 -0.86972613049E+01 -0.12857139058E+03  0.16766529260E+03  0.83191826921E+02 0.  0.
         13    1    4    4    0    0 -0.22894708076E+02  0.29725176171E+02 -0.89035288757E+02  0.96617992115E+02  0.00000000000E+00 0. -1.
        -14    1    4    4    0    0 -0.44814415731E+02 -0.38422437476E+02 -0.39536101821E+02  0.71047300485E+02  0.00000000000E+00 0.  1.
        -11    1    3    3    0    0  0.31997937047E+02 -0.20874201152E+01  0.90753125510E+02  0.96251519925E+02  0.00000000000E+00 0.  1.
         11    1    3    3    0    0 -0.20830309642E+02 -0.43215818968E+01 -0.12713197795E+02  0.24783124663E+02  0.00000000000E+00 0. -1.
         -1    1    1    2    0  502  0.56541496403E+02  0.15106263317E+02 -0.57185280228E+02  0.81824790141E+02  0.00000000000E+00 0.  1.
<scales pt_clust_5="13000.00000" pt_clust_6="13000.00000" pt_clust_7="13000.00000" pt_clust_8="13000.00000" pt_clust_9="58.52470"></scales>
<clustering>
<clus scale="   58.525">  2  9  1 -1</clus>
<clus scale="   83.192">  5  6 -1 -1</clus>
<clus scale="   85.307">  2  5  1 -1</clus>
<clus scale="   91.615">  7  8 -1 -1</clus>
<clus scale="   58.525">  2  5  1 -1</clus>
</clustering>
</event>
<event>
 9    1  0.7835476E-005  0.1793393E+03  0.7546771E-02  0.1169401E+00
         21   -1    0    0  501  502  0.00000000000E+00  0.00000000000E+00  0.35962612648E+03  0.35962612648E+03  0.00000000000E+00 0.  1.
         -2   -1    0    0    0  501 -0.00000000000E+00 -0.00000000000E+00 -0.18819738014E+03  0.18819738014E+03  0.00000000000E+00 0.  1.
        -24    2    1    2    0    0  0.13101894745E+03 -0.50413242156E+02  0.10193162163E+03  0.19374629732E+03  0.86256087686E+02 0.  0.
         23    2    1    2    0    0 -0.14259717837E+03  0.96996816604E+02  0.15889583526E+03  0.25260694622E+03  0.93915095206E+02 0.  0.
         11    1    3    3    0    0  0.16476007458E+02 -0.39997904030E+02  0.53880148115E+02  0.69096754695E+02  0.00000000000E+00 0. -1.
        -12    1    3    3    0    0  0.11454293999E+03 -0.10415338126E+02  0.48051473513E+02  0.12464954263E+03  0.00000000000E+00 0.  1.
        -13    1    4    4    0    0 -0.12970388922E+03  0.46555445731E+02  0.83987187951E+02  0.16138263892E+03  0.00000000000E+00 0.  1.
         13    1    4    4    0    0 -0.12893289147E+02  0.50441370872E+02  0.74908647311E+02  0.91224307301E+02  0.00000000000E+00 0. -1.
         -1    1    1    2    0  502  0.11578230918E+02 -0.46583574448E+02 -0.89398710551E+02  0.10147026307E+03  0.00000000000E+00 0.  1.
<scales pt_clust_5="13000.00000" pt_clust_6="13000.00000" pt_clust_7="13000.00000" pt_clust_8="13000.00000" pt_clust_9="48.00091"></scales>
<clustering>
<clus scale="   48.001">  1  9  2 -1</clus>
<clus scale="   86.256">  5  6 -1 -1</clus>
<clus scale="   93.915">  7  8 -1 -1</clus>
<clus scale="  175.450">  2  5  1 -1</clus>
<clus scale="   48.001">  1  5  2 -1</clus>
</clustering>
</event>
<event>
 9    1  0.7835476E-005  0.1250589E+03  0.7546771E-02  0.1253761E+00
         21   -1    0    0  501  502  0.00000000000E+00  0.00000000000E+00  0.15662272328E+03  0.15662272328E+03  0.00000000000E+00 0.  1.
          3   -1    0    0  502    0 -0.00000000000E+00 -0.00000000000E+00 -0.14246018026E+03  0.14246018026E+03  0.00000000000E+00 0. -1.
        -24    2    1    2    0    0 -0.18658337943E+02  0.17495475708E+02  0.13878474103E+02  0.86745067794E+02  0.81718232348E+02 0.  0.
         23    2    1    2    0    0 -0.61123793518E+02 -0.55444751073E+02  0.71960333872E+01  0.12372005393E+03  0.91894669560E+02 0.  0.
         13    1    3    3    0    0  0.21146692339E+00  0.38607455056E+02  0.34451613527E+02  0.51744506750E+02  0.00000000000E+00 0. -1.
        -14    1    3    3    0    0 -0.18869804867E+02 -0.21111979347E+02 -0.20573139424E+02  0.35000561044E+02  0.00000000000E+00 0.  1.
        -11    1    4    4    0    0 -0.62157628503E+02 -0.30267245709E+01  0.26786363898E+02  0.67751318317E+02  0.00000000000E+00 0.  1.
         11    1    4    4    0    0  0.10338349852E+01 -0.52418026502E+02 -0.19590330511E+02  0.55968735618E+02  0.00000000000E+00 0. -1.
          4    1    1    2  501    0  0.79782131461E+02  0.37949275365E+02 -0.69119644671E+01  0.88617781816E+02  0.00000000000E+00 0. -1.
<scales pt_clust_5="13000.00000" pt_clust_6="13000.00000" pt_clust_7="13000.00000" pt_clust_8="13000.00000" pt_clust_9="84.82394"></scales>
<clustering>
<clus scale="   81.718">  5  6 -1 -1</clus>
<clus scale="   85.628">  2  5  1 -1</clus>
<clus scale="   84.824">  1  9  2 -1</clus>
<clus scale="   91.895">  7  8 -1 -1</clus>
<clus scale="   84.824">  1  5  2 -1</clus>
</clustering>
</event>
<event>
 9    1  0.7835476E-005  0.2879099E+03  0.7546771E-02  0.1119352E+00
          1   -1    0    0  502    0 -0.00000000000E+00  0.00000000000E+00  0.97119857280E+02  0.97119857280E+02  0.00000000000E+00 0. -1.
         21   -1    0    0  501  502  0.00000000000E+00 -0.00000000000E+00 -0.13464348928E+04  0.13464348928E+04  0.00000000000E+00 0. -1.
        -24    2    1    2    0    0 -0.99873215318E+02 -0.55511637403E+02 -0.17346321524E+03  0.22326494680E+03  0.81862985541E+02 0.  0.
         23    2    1    2    0    0 -0.16686123251E+03  0.19806433429E+03 -0.51990365748E+03  0.58740205907E+03  0.87574051559E+02 0.  0.
         13    1    3    3    0    0 -0.56760938131E+02 -0.68185210715E+02 -0.14526299752E+03  0.17021270665E+03  0.00000000000E+00 0. -1.
        -14    1    3    3    0    0 -0.43112277187E+02  0.12673573313E+02 -0.28200217720E+02  0.53052240143E+02  0.00000000000E+00 0.  1.
        -13    1    4    4    0    0 -0.85957217718E+02  0.16463754793E+03 -0.36156457590E+03  0.40647645444E+03  0.00000000000E+00 0. -1.
         13    1    4    4    0    0 -0.80904014797E+02  0.33426786359E+02 -0.15833908157E+03  0.18092560463E+03  0.00000000000E+00 0.  1.
          2    1    1    2  501    0  0.26673444783E+03 -0.14255269689E+03 -0.55594816279E+03  0.63288774420E+03  0.00000000000E+00 0. -1.
<scales pt_clust_5="13000.00000" pt_clust_6="13000.00000" pt_clust_7="13000.00000" pt_clust_8="13000.00000" pt_clust_9="274.26808"></scales>
<clustering>
<clus scale="   81.863">  5  6 -1 -1</clus>
<clus scale="   87.574">  7  8 -1 -1</clus>
<clus scale="  140.562">  1  5  2 -1</clus>
<clus scale="  274.268">  2  9  1 -1</clus>
<clus scale="  274.268">  2  5  1 -1</clus>
</clustering>
</event>
<event>
 9    1  0.7835476E-005  0.2633500E+03  0.7546771E-02  0.1125266E+00
         21   -1    0    0  501  502  0.00000000000E+00  0.00000000000E+00  0.22681275800E+03  0.22681275800E+03  0.00000000000E+00 0.  1.
         -2   -1    0    0    0  501 -0.00000000000E+00 -0.00000000000E+00 -0.63184396610E+03  0.63184396610E+03  0.00000000000E+00 0.  1.
         23    2    1    2    0    0 -0.13002137418E+03  0.76494919118E+01 -0.26631498788E+03  0.30992016217E+03  0.90348003187E+02 0.  0.
        -24    2    1    2    0    0 -0.65963552298E+02  0.20748106912E+03 -0.10893927592E+03  0.25619952819E+03  0.79817592884E+02 0.  0.
         11    1    4    4    0    0 -0.56418382173E+02  0.60737194164E+02 -0.23664450609E+02  0.86209319824E+02  0.00000000000E+00 0. -1.
        -12    1    4    4    0    0 -0.95451701254E+01  0.14674387496E+03 -0.85274825311E+02  0.16999020837E+03  0.00000000000E+00 0.  1.
        -13    1    3    3    0    0 -0.18915334149E+02 -0.29223275021E+02 -0.29020713480E+02  0.45320982776E+02  0.00000000000E+00 0. -1.
         13    1    3    3    0    0 -0.11110604003E+03  0.36872766933E+02 -0.23729427440E+03  0.26459917940E+03  0.00000000000E+00 0.  1.
         -1    1    1    2    0  502  0.19598492648E+03 -0.21513056103E+03 -0.29776944298E+02  0.29253703374E+03  0.00000000000E+00 0.  1.
<scales pt_clust_5="13000.00000" pt_clust_6="13000.00000" pt_clust_7="13000.00000" pt_clust_8="13000.00000" pt_clust_9="250.96294"></scales>
<clustering>
<clus scale="   79.818">  5  6 -1 -1</clus>
<clus scale="   90.348">  7  8 -1 -1</clus>
<clus scale="  158.514">  2  7  1 -1</clus>
<clus scale="  250.963">  1  9  2 -1</clus>
<clus scale="  250.963">  1  5  2 -1</clus>
</clustering>
</event>
<event>
 9    1  0.7835476E-005  0.2124930E+03  0.7546771E-02  0.1140653E+00
         21   -1    0    0  501  502  0.00000000000E+00  0.00000000000E+00  0.43405354349E+03  0.43405354349E+03  0.00000000000E+00 0. -1.
         -2   -1    0    0    0  501 -0.00000000000E+00 -0.00000000000E+00 -0.40901371597E+03  0.40901371597E+03  0.00000000000E+00 0.  1.
         23    2    1    2    0    0  0.38092685278E+02  0.19611787280E+03 -0.30102939145E+03  0.37241609080E+03  0.90342556229E+02 0.  0.
        -24    2    1    2    0    0 -0.10538479936E+03 -0.10260206224E+03  0.31349337168E+03  0.35475644325E+03  0.77077239377E+02 0.  0.
         13    1    4    4    0    0 -0.66237552049E+02 -0.10381482789E+03  0.26653664344E+03  0.29360979903E+03  0.00000000000E+00 0. -1.
        -14    1    4    4    0    0 -0.39147247311E+02  0.12127656500E+01  0.46956728244E+02  0.61146644225E+02  0.00000000000E+00 0.  1.
        -13    1    3    3    0    0  0.67569721915E+02  0.12560194910E+03 -0.18818992282E+03  0.23612912567E+03  0.00000000000E+00 0.  1.
         13    1    3    3    0    0 -0.29477036636E+02  0.70515923699E+02 -0.11283946863E+03  0.13628696513E+03  0.00000000000E+00 0. -1.
         -1    1    1    2    0  502  0.67292114082E+02 -0.93515810560E+02  0.12575847289E+02  0.11589472541E+03  0.00000000000E+00 0.  1.
<scales pt_clust_5="13000.00000" pt_clust_6="13000.00000" pt_clust_7="13000.00000" pt_clust_8="13000.00000" pt_clust_9="115.21040"></scales>
<clustering>
<clus scale="   77.077">  5  6 -1 -1</clus>
<clus scale="   90.343">  7  8 -1 -1</clus>
<clus scale="  115.210">  1  9  2 -1</clus>
<clus scale="  207.201">  1  5  2 -1</clus>
<clus scale="  115.210">  1  5  2 -1</clus>
</clustering>
</event>
<event>
 9    1  0.7835476E-005  0.1899883E+03  0.7546771E-02  0.1196065E+00
          1   -1    0    0  502    0 -0.00000000000E+00  0.00000000000E+00  0.58002640791E+03  0.58002640791E+03  0.00000000000E+00 0. -1.
         21   -1    0    0  501  502  0.00000000000E+00 -0.00000000000E+00 -0.83861892491E+02  0.83861892491E+02  0.00000000000E+00 0. -1.
        -24    2    1    2    0    0  0.10192292463E+02 -0.34804165155E+01  0.80763765819E+02  0.11456987441E+03  0.80544857857E+02 0.  0.
         23    2    1    2    0    0  0.13665064919E+03 -0.80878176239E+02  0.26477192269E+03  0.32267274397E+03  0.93802181947E+02 0.  0.
         11    1    3    3    0    0  0.94530120605E+01 -0.33128686919E+02  0.77401682201E+02  0.84722427619E+02  0.00000000000E+00 0. -1.
        -12    1    3    3    0    0  0.73928040205E+00  0.29648270403E+02  0.33620836179E+01  0.29847446787E+02  0.00000000000E+00 0.  1.
        -11    1    4    4    0    0  0.93676362407E+02 -0.30168103750E+02  0.22407219244E+03  0.24473194067E+03  0.00000000000E+00 0. -1.
         11    1    4    4    0    0  0.42974286787E+02 -0.50710072489E+02  0.40699730248E+02  0.77940803300E+02  0.00000000000E+00 0.  1.
          2    1    1    2  501    0 -0.14684294166E+03  0.84358592754E+02  0.15062882691E+03  0.22664568203E+03  0.00000000000E+00 0. -1.
<scales pt_clust_5="13000.00000" pt_clust_6="13000.00000" pt_clust_7="13000.00000" pt_clust_8="13000.00000" pt_clust_9="165.21717"></scales>
<clustering>
<clus scale="   80.545">  5  6 -1 -1</clus>
<clus scale="   81.262">  1  5  2 -1</clus>
<clus scale="   93.802">  7  8 -1 -1</clus>
<clus scale="  165.217">  2  9  1 -1</clus>
<clus scale="  165.217">  2  5  1 -1</clus>
</clustering>
</event>
<event>
 9    1  0.7835476E-005  0.1694068E+03  0.7546771E-02  0.1180486E+00
         21   -1    0    0  501  502  0.00000000000E+00  0.00000000000E+00  0.21683470802E+03  0.21683470802E+03  0.00000000000E+00 0.  1.
          1   -1    0    0  502    0 -0.00000000000E+00 -0.00000000000E+00 -0.23029874423E+03  0.23029874423E+03  0.00000000000E+00 0. -1.
         23    2    1    2    0    0  0.92883959389E+02  0.88913726503E+02 -0.12541828532E+03  0.20147024986E+03  0.91254778582E+02 0.  0.
        -24    2    1    2    0    0 -0.98483906894E+02 -0.12012539784E+03  0.96791155017E+02  0.21051427264E+03  0.10401221165E+03 0.  0.
         11    1    4    4    0    0 -0.31693595940E+01 -0.78477519324E+02  0.64408483421E+02  0.10157371026E+03  0.00000000000E+00 0. -1.
        -12    1    4    4    0    0 -0.95314547300E+02 -0.41647878514E+02  0.32382671596E+02  0.10894056238E+03  0.00000000000E+00 0.  1.
        -11    1    3    3    0    0  0.15356091090E+02  0.46412180592E+02 -0.96964295093E+02  0.10859085856E+03  0.00000000000E+00 0.  1.
         11    1    3    3    0    0  0.77527868299E+02  0.42501545911E+02 -0.28453990227E+02  0.92879391297E+02  0.00000000000E+00 0. -1.
          2    1    1    2  501    0  0.55999475055E+01  0.31211671335E+02  0.15163094093E+02  0.35148929743E+02  0.00000000000E+00 0. -1.
<scales pt_clust_5="13000.00000" pt_clust_6="13000.00000" pt_clust_7="13000.00000" pt_clust_8="13000.00000" pt_clust_9="31.71006"></scales>
<clustering>
<clus scale="   31.710">  1  9  2 -1</clus>
<clus scale="   91.255">  7  8 -1 -1</clus>
<clus scale="  104.012">  5  6 -1 -1</clus>
<clus scale="  161.887">  2  7  1 -1</clus>
<clus scale="   31.710">  1  5  2 -1</clus>
</clustering>
</event>
<event>
 9    1  0.7835476E-005  0.3276165E+03  0.7546771E-02  0.1072196E+00
         21   -1    0    0  501  502  0.00000000000E+00  0.00000000000E+00  0.41117930329E+03  0.41117930329E+03  0.00000000000E+00 0. -1.
          3   -1    0    0  502    0 -0.00000000000E+00 -0.00000000000E+00 -0.65407591564E+03  0.65407591564E+03  0.00000000000E+00 0. -1.
        -24    2    1    2    0    0 -0.80428601434E+02 -0.36352323528E+02 -0.12049609625E+03  0.17039330323E+03  0.82001934243E+02 0.  0.
         23    2    1    2    0    0 -0.16294200115E+03 -0.19522297446E+02 -0.44727093591E+03  0.48511563672E+03  0.91403911536E+02 0.  0.
         11    1    3    3    0    0 -0.51645787208E+02 -0.50201283529E+02 -0.36949191337E+02  0.80948742700E+02  0.00000000000E+00 0. -1.
        -12    1    3    3    0    0 -0.28782814225E+02  0.13848960001E+02 -0.83546904910E+02  0.89444560527E+02  0.00000000000E+00 0.  1.
        -11    1    4    4    0    0 -0.12523376411E+03 -0.42592750010E+02 -0.39552484632E+03  0.41705819988E+03  0.00000000000E+00 0. -1.
         11    1    4    4    0    0 -0.37708237035E+02  0.23070452564E+02 -0.51746089589E+02  0.68057436842E+02  0.00000000000E+00 0.  1.
          4    1    1    2  501    0  0.24337060258E+03  0.55874620974E+02  0.32487041981E+03  0.40974627898E+03  0.00000000000E+00 0. -1.
<scales pt_clust_5="13000.00000" pt_clust_6="13000.00000" pt_clust_7="13000.00000" pt_clust_8="13000.00000" pt_clust_9="249.70227"></scales>
<clustering>
<clus scale="   82.002">  5  6 -1 -1</clus>
<clus scale="   91.404">  7  8 -1 -1</clus>
<clus scale="  111.483">  5  7 -1 -1</clus>
<clus scale="  249.702">  1  9  2 -1</clus>
<clus scale="  249.702">  1  5  2 -1</clus>
</clustering>
</event>
<event>
 9    1  0.7835476E-005  0.1021416E+03  0.7546771E-02  0.1276984E+00
          1   -1    0    0  502    0 -0.00000000000E+00  0.00000000000E+00  0.32942286506E+03  0.32942286506E+03  0.00000000000E+00 0. -1.
         21   -1    0    0  501  502  0.00000000000E+00 -0.00000000000E+00 -0.10011974623E+03  0.10011974623E+03  0.00000000000E+00 0. -1.
         23    2    1    2    0    0  0.87500322824E+01  0.59200561461E+02  0.13786258925E+03  0.17447028066E+03  0.88614421935E+02 0.  0.
        -24    2    1    2    0    0 -0.79185376362E+02  0.16294440675E+02 -0.49892910474E+01  0.11379479048E+03  0.79928272155E+02 0.  0.
         13    1    4    4    0    0 -0.83392366620E+02  0.16515691749E+02 -0.28689873337E+02  0.89722704576E+02  0.00000000000E+00 0. -1.
        -14    1    4    4    0    0  0.42069902583E+01 -0.22125107442E+00  0.23700582290E+02  0.24072085907E+02  0.00000000000E+00 0.  1.
        -11    1    3    3    0    0  0.19489186201E+02 -0.19450071772E+02  0.36757931776E+02  0.45926889936E+02  0.00000000000E+00 0.  1.
         11    1    3    3    0    0 -0.10739153918E+02  0.78650633232E+02  0.10110465747E+03  0.12854339072E+03  0.00000000000E+00 0. -1.
          2    1    1    2  501    0  0.70435344079E+02 -0.75495002135E+02  0.96429820627E+02  0.14127754014E+03  0.00000000000E+00 0. -1.
<scales pt_clust_5="13000.00000" pt_clust_6="13000.00000" pt_clust_7="13000.00000" pt_clust_8="13000.00000" pt_clust_9="103.25039"></scales>
<clustering>
<clus scale="   79.928">  5  6 -1 -1</clus>
<clus scale="   88.614">  7  8 -1 -1</clus>
<clus scale="  103.250">  2  9  1 -1</clus>
<clus scale="  103.250">  2  5  1 -1</clus>
<clus scale="  102.142">  2  5  1 -1</clus>
</clustering>
</event>
<event>
 9    1  0.7835476E-005  0.2143025E+03  0.7546771E-02  0.1138203E+00
         21   -1    0    0  501  502  0.00000000000E+00  0.00000000000E+00  0.17982065366E+03  0.17982065366E+03  0.00000000000E+00 0. -1.
         -4   -1    0    0    0  501 -0.00000000000E+00 -0.00000000000E+00 -0.15596858466E+03  0.15596858466E+03  0.00000000000E+00 0.  1.
        -24    2    1    2    0    0  0.74452112502E+02  0.20617016954E+02  0.19756928638E+02  0.11308987646E+03  0.80192303149E+02 0.  0.
         23    2    1    2    0    0  0.23279310261E+02  0.42397322494E+02  0.21414107311E+02  0.10513157466E+03  0.90854965512E+02 0.  0.
         13    1    3    3    0    0  0.40347195812E+01  0.37475611232E+02 -0.11982657193E+01  0.37711221673E+02  0.00000000000E+00 0. -1.
        -14    1    3    3    0    0  0.70417392921E+02 -0.16858594279E+02  0.20955194357E+02  0.75378654786E+02  0.00000000000E+00 0.  1.
        -13    1    4    4    0    0 -0.22663974792E+02 -0.16477266897E+02  0.89782922227E+01  0.29423898603E+02  0.00000000000E+00 0.  1.
         13    1    4    4    0    0  0.45943285053E+02  0.58874589391E+02  0.12435815088E+02  0.75707676059E+02  0.00000000000E+00 0. -1.
         -3    1    1    2    0  502 -0.97731422763E+02 -0.63014339447E+02 -0.17318966944E+02  0.11756778720E+03  0.00000000000E+00 0.  1.
<scales pt_clust_5="13000.00000" pt_clust_6="13000.00000" pt_clust_7="13000.00000" pt_clust_8="13000.00000" pt_clust_9="116.28522"></scales>
<clustering>
<clus scale="   80.192">  5  6 -1 -1</clus>
<clus scale="   90.855">  7  8 -1 -1</clus>
<clus scale="   98.542">  5  7 -1 -1</clus>
<clus scale="  116.285">  1  9  2 -1</clus>
<clus scale="  116.285">  1  5  2 -1</clus>
</clustering>
</event>
<event>
 9    1  0.7835476E-005  0.1042805E+03  0.7546771E-02  0.1277707E+00
          3   -1    0    0  502    0 -0.00000000000E+00  0.00000000000E+00  0.18764168166E+03  0.18764168166E+03  0.00000000000E+00 0. -1.
         21   -1    0    0  501  502  0.00000000000E+00 -0.00000000000E+00 -0.13602538295E+03  0.13602538295E+03  0.00000000000E+00 0. -1.
        -24    2    1    2    0    0 -0.11790126974E+02  0.11747985204E+02 -0.23374826668E+02  0.83457138689E+02  0.78368930233E+02 0.  0.
         23    2    1    2    0    0  0.91335224667E+02 -0.15686146647E+02 -0.51132491502E+00  0.13046680914E+03  0.91832175032E+02 0.  0.
         11    1    3    3    0    0  0.29830085104E+02  0.73956429406E+01  0.72794591768E+01  0.31583540614E+02  0.00000000000E+00 0. -1.
        -12    1    3    3    0    0 -0.41620212078E+02  0.43523422635E+01 -0.30654285845E+02  0.51873598075E+02  0.00000000000E+00 0.  1.
        -13    1    4    4    0    0  0.61767956872E+02 -0.42570848704E+02  0.29376616316E+02  0.80563907811E+02  0.00000000000E+00 0.  1.
         13    1    4    4    0    0  0.29567267795E+02  0.26884702057E+02 -0.29887941231E+02  0.49902901325E+02  0.00000000000E+00 0. -1.
          4    1    1    2  501    0 -0.79545097693E+02  0.39381614428E+01  0.75502450289E+02  0.10974311679E+03  0.00000000000E+00 0. -1.
<scales pt_clust_5="13000.00000" pt_clust_6="13000.00000" pt_clust_7="13000.00000" pt_clust_8="13000.00000" pt_clust_9="79.64256"></scales>
<clustering>
<clus scale="   78.369">  5  6 -1 -1</clus>
<clus scale="   79.643">  2  9  1 -1</clus>
<clus scale="   91.832">  7  8 -1 -1</clus>
<clus scale="   92.644">  1  5  2 -1</clus>
<clus scale="   79.643">  2  5  1 -1</clus>
</clustering>
</event>
<event>
 9    1  0.7835476E-005  0.2306363E+03  0.7546771E-02  0.1152004E+00
         21   -1    0    0  501  502  0.00000000000E+00  0.00000000000E+00  0.50791287764E+03  0.50791287764E+03  0.00000000000E+00 0. -1.
         -2   -1    0    0    0  501 -0.00000000000E+00 -0.00000000000E+00 -0.17402649538E+03  0.17402649538E+03  0.00000000000E+00 0.  1.
         23    2    1    2    0    0 -0.11960903019E+02  0.84708056726E+02  0.11124327862E+03  0.16629819688E+03  0.89227266970E+02 0.  0.
        -24    2    1    2    0    0 -0.11853198253E+03 -0.21350004363E+03  0.21082663414E+03  0.33191475448E+03  0.78022016559E+02 0.  0.
         11    1    4    4    0    0 -0.10559038859E+03 -0.21110395117E+03  0.21374285969E+03  0.31843400954E+03  0.00000000000E+00 0. -1.
        -12    1    4    4    0    0 -0.12941593934E+02 -0.23960924606E+01 -0.29162255547E+01  0.13480744940E+02  0.00000000000E+00 0.  1.
        -13    1    3    3    0    0  0.29695205223E+02  0.44674304266E+02  0.89936895455E+02  0.10471983498E+03  0.00000000000E+00 0. -1.
         13    1    3    3    0    0 -0.41656108242E+02  0.40033752460E+02  0.21306383166E+02  0.61578361894E+02  0.00000000000E+00 0.  1.
         -1    1    1    2    0  502  0.13049288554E+03  0.12879198690E+03  0.11816469502E+02  0.18372642167E+03  0.00000000000E+00 0.  1.
<scales pt_clust_5="13000.00000" pt_clust_6="13000.00000" pt_clust_7="13000.00000" pt_clust_8="13000.00000" pt_clust_9="217.03853"></scales>
<clustering>
<clus scale="   78.022">  5  6 -1 -1</clus>
<clus scale="   89.227">  7  8 -1 -1</clus>
<clus scale="  123.612">  2  7  1 -1</clus>
<clus scale="  217.039">  1  9  2 -1</clus>
<clus scale="  217.039">  1  5  2 -1</clus>
</clustering>
</event>
<event>
 9    1  0.1387289E-004  0.9098039E+02  0.7546771E-02  0.1307415E+00
         -2   -1    0    0    0  501 -0.00000000000E+00  0.00000000000E+00  0.45408588584E+03  0.45408588584E+03  0.00000000000E+00 0.  1.
         21   -1    0    0  501  502  0.00000000000E+00 -0.00000000000E+00 -0.35478026257E+03  0.35478026257E+03  0.00000000000E+00 0.  1.
         23    2    1    2    0    0 -0.27686817323E+01  0.64967424099E+01  0.43273101596E+03  0.44219669127E+03  0.90729864630E+02 0.  0.
        -24    2    1    2    0    0  0.70647178646E+01  0.20093518857E+02 -0.32918454891E+03  0.33940257840E+03  0.79862276742E+02 0.  0.
         11    1    4    4    0    0  0.38452579817E+01  0.42520597907E+02 -0.95339265322E+02  0.10446225523E+03  0.00000000000E+00 0. -1.
        -12    1    4    4    0    0  0.32194598829E+01 -0.22427079049E+02 -0.23384528358E+03  0.23494032317E+03  0.00000000000E+00 0.  1.
        -13    1    3    3    0    0  0.29798504129E+02 -0.29134446710E+02  0.16734072448E+03  0.17245197854E+03  0.00000000000E+00 0. -1.
         13    1    3    3    0    0 -0.32567185861E+02  0.35631189120E+02  0.26539029148E+03  0.26974471272E+03  0.00000000000E+00 0.  1.
         -1    1    1    2    0  502 -0.42960361324E+01 -0.26590261267E+02 -0.42408437786E+01  0.27266878748E+02  0.00000000000E+00 0.  1.
<scales pt_clust_5="13000.00000" pt_clust_6="13000.00000" pt_clust_7="13000.00000" pt_clust_8="13000.00000" pt_clust_9="26.93507"></scales>
<clustering>
<clus scale="   26.935">  2  9  1 -1</clus>
<clus scale="   79.862">  5  6 -1 -1</clus>
<clus scale="   80.147">  2  5  1 -1</clus>
<clus scale="   90.730">  7  8 -1 -1</clus>
<clus scale="   26.935">  2  5  1 -1</clus>
</clustering>
</event>
<event>
 9    1  0.7835476E-005  0.9586318E+02  0.7546771E-02  0.1294468E+00
         -2   -1    0    0    0  501 -0.00000000000E+00  0.00000000000E+00  0.18398156119E+03  0.18398156119E+03  0.00000000000E+00 0.  1.
         21   -1    0    0  501  502  0.00000000000E+00 -0.00000000000E+00 -0.91488207535E+02  0.91488207535E+02  0.00000000000E+00 0.  1.
         23    2    1    2    0    0 -0.20228115094E+02  0.10789718351E+02  0.80165924523E+02  0.12342585396E+03  0.91004237859E+02 0.  0.
        -24    2    1    2    0    0  0.55685794892E+02  0.13213269508E+02 -0.15698058030E+02  0.10086952260E+03  0.81564289491E+02 0.  0.
         11    1    4    4    0    0  0.33875465912E+02 -0.15219716845E+02  0.26415141615E+02  0.45573530455E+02  0.00000000000E+00 0. -1.
        -12    1    4    4    0    0  0.21810328979E+02  0.28432986353E+02 -0.42113199645E+02  0.55295992147E+02  0.00000000000E+00 0.  1.
        -11    1    3    3    0    0 -0.41448932235E+02  0.44806752038E+01  0.15144064037E+01  0.41717908151E+02  0.00000000000E+00 0. -1.
         11    1    3    3    0    0  0.21220817141E+02  0.63090431472E+01  0.78651518119E+02  0.81707945807E+02  0.00000000000E+00 0.  1.
         -1    1    1    2    0  502 -0.35457679798E+02 -0.24002987859E+02  0.28025487163E+02  0.51174392166E+02  0.00000000000E+00 0.  1.
<scales pt_clust_5="13000.00000" pt_clust_6="13000.00000" pt_clust_7="13000.00000" pt_clust_8="13000.00000" pt_clust_9="42.81813"></scales>
<clustering>
<clus scale="   42.818">  2  9  1 -1</clus>
<clus scale="   81.564">  5  6 -1 -1</clus>
<clus scale="   86.952">  2  5  1 -1</clus>
<clus scale="   91.004">  7  8 -1 -1</clus>
<clus scale="   42.818">  2  5  1 -1</clus>
</clustering>
</event>
<event>
 9    1  0.7835476E-005  0.1069092E+03  0.7546771E-02  0.1272456E+00
         21   -1    0    0  501  502  0.00000000000E+00  0.00000000000E+00  0.60208888563E+02  0.60208888563E+02  0.00000000000E+00 0.  1.
          1   -1    0    0  502    0 -0.00000000000E+00 -0.00000000000E+00 -0.26560639612E+03  0.26560639612E+03  0.00000000000E+00 0. -1.
         23    2    1    2    0    0  0.37421390096E+02  0.52670492118E+02 -0.15865583146E+03  0.19415473908E+03  0.91377506384E+02 0.  0.
        -24    2    1    2    0    0 -0.28728775577E+02 -0.32639924345E+02 -0.59151654462E+02  0.10654495771E+03  0.77215300169E+02 0.  0.
         13    1    4    4    0    0 -0.35751784095E+02 -0.23279837555E+02 -0.75333537049E+02  0.86575300790E+02  0.00000000000E+00 0. -1.
        -14    1    4    4    0    0  0.70230085178E+01 -0.93600867905E+01  0.16181882588E+02  0.19969656919E+02  0.00000000000E+00 0.  1.
        -11    1    3    3    0    0  0.37628453143E+02  0.70608498484E+01 -0.11324359642E+02  0.39924894588E+02  0.00000000000E+00 0.  1.
         11    1    3    3    0    0 -0.20706304692E+00  0.45609642270E+02 -0.14733147182E+03  0.15422984449E+03  0.00000000000E+00 0. -1.
          2    1    1    2  501    0 -0.86926145196E+01 -0.20030567773E+02  0.12409978364E+02  0.25115587899E+02  0.00000000000E+00 0. -1.
<scales pt_clust_5="13000.00000" pt_clust_6="13000.00000" pt_clust_7="13000.00000" pt_clust_8="13000.00000" pt_clust_9="21.83541"></scales>
<clustering>
<clus scale="   21.835">  1  9  2 -1</clus>
<clus scale="   77.215">  5  6 -1 -1</clus>
<clus scale="   91.378">  7  8 -1 -1</clus>
<clus scale="   95.089">  1  5  2 -1</clus>
<clus scale="   21.835">  1  5  2 -1</clus>
</clustering>
</event>
<event>
 9    1  0.7835476E-005  0.9844867E+02  0.7546771E-02  0.1297025E+00
         21   -1    0    0  501  502  0.00000000000E+00  0.00000000000E+00  0.26415381435E+02  0.26415381435E+02  0.00000000000E+00 0.  1.
         -4   -1    0    0    0  501 -0.00000000000E+00 -0.00000000000E+00 -0.60265593550E+03  0.60265593550E+03  0.00000000000E+00 0.  1.
        -24    2    1    2    0    0  0.44860988275E+02  0.11859484827E+02 -0.24971426514E+03  0.26212731319E+03  0.64810172489E+02 0.  0.
         23    2    1    2    0    0 -0.15093655615E+02 -0.28354309915E+02 -0.10073301542E+03  0.13860045619E+03  0.89616743580E+02 0.  0.
         11    1    3    3    0    0  0.21705171420E+02 -0.19377342560E+02 -0.43864673334E+02  0.52637490801E+02  0.00000000000E+00 0. -1.
        -12    1    3    3    0    0  0.23155816855E+02  0.31236827387E+02 -0.20584959180E+03  0.20948982239E+03  0.00000000000E+00 0.  1.
        -11    1    4    4    0    0  0.40107903535E+01 -0.48536829803E+02 -0.99503274502E+02  0.11078272394E+03  0.00000000000E+00 0.  1.
         11    1    4    4    0    0 -0.19104445969E+02  0.20182519888E+02 -0.12297409150E+01  0.27817732249E+02  0.00000000000E+00 0. -1.
         -3    1    1    2    0  502 -0.29767332659E+02  0.16494825089E+02 -0.22579327351E+03  0.22834354756E+03  0.00000000000E+00 0.  1.
<scales pt_clust_5="13000.00000" pt_clust_6="13000.00000" pt_clust_7="13000.00000" pt_clust_8="13000.00000" pt_clust_9="34.03196"></scales>
<clustering>
<clus scale="   34.032">  1  9  2 -1</clus>
<clus scale="   64.810">  5  6 -1 -1</clus>
<clus scale="   76.559">  2  5  1 -1</clus>
<clus scale="   89.617">  7  8 -1 -1</clus>
<clus scale="   34.032">  1  5  2 -1</clus>
</clustering>
</event>
<event>
 9    1  0.7835476E-005  0.1697220E+03  0.7546771E-02  0.1179605E+00
          3   -1    0    0  502    0 -0.00000000000E+00  0.00000000000E+00  0.33135596597E+03  0.33135596597E+03  0.00000000000E+00 0. -1.
         21   -1    0    0  501  502  0.00000000000E+00 -0.00000000000E+00 -0.20447224796E+03  0.20447224796E+03  0.00000000000E+00 0.  1.
        -24    2    1    2    0    0 -0.63952453050E+02 -0.76941892038E+02 -0.27071155985E+02  0.13098357998E+03  0.80086701367E+02 0.  0.
         23    2    1    2    0    0  0.17423521009E+03  0.10800366723E+03  0.14977637143E+02  0.22472858041E+03  0.90862008929E+02 0.  0.
         11    1    3    3    0    0 -0.72873437191E+02 -0.48941757522E+02  0.44410895785E+01  0.87895146362E+02  0.00000000000E+00 0. -1.
        -12    1    3    3    0    0  0.89209841407E+01 -0.28000134517E+02 -0.31512245564E+02  0.43088433616E+02  0.00000000000E+00 0.  1.
        -13    1    4    4    0    0  0.11767878634E+03  0.10265038376E+03  0.42162424982E+02  0.16175001738E+03  0.00000000000E+00 0.  1.
         13    1    4    4    0    0  0.56556423754E+02  0.53532834676E+01 -0.27184787839E+02  0.62978563032E+02  0.00000000000E+00 0. -1.
          4    1    1    2  501    0 -0.11028275704E+03 -0.31061775194E+02  0.13897723685E+03  0.18011605354E+03  0.00000000000E+00 0. -1.
<scales pt_clust_5="13000.00000" pt_clust_6="13000.00000" pt_clust_7="13000.00000" pt_clust_8="13000.00000" pt_clust_9="114.57370"></scales>
<clustering>
<clus scale="   80.087">  5  6 -1 -1</clus>
<clus scale="   90.862">  7  8 -1 -1</clus>
<clus scale="  114.574">  2  9  1 -1</clus>
<clus scale="  164.206">  1  5  2 -1</clus>
<clus scale="  114.574">  2  5  1 -1</clus>
</clustering>
</event>
<event>
 9    1  0.7835476E-005  0.1402860E+03  0.7546771E-02  0.1214367E+00
         21   -1    0    0  501  502  0.00000000000E+00  0.00000000000E+00  0.52617728726E+03  0.52617728726E+03  0.00000000000E+00 0.  1.
          1   -1    0    0  502    0 -0.00000000000E+00 -0.00000000000E+00 -0.46051344608E+02  0.46051344608E+02  0.00000000000E+00 0. -1.
         23    2    1    2    0    0 -0.15071607013E+02  0.11546511105E+03  0.14444816190E+03  0.20468295436E+03  0.86432026024E+02 0.  0.
        -24    2    1    2    0    0  0.26266571022E+02 -0.97298765966E+02  0.28924710108E+03  0.31644625160E+03  0.79481834764E+02 0.  0.
         11    1    4    4    0    0  0.41455312748E+02 -0.19813091201E+02  0.73234503811E+02  0.86454578170E+02  0.00000000000E+00 0. -1.
        -12    1    4    4    0    0 -0.15188741726E+02 -0.77485674765E+02  0.21601259727E+03  0.22999167343E+03  0.00000000000E+00 0.  1.
        -11    1    3    3    0    0 -0.34374476750E+02  0.83861627986E+02  0.14083091817E+03  0.16747454974E+03  0.00000000000E+00 0.  1.
         11    1    3    3    0    0  0.19302869737E+02  0.31603483062E+02  0.36172437289E+01  0.37208404614E+02  0.00000000000E+00 0. -1.
          2    1    1    2  501    0 -0.11194964010E+02 -0.18166345082E+02  0.46430679670E+02  0.51099425901E+02  0.00000000000E+00 0. -1.
<scales pt_clust_5="13000.00000" pt_clust_6="13000.00000" pt_clust_7="13000.00000" pt_clust_8="13000.00000" pt_clust_9="21.33877"></scales>
<clustering>
<clus scale="   21.339">  1  9  2 -1</clus>
<clus scale="   79.482">  5  6 -1 -1</clus>
<clus scale="   86.432">  7  8 -1 -1</clus>
<clus scale="  136.114">  1  5  2 -1</clus>
<clus scale="   21.339">  1  5  2 -1</clus>
</clustering>
</event>
<event>
 9    1  0.7835476E-005  0.9321441E+02  0.7546771E-02  0.1301810E+00
          3   -1    0    0  502    0 -0.00000000000E+00  0.00000000000E+00  0.27539515767E+02  0.27539515767E+02  0.00000000000E+00 0. -1.
         21   -1    0    0  501  502  0.00000000000E+00 -0.00000000000E+00 -0.50861622668E+03  0.50861622668E+03  0.00000000000E+00 0.  1.
         23    2    1    2    0    0  0.13987820878E+02 -0.58420416591E+01 -0.99610461790E+02  0.13537386088E+03  0.90410450331E+02 0.  0.
        -24    2    1    2    0    0 -0.29550415000E+02  0.22124046380E+02 -0.20542097765E+03  0.22330164148E+03  0.79392345801E+02 0.  0.
         11    1    4    4    0    0  0.21496347720E+02 -0.10839506288E+02 -0.86054834216E+02  0.89358952287E+02  0.00000000000E+00 0. -1.
        -12    1    4    4    0    0 -0.51046762720E+02  0.32963552668E+02 -0.11936614344E+03  0.13394268919E+03  0.00000000000E+00 0.  1.
        -11    1    3    3    0    0  0.51394243388E+02 -0.10903560681E+02 -0.69295543554E+02  0.86960498189E+02  0.00000000000E+00 0. -1.
         11    1    3    3    0    0 -0.37406422510E+02  0.50615190221E+01 -0.30314918236E+02  0.48413362695E+02  0.00000000000E+00 0.  1.
          4    1    1    2  501    0  0.15562594123E+02 -0.16282004721E+02 -0.17604527147E+03  0.17748024009E+03  0.00000000000E+00 0. -1.
<scales pt_clust_5="13000.00000" pt_clust_6="13000.00000" pt_clust_7="13000.00000" pt_clust_8="13000.00000" pt_clust_9="22.52328"></scales>
<clustering>
<clus scale="   22.523">  2  9  1 -1</clus>
<clus scale="   79.392">  5  6 -1 -1</clus>
<clus scale="   82.571">  2  5  1 -1</clus>
<clus scale="   90.410">  7  8 -1 -1</clus>
<clus scale="   22.523">  2  5  1 -1</clus>
</clustering>
</event>
<event>
 9    1  0.7835476E-005  0.8946979E+02  0.7546771E-02  0.1308571E+00
         -4   -1    0    0    0  501 -0.00000000000E+00  0.00000000000E+00  0.29310051994E+03  0.29310051994E+03  0.00000000000E+00 0.  1.
         21   -1    0    0  501  502  0.00000000000E+00 -0.00000000000E+00 -0.42039036750E+02  0.42039036750E+02  0.00000000000E+00 0. -1.
        -24    2    1    2    0    0  0.13664327396E+02 -0.77814400753E+01  0.12301727932E+03  0.14745795511E+03  0.79770501207E+02 0.  0.
         23    2    1    2    0    0 -0.14065754177E+02  0.34504316034E+02  0.53899680397E+02  0.10886736679E+03  0.86939834023E+02 0.  0.
         11    1    3    3    0    0 -0.27299997896E+02 -0.58178363900E+01  0.91706763510E+02  0.95860667528E+02  0.00000000000E+00 0. -1.
        -12    1    3    3    0    0  0.40964325292E+02 -0.19636036854E+01  0.31310515805E+02  0.51597287584E+02  0.00000000000E+00 0.  1.
        -11    1    4    4    0    0  0.35147083716E+02  0.22012554084E+02  0.36348266923E+02  0.55145866022E+02  0.00000000000E+00 0.  1.
         11    1    4    4    0    0 -0.49212837893E+02  0.12491761950E+02  0.17551413475E+02  0.53721500771E+02  0.00000000000E+00 0. -1.
         -3    1    1    2    0  502  0.40142678098E+00 -0.26722875958E+02  0.74144523473E+02  0.78814234780E+02  0.00000000000E+00 0.  1.
<scales pt_clust_5="13000.00000" pt_clust_6="13000.00000" pt_clust_7="13000.00000" pt_clust_8="13000.00000" pt_clust_9="26.72590"></scales>
<clustering>
<clus scale="   26.726">  2  9  1 -1</clus>
<clus scale="   79.771">  5  6 -1 -1</clus>
<clus scale="   82.521">  1  5  2 -1</clus>
<clus scale="   86.940">  7  8 -1 -1</clus>
<clus scale="   26.726">  2  5  1 -1</clus>
</clustering>
</event>
<event>
 9    1  0.7835476E-005  0.2622276E+03  0.7546771E-02  0.1105812E+00
         -2   -1    0    0    0  501 -0.00000000000E+00  0.00000000000E+00  0.12751298597E+03  0.12751298597E+03  0.00000000000E+00 0.  1.
         21   -1    0    0  501  502  0.00000000000E+00 -0.00000000000E+00 -0.44739915745E+03  0.44739915745E+03  0.00000000000E+00 0.  1.
        -24    2    1    2    0    0  0.25853866340E+02 -0.11106958564E+03 -0.11713450904E+03  0.18270752885E+03  0.81588434427E+02 0.  0.
         23    2    1    2    0    0  0.30676605758E+02 -0.54551440779E+02 -0.18338259579E+03  0.21613309669E+03  0.95746672067E+02 0.  0.
         11    1    3    3    0    0  0.49453026164E+02 -0.35167026184E+02 -0.48276535302E+02  0.77543184022E+02  0.00000000000E+00 0. -1.
        -12    1    3    3    0    0 -0.23599159824E+02 -0.75902559453E+02 -0.68857973735E+02  0.10516434483E+03  0.00000000000E+00 0.  1.
        -13    1    4    4    0    0  0.47071271169E+02 -0.14388826853E+02 -0.15884037907E+03  0.16629193887E+03  0.00000000000E+00 0.  1.
         13    1    4    4    0    0 -0.16394665411E+02 -0.40162613926E+02 -0.24542216716E+02  0.49841157818E+02  0.00000000000E+00 0. -1.
         -1    1    1    2    0  502 -0.56530472098E+02  0.16562102642E+03 -0.19369066655E+02  0.17607151788E+03  0.00000000000E+00 0.  1.
<scales pt_clust_5="13000.00000" pt_clust_6="13000.00000" pt_clust_7="13000.00000" pt_clust_8="13000.00000" pt_clust_9="175.00300"></scales>
<clustering>
<clus scale="   81.588">  5  6 -1 -1</clus>
<clus scale="   95.747">  7  8 -1 -1</clus>
<clus scale="  112.148">  5  7 -1 -1</clus>
<clus scale="  175.003">  2  9  1 -1</clus>
<clus scale="  175.003">  2  5  1 -1</clus>
</clustering>
</event>
<event>
 9    1  0.7835476E-005  0.1012484E+03  0.7546771E-02  0.1284553E+00
         -2   -1    0    0    0  501 -0.00000000000E+00  0.00000000000E+00  0.39170345163E+02  0.39170345163E+02  0.00000000000E+00 0.  1.
         21   -1    0    0  501  502  0.00000000000E+00 -0.00000000000E+00 -0.54671222026E+03  0.54671222026E+03  0.00000000000E+00 0.  1.
         23    2    1    2    0    0  0.36738377352E+02  0.97732733346E+01 -0.14507409932E+03  0.17612229375E+03  0.92343612766E+02 0.  0.
        -24    2    1    2    0    0 -0.47585390765E+02  0.49868135337E+02 -0.31755260777E+03  0.33431408128E+03  0.78581460313E+02 0.  0.
         13    1    4    4    0    0 -0.10990871880E+02  0.63281771000E+02 -0.17091379804E+03  0.18258397565E+03  0.00000000000E+00 0. -1.
        -14    1    4    4    0    0 -0.36594518885E+02 -0.13413635663E+02 -0.14663880973E+03  0.15173010563E+03  0.00000000000E+00 0.  1.
        -11    1    3    3    0    0  0.27950611321E+02 -0.36781404654E+02 -0.10248949378E+03  0.11241977022E+03  0.00000000000E+00 0.  1.
         11    1    3    3    0    0  0.87877660310E+01  0.46554677988E+02 -0.42584605546E+02  0.63702523529E+02  0.00000000000E+00 0. -1.
         -1    1    1    2    0  502  0.10847013413E+02 -0.59641408672E+02 -0.44915168007E+02  0.75446190397E+02  0.00000000000E+00 0.  1.
<scales pt_clust_5="13000.00000" pt_clust_6="13000.00000" pt_clust_7="13000.00000" pt_clust_8="13000.00000" pt_clust_9="60.61979"></scales>
<clustering>
<clus scale="   60.620">  2  9  1 -1</clus>
<clus scale="   78.581">  5  6 -1 -1</clus>
<clus scale="   88.876">  2  5  1 -1</clus>
<clus scale="   92.344">  7  8 -1 -1</clus>
<clus scale="   60.620">  2  5  1 -1</clus>
</clustering>
</event>
<event>
 9    1  0.7835476E-005  0.9882826E+02  0.7546771E-02  0.1286844E+00
         21   -1    0    0  501  502  0.00000000000E+00  0.00000000000E+00  0.47039893635E+03  0.47039893635E+03  0.00000000000E+00 0.  1.
         -4   -1    0    0    0  501 -0.00000000000E+00 -0.00000000000E+00 -0.41452285027E+02  0.41452285027E+02  0.00000000000E+00 0.  1.
        -24    2    1    2    0    0  0.37090034574E+02  0.12021265399E+02  0.63612171495E+02  0.11203614982E+03  0.83578759366E+02 0.  0.
         23    2    1    2    0    0 -0.20738171391E+02 -0.29935815085E+02  0.36220502646E+03  0.37535882494E+03  0.91517984518E+02 0.  0.
         11    1    3    3    0    0 -0.93470663632E+01  0.21341330376E+02 -0.93041211262E+01  0.25087580627E+02  0.00000000000E+00 0. -1.
        -12    1    3    3    0    0  0.46437100938E+02 -0.93200649768E+01  0.72916292621E+02  0.86948569190E+02  0.00000000000E+00 0.  1.
        -13    1    4    4    0    0 -0.21946039597E+01  0.32900856353E+02  0.12350977941E+03  0.12783562979E+03  0.00000000000E+00 0.  1.
         13    1    4    4    0    0 -0.18543567432E+02 -0.62836671438E+02  0.23869524706E+03  0.24752319515E+03  0.00000000000E+00 0. -1.
         -3    1    1    2    0  502 -0.16351863183E+02  0.17914549686E+02  0.31294533615E+01  0.24456246612E+02  0.00000000000E+00 0.  1.
<scales pt_clust_5="13000.00000" pt_clust_6="13000.00000" pt_clust_7="13000.00000" pt_clust_8="13000.00000" pt_clust_9="24.25521"></scales>
<clustering>
<clus scale="   24.255">  1  9  2 -1</clus>
<clus scale="   83.579">  5  6 -1 -1</clus>
<clus scale="   91.518">  7  8 -1 -1</clus>
<clus scale="   91.525">  2  5  1 -1</clus>
<clus scale="   24.255">  1  5  2 -1</clus>
</clustering>
</event>
<event>
 9    1  0.7835476E-005  0.1663606E+03  0.7546771E-02  0.1206477E+00
         21   -1    0    0  501  502  0.00000000000E+00  0.00000000000E+00  0.34656028158E+03  0.34656028158E+03  0.00000000000E+00 0.  1.
         -2   -1    0    0    0  501 -0.00000000000E+00 -0.00000000000E+00 -0.12649498693E+03  0.12649498693E+03  0.00000000000E+00 0.  1.
        -24    2    1    2    0    0 -0.14216918163E+02 -0.47844046463E+02  0.79831208729E+02  0.12530723132E+03  0.82690427440E+02 0.  0.
         23    2    1    2    0    0 -0.93429466610E+01  0.16771070875E+03  0.61948873950E+02  0.20265614090E+03  0.94961444699E+02 0.  0.
         13    1    3    3    0    0 -0.81297099860E+01 -0.66134042398E+02  0.82279555378E+02  0.10587600758E+03  0.00000000000E+00 0. -1.
        -14    1    3    3    0    0 -0.60872081766E+01  0.18289995935E+02 -0.24483466488E+01  0.19431223739E+02  0.00000000000E+00 0.  1.
        -13    1    4    4    0    0  0.39958788629E+02  0.76852792345E+02  0.10703803914E+02  0.87279023243E+02  0.00000000000E+00 0.  1.
         13    1    4    4    0    0 -0.49301735290E+02  0.90857916401E+02  0.51245070036E+02  0.11537711765E+03  0.00000000000E+00 0. -1.
         -1    1    1    2    0  502  0.23559864824E+02 -0.11986666228E+03  0.78285211970E+02  0.14509189630E+03  0.00000000000E+00 0.  1.
<scales pt_clust_5="13000.00000" pt_clust_6="13000.00000" pt_clust_7="13000.00000" pt_clust_8="13000.00000" pt_clust_9="136.59497"></scales>
<clustering>
<clus scale="   82.690">  5  6 -1 -1</clus>
<clus scale="   94.961">  7  8 -1 -1</clus>
<clus scale="   96.586">  2  5  1 -1</clus>
<clus scale="  136.595">  1  9  2 -1</clus>
<clus scale="  136.595">  1  5  2 -1</clus>
</clustering>
</event>
<event>
 9    1  0.7835476E-005  0.1130217E+03  0.7546771E-02  0.1260423E+00
         21   -1    0    0  501  502  0.00000000000E+00  0.00000000000E+00  0.45635361050E+03  0.45635361050E+03  0.00000000000E+00 0.  1.
          1   -1    0    0  502    0 -0.00000000000E+00 -0.00000000000E+00 -0.10853837107E+03  0.10853837107E+03  0.00000000000E+00 0. -1.
        -24    2    1    2    0    0  0.40760588545E+02 -0.51000074155E+02 -0.60396499756E+02  0.11838600238E+03  0.78134980860E+02 0.  0.
         23    2    1    2    0    0 -0.12546040212E+02  0.70257667499E+02  0.17224963488E+03  0.20808402066E+03  0.92387661353E+02 0.  0.
         13    1    3    3    0    0 -0.12220508003E+02 -0.44358774031E+02 -0.15281194220E+02  0.48482538570E+02  0.00000000000E+00 0. -1.
        -14    1    3    3    0    0  0.52981096549E+02 -0.66413001241E+01 -0.45115305536E+02  0.69903463809E+02  0.00000000000E+00 0.  1.
        -13    1    4    4    0    0  0.11224762367E+02  0.44575918587E+02  0.17113148493E+02  0.49049644845E+02  0.00000000000E+00 0. -1.
         13    1    4    4    0    0 -0.23770802579E+02  0.25681748913E+02  0.15513648639E+03  0.15903437582E+03  0.00000000000E+00 0.  1.
          2    1    1    2  501    0 -0.28214548333E+02 -0.19257593345E+02  0.23596210431E+03  0.23842195853E+03  0.00000000000E+00 0. -1.
<scales pt_clust_5="13000.00000" pt_clust_6="13000.00000" pt_clust_7="13000.00000" pt_clust_8="13000.00000" pt_clust_9="34.16015"></scales>
<clustering>
<clus scale="   34.160">  1  9  2 -1</clus>
<clus scale="   78.135">  5  6 -1 -1</clus>
<clus scale="   92.388">  7  8 -1 -1</clus>
<clus scale="  101.703">  2  5  1 -1</clus>
<clus scale="   34.160">  1  5  2 -1</clus>
</clustering>
</event>
<event>
 9    1  0.7835476E-005  0.1029935E+03  0.7546771E-02  0.1278643E+00
         21   -1    0    0  501  502  0.00000000000E+00  0.00000000000E+00  0.55490074775E+02  0.55490074775E+02  0.00000000000E+00 0. -1.
          1   -1    0    0  502    0 -0.00000000000E+00 -0.00000000000E+00 -0.50134046114E+03  0.50134046114E+03  0.00000000000E+00 0. -1.
        -24    2    1    2    0    0 -0.17684934711E+02  0.39787822252E+02 -0.38238452925E+03  0.39344147416E+03  0.81746178280E+02 0.  0.
         23    2    1    2    0    0  0.19738718051E+02 -0.66975628902E+02 -0.70852368117E+02  0.13514095737E+03  0.91474960688E+02 0.  0.
         11    1    3    3    0    0  0.24755977246E+02 -0.81178679000E+01 -0.73089164869E+02  0.77593712438E+02  0.00000000000E+00 0. -1.
        -12    1    3    3    0    0 -0.42440911957E+02  0.47905690152E+02 -0.30929536438E+03  0.31584776172E+03  0.00000000000E+00 0.  1.
        -11    1    4    4    0    0  0.51169732564E+02 -0.46916574915E+02 -0.20308685180E+02  0.72332214304E+02  0.00000000000E+00 0. -1.
         11    1    4    4    0    0 -0.31431014513E+02 -0.20059053987E+02 -0.50543682937E+02  0.62808743062E+02  0.00000000000E+00 0.  1.
          2    1    1    2  501    0 -0.20537833400E+01  0.27187806650E+02  0.73865110082E+01  0.28248104384E+02  0.00000000000E+00 0. -1.
<scales pt_clust_5="13000.00000" pt_clust_6="13000.00000" pt_clust_7="13000.00000" pt_clust_8="13000.00000" pt_clust_9="27.26527"></scales>
<clustering>
<clus scale="   27.265">  1  9  2 -1</clus>
<clus scale="   81.746">  5  6 -1 -1</clus>
<clus scale="   91.475">  7  8 -1 -1</clus>
<clus scale="   94.459">  2  5  1 -1</clus>
<clus scale="   27.265">  1  5  2 -1</clus>
</clustering>
</event>
<event>
 9    1  0.7835476E-005  0.1003214E+03  0.7546771E-02  0.1287312E+00
         21   -1    0    0  501  502  0.00000000000E+00  0.00000000000E+00  0.48054939743E+03  0.48054939743E+03  0.00000000000E+00 0.  1.
         -4   -1    0    0    0  501 -0.00000000000E+00 -0.00000000000E+00 -0.44117261207E+02  0.44117261207E+02  0.00000000000E+00 0.  1.
        -24    2    1    2    0    0 -0.37152819757E+01  0.47214205401E+02  0.47845866999E+02  0.10345650399E+03  0.78555946419E+02 0.  0.
         23    2    1    2    0    0 -0.14949948225E+02 -0.15332613341E+02  0.13835549913E+03  0.16826694949E+03  0.93343088484E+02 0.  0.
         13    1    3    3    0    0  0.23393377689E+02  0.19247455263E+01  0.44811301438E+02  0.50586633626E+02  0.00000000000E+00 0. -1.
        -14    1    3    3    0    0 -0.27108659665E+02  0.45289459875E+02  0.30345655611E+01  0.52869870368E+02  0.00000000000E+00 0.  1.
        -13    1    4    4    0    0 -0.64007709206E+01  0.37949549335E+02  0.36716418337E+02  0.53190539935E+02  0.00000000000E+00 0.  1.
         13    1    4    4    0    0 -0.85491773039E+01 -0.53282162676E+02  0.10163908079E+03  0.11507640955E+03  0.00000000000E+00 0. -1.
         -3    1    1    2    0  502  0.18665230200E+02 -0.31881592060E+02  0.25023077010E+03  0.25294320516E+03  0.00000000000E+00 0.  1.
<scales pt_clust_5="13000.00000" pt_clust_6="13000.00000" pt_clust_7="13000.00000" pt_clust_8="13000.00000" pt_clust_9="36.94356"></scales>
<clustering>
<clus scale="   36.944">  1  9  2 -1</clus>
<clus scale="   78.556">  5  6 -1 -1</clus>
<clus scale="   86.732">  2  5  1 -1</clus>
<clus scale="   93.343">  7  8 -1 -1</clus>
<clus scale="   36.944">  1  5  2 -1</clus>
</clustering>
</event>
<event>
 9    1  0.7835476E-005  0.9560948E+02  0.7546771E-02  0.1296389E+00
          1   -1    0    0  502    0 -0.00000000000E+00  0.00000000000E+00  0.23731556028E+03  0.23731556028E+03  0.00000000000E+00 0. -1.
         21   -1    0    0  501  502  0.00000000000E+00 -0.00000000000E+00 -0.49437906114E+02  0.49437906114E+02  0.00000000000E+00 0. -1.
        -24    2    1    2    0    0 -0.39630443120E+02 -0.20835384551E+01  0.11650611606E+03  0.14573666937E+03  0.78042222972E+02 0.  0.
         23    2    1    2    0    0  0.21794048166E+02 -0.85608928641E+01  0.75672138818E+02  0.11980510050E+03  0.89881700533E+02 0.  0.
         13    1    3    3    0    0 -0.63209619961E+02  0.17369186276E+01  0.90766670491E+02  0.11062125209E+03  0.00000000000E+00 0. -1.
        -14    1    3    3    0    0  0.23579176841E+02 -0.38204570827E+01  0.25739445565E+02  0.35115417281E+02  0.00000000000E+00 0.  1.
        -11    1    4    4    0    0  0.40463543758E+02  0.26418719649E+02  0.60312125600E+02  0.77283889756E+02  0.00000000000E+00 0.  1.
         11    1    4    4    0    0 -0.18669495592E+02 -0.34979612513E+02  0.15360013217E+02  0.42521210746E+02  0.00000000000E+00 0. -1.
          2    1    1    2  501    0  0.17836394954E+02  0.10644431319E+02 -0.43006007040E+01  0.21211696526E+02  0.00000000000E+00 0. -1.
<scales pt_clust_5="13000.00000" pt_clust_6="13000.00000" pt_clust_7="13000.00000" pt_clust_8="13000.00000" pt_clust_9="20.77116"></scales>
<clustering>
<clus scale="   20.771">  2  9  1 -1</clus>
<clus scale="   78.042">  5  6 -1 -1</clus>
<clus scale="   84.576">  1  5  2 -1</clus>
<clus scale="   89.882">  7  8 -1 -1</clus>
<clus scale="   20.771">  2  5  1 -1</clus>
</clustering>
</event>
<event>
 9    1  0.7835476E-005  0.1118256E+03  0.7546771E-02  0.1261604E+00
          1   -1    0    0  502    0 -0.00000000000E+00  0.00000000000E+00  0.22564425481E+03  0.22564425481E+03  0.00000000000E+00 0. -1.
         21   -1    0    0  501  502  0.00000000000E+00 -0.00000000000E+00 -0.14628806149E+03  0.14628806149E+03  0.00000000000E+00 0.  1.
        -24    2    1    2    0    0  0.48750567357E+02 -0.68966894929E+02  0.79352842658E+02  0.14059802889E+03  0.79610813807E+02 0.  0.
         23    2    1    2    0    0  0.18237186480E+01  0.35140543751E+01 -0.76169586618E+02  0.11888808198E+03  0.91197015214E+02 0.  0.
         11    1    3    3    0    0 -0.85847631809E+01 -0.49480246643E+02  0.15408423965E+02  0.52530110373E+02  0.00000000000E+00 0. -1.
        -12    1    3    3    0    0  0.57335330538E+02 -0.19486648287E+02  0.63944418692E+02  0.88067918513E+02  0.00000000000E+00 0.  1.
        -11    1    4    4    0    0 -0.21382435888E+01 -0.39003075408E+02 -0.63134787070E+02  0.74241587506E+02  0.00000000000E+00 0.  1.
         11    1    4    4    0    0  0.39619622368E+01  0.42517129783E+02 -0.13034799547E+02  0.44646494476E+02  0.00000000000E+00 0. -1.
          2    1    1    2  501    0 -0.50574286005E+02  0.65452840554E+02  0.76172937287E+02  0.11244620543E+03  0.00000000000E+00 0. -1.
<scales pt_clust_5="13000.00000" pt_clust_6="13000.00000" pt_clust_7="13000.00000" pt_clust_8="13000.00000" pt_clust_9="82.71541"></scales>
<clustering>
<clus scale="   79.611">  5  6 -1 -1</clus>
<clus scale="   82.715">  2  9  1 -1</clus>
<clus scale="   91.197">  7  8 -1 -1</clus>
<clus scale="  102.596">  1  5  2 -1</clus>
<clus scale="   82.715">  2  5  1 -1</clus>
</clustering>
</event>
<event>
 9    1  0.7835476E-005  0.2237045E+03  0.7546771E-02  0.1156124E+00
         21   -1    0    0  501  502  0.00000000000E+00  0.00000000000E+00  0.40483143054E+03  0.40483143054E+03  0.00000000000E+00 0.  1.
          1   -1    0    0  502    0 -0.00000000000E+00 -0.00000000000E+00 -0.29118476438E+03  0.29118476438E+03  0.00000000000E+00 0. -1.
         23    2    1    2    0    0  0.75251248015E+01  0.82567444587E+02  0.21231908387E+03  0.24535018510E+03  0.90792673415E+02 0.  0.
        -24    2    1    2    0    0 -0.15231009160E+03  0.10388674133E+03 -0.65567668391E+02  0.21228863153E+03  0.82319650816E+02 0.  0.
         11    1    4    4    0    0 -0.10625413441E+03  0.11258542275E+03 -0.45996600133E+02  0.16149645729E+03  0.00000000000E+00 0. -1.
        -12    1    4    4    0    0 -0.46055957184E+02 -0.86986814140E+01 -0.19571068258E+02  0.50792174233E+02  0.00000000000E+00 0.  1.
        -13    1    3    3    0    0  0.31893076505E+02  0.89950078356E+02  0.18392845715E+03  0.20721453200E+03  0.00000000000E+00 0.  1.
         13    1    3    3    0    0 -0.24367951703E+02 -0.73826337688E+01  0.28390626720E+02  0.38135653097E+02  0.00000000000E+00 0. -1.
          2    1    1    2  501    0  0.14478496679E+03 -0.18645418592E+03 -0.33104749314E+02  0.23837737830E+03  0.00000000000E+00 0. -1.
<scales pt_clust_5="13000.00000" pt_clust_6="13000.00000" pt_clust_7="13000.00000" pt_clust_8="13000.00000" pt_clust_9="208.00774"></scales>
<clustering>
<clus scale="   82.320">  5  6 -1 -1</clus>
<clus scale="   90.793">  7  8 -1 -1</clus>
<clus scale="  122.953">  2  7  1 -1</clus>
<clus scale="  208.008">  1  9  2 -1</clus>
<clus scale="  208.008">  1  5  2 -1</clus>
</clustering>
</event>
<event>
 9    1  0.7835476E-005  0.1518743E+03  0.7546771E-02  0.1198372E+00
         21   -1    0    0  501  502  0.00000000000E+00  0.00000000000E+00  0.16578700544E+03  0.16578700544E+03  0.00000000000E+00 0.  1.
          1   -1    0    0  502    0 -0.00000000000E+00 -0.00000000000E+00 -0.23159846391E+03  0.23159846391E+03  0.00000000000E+00 0. -1.
        -24    2    1    2    0    0 -0.37010909770E+02 -0.14441453720E+03 -0.70666581225E+02  0.18318859214E+03  0.79617388736E+02 0.  0.
         23    2    1    2    0    0  0.57343206341E+02  0.83491519967E+02  0.48011694826E+02  0.13681790057E+03  0.78453412021E+02 0.  0.
         13    1    3    3    0    0  0.21565746278E+02 -0.75451067877E+02 -0.30511500469E+02  0.84195586091E+02  0.00000000000E+00 0. -1.
        -14    1    3    3    0    0 -0.58576656049E+02 -0.68963469326E+02 -0.40155080756E+02  0.98993006045E+02  0.00000000000E+00 0.  1.
        -13    1    4    4    0    0  0.40260618795E+02  0.69814159080E+02 -0.36900841202E+01  0.80675590823E+02  0.00000000000E+00 0. -1.
         13    1    4    4    0    0  0.17082587547E+02  0.13677360887E+02  0.51701778946E+02  0.56142309752E+02  0.00000000000E+00 0.  1.
          2    1    1    2  501    0 -0.20332296571E+02  0.60923017236E+02 -0.43156572067E+02  0.77378976638E+02  0.00000000000E+00 0. -1.
<scales pt_clust_5="13000.00000" pt_clust_6="13000.00000" pt_clust_7="13000.00000" pt_clust_8="13000.00000" pt_clust_9="64.22632"></scales>
<clustering>
<clus scale="   64.226">  1  9  2 -1</clus>
<clus scale="   78.453">  7  8 -1 -1</clus>
<clus scale="   79.617">  5  6 -1 -1</clus>
<clus scale="  151.267">  1  7  2 -1</clus>
<clus scale="   64.226">  1  5  2 -1</clus>
</clustering>
</event>
<event>
 9    1  0.7835476E-005  0.1642152E+03  0.7546771E-02  0.1190417E+00
          1   -1    0    0  502    0 -0.00000000000E+00  0.00000000000E+00  0.15484773994E+04  0.15484773994E+04  0.00000000000E+00 0. -1.
         21   -1    0    0  501  502  0.00000000000E+00 -0.00000000000E+00 -0.40405696183E+02  0.40405696183E+02  0.00000000000E+00 0. -1.
        -24    2    1    2    0    0 -0.11835021865E+03  0.58610374270E+01  0.71048115518E+03  0.72462474254E+03  0.79097532299E+02 0.  0.
         23    2    1    2    0    0  0.42582769563E+01 -0.13054922354E+03  0.32355581928E+03  0.36099595729E+03  0.92566086106E+02 0.  0.
         13    1    3    3    0    0 -0.12017381725E+03 -0.15351995156E+02  0.60928519713E+03  0.62121323355E+03  0.00000000000E+00 0. -1.
        -14    1    3    3    0    0  0.18235986006E+01  0.21213032583E+02  0.10119595806E+03  0.10341150898E+03  0.00000000000E+00 0.  1.
        -13    1    4    4    0    0 -0.16514761454E+02 -0.13568701833E+03  0.25706070503E+03  0.29114242281E+03  0.00000000000E+00 0. -1.
         13    1    4    4    0    0  0.20773038411E+02  0.51377947819E+01  0.66495114256E+02  0.69853534484E+02  0.00000000000E+00 0.  1.
          2    1    1    2  501    0  0.11409194169E+03  0.12468818612E+03  0.47403472870E+03  0.50326239571E+03  0.00000000000E+00 0. -1.
<scales pt_clust_5="13000.00000" pt_clust_6="13000.00000" pt_clust_7="13000.00000" pt_clust_8="13000.00000" pt_clust_9="135.63991"></scales>
<clustering>
<clus scale="   79.098">  5  6 -1 -1</clus>
<clus scale="   92.566">  7  8 -1 -1</clus>
<clus scale="  142.469">  1  5  2 -1</clus>
<clus scale="  135.640">  2  9  1 -1</clus>
<clus scale="  135.640">  2  5  1 -1</clus>
</clustering>
</event>
<event>
 9    1  0.7835476E-005  0.1591735E+03  0.7546771E-02  0.1193225E+00
          1   -1    0    0  502    0 -0.00000000000E+00  0.00000000000E+00  0.22197595173E+03  0.22197595173E+03  0.00000000000E+00 0. -1.
         21   -1    0    0  501  502  0.00000000000E+00 -0.00000000000E+00 -0.38049060568E+03  0.38049060568E+03  0.00000000000E+00 0.  1.
        -24    2    1    2    0    0 -0.25354827801E+02  0.10980834271E+03 -0.50428849614E+02  0.14714990482E+03  0.80058017674E+02 0.  0.
         23    2    1    2    0    0  0.69055284723E+02 -0.13989134065E+03 -0.24563674072E+03  0.30788878277E+03  0.10059758758E+03 0.  0.
         13    1    3    3    0    0 -0.27579974457E+02  0.12021877190E+03 -0.55624092566E+02  0.13530427850E+03  0.00000000000E+00 0. -1.
        -14    1    3    3    0    0  0.22251466560E+01 -0.10410429188E+02  0.51952429516E+01  0.11845626317E+02  0.00000000000E+00 0.  1.
        -13    1    4    4    0    0  0.57061489810E+02 -0.98664970825E+02 -0.86561894402E+02  0.14312145768E+03  0.00000000000E+00 0.  1.
         13    1    4    4    0    0  0.11993794913E+02 -0.41226369826E+02 -0.15907484632E+03  0.16476732509E+03  0.00000000000E+00 0. -1.
          2    1    1    2  501    0 -0.43700456922E+02  0.30082997941E+02  0.13755093638E+03  0.14742786982E+03  0.00000000000E+00 0. -1.
<scales pt_clust_5="13000.00000" pt_clust_6="13000.00000" pt_clust_7="13000.00000" pt_clust_8="13000.00000" pt_clust_9="53.05393"></scales>
<clustering>
<clus scale="   53.054">  2  9  1 -1</clus>
<clus scale="   80.058">  5  6 -1 -1</clus>
<clus scale="  100.598">  7  8 -1 -1</clus>
<clus scale="  147.057">  1  5  2 -1</clus>
<clus scale="   53.054">  2  5  1 -1</clus>
</clustering>
</event>
<event>
 9    1  0.7835476E-005  0.1021037E+03  0.7546771E-02  0.1280843E+00
          1   -1    0    0  502    0 -0.00000000000E+00  0.00000000000E+00  0.36993302877E+02  0.36993302877E+02  0.00000000000E+00 0. -1.
         21   -1    0    0  501  502  0.00000000000E+00 -0.00000000000E+00 -0.71666677375E+03  0.71666677375E+03  0.00000000000E+00 0.  1.
         23    2    1    2    0    0  0.55170067134E+02  0.14492867987E+02 -0.10424448737E+03  0.14942967086E+03  0.90600959460E+02 0.  0.
        -24    2    1    2    0    0  0.58066934228E+01 -0.43452814236E+02 -0.47171210798E+03  0.48048052059E+03  0.80170774572E+02 0.  0.
         13    1    4    4    0    0 -0.29895459600E+02  0.58030416954E+01 -0.14765379584E+03  0.15076159067E+03  0.00000000000E+00 0. -1.
        -14    1    4    4    0    0  0.35702153023E+02 -0.49255855931E+02 -0.32405831214E+03  0.32971892991E+03  0.00000000000E+00 0.  1.
        -13    1    3    3    0    0  0.27702450191E+02 -0.25557910340E+02 -0.91887648669E+02  0.99317533726E+02  0.00000000000E+00 0.  1.
         13    1    3    3    0    0  0.27467616943E+02  0.40050778326E+02 -0.12356838702E+02  0.50112137131E+02  0.00000000000E+00 0. -1.
          2    1    1    2  501    0 -0.60976760557E+02  0.28959946249E+02 -0.10371687552E+03  0.12374988518E+03  0.00000000000E+00 0. -1.
<scales pt_clust_5="13000.00000" pt_clust_6="13000.00000" pt_clust_7="13000.00000" pt_clust_8="13000.00000" pt_clust_9="67.50443"></scales>
<clustering>
<clus scale="   67.504">  2  9  1 -1</clus>
<clus scale="   80.171">  5  6 -1 -1</clus>
<clus scale="   90.601">  7  8 -1 -1</clus>
<clus scale="   92.973">  2  5  1 -1</clus>
<clus scale="   67.504">  2  5  1 -1</clus>
</clustering>
</event>
<event>
 9    1  0.7835476E-005  0.1749354E+03  0.7546771E-02  0.1202211E+00
          1   -1    0    0  502    0 -0.00000000000E+00  0.00000000000E+00  0.34320424511E+03  0.34320424511E+03  0.00000000000E+00 0. -1.
         21   -1    0    0  501  502  0.00000000000E+00 -0.00000000000E+00 -0.13741934096E+03  0.13741934096E+03  0.00000000000E+00 0. -1.
        -24    2    1    2    0    0 -0.10663248530E+02  0.38109927254E+02  0.10491676235E+03  0.13892846714E+03  0.82021463862E+02 0.  0.
         23    2    1    2    0    0  0.99954003243E+02  0.95282927987E+02  0.56523915773E+02  0.17516313076E+03  0.91747099098E+02 0.  0.
         11    1    3    3    0    0  0.18363508133E+02  0.24611971975E+02  0.10230065235E+03  0.10681007006E+03  0.00000000000E+00 0. -1.
        -12    1    3    3    0    0 -0.29026756663E+02  0.13497955279E+02  0.26161100016E+01  0.32118397074E+02  0.00000000000E+00 0.  1.
        -13    1    4    4    0    0 -0.10526142031E+02  0.37443796543E+02  0.16801987350E+01  0.38931486401E+02  0.00000000000E+00 0.  1.
         13    1    4    4    0    0  0.11048014527E+03  0.57839131445E+02  0.54843717038E+02  0.13623164436E+03  0.00000000000E+00 0. -1.
          2    1    1    2  501    0 -0.89290754712E+02 -0.13339285524E+03  0.44344226026E+02  0.16653198818E+03  0.00000000000E+00 0. -1.
<scales pt_clust_5="13000.00000" pt_clust_6="13000.00000" pt_clust_7="13000.00000" pt_clust_8="13000.00000" pt_clust_9="148.94593"></scales>
<clustering>
<clus scale="   82.021">  5  6 -1 -1</clus>
<clus scale="   91.069">  1  5  2 -1</clus>
<clus scale="   91.747">  7  8 -1 -1</clus>
<clus scale="  148.946">  2  9  1 -1</clus>
<clus scale="  148.946">  2  5  1 -1</clus>
</clustering>
</event>
<event>
 9    1  0.7835476E-005  0.1083684E+03  0.7546771E-02  0.1267081E+00
          1   -1    0    0  502    0 -0.00000000000E+00  0.00000000000E+00  0.11252142108E+03  0.11252142108E+03  0.00000000000E+00 0. -1.
         21   -1    0    0  501  502  0.00000000000E+00 -0.00000000000E+00 -0.34220181454E+03  0.34220181454E+03  0.00000000000E+00 0.  1.
         23    2    1    2    0    0 -0.43387635318E+02 -0.15870235389E+02 -0.13877689316E+03  0.17269896224E+03  0.91823494898E+02 0.  0.
        -24    2    1    2    0    0  0.30186586848E+01  0.90493811662E+02 -0.13805930649E+03  0.18495727349E+03  0.83370130494E+02 0.  0.
         11    1    4    4    0    0 -0.39146585970E+02  0.44847604890E+02 -0.81537703850E+02  0.10095622817E+03  0.00000000000E+00 0. -1.
        -12    1    4    4    0    0  0.42165244654E+02  0.45646206772E+02 -0.56521602637E+02  0.84001045316E+02  0.00000000000E+00 0.  1.
        -13    1    3    3    0    0 -0.71479174369E+02 -0.14558870871E+02 -0.11330307461E+03  0.13475466524E+03  0.00000000000E+00 0.  1.
         13    1    3    3    0    0  0.28091539051E+02 -0.13113645175E+01 -0.25473818550E+02  0.37944296998E+02  0.00000000000E+00 0. -1.
          2    1    1    2  501    0  0.40368976633E+02 -0.74623576273E+02  0.47155806184E+02  0.97066999887E+02  0.00000000000E+00 0. -1.
<scales pt_clust_5="13000.00000" pt_clust_6="13000.00000" pt_clust_7="13000.00000" pt_clust_8="13000.00000" pt_clust_9="84.84303"></scales>
<clustering>
<clus scale="   83.370">  5  6 -1 -1</clus>
<clus scale="   84.843">  2  9  1 -1</clus>
<clus scale="   91.823">  7  8 -1 -1</clus>
<clus scale="  101.305">  2  5  1 -1</clus>
<clus scale="   84.843">  2  5  1 -1</clus>
</clustering>
</event>
<event>
 9    1  0.7835476E-005  0.1472079E+03  0.7546771E-02  0.1205597E+00
          1   -1    0    0  502    0 -0.00000000000E+00  0.00000000000E+00  0.92855322670E+03  0.92855322670E+03  0.00000000000E+00 0. -1.
         21   -1    0    0  501  502  0.00000000000E+00 -0.00000000000E+00 -0.42336992835E+02  0.42336992835E+02  0.00000000000E+00 0. -1.
        -24    2    1    2    0    0  0.20496559862E+02  0.11993070449E+03  0.73746223008E+03  0.75189337073E+03  0.81790080777E+02 0.  0.
         23    2    1    2    0    0 -0.25277082908E+02 -0.90512297484E+02  0.11404821398E+03  0.17324984981E+03  0.90427365487E+02 0.  0.
         11    1    3    3    0    0 -0.15986646798E+02  0.95382652549E+02  0.39735671435E+03  0.40895694361E+03  0.00000000000E+00 0. -1.
        -12    1    3    3    0    0  0.36483206660E+02  0.24548051937E+02  0.34010551573E+03  0.34293642713E+03  0.00000000000E+00 0.  1.
        -13    1    4    4    0    0 -0.55153125301E+02 -0.33499600564E+02  0.43905233043E+02  0.78049727462E+02  0.00000000000E+00 0. -1.
         13    1    4    4    0    0  0.29876042393E+02 -0.57012696921E+02  0.70142980939E+02  0.95200122343E+02  0.00000000000E+00 0.  1.
          2    1    1    2  501    0  0.47805230463E+01 -0.29418407002E+02  0.34705789798E+02  0.45746998991E+02  0.00000000000E+00 0. -1.
<scales pt_clust_5="13000.00000" pt_clust_6="13000.00000" pt_clust_7="13000.00000" pt_clust_8="13000.00000" pt_clust_9="29.80430"></scales>
<clustering>
<clus scale="   29.804">  2  9  1 -1</clus>
<clus scale="   81.790">  5  6 -1 -1</clus>
<clus scale="   90.427">  7  8 -1 -1</clus>
<clus scale="  142.066">  1  5  2 -1</clus>
<clus scale="   29.804">  2  5  1 -1</clus>
</clustering>
</event>
<event>
 9    1  0.7835476E-005  0.1381373E+03  0.7546771E-02  0.1217909E+00
         -2   -1    0    0    0  501 -0.00000000000E+00  0.00000000000E+00  0.30315649712E+02  0.30315649712E+02  0.00000000000E+00 0.  1.
         21   -1    0    0  501  502  0.00000000000E+00 -0.00000000000E+00 -0.10177889813E+04  0.10177889813E+04  0.00000000000E+00 0. -1.
        -24    2    1    2    0    0  0.16480569740E+02 -0.96941655256E+02 -0.23854953838E+03  0.27008285712E+03  0.79809609348E+02 0.  0.
         23    2    1    2    0    0 -0.33716033154E+01  0.12664204298E+03 -0.71284835182E+03  0.72948935687E+03  0.89176086105E+02 0.  0.
         11    1    3    3    0    0  0.39168233874E+02 -0.15913536860E+02 -0.72359316015E+02  0.83804903283E+02  0.00000000000E+00 0. -1.
        -12    1    3    3    0    0 -0.22687664133E+02 -0.81028118396E+02 -0.16619022237E+03  0.18627795383E+03  0.00000000000E+00 0.  1.
        -11    1    4    4    0    0  0.29324986140E+02  0.11598509231E+03 -0.58420433853E+03  0.59632810231E+03  0.00000000000E+00 0. -1.
         11    1    4    4    0    0 -0.32696589456E+02  0.10656950670E+02 -0.12864401329E+03  0.13316125456E+03  0.00000000000E+00 0.  1.
         -1    1    1    2    0  502 -0.13108966425E+02 -0.29700387722E+02 -0.36075441406E+02  0.48532417045E+02  0.00000000000E+00 0.  1.
<scales pt_clust_5="13000.00000" pt_clust_6="13000.00000" pt_clust_7="13000.00000" pt_clust_8="13000.00000" pt_clust_9="32.46474"></scales>
<clustering>
<clus scale="   32.465">  2  9  1 -1</clus>
<clus scale="   79.810">  5  6 -1 -1</clus>
<clus scale="   89.176">  7  8 -1 -1</clus>
<clus scale="  132.284">  1  5  2 -1</clus>
<clus scale="   32.465">  2  5  1 -1</clus>
</clustering>
</event>
<event>
 9    1  0.7835476E-005  0.2169431E+03  0.7546771E-02  0.1150727E+00
         21   -1    0    0  501  502  0.00000000000E+00  0.00000000000E+00  0.80047210689E+02  0.80047210689E+02  0.00000000000E+00 0. -1.
          1   -1    0    0  502    0 -0.00000000000E+00 -0.00000000000E+00 -0.15839290627E+04  0.15839290627E+04  0.00000000000E+00 0. -1.
         23    2    1    2    0    0 -0.47504583926E+01  0.12293415518E+03 -0.12560365961E+03  0.19801523355E+03  0.91095444692E+02 0.  0.
        -24    2    1    2    0    0  0.14075761223E+03  0.55504690189E+02 -0.10769228895E+04  0.10902571857E+04  0.77487708635E+02 0.  0.
         11    1    4    4    0    0  0.99436651716E+02  0.73097399991E+02 -0.71707302597E+03  0.72761569676E+03  0.00000000000E+00 0. -1.
        -12    1    4    4    0    0  0.41320960515E+02 -0.17592709802E+02 -0.35984986352E+03  0.36264148893E+03  0.00000000000E+00 0.  1.
        -11    1    3    3    0    0  0.25069499822E+02  0.32174316749E+02 -0.84865965235E+02  0.94158900455E+02  0.00000000000E+00 0.  1.
         11    1    3    3    0    0 -0.29819958215E+02  0.90759838431E+02 -0.40737694376E+02  0.10385633309E+03  0.00000000000E+00 0. -1.
          2    1    1    2  501    0 -0.13600715384E+03 -0.17843884537E+03 -0.30135530286E+03  0.37570385411E+03  0.00000000000E+00 0. -1.
<scales pt_clust_5="13000.00000" pt_clust_6="13000.00000" pt_clust_7="13000.00000" pt_clust_8="13000.00000" pt_clust_9="202.63261"></scales>
<clustering>
<clus scale="   77.488">  5  6 -1 -1</clus>
<clus scale="   91.095">  7  8 -1 -1</clus>
<clus scale="  153.081">  2  7  1 -1</clus>
<clus scale="  202.633">  1  9  2 -1</clus>
<clus scale="  202.633">  1  5  2 -1</clus>
</clustering>
</event>
<event>
 9    1  0.7835476E-005  0.1040890E+03  0.7546771E-02  0.1276697E+00
          1   -1    0    0  502    0 -0.00000000000E+00  0.00000000000E+00  0.95015958484E+02  0.95015958484E+02  0.00000000000E+00 0. -1.
         21   -1    0    0  501  502  0.00000000000E+00 -0.00000000000E+00 -0.19324791291E+03  0.19324791291E+03  0.00000000000E+00 0. -1.
        -24    2    1    2    0    0  0.37625892338E+02 -0.31294416099E+02  0.51025021690E+01  0.99169740312E+02  0.86101995400E+02 0.  0.
         23    2    1    2    0    0 -0.34695309620E+02 -0.19906717406E+02 -0.85880897342E+02  0.13492060325E+03  0.96062473138E+02 0.  0.
         11    1    3    3    0    0  0.53384958938E+02  0.43060475061E+01  0.20438422666E+02  0.57325605161E+02  0.00000000000E+00 0. -1.
        -12    1    3    3    0    0 -0.15759066601E+02 -0.35600463605E+02 -0.15335920497E+02  0.41844135151E+02  0.00000000000E+00 0.  1.
        -11    1    4    4    0    0 -0.64181793417E+02 -0.12413953723E+02 -0.81031465757E+02  0.10411295451E+03  0.00000000000E+00 0. -1.
         11    1    4    4    0    0  0.29486483798E+02 -0.74927636829E+01 -0.48494315842E+01  0.30807648743E+02  0.00000000000E+00 0.  1.
          2    1    1    2  501    0 -0.29305827181E+01  0.51201133505E+02 -0.17453559253E+02  0.54173527833E+02  0.00000000000E+00 0. -1.
<scales pt_clust_5="13000.00000" pt_clust_6="13000.00000" pt_clust_7="13000.00000" pt_clust_8="13000.00000" pt_clust_9="51.28496"></scales>
<clustering>
<clus scale="   51.285">  2  9  1 -1</clus>
<clus scale="   86.102">  5  6 -1 -1</clus>
<clus scale="   94.974">  1  5  2 -1</clus>
<clus scale="   96.062">  7  8 -1 -1</clus>
<clus scale="   51.285">  2  5  1 -1</clus>
</clustering>
</event>
<event>
 9    1  0.7835476E-005  0.3385478E+03  0.7546771E-02  0.1067416E+00
         21   -1    0    0  501  502  0.00000000000E+00  0.00000000000E+00  0.62352323674E+02  0.62352323674E+02  0.00000000000E+00 0.  1.
          1   -1    0    0  502    0 -0.00000000000E+00 -0.00000000000E+00 -0.16842439436E+04  0.16842439436E+04  0.00000000000E+00 0. -1.
        -24    2    1    2    0    0  0.68737440677E+01  0.78967583066E+02 -0.47841937109E+03  0.49191354353E+03  0.82527038851E+02 0.  0.
         23    2    1    2    0    0  0.33760273676E+02  0.19599861813E+03 -0.67292772825E+03  0.70817592502E+03  0.95531141179E+02 0.  0.
         11    1    3    3    0    0  0.35815481737E+02  0.13358778136E+02 -0.10669903282E+03  0.11333970747E+03  0.00000000000E+00 0. -1.
        -12    1    3    3    0    0 -0.28941737669E+02  0.65608804930E+02 -0.37172033827E+03  0.37857383606E+03  0.00000000000E+00 0.  1.
        -11    1    4    4    0    0 -0.30562947083E+02  0.94749838061E+02 -0.34112880474E+03  0.35535965862E+03  0.00000000000E+00 0. -1.
         11    1    4    4    0    0  0.64323220759E+02  0.10124878007E+03 -0.33179892351E+03  0.35281626640E+03  0.00000000000E+00 0.  1.
          2    1    1    2  501    0 -0.40634017743E+02 -0.27496620120E+03 -0.47054452057E+03  0.54650679871E+03  0.00000000000E+00 0. -1.
<scales pt_clust_5="13000.00000" pt_clust_6="13000.00000" pt_clust_7="13000.00000" pt_clust_8="13000.00000" pt_clust_9="277.95240"></scales>
<clustering>
<clus scale="   82.527">  5  6 -1 -1</clus>
<clus scale="   95.531">  7  8 -1 -1</clus>
<clus scale="  103.036">  5  7 -1 -1</clus>
<clus scale="  277.952">  1  9  2 -1</clus>
<clus scale="  277.952">  1  5  2 -1</clus>
</clustering>
</event>
<event>
 9    1  0.7835476E-005  0.1877080E+03  0.7546771E-02  0.1162398E+00
         21   -1    0    0  501  502  0.00000000000E+00  0.00000000000E+00  0.47620238144E+02  0.47620238144E+02  0.00000000000E+00 0. -1.
          1   -1    0    0  502    0 -0.00000000000E+00 -0.00000000000E+00 -0.11216638058E+04  0.11216638058E+04  0.00000000000E+00 0. -1.
         23    2    1    2    0    0  0.12845929424E+03 -0.13037928346E+02 -0.36306893163E+03  0.39763580171E+03  0.98098949196E+02 0.  0.
        -24    2    1    2    0    0 -0.19984118135E+03 -0.27629748859E+02 -0.51983432044E+03  0.56360052170E+03  0.81962958529E+02 0.  0.
         11    1    4    4    0    0 -0.16473866043E+03 -0.23704434140E+02 -0.48956762023E+03  0.51708527461E+03  0.00000000000E+00 0. -1.
        -12    1    4    4    0    0 -0.35102520921E+02 -0.39253147191E+01 -0.30266700207E+02  0.46515247093E+02  0.00000000000E+00 0.  1.
        -13    1    3    3    0    0  0.10087146757E+03  0.16786627031E+02 -0.15537809385E+03  0.18600859083E+03  0.00000000000E+00 0. -1.
         13    1    3    3    0    0  0.27587826671E+02 -0.29824555377E+02 -0.20769083778E+03  0.21162721087E+03  0.00000000000E+00 0.  1.
          2    1    1    2  501    0  0.71381887109E+02  0.40667677205E+02 -0.19114031557E+03  0.20804772052E+03  0.00000000000E+00 0. -1.
<scales pt_clust_5="13000.00000" pt_clust_6="13000.00000" pt_clust_7="13000.00000" pt_clust_8="13000.00000" pt_clust_9="82.15376"></scales>
<clustering>
<clus scale="   81.963">  5  6 -1 -1</clus>
<clus scale="   82.154">  1  9  2 -1</clus>
<clus scale="   98.099">  7  8 -1 -1</clus>
<clus scale="  179.802">  1  5  2 -1</clus>
<clus scale="   82.154">  1  5  2 -1</clus>
</clustering>
</event>
<event>
 9    1  0.7835476E-005  0.2183863E+03  0.7546771E-02  0.1163496E+00
          3   -1    0    0  502    0 -0.00000000000E+00  0.00000000000E+00  0.19684507500E+03  0.19684507500E+03  0.00000000000E+00 0. -1.
         21   -1    0    0  501  502  0.00000000000E+00 -0.00000000000E+00 -0.37441183579E+03  0.37441183579E+03  0.00000000000E+00 0. -1.
        -24    2    1    2    0    0 -0.15802471388E+02 -0.75639688981E+02 -0.89352013742E+01  0.11166492259E+03  0.80113272699E+02 0.  0.
         23    2    1    2    0    0 -0.15498433771E+03 -0.79903659798E+02 -0.77595039159E+02  0.21129878344E+03  0.90672189771E+02 0.  0.
         13    1    3    3    0    0 -0.22575363172E+02 -0.80845484523E+02  0.15874093022E+02  0.85426144823E+02  0.00000000000E+00 0. -1.
        -14    1    3    3    0    0  0.67728917841E+01  0.52057955411E+01 -0.24809294396E+02  0.26238777768E+02  0.00000000000E+00 0.  1.
        -13    1    4    4    0    0 -0.41265007303E+02 -0.59600719199E+02 -0.60706419781E+02  0.94553244045E+02  0.00000000000E+00 0. -1.
         13    1    4    4    0    0 -0.11371933040E+03 -0.20302940599E+02 -0.16888619378E+02  0.11674553940E+03  0.00000000000E+00 0.  1.
          4    1    1    2  501    0  0.17078680909E+03  0.15554334878E+03 -0.91036520248E+02  0.24829320476E+03  0.00000000000E+00 0. -1.
<scales pt_clust_5="13000.00000" pt_clust_6="13000.00000" pt_clust_7="13000.00000" pt_clust_8="13000.00000" pt_clust_9="198.67354"></scales>
<clustering>
<clus scale="   80.113">  5  6 -1 -1</clus>
<clus scale="   90.672">  7  8 -1 -1</clus>
<clus scale="  111.307">  1  5  2 -1</clus>
<clus scale="  198.674">  2  9  1 -1</clus>
<clus scale="  198.674">  2  5  1 -1</clus>
</clustering>
</event>
<event>
 9    1  0.7835476E-005  0.1259332E+03  0.7546771E-02  0.1234592E+00
         -2   -1    0    0    0  501 -0.00000000000E+00  0.00000000000E+00  0.20590683368E+03  0.20590683368E+03  0.00000000000E+00 0.  1.
         21   -1    0    0  501  502  0.00000000000E+00 -0.00000000000E+00 -0.12635684871E+03  0.12635684871E+03  0.00000000000E+00 0. -1.
         23    2    1    2    0    0 -0.17683459445E+02  0.10519628335E+03  0.10993164719E+03  0.17589953529E+03  0.86468009654E+02 0.  0.
        -24    2    1    2    0    0  0.19558787820E+01 -0.66982859160E+02 -0.25610175678E+01  0.10654837800E+03  0.82797760594E+02 0.  0.
         11    1    4    4    0    0  0.40122786733E+02 -0.46516232025E+02 -0.11051483316E+02  0.62415808419E+02  0.00000000000E+00 0. -1.
        -12    1    4    4    0    0 -0.38166907951E+02 -0.20466627134E+02  0.84904657484E+01  0.44132569577E+02  0.00000000000E+00 0.  1.
        -13    1    3    3    0    0 -0.41950481918E+02  0.62420765416E+02  0.10098412546E+03  0.12591262241E+03  0.00000000000E+00 0.  1.
         13    1    3    3    0    0  0.24267022472E+02  0.42775517934E+02  0.89475217341E+01  0.49986912881E+02  0.00000000000E+00 0. -1.
         -1    1    1    2    0  502  0.15727580663E+02 -0.38213424190E+02 -0.27820644660E+02  0.49815769101E+02  0.00000000000E+00 0.  1.
<scales pt_clust_5="13000.00000" pt_clust_6="13000.00000" pt_clust_7="13000.00000" pt_clust_8="13000.00000" pt_clust_9="41.32339"></scales>
<clustering>
<clus scale="   41.323">  2  9  1 -1</clus>
<clus scale="   82.798">  5  6 -1 -1</clus>
<clus scale="   86.468">  7  8 -1 -1</clus>
<clus scale="  123.442">  2  5  1 -1</clus>
<clus scale="   41.323">  2  5  1 -1</clus>
</clustering>
</event>
<event>
 9    1  0.7835476E-005  0.1958755E+03  0.7546771E-02  0.1154596E+00
          1   -1    0    0  502    0 -0.00000000000E+00  0.00000000000E+00  0.12371042625E+04  0.12371042625E+04  0.00000000000E+00 0. -1.
         21   -1    0    0  501  502  0.00000000000E+00 -0.00000000000E+00 -0.49019957443E+03  0.49019957443E+03  0.00000000000E+00 0. -1.
        -24    2    1    2    0    0  0.16615609829E+03 -0.41692442109E+02  0.10870222296E+04  0.11032742141E+04  0.79060452693E+02 0.  0.
         23    2    1    2    0    0 -0.19141338912E+03 -0.37840396340E+01  0.59658243011E+02  0.22088359581E+03  0.92612377421E+02 0.  0.
         13    1    3    3    0    0  0.11823786340E+03 -0.62949807787E+02  0.69810608729E+03  0.71084103691E+03  0.00000000000E+00 0. -1.
        -14    1    3    3    0    0  0.47918234884E+02  0.21257365678E+02  0.38891614232E+03  0.39243317723E+03  0.00000000000E+00 0.  1.
        -11    1    4    4    0    0 -0.49931176733E+02 -0.38166582038E-01  0.61655086716E+02  0.79337718549E+02  0.00000000000E+00 0.  1.
         11    1    4    4    0    0 -0.14148221238E+03 -0.37458730519E+01 -0.19968437049E+01  0.14154587726E+03  0.00000000000E+00 0. -1.
          2    1    1    2  501    0  0.25257290831E+02  0.45476481743E+02 -0.39977578457E+03  0.40314602697E+03  0.00000000000E+00 0. -1.
<scales pt_clust_5="13000.00000" pt_clust_6="13000.00000" pt_clust_7="13000.00000" pt_clust_8="13000.00000" pt_clust_9="52.01962"></scales>
<clustering>
<clus scale="   52.020">  2  9  1 -1</clus>
<clus scale="   79.060">  5  6 -1 -1</clus>
<clus scale="   92.612">  7  8 -1 -1</clus>
<clus scale="  189.844">  1  5  2 -1</clus>
<clus scale="   52.020">  2  5  1 -1</clus>
</clustering>
</event>
<event>
 9    1  0.7835476E-005  0.9888814E+02  0.7546771E-02  0.1291773E+00
          1   -1    0    0  502    0 -0.00000000000E+00  0.00000000000E+00  0.15718154198E+03  0.15718154198E+03  0.00000000000E+00 0. -1.
         21   -1    0    0  501  502  0.00000000000E+00 -0.00000000000E+00 -0.12347287095E+03  0.12347287095E+03  0.00000000000E+00 0.  1.
         23    2    1    2    0    0  0.18164770719E+02  0.42273671851E+01  0.27313733302E+02  0.10026303925E+03  0.94650977196E+02 0.  0.
        -24    2    1    2    0    0 -0.50247083843E+02 -0.10666680291E+02 -0.56630596763E+02  0.10937758934E+03  0.78216910299E+02 0.  0.
         11    1    4    4    0    0 -0.55203413411E+02 -0.37196276911E+02 -0.39223424253E+02  0.77262260376E+02  0.00000000000E+00 0. -1.
        -12    1    4    4    0    0  0.49563295679E+01  0.26529596620E+02 -0.17407172510E+02  0.32115328963E+02  0.00000000000E+00 0.  1.
        -11    1    3    3    0    0 -0.22620116797E+02  0.27714066502E+02 -0.13232113088E+02  0.38142207366E+02  0.00000000000E+00 0. -1.
         11    1    3    3    0    0  0.40784887516E+02 -0.23486699317E+02  0.40545846390E+02  0.62120831884E+02  0.00000000000E+00 0.  1.
          2    1    1    2  501    0  0.32082313124E+02  0.64393131062E+01  0.63025534496E+02  0.71013784346E+02  0.00000000000E+00 0. -1.
<scales pt_clust_5="13000.00000" pt_clust_6="13000.00000" pt_clust_7="13000.00000" pt_clust_8="13000.00000" pt_clust_9="32.72217"></scales>
<clustering>
<clus scale="   32.722">  2  9  1 -1</clus>
<clus scale="   78.217">  5  6 -1 -1</clus>
<clus scale="   83.294">  2  5  1 -1</clus>
<clus scale="   94.651">  7  8 -1 -1</clus>
<clus scale="   32.722">  2  5  1 -1</clus>
</clustering>
</event>
<event>
 9    1  0.7835476E-005  0.2317571E+03  0.7546771E-02  0.1161814E+00
         21   -1    0    0  501  502  0.00000000000E+00  0.00000000000E+00  0.11832599518E+03  0.11832599518E+03  0.00000000000E+00 0.  1.
         -2   -1    0    0    0  501 -0.00000000000E+00 -0.00000000000E+00 -0.66286889650E+03  0.66286889650E+03  0.00000000000E+00 0.  1.
        -24    2    1    2    0    0 -0.49186821004E+02  0.18087360368E+02 -0.17066733848E+03  0.19622468948E+03  0.81426607271E+02 0.  0.
         23    2    1    2    0    0 -0.12351788843E+03 -0.15873791692E+03 -0.23241887921E+03  0.32111514908E+03  0.92962403825E+02 0.  0.
         13    1    3    3    0    0  0.22907884466E+02  0.26541960364E+01 -0.43242153959E+02  0.49007140361E+02  0.00000000000E+00 0. -1.
        -14    1    3    3    0    0 -0.72094705470E+02  0.15433164332E+02 -0.12742518452E+03  0.14721754912E+03  0.00000000000E+00 0.  1.
        -11    1    4    4    0    0 -0.89150339466E+02 -0.11823168735E+03 -0.10065823505E+03  0.17904914187E+03  0.00000000000E+00 0.  1.
         11    1    4    4    0    0 -0.34367548963E+02 -0.40506229569E+02 -0.13176064415E+03  0.14206600721E+03  0.00000000000E+00 0. -1.
         -1    1    1    2    0  502  0.17270470943E+03  0.14065055655E+03 -0.14145668363E+03  0.26385505313E+03  0.00000000000E+00 0.  1.
<scales pt_clust_5="13000.00000" pt_clust_6="13000.00000" pt_clust_7="13000.00000" pt_clust_8="13000.00000" pt_clust_9="212.29542"></scales>
<clustering>
<clus scale="   81.427">  5  6 -1 -1</clus>
<clus scale="   92.962">  7  8 -1 -1</clus>
<clus scale="   96.834">  2  5  1 -1</clus>
<clus scale="  212.295">  1  9  2 -1</clus>
<clus scale="  212.295">  1  5  2 -1</clus>
</clustering>
</event>
<event>
 9    1  0.1300437E-004  0.1206869E+03  0.7546771E-02  0.1247070E+00
          1   -1    0    0  502    0 -0.00000000000E+00  0.00000000000E+00  0.55210709374E+03  0.55210709374E+03  0.00000000000E+00 0. -1.
         21   -1    0    0  501  502  0.00000000000E+00 -0.00000000000E+00 -0.98648894433E+02  0.98648894433E+02  0.00000000000E+00 0.  1.
         23    2    1    2    0    0 -0.40143450914E+02 -0.63908856101E+02  0.45931195126E+03  0.47510982938E+03  0.95215770070E+02 0.  0.
        -24    2    1    2    0    0  0.42315076398E+02  0.43433327679E+02 -0.60653306962E+02  0.11710596362E+03  0.79736838571E+02 0.  0.
         11    1    4    4    0    0  0.17597887526E+02 -0.23005043291E+02 -0.13405761946E+02  0.31916016599E+02  0.00000000000E+00 0. -1.
        -12    1    4    4    0    0  0.24717188871E+02  0.66438370969E+02 -0.47247545017E+02  0.85189947017E+02  0.00000000000E+00 0.  1.
        -13    1    3    3    0    0 -0.51265841758E+02 -0.31088962622E+01  0.12513673895E+03  0.13526660786E+03  0.00000000000E+00 0.  1.
         13    1    3    3    0    0  0.11122390844E+02 -0.60799959838E+02  0.33417521231E+03  0.33984322153E+03  0.00000000000E+00 0. -1.
          2    1    1    2  501    0 -0.21716254837E+01  0.20475528422E+02  0.54799555013E+02  0.58540195174E+02  0.00000000000E+00 0. -1.
<scales pt_clust_5="13000.00000" pt_clust_6="13000.00000" pt_clust_7="13000.00000" pt_clust_8="13000.00000" pt_clust_9="20.59038"></scales>
<clustering>
<clus scale="   20.590">  2  9  1 -1</clus>
<clus scale="   79.737">  5  6 -1 -1</clus>
<clus scale="   95.216">  7  8 -1 -1</clus>
<clus scale="  108.891">  2  5  1 -1</clus>
<clus scale="   20.590">  2  5  1 -1</clus>
</clustering>
</event>
<event>
 9    1  0.7835476E-005  0.1060792E+03  0.7546771E-02  0.1272347E+00
         21   -1    0    0  501  502  0.00000000000E+00  0.00000000000E+00  0.69114634272E+03  0.69114634272E+03  0.00000000000E+00 0.  1.
         -2   -1    0    0    0  501 -0.00000000000E+00 -0.00000000000E+00 -0.30573131285E+02  0.30573131285E+02  0.00000000000E+00 0.  1.
         23    2    1    2    0    0  0.17611955573E+02 -0.30907144205E+02  0.20437115277E+03  0.22670966100E+03  0.91456381769E+02 0.  0.
        -24    2    1    2    0    0 -0.61514070500E+02  0.64114199923E+02  0.39367594887E+03  0.41170543946E+03  0.81400274351E+02 0.  0.
         11    1    4    4    0    0 -0.52414427255E+02 -0.28195342539E+01  0.19019785809E+03  0.19730800080E+03  0.00000000000E+00 0. -1.
        -12    1    4    4    0    0 -0.90996432444E+01  0.66933734177E+02  0.20347809078E+03  0.21439743866E+03  0.00000000000E+00 0.  1.
        -13    1    3    3    0    0 -0.33492765168E+02  0.50553554742E+01  0.52427750152E+02  0.62417873430E+02  0.00000000000E+00 0. -1.
         13    1    3    3    0    0  0.51104720741E+02 -0.35962499680E+02  0.15194340262E+03  0.16429178757E+03  0.00000000000E+00 0.  1.
         -1    1    1    2    0  502  0.43902114926E+02 -0.33207055717E+02  0.62526109799E+02  0.83304373541E+02  0.00000000000E+00 0.  1.
<scales pt_clust_5="13000.00000" pt_clust_6="13000.00000" pt_clust_7="13000.00000" pt_clust_8="13000.00000" pt_clust_9="55.04641"></scales>
<clustering>
<clus scale="   55.046">  1  9  2 -1</clus>
<clus scale="   81.400">  5  6 -1 -1</clus>
<clus scale="   91.456">  7  8 -1 -1</clus>
<clus scale="   97.542">  1  5  2 -1</clus>
<clus scale="   55.046">  1  5  2 -1</clus>
</clustering>
</event>
<event>
 9    1  0.7835476E-005  0.1264810E+03  0.7546771E-02  0.1235371E+00
         21   -1    0    0  501  502  0.00000000000E+00  0.00000000000E+00  0.83753395654E+03  0.83753395654E+03  0.00000000000E+00 0.  1.
          1   -1    0    0  502    0 -0.00000000000E+00 -0.00000000000E+00 -0.21030056957E+03  0.21030056957E+03  0.00000000000E+00 0. -1.
         23    2    1    2    0    0 -0.62676579879E+02 -0.59482652602E+02 -0.16011748909E+03  0.20259536317E+03  0.89110780698E+02 0.  0.
        -24    2    1    2    0    0  0.85620426636E+02  0.16341946316E+03  0.52401185259E+03  0.56120268293E+03  0.79518873685E+02 0.  0.
         11    1    4    4    0    0  0.11198040753E+02  0.10672605558E+03  0.27514039804E+03  0.29532708256E+03  0.00000000000E+00 0. -1.
        -12    1    4    4    0    0  0.74422385883E+02  0.56693407581E+02  0.24887145455E+03  0.26587560037E+03  0.00000000000E+00 0.  1.
        -11    1    3    3    0    0  0.20574516773E+02 -0.23535253424E+02 -0.59022490279E+02  0.66789769073E+02  0.00000000000E+00 0.  1.
         11    1    3    3    0    0 -0.83251096652E+02 -0.35947399178E+02 -0.10109499882E+03  0.13580559409E+03  0.00000000000E+00 0. -1.
          2    1    1    2  501    0 -0.22943846757E+02 -0.10393681056E+03  0.26333902347E+03  0.28403648001E+03  0.00000000000E+00 0. -1.
<scales pt_clust_5="13000.00000" pt_clust_6="13000.00000" pt_clust_7="13000.00000" pt_clust_8="13000.00000" pt_clust_9="106.43909"></scales>
<clustering>
<clus scale="   79.519">  5  6 -1 -1</clus>
<clus scale="   89.111">  7  8 -1 -1</clus>
<clus scale="  106.439">  1  9  2 -1</clus>
<clus scale="  119.916">  1  5  2 -1</clus>
<clus scale="  106.439">  1  5  2 -1</clus>
</clustering>
</event>
<event>
 9    1  0.7835476E-005  0.2174786E+03  0.7546771E-02  0.1136968E+00
         21   -1    0    0  501  502  0.00000000000E+00  0.00000000000E+00  0.45057127920E+03  0.45057127920E+03  0.00000000000E+00 0. -1.
          3   -1    0    0  502    0 -0.00000000000E+00 -0.00000000000E+00 -0.86051192633E+03  0.86051192633E+03  0.00000000000E+00 0. -1.
        -24    2    1    2    0    0  0.80302648882E+02 -0.17456016020E+03 -0.74373238070E+03  0.77220053678E+03  0.78968664335E+02 0.  0.
         23    2    1    2    0    0 -0.17252390251E+03  0.23729367068E+03  0.27383112426E+03  0.41225120493E+03  0.94312185182E+02 0.  0.
         13    1    3    3    0    0  0.48193543645E+02 -0.16692319485E+03 -0.59484020431E+03  0.61969414980E+03  0.00000000000E+00 0. -1.
        -14    1    3    3    0    0  0.32109105238E+02 -0.76369653468E+01 -0.14889217639E+03  0.15250638698E+03  0.00000000000E+00 0.  1.
        -13    1    4    4    0    0 -0.55248121855E+02  0.63849764796E+02  0.27141235498E+02  0.88689312194E+02  0.00000000000E+00 0.  1.
         13    1    4    4    0    0 -0.11727578066E+03  0.17344390588E+03  0.24668988876E+03  0.32356189274E+03  0.00000000000E+00 0. -1.
          4    1    1    2  501    0  0.92221253633E+02 -0.62733510483E+02  0.59960609315E+02  0.12663146382E+03  0.00000000000E+00 0. -1.
<scales pt_clust_5="13000.00000" pt_clust_6="13000.00000" pt_clust_7="13000.00000" pt_clust_8="13000.00000" pt_clust_9="111.53588"></scales>
<clustering>
<clus scale="   78.969">  5  6 -1 -1</clus>
<clus scale="   94.312">  7  8 -1 -1</clus>
<clus scale="  111.536">  1  9  2 -1</clus>
<clus scale="  211.278">  2  5  1 -1</clus>
<clus scale="  111.536">  1  5  2 -1</clus>
</clustering>
</event>
<event>
 9    1  0.7835476E-005  0.1637949E+03  0.7546771E-02  0.1200399E+00
         21   -1    0    0  501  502  0.00000000000E+00  0.00000000000E+00  0.88800174538E+03  0.88800174538E+03  0.00000000000E+00 0. -1.
          3   -1    0    0  502    0 -0.00000000000E+00 -0.00000000000E+00 -0.10167394720E+03  0.10167394720E+03  0.00000000000E+00 0. -1.
        -24    2    1    2    0    0  0.88702318765E+01  0.73580769821E+02  0.24193763229E+03  0.26804533008E+03  0.88440207827E+02 0.  0.
         23    2    1    2    0    0  0.11367527495E+03 -0.12932030695E+03  0.38248237087E+02  0.19789001715E+03  0.89731384271E+02 0.  0.
         13    1    3    3    0    0 -0.30091965762E+02  0.59416890389E+02  0.99782548357E+02  0.11996853847E+03  0.00000000000E+00 0. -1.
        -14    1    3    3    0    0  0.38962197639E+02  0.14163879432E+02  0.14215508393E+03  0.14807679161E+03  0.00000000000E+00 0.  1.
        -11    1    4    4    0    0  0.80975549108E+02 -0.24886141665E+02  0.15631647130E+02  0.86143531343E+02  0.00000000000E+00 0.  1.
         11    1    4    4    0    0  0.32699725842E+02 -0.10443416529E+03  0.22616589957E+02  0.11174648581E+03  0.00000000000E+00 0. -1.
          4    1    1    2  501    0 -0.12254550683E+03  0.55739537133E+02  0.50614192881E+03  0.52374034535E+03  0.00000000000E+00 0. -1.
<scales pt_clust_5="13000.00000" pt_clust_6="13000.00000" pt_clust_7="13000.00000" pt_clust_8="13000.00000" pt_clust_9="137.02937"></scales>
<clustering>
<clus scale="   88.440">  5  6 -1 -1</clus>
<clus scale="   89.731">  7  8 -1 -1</clus>
<clus scale="  115.388">  2  5  1 -1</clus>
<clus scale="  137.029">  1  9  2 -1</clus>
<clus scale="  137.029">  1  5  2 -1</clus>
</clustering>
</event>
<event>
 9    1  0.7835476E-005  0.1102901E+03  0.7546771E-02  0.1265273E+00
         21   -1    0    0  501  502  0.00000000000E+00  0.00000000000E+00  0.18547428105E+03  0.18547428105E+03  0.00000000000E+00 0. -1.
          1   -1    0    0  502    0 -0.00000000000E+00 -0.00000000000E+00 -0.12755073347E+03  0.12755073347E+03  0.00000000000E+00 0. -1.
        -24    2    1    2    0    0 -0.46625300339E+01 -0.46221666771E+02 -0.46846479842E+02  0.10594795227E+03  0.82898698729E+02 0.  0.
         23    2    1    2    0    0 -0.17574680892E+02  0.83262669398E+02  0.50111263138E+02  0.13740561948E+03  0.95538599775E+02 0.  0.
         13    1    3    3    0    0  0.71932204682E+01 -0.32006409383E+02  0.18753225621E+02  0.37786719009E+02  0.00000000000E+00 0. -1.
        -14    1    3    3    0    0 -0.11855750502E+02 -0.14215257388E+02 -0.65599705463E+02  0.68161233259E+02  0.00000000000E+00 0.  1.
        -13    1    4    4    0    0 -0.40548515308E+02  0.57232093323E+02 -0.70842284761E+01  0.70497382170E+02  0.00000000000E+00 0. -1.
         13    1    4    4    0    0  0.22973834416E+02  0.26030576076E+02  0.57195491614E+02  0.66908237307E+02  0.00000000000E+00 0.  1.
          2    1    1    2  501    0  0.22237210926E+02 -0.37041002628E+02  0.54658764279E+02  0.69671442772E+02  0.00000000000E+00 0. -1.
<scales pt_clust_5="13000.00000" pt_clust_6="13000.00000" pt_clust_7="13000.00000" pt_clust_8="13000.00000" pt_clust_9="43.20335"></scales>
<clustering>
<clus scale="   43.203">  1  9  2 -1</clus>
<clus scale="   82.899">  5  6 -1 -1</clus>
<clus scale="   95.539">  7  8 -1 -1</clus>
<clus scale="   99.541">  2  5  1 -1</clus>
<clus scale="   43.203">  1  5  2 -1</clus>
</clustering>
</event>
<event>
 9    1  0.7835476E-005  0.1728131E+03  0.7546771E-02  0.1205988E+00
         21   -1    0    0  501  502  0.00000000000E+00  0.00000000000E+00  0.27989911108E+02  0.27989911108E+02  0.00000000000E+00 0. -1.
          1   -1    0    0  502    0 -0.00000000000E+00 -0.00000000000E+00 -0.15727399030E+04  0.15727399030E+04  0.00000000000E+00 0. -1.
        -24    2    1    2    0    0  0.29929663240E+02 -0.11095840472E+02 -0.30610052867E+03  0.31824473995E+03  0.81014063164E+02 0.  0.
         23    2    1    2    0    0 -0.11875081414E+03 -0.10264148039E+03 -0.82051838515E+03  0.84015151965E+03  0.89258760040E+02 0.  0.
         13    1    3    3    0    0 -0.22933428739E+00  0.33356156799E+02 -0.11635517548E+03  0.12104219368E+03  0.00000000000E+00 0. -1.
        -14    1    3    3    0    0  0.30158997528E+02 -0.44451997271E+02 -0.18974535319E+03  0.19720254626E+03  0.00000000000E+00 0.  1.
        -11    1    4    4    0    0  0.37389726479E+00 -0.49830790785E+02 -0.25372585608E+03  0.25857311839E+03  0.00000000000E+00 0.  1.
         11    1    4    4    0    0 -0.11912471140E+03 -0.52810689603E+02 -0.56679252907E+03  0.58157840126E+03  0.00000000000E+00 0. -1.
          2    1    1    2  501    0  0.88821150897E+02  0.11373732086E+03 -0.41813107806E+03  0.44233355451E+03  0.00000000000E+00 0. -1.
<scales pt_clust_5="13000.00000" pt_clust_6="13000.00000" pt_clust_7="13000.00000" pt_clust_8="13000.00000" pt_clust_9="147.97713"></scales>
<clustering>
<clus scale="   81.014">  5  6 -1 -1</clus>
<clus scale="   87.076">  2  5  1 -1</clus>
<clus scale="   89.259">  7  8 -1 -1</clus>
<clus scale="  147.977">  1  9  2 -1</clus>
<clus scale="  147.977">  1  5  2 -1</clus>
</clustering>
</event>
<event>
 9    1  0.7835476E-005  0.1676746E+03  0.7546771E-02  0.1184296E+00
          1   -1    0    0  502    0 -0.00000000000E+00  0.00000000000E+00  0.66817806801E+03  0.66817806801E+03  0.00000000000E+00 0. -1.
         21   -1    0    0  501  502  0.00000000000E+00 -0.00000000000E+00 -0.84369768951E+02  0.84369768951E+02  0.00000000000E+00 0. -1.
        -24    2    1    2    0    0  0.34643560261E+02  0.12843366884E+03  0.52657718038E+03  0.54900687542E+03  0.80185028559E+02 0.  0.
         23    2    1    2    0    0 -0.13733130805E+02 -0.11630382478E+03  0.19244081887E+02  0.15851436783E+03  0.10507755031E+03 0.  0.
         11    1    3    3    0    0  0.55084678278E+02  0.86068074737E+02  0.42429248954E+03  0.43642427975E+03  0.00000000000E+00 0. -1.
        -12    1    3    3    0    0 -0.20441118017E+02  0.42365594102E+02  0.10228469084E+03  0.11258259568E+03  0.00000000000E+00 0.  1.
        -11    1    4    4    0    0 -0.26055547859E+02 -0.13357804006E+03  0.15633016602E+02  0.13699042145E+03  0.00000000000E+00 0. -1.
         11    1    4    4    0    0  0.12322417054E+02  0.17274215274E+02  0.36110652849E+01  0.21523946383E+02  0.00000000000E+00 0.  1.
          2    1    1    2  501    0 -0.20910429456E+02 -0.12129844055E+02  0.37987036787E+02  0.45026593706E+02  0.00000000000E+00 0. -1.
<scales pt_clust_5="13000.00000" pt_clust_6="13000.00000" pt_clust_7="13000.00000" pt_clust_8="13000.00000" pt_clust_9="24.17395"></scales>
<clustering>
<clus scale="   24.174">  2  9  1 -1</clus>
<clus scale="   80.185">  5  6 -1 -1</clus>
<clus scale="  105.078">  7  8 -1 -1</clus>
<clus scale="  153.307">  1  5  2 -1</clus>
<clus scale="   24.174">  2  5  1 -1</clus>
</clustering>
</event>
<event>
 9    1  0.7835476E-005  0.1081689E+03  0.7546771E-02  0.1268970E+00
         21   -1    0    0  501  502  0.00000000000E+00  0.00000000000E+00  0.21465611036E+02  0.21465611036E+02  0.00000000000E+00 0.  1.
          1   -1    0    0  502    0 -0.00000000000E+00 -0.00000000000E+00 -0.72130561659E+03  0.72130561659E+03  0.00000000000E+00 0. -1.
        -24    2    1    2    0    0 -0.61027333686E+02  0.85315251274E+01 -0.37439777632E+03  0.38776397246E+03  0.79937982490E+02 0.  0.
         23    2    1    2    0    0  0.49457164724E+02  0.21241016217E+02 -0.21344794079E+03  0.23854698868E+03  0.91910012871E+02 0.  0.
         11    1    3    3    0    0  0.16086854360E+02 -0.13059024259E+02 -0.85261251355E+02  0.87742840052E+02  0.00000000000E+00 0. -1.
        -12    1    3    3    0    0 -0.77114188046E+02  0.21590549387E+02 -0.28913652497E+03  0.30002113241E+03  0.00000000000E+00 0.  1.
        -11    1    4    4    0    0  0.75580102157E+02  0.22820417801E+02 -0.14223320146E+03  0.16267577235E+03  0.00000000000E+00 0.  1.
         11    1    4    4    0    0 -0.26122937433E+02 -0.15794015840E+01 -0.71214739327E+02  0.75871216327E+02  0.00000000000E+00 0. -1.
          2    1    1    2  501    0  0.11570168962E+02 -0.29772541345E+02 -0.11199428844E+03  0.11646026649E+03  0.00000000000E+00 0. -1.
<scales pt_clust_5="13000.00000" pt_clust_6="13000.00000" pt_clust_7="13000.00000" pt_clust_8="13000.00000" pt_clust_9="31.94173"></scales>
<clustering>
<clus scale="   31.942">  1  9  2 -1</clus>
<clus scale="   79.938">  5  6 -1 -1</clus>
<clus scale="   91.910">  7  8 -1 -1</clus>
<clus scale="   98.200">  2  5  1 -1</clus>
<clus scale="   31.942">  1  5  2 -1</clus>
</clustering>
</event>
<event>
 9    1  0.7835476E-005  0.2623621E+03  0.7546771E-02  0.1106234E+00
          1   -1    0    0  502    0 -0.00000000000E+00  0.00000000000E+00  0.66019066464E+03  0.66019066464E+03  0.00000000000E+00 0. -1.
         21   -1    0    0  501  502  0.00000000000E+00 -0.00000000000E+00 -0.33769088974E+03  0.33769088974E+03  0.00000000000E+00 0. -1.
        -24    2    1    2    0    0  0.98247891545E+02 -0.23252915676E+03  0.51694308959E+03  0.58096576640E+03  0.81046942689E+02 0.  0.
         23    2    1    2    0    0 -0.17996990326E+03  0.14400840880E+03 -0.12122282769E+03  0.27593476184E+03  0.91199950391E+02 0.  0.
         13    1    3    3    0    0  0.89454348613E+02 -0.23695159146E+03  0.47986585228E+03  0.54260425115E+03  0.00000000000E+00 0. -1.
        -14    1    3    3    0    0  0.87935429327E+01  0.44224346984E+01  0.37077237309E+02  0.38361515252E+02  0.00000000000E+00 0.  1.
        -11    1    4    4    0    0 -0.16175782101E+02  0.13160385104E+02  0.15207139392E+02  0.25809082726E+02  0.00000000000E+00 0.  1.
         11    1    4    4    0    0 -0.16379412116E+03  0.13084802370E+03 -0.13642996709E+03  0.25012567911E+03  0.00000000000E+00 0. -1.
          2    1    1    2  501    0  0.81722011715E+02  0.88520747956E+02 -0.73220486995E+02  0.14098102615E+03  0.00000000000E+00 0. -1.
<scales pt_clust_5="13000.00000" pt_clust_6="13000.00000" pt_clust_7="13000.00000" pt_clust_8="13000.00000" pt_clust_9="120.47577"></scales>
<clustering>
<clus scale="   81.047">  5  6 -1 -1</clus>
<clus scale="   91.200">  7  8 -1 -1</clus>
<clus scale="  120.476">  2  9  1 -1</clus>
<clus scale="  259.008">  1  5  2 -1</clus>
<clus scale="  120.476">  2  5  1 -1</clus>
</clustering>
</event>
<event>
 9    1  0.7835476E-005  0.1176921E+03  0.7546771E-02  0.1248881E+00
         -2   -1    0    0    0  501 -0.00000000000E+00  0.00000000000E+00  0.34687710294E+03  0.34687710294E+03  0.00000000000E+00 0.  1.
         21   -1    0    0  501  502  0.00000000000E+00 -0.00000000000E+00 -0.13957434886E+03  0.13957434886E+03  0.00000000000E+00 0.  1.
        -24    2    1    2    0    0 -0.31295496530E+02  0.68898653949E+02  0.27217719687E+03  0.29387067267E+03  0.80951301029E+02 0.  0.
         23    2    1    2    0    0  0.26919904171E+02 -0.10746274180E+03 -0.39990301199E+02  0.14647703543E+03  0.87082579214E+02 0.  0.
         13    1    3    3    0    0  0.26680371657E+02  0.31475909679E+02  0.88081395424E+02  0.97267195609E+02  0.00000000000E+00 0. -1.
        -14    1    3    3    0    0 -0.57975868187E+02  0.37422744270E+02  0.18409580145E+03  0.19660347706E+03  0.00000000000E+00 0.  1.
        -13    1    4    4    0    0  0.20884986978E+02 -0.76960434682E+01 -0.40854536871E+02  0.46524240446E+02  0.00000000000E+00 0. -1.
         13    1    4    4    0    0  0.60349171938E+01 -0.99766698336E+02  0.86423567200E+00  0.99952794987E+02  0.00000000000E+00 0.  1.
         -1    1    1    2    0  502  0.43755923582E+01  0.38564087855E+02 -0.24884141590E+02  0.46103743701E+02  0.00000000000E+00 0.  1.
<scales pt_clust_5="13000.00000" pt_clust_6="13000.00000" pt_clust_7="13000.00000" pt_clust_8="13000.00000" pt_clust_9="38.81153"></scales>
<clustering>
<clus scale="   38.812">  2  9  1 -1</clus>
<clus scale="   80.951">  5  6 -1 -1</clus>
<clus scale="   87.083">  7  8 -1 -1</clus>
<clus scale="  113.231">  1  5  2 -1</clus>
<clus scale="   38.812">  2  5  1 -1</clus>
</clustering>
</event>
<event>
 9    1  0.7835476E-005  0.1674927E+03  0.7546771E-02  0.1202458E+00
          1   -1    0    0  502    0 -0.00000000000E+00  0.00000000000E+00  0.93263089826E+03  0.93263089826E+03  0.00000000000E+00 0. -1.
         21   -1    0    0  501  502  0.00000000000E+00 -0.00000000000E+00 -0.66395191741E+02  0.66395191741E+02  0.00000000000E+00 0. -1.
         23    2    1    2    0    0  0.17988407258E+02 -0.41550436506E+02  0.16137542637E+03  0.19155530833E+03  0.92743659305E+02 0.  0.
        -24    2    1    2    0    0 -0.48423309594E+02  0.17773916142E+03  0.60094215383E+03  0.63348046858E+03  0.78930383329E+02 0.  0.
         13    1    4    4    0    0 -0.36984248428E+02  0.14884813813E+03  0.56737111604E+03  0.58773598339E+03  0.00000000000E+00 0. -1.
        -14    1    4    4    0    0 -0.11439061166E+02  0.28891023291E+02  0.33571037788E+02  0.45744485190E+02  0.00000000000E+00 0.  1.
        -13    1    3    3    0    0  0.31319679622E+02 -0.13720142777E+01  0.14124150140E+03  0.14467883907E+03  0.00000000000E+00 0.  1.
         13    1    3    3    0    0 -0.13331272364E+02 -0.40178422229E+02  0.20133924970E+02  0.46876469261E+02  0.00000000000E+00 0. -1.
          2    1    1    2  501    0  0.30434902336E+02 -0.13618872491E+03  0.10391812632E+03  0.17399031309E+03  0.00000000000E+00 0. -1.
<scales pt_clust_5="13000.00000" pt_clust_6="13000.00000" pt_clust_7="13000.00000" pt_clust_8="13000.00000" pt_clust_9="147.72878"></scales>
<clustering>
<clus scale="   78.930">  5  6 -1 -1</clus>
<clus scale="   92.744">  7  8 -1 -1</clus>
<clus scale="  103.206">  1  7  2 -1</clus>
<clus scale="  147.729">  2  9  1 -1</clus>
<clus scale="  147.729">  2  5  1 -1</clus>
</clustering>
</event>
<event>
 9    1  0.7835476E-005  0.9546367E+02  0.7546771E-02  0.1296981E+00
         -2   -1    0    0    0  501 -0.00000000000E+00  0.00000000000E+00  0.63399334692E+03  0.63399334692E+03  0.00000000000E+00 0.  1.
         21   -1    0    0  501  502  0.00000000000E+00 -0.00000000000E+00 -0.41279751047E+02  0.41279751047E+02  0.00000000000E+00 0.  1.
         23    2    1    2    0    0  0.27752997693E+02  0.47914566496E+01  0.47644904860E+03  0.48626188885E+03  0.93025489508E+02 0.  0.
        -24    2    1    2    0    0  0.15871117325E+02 -0.34769239854E+02  0.98238937111E+02  0.13309472211E+03  0.81255915998E+02 0.  0.
         13    1    4    4    0    0 -0.27928016810E+02 -0.83450757793E+01  0.94803214786E+01  0.30651115935E+02  0.00000000000E+00 0. -1.
        -14    1    4    4    0    0  0.43799134135E+02 -0.26424164075E+02  0.88758615632E+02  0.10244360618E+03  0.00000000000E+00 0.  1.
        -13    1    3    3    0    0 -0.11691487198E+02 -0.36209222122E+02  0.14206805062E+03  0.14707525164E+03  0.00000000000E+00 0. -1.
         13    1    3    3    0    0  0.39444484891E+02  0.41000678771E+02  0.33438099799E+03  0.33918663721E+03  0.00000000000E+00 0.  1.
         -1    1    1    2    0  502 -0.43624115019E+02  0.29977783205E+02  0.18025610162E+02  0.55916487003E+02  0.00000000000E+00 0.  1.
<scales pt_clust_5="13000.00000" pt_clust_6="13000.00000" pt_clust_7="13000.00000" pt_clust_8="13000.00000" pt_clust_9="52.93138"></scales>
<clustering>
<clus scale="   52.931">  2  9  1 -1</clus>
<clus scale="   81.256">  5  6 -1 -1</clus>
<clus scale="   84.036">  2  5  1 -1</clus>
<clus scale="   93.025">  7  8 -1 -1</clus>
<clus scale="   52.931">  2  5  1 -1</clus>
</clustering>
</event>
<event>
 9    1  0.7835476E-005  0.1195644E+03  0.7546771E-02  0.1251137E+00
         -2   -1    0    0    0  501 -0.00000000000E+00  0.00000000000E+00  0.11593950519E+03  0.11593950519E+03  0.00000000000E+00 0.  1.
         21   -1    0    0  501  502  0.00000000000E+00 -0.00000000000E+00 -0.30139697612E+03  0.30139697612E+03  0.00000000000E+00 0. -1.
         23    2    1    2    0    0 -0.15767630342E+01  0.62811441592E+02  0.61921665403E+02  0.13368154306E+03  0.10044251555E+03 0.  0.
        -24    2    1    2    0    0  0.14278365390E+02 -0.78296231821E+02 -0.23304291115E+03  0.25902494062E+03  0.80316559897E+02 0.  0.
         13    1    4    4    0    0  0.19144842641E+02 -0.67976968916E+02 -0.23672630084E+03  0.24703589782E+03  0.00000000000E+00 0. -1.
        -14    1    4    4    0    0 -0.48664772513E+01 -0.10319262905E+02  0.36833896917E+01  0.11989042804E+02  0.00000000000E+00 0.  1.
        -13    1    3    3    0    0 -0.43994834112E+02  0.29400745319E+02  0.59508402949E+02  0.79631647449E+02  0.00000000000E+00 0.  1.
         13    1    3    3    0    0  0.42418071078E+02  0.33410696274E+02  0.24132624540E+01  0.54049895607E+02  0.00000000000E+00 0. -1.
         -1    1    1    2    0  502 -0.12701602356E+02  0.15484790228E+02 -0.14336225185E+02  0.24629997633E+02  0.00000000000E+00 0.  1.
<scales pt_clust_5="13000.00000" pt_clust_6="13000.00000" pt_clust_7="13000.00000" pt_clust_8="13000.00000" pt_clust_9="20.02772"></scales>
<clustering>
<clus scale="   20.028">  2  9  1 -1</clus>
<clus scale="   80.317">  5  6 -1 -1</clus>
<clus scale="  100.443">  7  8 -1 -1</clus>
<clus scale="  103.236">  2  5  1 -1</clus>
<clus scale="   20.028">  2  5  1 -1</clus>
</clustering>
</event>
<event>
 9    1  0.7835476E-005  0.9302927E+02  0.7546771E-02  0.1303292E+00
         21   -1    0    0  501  502  0.00000000000E+00  0.00000000000E+00  0.23834414310E+03  0.23834414310E+03  0.00000000000E+00 0. -1.
          1   -1    0    0  502    0 -0.00000000000E+00 -0.00000000000E+00 -0.16853913462E+03  0.16853913462E+03  0.00000000000E+00 0. -1.
         23    2    1    2    0    0  0.16528462660E+01  0.90972448151E+01 -0.11390368615E+03  0.14654401454E+03  0.91736616003E+02 0.  0.
        -24    2    1    2    0    0 -0.22583767976E+02 -0.73992182987E+02  0.14304247930E+03  0.18094658372E+03  0.79345104178E+02 0.  0.
         13    1    4    4    0    0 -0.32864267886E+02 -0.85390611299E+02  0.10146601517E+03  0.13662711603E+03  0.00000000000E+00 0. -1.
        -14    1    4    4    0    0  0.10280499910E+02  0.11398428312E+02  0.41576464131E+02  0.44319467686E+02  0.00000000000E+00 0.  1.
        -13    1    3    3    0    0 -0.39354133689E+02 -0.74834080493E+01 -0.84257584001E+02  0.93295711028E+02  0.00000000000E+00 0.  1.
         13    1    3    3    0    0  0.41006979955E+02  0.16580652864E+02 -0.29646102144E+02  0.53248303511E+02  0.00000000000E+00 0. -1.
          2    1    1    2  501    0  0.20930921710E+02  0.64894938172E+02  0.40666215327E+02  0.79392679467E+02  0.00000000000E+00 0. -1.
<scales pt_clust_5="13000.00000" pt_clust_6="13000.00000" pt_clust_7="13000.00000" pt_clust_8="13000.00000" pt_clust_9="68.18692"></scales>
<clustering>
<clus scale="   68.187">  1  9  2 -1</clus>
<clus scale="   79.345">  5  6 -1 -1</clus>
<clus scale="   80.836">  1  5  2 -1</clus>
<clus scale="   91.737">  7  8 -1 -1</clus>
<clus scale="   68.187">  1  5  2 -1</clus>
</clustering>
</event>
<event>
 9    1  0.7835476E-005  0.9264131E+02  0.7546771E-02  0.1303685E+00
         21   -1    0    0  501  502  0.00000000000E+00  0.00000000000E+00  0.13367415986E+03  0.13367415986E+03  0.00000000000E+00 0. -1.
          3   -1    0    0  502    0 -0.00000000000E+00 -0.00000000000E+00 -0.22386585765E+03  0.22386585765E+03  0.00000000000E+00 0. -1.
         23    2    1    2    0    0  0.10370607049E+02  0.71443901730E+01 -0.18461098249E+03  0.20647926143E+03  0.91618113614E+02 0.  0.
        -24    2    1    2    0    0 -0.28215163719E+01 -0.34377800044E+02  0.83575362664E+02  0.12079133209E+03  0.80099379359E+02 0.  0.
         11    1    4    4    0    0  0.98697057325E+01 -0.56598479457E+02  0.73499020458E+02  0.93289361539E+02  0.00000000000E+00 0. -1.
        -12    1    4    4    0    0 -0.12691222104E+02  0.22220679413E+02  0.10076342206E+02  0.27501970553E+02  0.00000000000E+00 0.  1.
        -11    1    3    3    0    0  0.46288902785E+02 -0.82366194549E+00 -0.14592011693E+03  0.15308827997E+03  0.00000000000E+00 0.  1.
         11    1    3    3    0    0 -0.35918295735E+02  0.79680521185E+01 -0.38690865566E+02  0.53390981460E+02  0.00000000000E+00 0. -1.
          4    1    1    2  501    0 -0.75490906774E+01  0.27233409871E+02  0.10843922043E+02  0.30269423988E+02  0.00000000000E+00 0. -1.
<scales pt_clust_5="13000.00000" pt_clust_6="13000.00000" pt_clust_7="13000.00000" pt_clust_8="13000.00000" pt_clust_9="28.26035"></scales>
<clustering>
<clus scale="   28.260">  1  9  2 -1</clus>
<clus scale="   80.099">  5  6 -1 -1</clus>
<clus scale="   81.268">  1  5  2 -1</clus>
<clus scale="   91.618">  7  8 -1 -1</clus>
<clus scale="   28.260">  1  5  2 -1</clus>
</clustering>
</event>
<event>
 9    1  0.7835476E-005  0.1358645E+03  0.7546771E-02  0.1221379E+00
         21   -1    0    0  501  502  0.00000000000E+00  0.00000000000E+00  0.13102354239E+03  0.13102354239E+03  0.00000000000E+00 0. -1.
          3   -1    0    0  502    0 -0.00000000000E+00 -0.00000000000E+00 -0.28209874571E+03  0.28209874571E+03  0.00000000000E+00 0. -1.
        -24    2    1    2    0    0 -0.58817909957E+02 -0.10331731038E+03 -0.17638695203E+03  0.22637044121E+03  0.77441633839E+02 0.  0.
         23    2    1    2    0    0  0.41437475246E+02  0.62735611394E+02 -0.26423793971E+02  0.11874067000E+03  0.88024476898E+02 0.  0.
         11    1    3    3    0    0 -0.20799163496E+02 -0.20244627289E+02 -0.10913146908E+03  0.11292531904E+03  0.00000000000E+00 0. -1.
        -12    1    3    3    0    0 -0.38018746461E+02 -0.83072683089E+02 -0.67255482954E+02  0.11344512218E+03  0.00000000000E+00 0.  1.
        -11    1    4    4    0    0  0.59767125372E+02  0.72283947107E+02 -0.14577547723E+02  0.94918824172E+02  0.00000000000E+00 0.  1.
         11    1    4    4    0    0 -0.18329650126E+02 -0.95483357124E+01 -0.11846246249E+02  0.23821845831E+02  0.00000000000E+00 0. -1.
          4    1    1    2  501    0  0.17380434712E+02  0.40581698984E+02  0.51735542691E+02  0.68011176881E+02  0.00000000000E+00 0. -1.
<scales pt_clust_5="13000.00000" pt_clust_6="13000.00000" pt_clust_7="13000.00000" pt_clust_8="13000.00000" pt_clust_9="44.14696"></scales>
<clustering>
<clus scale="   44.147">  1  9  2 -1</clus>
<clus scale="   77.442">  5  6 -1 -1</clus>
<clus scale="   88.024">  7  8 -1 -1</clus>
<clus scale="  129.260">  2  5  1 -1</clus>
<clus scale="   44.147">  1  5  2 -1</clus>
</clustering>
</event>
<event>
 9    1  0.7835476E-005  0.3325564E+03  0.7546771E-02  0.1094655E+00
         21   -1    0    0  501  502  0.00000000000E+00  0.00000000000E+00  0.11749079855E+04  0.11749079855E+04  0.00000000000E+00 0.  1.
         -2   -1    0    0    0  501 -0.00000000000E+00 -0.00000000000E+00 -0.16777899994E+03  0.16777899994E+03  0.00000000000E+00 0.  1.
        -24    2    1    2    0    0 -0.59757893464E+02 -0.14369638796E+03  0.15605026803E+03  0.23202462053E+03  0.72553984282E+02 0.  0.
         23    2    1    2    0    0 -0.14754338071E+03  0.35690455933E+03  0.35503343701E+03  0.53230913120E+03  0.90301473406E+02 0.  0.
         11    1    3    3    0    0  0.83547849997E+01 -0.38801845782E+02  0.69142734707E+02  0.79725174388E+02  0.00000000000E+00 0. -1.
        -12    1    3    3    0    0 -0.68112678464E+02 -0.10489454218E+03  0.86907533322E+02  0.15229944614E+03  0.00000000000E+00 0.  1.
        -13    1    4    4    0    0 -0.11766358589E+03  0.20724210070E+03  0.25916550879E+03  0.35208062812E+03  0.00000000000E+00 0.  1.
         13    1    4    4    0    0 -0.29879794820E+02  0.14966245863E+03  0.95867928213E+02  0.18022850308E+03  0.00000000000E+00 0. -1.
         -1    1    1    2    0  502  0.20730127418E+03 -0.21320817137E+03  0.49604528052E+03  0.57835323371E+03  0.00000000000E+00 0.  1.
<scales pt_clust_5="13000.00000" pt_clust_6="13000.00000" pt_clust_7="13000.00000" pt_clust_8="13000.00000" pt_clust_9="320.06160"></scales>
<clustering>
<clus scale="   72.554">  5  6 -1 -1</clus>
<clus scale="   90.301">  7  8 -1 -1</clus>
<clus scale="  171.708">  2  5  1 -1</clus>
<clus scale="  320.062">  1  9  2 -1</clus>
<clus scale="  320.062">  1  5  2 -1</clus>
</clustering>
</event>
<event>
 9    1  0.7835476E-005  0.1912278E+03  0.7546771E-02  0.1158258E+00
         21   -1    0    0  501  502  0.00000000000E+00  0.00000000000E+00  0.67558168817E+03  0.67558168817E+03  0.00000000000E+00 0.  1.
          1   -1    0    0  502    0 -0.00000000000E+00 -0.00000000000E+00 -0.11078030946E+03  0.11078030946E+03  0.00000000000E+00 0. -1.
        -24    2    1    2    0    0 -0.16990952454E+03  0.91180635684E+02  0.23537381287E+03  0.31497105077E+03  0.81380441057E+02 0.  0.
         23    2    1    2    0    0  0.88649682529E+02 -0.11416812373E+03  0.34569322812E+03  0.38539002652E+03  0.90158404416E+02 0.  0.
         13    1    3    3    0    0 -0.44849982869E+02  0.10672035009E+02  0.11410240993E+03  0.12306410218E+03  0.00000000000E+00 0. -1.
        -14    1    3    3    0    0 -0.12505954167E+03  0.80508600675E+02  0.12127140294E+03  0.19190694859E+03  0.00000000000E+00 0.  1.
        -13    1    4    4    0    0  0.32201898135E+02 -0.33318754769E+02  0.22409860078E+03  0.22883899260E+03  0.00000000000E+00 0.  1.
         13    1    4    4    0    0  0.56447784394E+02 -0.80849368959E+02  0.12159462734E+03  0.15655103392E+03  0.00000000000E+00 0. -1.
          2    1    1    2  501    0  0.81259842009E+02  0.22987488044E+02 -0.16265662284E+02  0.86000920341E+02  0.00000000000E+00 0. -1.
<scales pt_clust_5="13000.00000" pt_clust_6="13000.00000" pt_clust_7="13000.00000" pt_clust_8="13000.00000" pt_clust_9="84.44876"></scales>
<clustering>
<clus scale="   81.380">  5  6 -1 -1</clus>
<clus scale="   84.449">  1  9  2 -1</clus>
<clus scale="   90.158">  7  8 -1 -1</clus>
<clus scale="  187.249">  2  5  1 -1</clus>
<clus scale="   84.449">  1  5  2 -1</clus>
</clustering>
</event>
<event>
 9    1  0.7835476E-005  0.8858762E+02  0.7546771E-02  0.1308307E+00
         21   -1    0    0  501  502  0.00000000000E+00  0.00000000000E+00  0.26527510098E+03  0.26527510098E+03  0.00000000000E+00 0.  1.
          3   -1    0    0  502    0 -0.00000000000E+00 -0.00000000000E+00 -0.92843033679E+02  0.92843033679E+02  0.00000000000E+00 0. -1.
         23    2    1    2    0    0 -0.22217910530E+02  0.14307745097E+02 -0.17736181472E+02  0.88280075794E+02  0.82343503270E+02 0.  0.
        -24    2    1    2    0    0  0.51011352468E+02  0.19674108823E+02  0.25624678353E+02  0.99372768377E+02  0.78924611597E+02 0.  0.
         11    1    4    4    0    0  0.53887124965E+02  0.11884735599E+02 -0.15580332792E+02  0.57339479830E+02  0.00000000000E+00 0. -1.
        -12    1    4    4    0    0 -0.28757724972E+01  0.77893732241E+01  0.41205011144E+02  0.42033288547E+02  0.00000000000E+00 0.  1.
        -13    1    3    3    0    0 -0.33328087822E+02 -0.16699457175E+02  0.16505323832E+02  0.40768358106E+02  0.00000000000E+00 0. -1.
         13    1    3    3    0    0  0.11110177292E+02  0.31007202272E+02 -0.34241505303E+02  0.47511717688E+02  0.00000000000E+00 0.  1.
          4    1    1    2  501    0 -0.28793441938E+02 -0.33981853920E+02  0.16454357042E+03  0.17046529049E+03  0.00000000000E+00 0. -1.
<scales pt_clust_5="13000.00000" pt_clust_6="13000.00000" pt_clust_7="13000.00000" pt_clust_8="13000.00000" pt_clust_9="44.54019"></scales>
<clustering>
<clus scale="   44.540">  1  9  2 -1</clus>
<clus scale="   78.925">  5  6 -1 -1</clus>
<clus scale="   82.344">  7  8 -1 -1</clus>
<clus scale="   85.419">  1  5  2 -1</clus>
<clus scale="   44.540">  1  5  2 -1</clus>
</clustering>
</event>
<event>
 9    1  0.7835476E-005  0.9730879E+02  0.7546771E-02  0.1288174E+00
          1   -1    0    0  502    0 -0.00000000000E+00  0.00000000000E+00  0.60592037169E+03  0.60592037169E+03  0.00000000000E+00 0. -1.
         21   -1    0    0  501  502  0.00000000000E+00 -0.00000000000E+00 -0.11901560578E+03  0.11901560578E+03  0.00000000000E+00 0. -1.
         23    2    1    2    0    0 -0.10495979692E+02 -0.94823805714E+01  0.30703111965E+03  0.32185073577E+03  0.95497154684E+02 0.  0.
        -24    2    1    2    0    0  0.10264717281E+03 -0.64128677088E+01 -0.61425784657E+02  0.14429977713E+03  0.80447073909E+02 0.  0.
         13    1    4    4    0    0  0.10265078940E+03  0.16381087244E+02 -0.62830228101E+02  0.12146259567E+03  0.00000000000E+00 0. -1.
        -14    1    4    4    0    0 -0.36165938219E-02 -0.22793954952E+02  0.14044434434E+01  0.22837181456E+02  0.00000000000E+00 0.  1.
        -13    1    3    3    0    0 -0.28235661920E+02 -0.47106762206E+02  0.17133987877E+03  0.17992680097E+03  0.00000000000E+00 0. -1.
         13    1    3    3    0    0  0.17739682228E+02  0.37624381635E+02  0.13569124087E+03  0.14192393480E+03  0.00000000000E+00 0.  1.
          2    1    1    2  501    0 -0.92151193118E+02  0.15895248280E+02  0.24129943092E+03  0.25878546457E+03  0.00000000000E+00 0. -1.
<scales pt_clust_5="13000.00000" pt_clust_6="13000.00000" pt_clust_7="13000.00000" pt_clust_8="13000.00000" pt_clust_9="93.51209"></scales>
<clustering>
<clus scale="   80.447">  5  6 -1 -1</clus>
<clus scale="   93.512">  2  9  1 -1</clus>
<clus scale="   93.512">  2  5  1 -1</clus>
<clus scale="   95.497">  7  8 -1 -1</clus>
<clus scale="   93.512">  2  5  1 -1</clus>
</clustering>
</event>
<event>
 9    1  0.7835476E-005  0.1581272E+03  0.7546771E-02  0.1209259E+00
          1   -1    0    0  502    0 -0.00000000000E+00  0.00000000000E+00  0.18314178561E+03  0.18314178561E+03  0.00000000000E+00 0. -1.
         21   -1    0    0  501  502  0.00000000000E+00 -0.00000000000E+00 -0.54647674781E+03  0.54647674781E+03  0.00000000000E+00 0. -1.
        -24    2    1    2    0    0  0.18964787107E+02  0.65420828345E+02  0.12191167994E+03  0.16152592836E+03  0.81170314124E+02 0.  0.
         23    2    1    2    0    0  0.94827298045E+02  0.34446892782E+02 -0.16747651827E+03  0.21609821307E+03  0.92039386385E+02 0.  0.
         13    1    3    3    0    0  0.75359049063E+01  0.83864056221E+02  0.94627432269E+02  0.12666617830E+03  0.00000000000E+00 0. -1.
        -14    1    3    3    0    0  0.11428882200E+02 -0.18443227876E+02  0.27284247669E+02  0.34859750052E+02  0.00000000000E+00 0.  1.
        -13    1    4    4    0    0  0.13958060231E+02  0.23774223545E+02  0.23791756101E+01  0.27671314156E+02  0.00000000000E+00 0.  1.
         13    1    4    4    0    0  0.80869237814E+02  0.10672669238E+02 -0.16985569388E+03  0.18842689892E+03  0.00000000000E+00 0. -1.
          2    1    1    2  501    0 -0.11379208515E+03 -0.99867721127E+02 -0.31777012387E+03  0.35199439199E+03  0.00000000000E+00 0. -1.
<scales pt_clust_5="13000.00000" pt_clust_6="13000.00000" pt_clust_7="13000.00000" pt_clust_8="13000.00000" pt_clust_9="128.58054"></scales>
<clustering>
<clus scale="   81.170">  5  6 -1 -1</clus>
<clus scale="   92.039">  7  8 -1 -1</clus>
<clus scale="  105.963">  1  5  2 -1</clus>
<clus scale="  128.581">  2  9  1 -1</clus>
<clus scale="  128.581">  2  5  1 -1</clus>
</clustering>
</event>
<event>
 9    1  0.7835476E-005  0.1963096E+03  0.7546771E-02  0.1153879E+00
         21   -1    0    0  501  502  0.00000000000E+00  0.00000000000E+00  0.12843486459E+03  0.12843486459E+03  0.00000000000E+00 0. -1.
          1   -1    0    0  502    0 -0.00000000000E+00 -0.00000000000E+00 -0.69584267687E+03  0.69584267687E+03  0.00000000000E+00 0. -1.
        -24    2    1    2    0    0 -0.47653091272E+02  0.16169175625E+03 -0.51556984514E+03  0.54846804809E+03  0.81178158473E+02 0.  0.
         23    2    1    2    0    0  0.35587716275E+02 -0.19614487154E+03 -0.75953563870E+02  0.23205846559E+03  0.91339429633E+02 0.  0.
         13    1    3    3    0    0 -0.65531812617E+01  0.74981228964E+02 -0.34155110519E+03  0.34974603119E+03  0.00000000000E+00 0. -1.
        -14    1    3    3    0    0 -0.41099910011E+02  0.86710527287E+02 -0.17401873995E+03  0.19872201690E+03  0.00000000000E+00 0.  1.
        -11    1    4    4    0    0 -0.10469461950E+02 -0.13094533081E+03 -0.16227526174E+02  0.13236170859E+03  0.00000000000E+00 0. -1.
         11    1    4    4    0    0  0.46057178225E+02 -0.65199540726E+02 -0.59726037695E+02  0.99696756997E+02  0.00000000000E+00 0.  1.
          2    1    1    2  501    0  0.12065374998E+02  0.34453115288E+02  0.24115596728E+02  0.43751027787E+02  0.00000000000E+00 0. -1.
<scales pt_clust_5="13000.00000" pt_clust_6="13000.00000" pt_clust_7="13000.00000" pt_clust_8="13000.00000" pt_clust_9="36.50466"></scales>
<clustering>
<clus scale="   36.505">  1  9  2 -1</clus>
<clus scale="   81.178">  5  6 -1 -1</clus>
<clus scale="   91.339">  7  8 -1 -1</clus>
<clus scale="  191.793">  2  5  1 -1</clus>
<clus scale="   36.505">  1  5  2 -1</clus>
</clustering>
</event>
<event>
 9    1  0.7835476E-005  0.9466676E+02  0.7546771E-02  0.1298057E+00
          1   -1    0    0  502    0 -0.00000000000E+00  0.00000000000E+00  0.38099135495E+03  0.38099135495E+03  0.00000000000E+00 0. -1.
         21   -1    0    0  501  502  0.00000000000E+00 -0.00000000000E+00 -0.72892717932E+02  0.72892717932E+02  0.00000000000E+00 0.  1.
         23    2    1    2    0    0 -0.12631165030E+02 -0.28564077913E+02  0.73609731076E+02  0.12167886200E+03  0.91716411138E+02 0.  0.
        -24    2    1    2    0    0 -0.49628224604E+02  0.85915534415E+01  0.72991309058E+01  0.95793859179E+02  0.81156704447E+02 0.  0.
         11    1    4    4    0    0 -0.61970626830E+02  0.26668730694E+02  0.20151588663E+02  0.70410697427E+02  0.00000000000E+00 0. -1.
        -12    1    4    4    0    0  0.12342402226E+02 -0.18077177252E+02 -0.12852457757E+02  0.25383161752E+02  0.00000000000E+00 0.  1.
        -11    1    3    3    0    0  0.13477749762E+02 -0.55589446561E+02  0.31726970512E+02  0.65409762004E+02  0.00000000000E+00 0. -1.
         11    1    3    3    0    0 -0.26108914792E+02  0.27025368647E+02  0.41882760564E+02  0.56269099998E+02  0.00000000000E+00 0.  1.
          2    1    1    2  501    0  0.62259389634E+02  0.19972524472E+02  0.22718977504E+03  0.23641135170E+03  0.00000000000E+00 0. -1.
<scales pt_clust_5="13000.00000" pt_clust_6="13000.00000" pt_clust_7="13000.00000" pt_clust_8="13000.00000" pt_clust_9="65.38454"></scales>
<clustering>
<clus scale="   65.385">  2  9  1 -1</clus>
<clus scale="   81.157">  5  6 -1 -1</clus>
<clus scale="   84.477">  2  5  1 -1</clus>
<clus scale="   91.716">  7  8 -1 -1</clus>
<clus scale="   65.385">  2  5  1 -1</clus>
</clustering>
</event>
<event>
 9    1  0.7835476E-005  0.1953003E+03  0.7546771E-02  0.1175199E+00
          1   -1    0    0  502    0 -0.00000000000E+00  0.00000000000E+00  0.20503658553E+03  0.20503658553E+03  0.00000000000E+00 0. -1.
         21   -1    0    0  501  502  0.00000000000E+00 -0.00000000000E+00 -0.45925275661E+03  0.45925275661E+03  0.00000000000E+00 0.  1.
        -24    2    1    2    0    0 -0.79661045749E+02 -0.38953483992E+02  0.30943228548E+02  0.12299911160E+03  0.79423182615E+02 0.  0.
         23    2    1    2    0    0 -0.11291190807E+03 -0.10276663393E+03 -0.23853276548E+03  0.29768608982E+03  0.91700860589E+02 0.  0.
         11    1    3    3    0    0 -0.62964599898E+02 -0.43530102944E+02  0.54354551576E+02  0.93881989645E+02  0.00000000000E+00 0. -1.
        -12    1    3    3    0    0 -0.16696445852E+02  0.45766189523E+01 -0.23411323028E+02  0.29117121956E+02  0.00000000000E+00 0.  1.
        -11    1    4    4    0    0  0.95373155361E+01 -0.29711438760E+02 -0.71871693132E+02  0.78353495484E+02  0.00000000000E+00 0. -1.
         11    1    4    4    0    0 -0.12244922361E+03 -0.73055195167E+02 -0.16666107234E+03  0.21933259433E+03  0.00000000000E+00 0.  1.
          2    1    1    2  501    0  0.19257295382E+03  0.14172011792E+03 -0.46626634144E+02  0.24360414072E+03  0.00000000000E+00 0. -1.
<scales pt_clust_5="13000.00000" pt_clust_6="13000.00000" pt_clust_7="13000.00000" pt_clust_8="13000.00000" pt_clust_9="172.43315"></scales>
<clustering>
<clus scale="   79.423">  5  6 -1 -1</clus>
<clus scale="   91.701">  7  8 -1 -1</clus>
<clus scale="  119.043">  1  5  2 -1</clus>
<clus scale="  172.433">  2  9  1 -1</clus>
<clus scale="  172.433">  2  5  1 -1</clus>
</clustering>
</event>
<event>
 9    1  0.7835476E-005  0.1890301E+03  0.7546771E-02  0.1160184E+00
          1   -1    0    0  502    0 -0.00000000000E+00  0.00000000000E+00  0.20438249626E+04  0.20438249626E+04  0.00000000000E+00 0. -1.
         21   -1    0    0  501  502  0.00000000000E+00 -0.00000000000E+00 -0.28764245888E+02  0.28764245888E+02  0.00000000000E+00 0. -1.
         23    2    1    2    0    0 -0.74917048860E+02  0.16250184772E+03  0.80565589309E+03  0.83014970418E+03  0.89708965816E+02 0.  0.
        -24    2    1    2    0    0 -0.42846808181E+01 -0.16135957432E+03  0.56671987220E+03  0.59489169484E+03  0.81666665953E+02 0.  0.
         13    1    4    4    0    0 -0.34914889379E+02 -0.13759140017E+03  0.43401426588E+03  0.45663861629E+03  0.00000000000E+00 0. -1.
        -14    1    4    4    0    0  0.30630208561E+02 -0.23768174141E+02  0.13270560633E+03  0.13825307855E+03  0.00000000000E+00 0.  1.
        -11    1    3    3    0    0 -0.40090605591E+02  0.10635322291E+03  0.66629186253E+03  0.67591649688E+03  0.00000000000E+00 0.  1.
         11    1    3    3    0    0 -0.34826443269E+02  0.56148624809E+02  0.13936403057E+03  0.15423320730E+03  0.00000000000E+00 0. -1.
          2    1    1    2  501    0  0.79201729678E+02 -0.11422734073E+01  0.64268495137E+03  0.64754780943E+03  0.00000000000E+00 0. -1.
<scales pt_clust_5="13000.00000" pt_clust_6="13000.00000" pt_clust_7="13000.00000" pt_clust_8="13000.00000" pt_clust_9="79.21001"></scales>
<clustering>
<clus scale="   79.210">  2  9  1 -1</clus>
<clus scale="   81.667">  5  6 -1 -1</clus>
<clus scale="   89.709">  7  8 -1 -1</clus>
<clus scale="  185.349">  2  5  1 -1</clus>
<clus scale="   79.210">  2  5  1 -1</clus>
</clustering>
</event>
<event>
 9    1  0.7835476E-005  0.1383914E+03  0.7546771E-02  0.1219205E+00
          1   -1    0    0  502    0 -0.00000000000E+00  0.00000000000E+00  0.16627162484E+03  0.16627162484E+03  0.00000000000E+00 0. -1.
         21   -1    0    0  501  502  0.00000000000E+00 -0.00000000000E+00 -0.62671297113E+03  0.62671297113E+03  0.00000000000E+00 0. -1.
         23    2    1    2    0    0  0.76003578410E+02  0.61824701276E+02  0.11077496337E+03  0.17709584706E+03  0.97432073356E+02 0.  0.
        -24    2    1    2    0    0 -0.29544090629E+02 -0.11984609283E+03 -0.29911882695E+03  0.33382137047E+03  0.82028626041E+02 0.  0.
         13    1    4    4    0    0 -0.47125902582E+02 -0.48776372597E+02 -0.19563531556E+03  0.20705835389E+03  0.00000000000E+00 0. -1.
        -14    1    4    4    0    0  0.17581811953E+02 -0.71069720228E+02 -0.10348351138E+03  0.12676301658E+03  0.00000000000E+00 0.  1.
        -13    1    3    3    0    0  0.24658192132E+02 -0.22573308934E+02  0.52970342701E+02  0.62637352445E+02  0.00000000000E+00 0.  1.
         13    1    3    3    0    0  0.51345386278E+02  0.84398010210E+02  0.57804620664E+02  0.11445849462E+03  0.00000000000E+00 0. -1.
          2    1    1    2  501    0 -0.46459487781E+02  0.58021391549E+02 -0.27209748271E+03  0.28206737844E+03  0.00000000000E+00 0. -1.
<scales pt_clust_5="13000.00000" pt_clust_6="13000.00000" pt_clust_7="13000.00000" pt_clust_8="13000.00000" pt_clust_9="74.33011"></scales>
<clustering>
<clus scale="   74.330">  2  9  1 -1</clus>
<clus scale="   82.029">  5  6 -1 -1</clus>
<clus scale="   97.432">  7  8 -1 -1</clus>
<clus scale="  128.015">  2  5  1 -1</clus>
<clus scale="   74.330">  2  5  1 -1</clus>
</clustering>
</event>
<event>
 9    1  0.7835476E-005  0.1037735E+03  0.7546771E-02  0.1277222E+00
         21   -1    0    0  501  502  0.00000000000E+00  0.00000000000E+00  0.90669042139E+02  0.90669042139E+02  0.00000000000E+00 0. -1.
          1   -1    0    0  502    0 -0.00000000000E+00 -0.00000000000E+00 -0.27490625376E+03  0.27490625376E+03  0.00000000000E+00 0. -1.
         23    2    1    2    0    0 -0.51261042602E+02 -0.68778326634E+01 -0.21449907839E+03  0.23837412229E+03  0.90207363755E+02 0.  0.
        -24    2    1    2    0    0  0.50593166736E+02 -0.15257374917E+02  0.39035334886E+02  0.10338128243E+03  0.79821527031E+02 0.  0.
         11    1    4    4    0    0  0.47099537358E+02 -0.45057769865E+02  0.21536298651E+02  0.68646785825E+02  0.00000000000E+00 0. -1.
        -12    1    4    4    0    0  0.34936293783E+01  0.29800394948E+02  0.17499036236E+02  0.34734496606E+02  0.00000000000E+00 0.  1.
        -11    1    3    3    0    0  0.24482024606E+02  0.35916690540E+01 -0.31600041528E+02  0.40135174598E+02  0.00000000000E+00 0.  1.
         11    1    3    3    0    0 -0.75743067208E+02 -0.10469501717E+02 -0.18289903687E+03  0.19823894769E+03  0.00000000000E+00 0. -1.
          2    1    1    2  501    0  0.66787586598E+00  0.22135207580E+02 -0.87734681092E+01  0.23819891172E+02  0.00000000000E+00 0. -1.
<scales pt_clust_5="13000.00000" pt_clust_6="13000.00000" pt_clust_7="13000.00000" pt_clust_8="13000.00000" pt_clust_9="22.14528"></scales>
<clustering>
<clus scale="   22.145">  1  9  2 -1</clus>
<clus scale="   79.822">  5  6 -1 -1</clus>
<clus scale="   90.207">  7  8 -1 -1</clus>
<clus scale="   94.884">  1  5  2 -1</clus>
<clus scale="   22.145">  1  5  2 -1</clus>
</clustering>
</event>
<event>
 9    1  0.7835476E-005  0.1176532E+03  0.7546771E-02  0.1249570E+00
         21   -1    0    0  501  502  0.00000000000E+00  0.00000000000E+00  0.33506349543E+02  0.33506349543E+02  0.00000000000E+00 0. -1.
          1   -1    0    0  502    0 -0.00000000000E+00 -0.00000000000E+00 -0.64524839198E+03  0.64524839198E+03  0.00000000000E+00 0. -1.
        -24    2    1    2    0    0  0.47091465234E+02  0.68709637781E+02 -0.30738194502E+03  0.32856823239E+03  0.80838127098E+02 0.  0.
         23    2    1    2    0    0  0.39649698200E+01 -0.78721346916E+02 -0.23704155334E+03  0.26510548741E+03  0.88766266107E+02 0.  0.
         11    1    3    3    0    0  0.41961998134E+02  0.47384096642E+02 -0.29811032311E+03  0.30475535541E+03  0.00000000000E+00 0. -1.
        -12    1    3    3    0    0  0.51294671002E+01  0.21325541140E+02 -0.92716219043E+01  0.23812876986E+02  0.00000000000E+00 0.  1.
        -11    1    4    4    0    0  0.16917268098E+02 -0.37312582106E+02 -0.21004916136E+03  0.21400717962E+03  0.00000000000E+00 0.  1.
         11    1    4    4    0    0 -0.12952298278E+02 -0.41408764810E+02 -0.26992391986E+02  0.51098307789E+02  0.00000000000E+00 0. -1.
          2    1    1    2  501    0 -0.51056435054E+02  0.10011709135E+02 -0.67318544074E+02  0.85081021717E+02  0.00000000000E+00 0. -1.
<scales pt_clust_5="13000.00000" pt_clust_6="13000.00000" pt_clust_7="13000.00000" pt_clust_8="13000.00000" pt_clust_9="52.02878"></scales>
<clustering>
<clus scale="   52.029">  1  9  2 -1</clus>
<clus scale="   80.838">  5  6 -1 -1</clus>
<clus scale="   88.766">  7  8 -1 -1</clus>
<clus scale="  111.793">  2  5  1 -1</clus>
<clus scale="   52.029">  1  5  2 -1</clus>
</clustering>
</event>
<event>
 9    1  0.7835476E-005  0.2133253E+03  0.7546771E-02  0.1168360E+00
         21   -1    0    0  501  502  0.00000000000E+00  0.00000000000E+00  0.72691138699E+02  0.72691138699E+02  0.00000000000E+00 0. -1.
          3   -1    0    0  502    0 -0.00000000000E+00 -0.00000000000E+00 -0.18945214772E+04  0.18945214772E+04  0.00000000000E+00 0. -1.
        -24    2    1    2    0    0 -0.71917625270E+01 -0.69353604550E+02 -0.99571996314E+01  0.10722385467E+03  0.80846553878E+02 0.  0.
         23    2    1    2    0    0  0.12284764626E+03 -0.12426626654E+03 -0.79550319393E+03  0.81889664095E+03  0.85045445595E+02 0.  0.
         11    1    3    3    0    0  0.18067789935E+02 -0.44799795908E+02  0.27678762402E+02  0.55673877489E+02  0.00000000000E+00 0. -1.
        -12    1    3    3    0    0 -0.25259552462E+02 -0.24553808642E+02 -0.37635962034E+02  0.51549977183E+02  0.00000000000E+00 0.  1.
        -13    1    4    4    0    0  0.58499319792E+02 -0.13819853815E+02 -0.16602890026E+03  0.17657506760E+03  0.00000000000E+00 0.  1.
         13    1    4    4    0    0  0.64348326463E+02 -0.11044641273E+03 -0.62947429367E+03  0.64232157335E+03  0.00000000000E+00 0. -1.
          4    1    1    2  501    0 -0.11565588373E+03  0.19361987109E+03 -0.10163699449E+04  0.10410921203E+04  0.00000000000E+00 0. -1.
<scales pt_clust_5="13000.00000" pt_clust_6="13000.00000" pt_clust_7="13000.00000" pt_clust_8="13000.00000" pt_clust_9="195.63994"></scales>
<clustering>
<clus scale="   80.847">  5  6 -1 -1</clus>
<clus scale="   85.045">  7  8 -1 -1</clus>
<clus scale="  106.761">  2  5  1 -1</clus>
<clus scale="  195.640">  1  9  2 -1</clus>
<clus scale="  195.640">  1  5  2 -1</clus>
</clustering>
</event>
<event>
 9    1  0.7835476E-005  0.3873928E+03  0.7546771E-02  0.1048235E+00
          1   -1    0    0  502    0 -0.00000000000E+00  0.00000000000E+00  0.10074591022E+04  0.10074591022E+04  0.00000000000E+00 0. -1.
         21   -1    0    0  501  502  0.00000000000E+00 -0.00000000000E+00 -0.35376773849E+03  0.35376773849E+03  0.00000000000E+00 0. -1.
        -24    2    1    2    0    0 -0.14136182277E+03  0.23277986458E+03  0.59832844007E+03  0.66226912706E+03  0.80211247152E+02 0.  0.
         23    2    1    2    0    0 -0.37668545912E+02  0.31734575534E+02  0.28719624263E+03  0.30428512809E+03  0.87645620328E+02 0.  0.
         11    1    3    3    0    0 -0.14725634681E+03  0.23293589938E+03  0.59442336563E+03  0.65519668994E+03  0.00000000000E+00 0. -1.
        -12    1    3    3    0    0  0.58945240363E+01 -0.15603479858E+00  0.39050744313E+01  0.70724371179E+01  0.00000000000E+00 0.  1.
        -13    1    4    4    0    0  0.74099005809E+01  0.47598491951E+02  0.98737523962E+02  0.10986183004E+03  0.00000000000E+00 0.  1.
         13    1    4    4    0    0 -0.45078446492E+02 -0.15863916417E+02  0.18845871866E+03  0.19442329805E+03  0.00000000000E+00 0. -1.
          2    1    1    2  501    0  0.17903036868E+03 -0.26451444011E+03 -0.23183331903E+03  0.39467258551E+03  0.00000000000E+00 0. -1.
<scales pt_clust_5="13000.00000" pt_clust_6="13000.00000" pt_clust_7="13000.00000" pt_clust_8="13000.00000" pt_clust_9="319.40533"></scales>
<clustering>
<clus scale="   80.211">  5  6 -1 -1</clus>
<clus scale="   87.646">  7  8 -1 -1</clus>
<clus scale="  100.194">  5  7 -1 -1</clus>
<clus scale="  319.405">  2  9  1 -1</clus>
<clus scale="  319.405">  2  5  1 -1</clus>
</clustering>
</event>
<event>
 9    1  0.7835476E-005  0.1137656E+03  0.7546771E-02  0.1256873E+00
         -2   -1    0    0    0  501 -0.00000000000E+00  0.00000000000E+00  0.16830483061E+03  0.16830483061E+03  0.00000000000E+00 0.  1.
         21   -1    0    0  501  502  0.00000000000E+00 -0.00000000000E+00 -0.16794279078E+03  0.16794279078E+03  0.00000000000E+00 0.  1.
        -24    2    1    2    0    0  0.68593677991E+02 -0.33102460562E+02  0.46898912088E+02  0.12044971427E+03  0.80670689576E+02 0.  0.
         23    2    1    2    0    0 -0.52086600522E+02  0.51217565167E+01 -0.10584602367E+03  0.14817410328E+03  0.89515014458E+02 0.  0.
         13    1    3    3    0    0  0.18493254212E+02  0.10302473375E+02  0.49785503572E+02  0.54099332481E+02  0.00000000000E+00 0. -1.
        -14    1    3    3    0    0  0.50100423779E+02 -0.43404933937E+02 -0.28865914842E+01  0.66350381787E+02  0.00000000000E+00 0.  1.
        -11    1    4    4    0    0 -0.67505857981E+02  0.22979610717E+02 -0.10171477843E+03  0.12422157430E+03  0.00000000000E+00 0.  1.
         11    1    4    4    0    0  0.15419257459E+02 -0.17857854200E+02 -0.41312452313E+01  0.23952528977E+02  0.00000000000E+00 0. -1.
         -1    1    1    2    0  502 -0.16507077469E+02  0.27980704046E+02  0.59309151410E+02  0.67623803845E+02  0.00000000000E+00 0.  1.
<scales pt_clust_5="13000.00000" pt_clust_6="13000.00000" pt_clust_7="13000.00000" pt_clust_8="13000.00000" pt_clust_9="32.48699"></scales>
<clustering>
<clus scale="   32.487">  2  9  1 -1</clus>
<clus scale="   80.671">  5  6 -1 -1</clus>
<clus scale="   89.515">  7  8 -1 -1</clus>
<clus scale="  106.946">  1  5  2 -1</clus>
<clus scale="   32.487">  2  5  1 -1</clus>
</clustering>
</event>
<event>
 9    1  0.7835476E-005  0.1196523E+03  0.7546771E-02  0.1252121E+00
          1   -1    0    0  502    0 -0.00000000000E+00  0.00000000000E+00  0.12767119797E+03  0.12767119797E+03  0.00000000000E+00 0. -1.
         21   -1    0    0  501  502  0.00000000000E+00 -0.00000000000E+00 -0.40339298355E+03  0.40339298355E+03  0.00000000000E+00 0. -1.
        -24    2    1    2    0    0 -0.62732349612E+02  0.47076120233E+02  0.39675009618E+02  0.10969648073E+03  0.65633091603E+02 0.  0.
         23    2    1    2    0    0  0.52634857368E+02 -0.28925803080E+02 -0.35775620643E+03  0.37419023708E+03  0.91769820737E+02 0.  0.
         11    1    3    3    0    0 -0.32416340414E+02  0.25803090400E+01  0.45079079653E+02  0.55584175292E+02  0.00000000000E+00 0. -1.
        -12    1    3    3    0    0 -0.30316009197E+02  0.44495811193E+02 -0.54040700343E+01  0.54112305442E+02  0.00000000000E+00 0.  1.
        -13    1    4    4    0    0  0.76040300709E+02 -0.28388232775E+02 -0.31662384042E+03  0.32686185983E+03  0.00000000000E+00 0. -1.
         13    1    4    4    0    0 -0.23405443341E+02 -0.53757030548E+00 -0.41132366011E+02  0.47328377253E+02  0.00000000000E+00 0.  1.
          2    1    1    2  501    0  0.10097492243E+02 -0.18150317152E+02  0.42359411227E+02  0.47177463707E+02  0.00000000000E+00 0. -1.
<scales pt_clust_5="13000.00000" pt_clust_6="13000.00000" pt_clust_7="13000.00000" pt_clust_8="13000.00000" pt_clust_9="20.77002"></scales>
<clustering>
<clus scale="   20.770">  2  9  1 -1</clus>
<clus scale="   65.633">  5  6 -1 -1</clus>
<clus scale="   91.770">  7  8 -1 -1</clus>
<clus scale="  101.008">  1  5  2 -1</clus>
<clus scale="   20.770">  2  5  1 -1</clus>
</clustering>
</event>
<event>
 9    1  0.7835476E-005  0.1277443E+03  0.7546771E-02  0.1235515E+00
          1   -1    0    0  502    0 -0.00000000000E+00  0.00000000000E+00  0.46542761135E+03  0.46542761135E+03  0.00000000000E+00 0. -1.
         21   -1    0    0  501  502  0.00000000000E+00 -0.00000000000E+00 -0.26176640209E+03  0.26176640209E+03  0.00000000000E+00 0. -1.
         23    2    1    2    0    0  0.77896234501E+02  0.38881271843E+02  0.29098358729E+03  0.31852042152E+03  0.95938700247E+02 0.  0.
        -24    2    1    2    0    0  0.29551311616E+01 -0.87372449329E+02 -0.21770658832E+03  0.24777492842E+03  0.79709339809E+02 0.  0.
         11    1    4    4    0    0 -0.34905988648E+02 -0.51754546882E+02 -0.14956397617E+03  0.16206894871E+03  0.00000000000E+00 0. -1.
        -12    1    4    4    0    0  0.37861119809E+02 -0.35617902447E+02 -0.68142612143E+02  0.85705979708E+02  0.00000000000E+00 0.  1.
        -11    1    3    3    0    0 -0.11896100307E+02  0.31675497831E+02  0.43219421800E+02  0.54888730957E+02  0.00000000000E+00 0.  1.
         11    1    3    3    0    0  0.89792334808E+02  0.72057740126E+01  0.24776416549E+03  0.26363169056E+03  0.00000000000E+00 0. -1.
          2    1    1    2  501    0 -0.80851365663E+02  0.48491177486E+02  0.13038421029E+03  0.16089866350E+03  0.00000000000E+00 0. -1.
<scales pt_clust_5="13000.00000" pt_clust_6="13000.00000" pt_clust_7="13000.00000" pt_clust_8="13000.00000" pt_clust_9="94.27803"></scales>
<clustering>
<clus scale="   79.709">  5  6 -1 -1</clus>
<clus scale="   94.278">  2  9  1 -1</clus>
<clus scale="   95.939">  7  8 -1 -1</clus>
<clus scale="  116.052">  2  5  1 -1</clus>
<clus scale="   94.278">  2  5  1 -1</clus>
</clustering>
</event>
<event>
 9    1  0.7835476E-005  0.2207499E+03  0.7546771E-02  0.1134064E+00
         21   -1    0    0  501  502  0.00000000000E+00  0.00000000000E+00  0.43457596214E+02  0.43457596214E+02  0.00000000000E+00 0. -1.
          1   -1    0    0  502    0 -0.00000000000E+00 -0.00000000000E+00 -0.20685863814E+04  0.20685863814E+04  0.00000000000E+00 0. -1.
         23    2    1    2    0    0 -0.22393717295E+03 -0.54740354195E+02 -0.13361740652E+04  0.13589423809E+04  0.90658139898E+02 0.  0.
        -24    2    1    2    0    0  0.11689732215E+03  0.88689898959E+02 -0.25643788108E+03  0.30624488903E+03  0.80589472649E+02 0.  0.
         11    1    4    4    0    0  0.10291365063E+03  0.10424385063E+03 -0.22345823174E+03  0.26719203059E+03  0.00000000000E+00 0. -1.
        -12    1    4    4    0    0  0.13983671522E+02 -0.15553951669E+02 -0.32979649339E+02  0.39052858439E+02  0.00000000000E+00 0.  1.
        -11    1    3    3    0    0 -0.56274877979E+02 -0.56916110254E+02 -0.43077528536E+03  0.43814797954E+03  0.00000000000E+00 0.  1.
         11    1    3    3    0    0 -0.16766229497E+03  0.21757560588E+01 -0.90539877987E+03  0.92079440141E+03  0.00000000000E+00 0. -1.
          2    1    1    2  501    0  0.10703985080E+03 -0.33949544764E+02 -0.43251683890E+03  0.44685670766E+03  0.00000000000E+00 0. -1.
<scales pt_clust_5="13000.00000" pt_clust_6="13000.00000" pt_clust_7="13000.00000" pt_clust_8="13000.00000" pt_clust_9="112.29476"></scales>
<clustering>
<clus scale="   80.589">  5  6 -1 -1</clus>
<clus scale="   90.658">  7  8 -1 -1</clus>
<clus scale="  112.295">  1  9  2 -1</clus>
<clus scale="  216.809">  1  5  2 -1</clus>
<clus scale="  112.295">  1  5  2 -1</clus>
</clustering>
</event>
<event>
 9    1  0.7835476E-005  0.9415246E+02  0.7546771E-02  0.1297796E+00
         21   -1    0    0  501  502  0.00000000000E+00  0.00000000000E+00  0.41785073096E+02  0.41785073096E+02  0.00000000000E+00 0. -1.
          1   -1    0    0  502    0 -0.00000000000E+00 -0.00000000000E+00 -0.68915970861E+03  0.68915970861E+03  0.00000000000E+00 0. -1.
        -24    2    1    2    0    0 -0.36281402645E+02 -0.77402738307E+01 -0.45473632731E+03  0.46357768831E+03  0.82115124750E+02 0.  0.
         23    2    1    2    0    0 -0.31526154496E+02 -0.30544854493E+02 -0.71251488188E+02  0.12315067293E+03  0.90346151668E+02 0.  0.
         11    1    3    3    0    0 -0.40040995435E+02  0.31031662761E+02 -0.28078222360E+03  0.28531544385E+03  0.00000000000E+00 0. -1.
        -12    1    3    3    0    0  0.37595927899E+01 -0.38771936591E+02 -0.17395410371E+03  0.17826224446E+03  0.00000000000E+00 0.  1.
        -11    1    4    4    0    0  0.14708040137E+02  0.24044796686E+02 -0.13715123488E+02  0.31346184849E+02  0.00000000000E+00 0.  1.
         11    1    4    4    0    0 -0.46234194633E+02 -0.54589651179E+02 -0.57536364700E+02  0.91804488082E+02  0.00000000000E+00 0. -1.
          2    1    1    2  501    0  0.67807557141E+02  0.38285128324E+02 -0.12138682002E+03  0.14421642046E+03  0.00000000000E+00 0. -1.
<scales pt_clust_5="13000.00000" pt_clust_6="13000.00000" pt_clust_7="13000.00000" pt_clust_8="13000.00000" pt_clust_9="77.86922"></scales>
<clustering>
<clus scale="   77.869">  1  9  2 -1</clus>
<clus scale="   82.115">  5  6 -1 -1</clus>
<clus scale="   86.285">  2  5  1 -1</clus>
<clus scale="   90.346">  7  8 -1 -1</clus>
<clus scale="   77.869">  1  5  2 -1</clus>
</clustering>
</event>
<event>
 9    1  0.7835476E-005  0.1492774E+03  0.7546771E-02  0.1204228E+00
         21   -1    0    0  501  502  0.00000000000E+00  0.00000000000E+00  0.23755766169E+03  0.23755766169E+03  0.00000000000E+00 0.  1.
          3   -1    0    0  502    0 -0.00000000000E+00 -0.00000000000E+00 -0.18522993144E+03  0.18522993144E+03  0.00000000000E+00 0. -1.
         23    2    1    2    0    0  0.10142045168E+03  0.41619560765E+02 -0.96557571529E+02  0.17426487851E+03  0.95008354404E+02 0.  0.
        -24    2    1    2    0    0 -0.11731803035E+03 -0.75968212445E+02  0.12030481228E+03  0.20109479815E+03  0.80194640944E+02 0.  0.
         11    1    4    4    0    0 -0.71953738045E+02 -0.38004084521E+02  0.18652966850E+02  0.83484034589E+02  0.00000000000E+00 0. -1.
        -12    1    4    4    0    0 -0.45364292309E+02 -0.37964127924E+02  0.10165184543E+03  0.11761076356E+03  0.00000000000E+00 0.  1.
        -13    1    3    3    0    0  0.15827580178E+02 -0.18080653596E+02  0.91606962919E+01  0.25716544973E+02  0.00000000000E+00 0.  1.
         13    1    3    3    0    0  0.85592871498E+02  0.59700214361E+02 -0.10571826782E+03  0.14854833354E+03  0.00000000000E+00 0. -1.
          4    1    1    2  501    0  0.15897578678E+02  0.34348651681E+02  0.28580489507E+02  0.47427916469E+02  0.00000000000E+00 0. -1.
<scales pt_clust_5="13000.00000" pt_clust_6="13000.00000" pt_clust_7="13000.00000" pt_clust_8="13000.00000" pt_clust_9="37.84921"></scales>
<clustering>
<clus scale="   37.849">  1  9  2 -1</clus>
<clus scale="   80.195">  5  6 -1 -1</clus>
<clus scale="   95.008">  7  8 -1 -1</clus>
<clus scale="  140.315">  1  5  2 -1</clus>
<clus scale="   37.849">  1  5  2 -1</clus>
</clustering>
</event>
<event>
 9    1  0.7835476E-005  0.1742980E+03  0.7546771E-02  0.1193248E+00
          1   -1    0    0  502    0 -0.00000000000E+00  0.00000000000E+00  0.65354806155E+03  0.65354806155E+03  0.00000000000E+00 0. -1.
         21   -1    0    0  501  502  0.00000000000E+00 -0.00000000000E+00 -0.89973833663E+02  0.89973833663E+02  0.00000000000E+00 0.  1.
        -24    2    1    2    0    0 -0.22234462785E+02  0.76919895003E+02  0.24712530661E+03  0.27129750569E+03  0.78232843791E+02 0.  0.
         23    2    1    2    0    0 -0.14048382660E+03 -0.15066837022E+02  0.10168077200E+03  0.19576752050E+03  0.89572471081E+02 0.  0.
         13    1    3    3    0    0  0.26747859330E+02  0.18119727084E+02  0.46949620472E+02  0.56991572630E+02  0.00000000000E+00 0. -1.
        -14    1    3    3    0    0 -0.48982322115E+02  0.58800167919E+02  0.20017568613E+03  0.21430593306E+03  0.00000000000E+00 0.  1.
        -13    1    4    4    0    0 -0.34022440266E+02  0.19709058953E+02  0.68458917435E+02  0.78946797420E+02  0.00000000000E+00 0. -1.
         13    1    4    4    0    0 -0.10646138633E+03 -0.34775895975E+02  0.33221854563E+02  0.11682072308E+03  0.00000000000E+00 0.  1.
          2    1    1    2  501    0  0.16271828938E+03 -0.61853057981E+02  0.21476814928E+03  0.27645686901E+03  0.00000000000E+00 0. -1.
<scales pt_clust_5="13000.00000" pt_clust_6="13000.00000" pt_clust_7="13000.00000" pt_clust_8="13000.00000" pt_clust_9="149.52120"></scales>
<clustering>
<clus scale="   78.233">  5  6 -1 -1</clus>
<clus scale="   89.572">  7  8 -1 -1</clus>
<clus scale="  111.944">  1  5  2 -1</clus>
<clus scale="  149.521">  2  9  1 -1</clus>
<clus scale="  149.521">  2  5  1 -1</clus>
</clustering>
</event>
<event>
 9    1  0.7835476E-005  0.1166204E+03  0.7546771E-02  0.1252709E+00
         -4   -1    0    0    0  501 -0.00000000000E+00  0.00000000000E+00  0.13560417749E+03  0.13560417749E+03  0.00000000000E+00 0.  1.
         21   -1    0    0  501  502  0.00000000000E+00 -0.00000000000E+00 -0.31046652797E+03  0.31046652797E+03  0.00000000000E+00 0. -1.
         23    2    1    2    0    0  0.44712638336E+02  0.59772327101E+02  0.93367948043E+02  0.15078902863E+03  0.91911948729E+02 0.  0.
        -24    2    1    2    0    0 -0.23228336517E+02 -0.47475347353E+02 -0.18641652754E+03  0.20980487263E+03  0.80458054996E+02 0.  0.
         11    1    4    4    0    0  0.29467690680E+02 -0.11243800947E+02 -0.74590341956E+02  0.80984485964E+02  0.00000000000E+00 0. -1.
        -12    1    4    4    0    0 -0.52696027198E+02 -0.36231546406E+02 -0.11182618559E+03  0.12882038666E+03  0.00000000000E+00 0.  1.
        -11    1    3    3    0    0 -0.12200856444E+02 -0.18147548588E+02  0.18898774685E+02  0.28902562210E+02  0.00000000000E+00 0.  1.
         11    1    3    3    0    0  0.56913494781E+02  0.77919875689E+02  0.74469173358E+02  0.12188646642E+03  0.00000000000E+00 0. -1.
         -3    1    1    2    0  502 -0.21484301819E+02 -0.12296979748E+02 -0.81813770972E+02  0.85476804201E+02  0.00000000000E+00 0.  1.
<scales pt_clust_5="13000.00000" pt_clust_6="13000.00000" pt_clust_7="13000.00000" pt_clust_8="13000.00000" pt_clust_9="24.75461"></scales>
<clustering>
<clus scale="   24.755">  2  9  1 -1</clus>
<clus scale="   80.458">  5  6 -1 -1</clus>
<clus scale="   91.912">  7  8 -1 -1</clus>
<clus scale="  107.824">  2  5  1 -1</clus>
<clus scale="   24.755">  2  5  1 -1</clus>
</clustering>
</event>
<event>
 9    1  0.7835476E-005  0.1274108E+03  0.7546771E-02  0.1248812E+00
         21   -1    0    0  501  502  0.00000000000E+00  0.00000000000E+00  0.21324698135E+03  0.21324698135E+03  0.00000000000E+00 0. -1.
          1   -1    0    0  502    0 -0.00000000000E+00 -0.00000000000E+00 -0.18965220114E+03  0.18965220114E+03  0.00000000000E+00 0. -1.
        -24    2    1    2    0    0  0.29045871897E+02 -0.25808535853E+02 -0.10411517540E+03  0.13721156521E+03  0.80481679176E+02 0.  0.
         23    2    1    2    0    0  0.50302849118E+02 -0.38708985293E+02  0.95538260623E+01  0.10941989505E+03  0.88615324114E+02 0.  0.
         11    1    3    3    0    0  0.41493928700E+02  0.85662158966E+01 -0.87159378092E+02  0.96911729750E+02  0.00000000000E+00 0. -1.
        -12    1    3    3    0    0 -0.12448056804E+02 -0.34374751750E+02 -0.16955797304E+02  0.40299835462E+02  0.00000000000E+00 0.  1.
        -11    1    4    4    0    0  0.29978031859E+02  0.22873680693E+02 -0.14290799567E+02  0.40325111467E+02  0.00000000000E+00 0.  1.
         11    1    4    4    0    0  0.20324817259E+02 -0.61582665986E+02  0.23844625630E+02  0.69094783580E+02  0.00000000000E+00 0. -1.
          2    1    1    2  501    0 -0.79348721014E+02  0.64517521146E+02  0.11815612955E+03  0.15626772223E+03  0.00000000000E+00 0. -1.
<scales pt_clust_5="13000.00000" pt_clust_6="13000.00000" pt_clust_7="13000.00000" pt_clust_8="13000.00000" pt_clust_9="91.54695"></scales>
<clustering>
<clus scale="   80.482">  5  6 -1 -1</clus>
<clus scale="   88.615">  7  8 -1 -1</clus>
<clus scale="   89.370">  2  5  1 -1</clus>
<clus scale="   91.547">  1  9  2 -1</clus>
<clus scale="   91.547">  1  5  2 -1</clus>
</clustering>
</event>
<event>
 9    1  0.7835476E-005  0.1261883E+03  0.7546771E-02  0.1255530E+00
          1   -1    0    0  502    0 -0.00000000000E+00  0.00000000000E+00  0.23089109545E+03  0.23089109545E+03  0.00000000000E+00 0. -1.
         21   -1    0    0  501  502  0.00000000000E+00 -0.00000000000E+00 -0.15411148801E+03  0.15411148801E+03  0.00000000000E+00 0. -1.
        -24    2    1    2    0    0  0.10513237304E+02 -0.74658612142E+00  0.28961136325E+02  0.85529946540E+02  0.79784326710E+02 0.  0.
         23    2    1    2    0    0  0.39824364193E+02  0.69517993355E+02  0.13138983399E+03  0.18010952171E+03  0.93581087569E+02 0.  0.
         11    1    3    3    0    0 -0.30727319980E+02 -0.18180821461E+02  0.12778141191E+02  0.37920856457E+02  0.00000000000E+00 0. -1.
        -12    1    3    3    0    0  0.41240557284E+02  0.17434235340E+02  0.16182995134E+02  0.47609090083E+02  0.00000000000E+00 0.  1.
        -11    1    4    4    0    0  0.91279199659E+01 -0.19952791131E+02  0.52636833731E+02  0.57026915242E+02  0.00000000000E+00 0.  1.
         11    1    4    4    0    0  0.30696444227E+02  0.89470784486E+02  0.78753000263E+02  0.12308260647E+03  0.00000000000E+00 0. -1.
          2    1    1    2  501    0 -0.50337601497E+02 -0.68771407234E+02 -0.83571362878E+02  0.11936311520E+03  0.00000000000E+00 0. -1.
<scales pt_clust_5="13000.00000" pt_clust_6="13000.00000" pt_clust_7="13000.00000" pt_clust_8="13000.00000" pt_clust_9="84.65260"></scales>
<clustering>
<clus scale="   79.784">  5  6 -1 -1</clus>
<clus scale="   80.477">  1  5  2 -1</clus>
<clus scale="   84.653">  2  9  1 -1</clus>
<clus scale="   93.581">  7  8 -1 -1</clus>
<clus scale="   84.653">  2  5  1 -1</clus>
</clustering>
</event>
<event>
 9    1  0.7835476E-005  0.8954018E+02  0.7546771E-02  0.1304009E+00
         -2   -1    0    0    0  501 -0.00000000000E+00  0.00000000000E+00  0.31167557698E+03  0.31167557698E+03  0.00000000000E+00 0.  1.
         21   -1    0    0  501  502  0.00000000000E+00 -0.00000000000E+00 -0.93650778391E+02  0.93650778391E+02  0.00000000000E+00 0.  1.
         23    2    1    2    0    0 -0.59352449089E+01 -0.36104277063E+02  0.24066585886E+03  0.25633072571E+03  0.80290966891E+02 0.  0.
        -24    2    1    2    0    0 -0.20233101813E+02  0.59337090313E+02  0.83311328989E+01  0.10226424052E+03  0.80363539109E+02 0.  0.
         11    1    4    4    0    0  0.13825472466E+02 -0.14778350704E+02  0.36489771972E+01  0.20563520444E+02  0.00000000000E+00 0. -1.
        -12    1    4    4    0    0 -0.34058574279E+02  0.74115441018E+02  0.46821557017E+01  0.81700720077E+02  0.00000000000E+00 0.  1.
        -11    1    3    3    0    0 -0.34113179226E+02 -0.23632300743E+02  0.20517204610E+03  0.20932692884E+03  0.00000000000E+00 0.  1.
         11    1    3    3    0    0  0.28177934317E+02 -0.12471976320E+02  0.35493812765E+02  0.47003796871E+02  0.00000000000E+00 0. -1.
         -1    1    1    2    0  502  0.26168346721E+02 -0.23232813250E+02 -0.30972193171E+02  0.46731389145E+02  0.00000000000E+00 0.  1.
<scales pt_clust_5="13000.00000" pt_clust_6="13000.00000" pt_clust_7="13000.00000" pt_clust_8="13000.00000" pt_clust_9="34.99351"></scales>
<clustering>
<clus scale="   34.994">  2  9  1 -1</clus>
<clus scale="   80.291">  7  8 -1 -1</clus>
<clus scale="   80.364">  5  6 -1 -1</clus>
<clus scale="   89.475">  1  7  2 -1</clus>
<clus scale="   34.994">  2  5  1 -1</clus>
</clustering>
</event>
<event>
 9    1  0.7835476E-005  0.1220201E+03  0.7546771E-02  0.1242765E+00
         21   -1    0    0  501  502  0.00000000000E+00  0.00000000000E+00  0.54959971662E+03  0.54959971662E+03  0.00000000000E+00 0. -1.
          1   -1    0    0  502    0 -0.00000000000E+00 -0.00000000000E+00 -0.11581150774E+03  0.11581150774E+03  0.00000000000E+00 0. -1.
        -24    2    1    2    0    0  0.74534324806E+02 -0.54403976660E+02 -0.23071743164E+02  0.12432898462E+03  0.80063929671E+02 0.  0.
         23    2    1    2    0    0  0.25713313249E+02  0.10174943030E+03  0.10917554623E+03  0.17614988030E+03  0.89974215153E+02 0.  0.
         13    1    3    3    0    0  0.68111664361E+02 -0.24854978978E+02 -0.46449024955E+02  0.86107379018E+02  0.00000000000E+00 0. -1.
        -14    1    3    3    0    0  0.64226604448E+01 -0.29548997682E+02  0.23377281791E+02  0.38221605606E+02  0.00000000000E+00 0.  1.
        -13    1    4    4    0    0 -0.28651826572E+02  0.64260838269E+02  0.41954214562E+02  0.81917877295E+02  0.00000000000E+00 0. -1.
         13    1    4    4    0    0  0.54365139821E+02  0.37488592029E+02  0.67221331667E+02  0.94232003009E+02  0.00000000000E+00 0.  1.
          2    1    1    2  501    0 -0.10024763806E+03 -0.47345453638E+02  0.34768440581E+03  0.36493235943E+03  0.00000000000E+00 0. -1.
<scales pt_clust_5="13000.00000" pt_clust_6="13000.00000" pt_clust_7="13000.00000" pt_clust_8="13000.00000" pt_clust_9="110.86560"></scales>
<clustering>
<clus scale="   80.064">  5  6 -1 -1</clus>
<clus scale="   89.974">  7  8 -1 -1</clus>
<clus scale="  110.866">  1  9  2 -1</clus>
<clus scale="  114.908">  2  5  1 -1</clus>
<clus scale="  110.866">  1  5  2 -1</clus>
</clustering>
</event>
<event>
 9    1  0.7835476E-005  0.1518391E+03  0.7546771E-02  0.1200015E+00
          1   -1    0    0  502    0 -0.00000000000E+00  0.00000000000E+00  0.18179519740E+03  0.18179519740E+03  0.00000000000E+00 0. -1.
         21   -1    0    0  501  502  0.00000000000E+00 -0.00000000000E+00 -0.16390245542E+03  0.16390245542E+03  0.00000000000E+00 0. -1.
         23    2    1    2    0    0 -0.34178119088E+02 -0.10763319109E+03  0.40193012001E+02  0.15081262729E+03  0.91520067138E+02 0.  0.
        -24    2    1    2    0    0  0.13560274231E+02  0.13437314256E+03 -0.73289184196E+01  0.15794910940E+03  0.81573191909E+02 0.  0.
         13    1    4    4    0    0  0.24715375031E+02  0.59813374493E+02  0.32787989842E+02  0.72550270909E+02  0.00000000000E+00 0. -1.
        -14    1    4    4    0    0 -0.11155100800E+02  0.74559768063E+02 -0.40116908261E+02  0.85398838493E+02  0.00000000000E+00 0.  1.
        -13    1    3    3    0    0 -0.57376770179E+02 -0.30845842827E+02  0.17862725422E+02  0.67547292583E+02  0.00000000000E+00 0.  1.
         13    1    3    3    0    0  0.23198651090E+02 -0.76787348265E+02  0.22330286580E+02  0.83265334712E+02  0.00000000000E+00 0. -1.
          2    1    1    2  501    0  0.20617844858E+02 -0.26739951465E+02 -0.14971351598E+02  0.36935916119E+02  0.00000000000E+00 0. -1.
<scales pt_clust_5="13000.00000" pt_clust_6="13000.00000" pt_clust_7="13000.00000" pt_clust_8="13000.00000" pt_clust_9="33.76567"></scales>
<clustering>
<clus scale="   33.766">  2  9  1 -1</clus>
<clus scale="   81.573">  5  6 -1 -1</clus>
<clus scale="   91.520">  7  8 -1 -1</clus>
<clus scale="  146.059">  2  5  1 -1</clus>
<clus scale="   33.766">  2  5  1 -1</clus>
</clustering>
</event>
<event>
 9    1  0.7835476E-005  0.1020928E+03  0.7546771E-02  0.1280849E+00
         21   -1    0    0  501  502  0.00000000000E+00  0.00000000000E+00  0.25853671782E+02  0.25853671782E+02  0.00000000000E+00 0. -1.
         -4   -1    0    0    0  501 -0.00000000000E+00 -0.00000000000E+00 -0.65313443506E+03  0.65313443506E+03  0.00000000000E+00 0.  1.
        -24    2    1    2    0    0 -0.77294945006E+01 -0.36746512636E+02 -0.37177543129E+03  0.38253082953E+03  0.81870708755E+02 0.  0.
         23    2    1    2    0    0 -0.64642932259E+01  0.66903704216E+02 -0.16999482287E+03  0.20468055377E+03  0.92076036875E+02 0.  0.
         11    1    3    3    0    0  0.22589996764E+02 -0.61282149003E+01 -0.30005007012E+02  0.38054742378E+02  0.00000000000E+00 0. -1.
        -12    1    3    3    0    0 -0.30319491264E+02 -0.30618297736E+02 -0.34177042428E+03  0.34447608715E+03  0.00000000000E+00 0.  1.
        -11    1    4    4    0    0 -0.16393277816E+02 -0.13516808978E+02 -0.83491536973E+02  0.86152657699E+02  0.00000000000E+00 0.  1.
         11    1    4    4    0    0  0.99289845898E+01  0.80420513194E+02 -0.86503285895E+02  0.11852789608E+03  0.00000000000E+00 0. -1.
         -3    1    1    2    0  502  0.14193787727E+02 -0.30157191580E+02 -0.85510509118E+02  0.91776723539E+02  0.00000000000E+00 0.  1.
<scales pt_clust_5="13000.00000" pt_clust_6="13000.00000" pt_clust_7="13000.00000" pt_clust_8="13000.00000" pt_clust_9="33.33048"></scales>
<clustering>
<clus scale="   33.330">  1  9  2 -1</clus>
<clus scale="   81.871">  5  6 -1 -1</clus>
<clus scale="   92.076">  7  8 -1 -1</clus>
<clus scale="   92.993">  2  5  1 -1</clus>
<clus scale="   33.330">  1  5  2 -1</clus>
</clustering>
</event>
<event>
 9    1  0.8351432E-005  0.1458820E+03  0.7546771E-02  0.1208978E+00
          1   -1    0    0  502    0 -0.00000000000E+00  0.00000000000E+00  0.49497354834E+03  0.49497354834E+03  0.00000000000E+00 0. -1.
         21   -1    0    0  501  502  0.00000000000E+00 -0.00000000000E+00 -0.23868765375E+03  0.23868765375E+03  0.00000000000E+00 0. -1.
         23    2    1    2    0    0  0.47004404914E-01 -0.10839799397E+03  0.42913461010E+03  0.45321874757E+03  0.97470981593E+02 0.  0.
        -24    2    1    2    0    0 -0.24674041520E+02  0.10927876092E+03 -0.38452183476E+02  0.14380536391E+03  0.81552169575E+02 0.  0.
         13    1    4    4    0    0 -0.54285028411E+02  0.68476163617E+02 -0.31626286356E+02  0.92930464768E+02  0.00000000000E+00 0. -1.
        -14    1    4    4    0    0  0.29610986891E+02  0.40802597305E+02 -0.68258971204E+01  0.50874899145E+02  0.00000000000E+00 0.  1.
        -11    1    3    3    0    0 -0.32887099166E+02 -0.48674061009E+00  0.91501789524E+02  0.97233614013E+02  0.00000000000E+00 0.  1.
         11    1    3    3    0    0  0.32934103571E+02 -0.10791125336E+03  0.33763282058E+03  0.35598513356E+03  0.00000000000E+00 0. -1.
          2    1    1    2  501    0  0.24627037115E+02 -0.88076695196E+00 -0.13439653203E+03  0.13663709061E+03  0.00000000000E+00 0. -1.
<scales pt_clust_5="13000.00000" pt_clust_6="13000.00000" pt_clust_7="13000.00000" pt_clust_8="13000.00000" pt_clust_9="24.64278"></scales>
<clustering>
<clus scale="   24.643">  2  9  1 -1</clus>
<clus scale="   81.552">  5  6 -1 -1</clus>
<clus scale="   97.471">  7  8 -1 -1</clus>
<clus scale="  135.763">  2  5  1 -1</clus>
<clus scale="   24.643">  2  5  1 -1</clus>
</clustering>
</event>
<event>
 9    1  0.7835476E-005  0.2854082E+03  0.7546771E-02  0.1093202E+00
         -4   -1    0    0    0  501 -0.00000000000E+00  0.00000000000E+00  0.20985197733E+04  0.20985197733E+04  0.00000000000E+00 0.  1.
         21   -1    0    0  501  502  0.00000000000E+00 -0.00000000000E+00 -0.10215225497E+03  0.10215225497E+03  0.00000000000E+00 0.  1.
        -24    2    1    2    0    0  0.79171562641E+02  0.27057231809E+03  0.10357324855E+04  0.10762810746E+04  0.78496205784E+02 0.  0.
         23    2    1    2    0    0  0.14965951597E+03 -0.26897798282E+03  0.36196859117E+03  0.48347932734E+03  0.89352520950E+02 0.  0.
         13    1    3    3    0    0  0.32029832461E+02  0.22670738251E+02  0.17342558836E+03  0.17780975012E+03  0.00000000000E+00 0. -1.
        -14    1    3    3    0    0  0.47141730180E+02  0.24790157984E+03  0.86230689713E+03  0.89847132445E+03  0.00000000000E+00 0.  1.
        -11    1    4    4    0    0  0.93569873367E+02 -0.94336094345E+02  0.11421190508E+03  0.17521124153E+03  0.00000000000E+00 0. -1.
         11    1    4    4    0    0  0.56089642604E+02 -0.17464188848E+03  0.24775668610E+03  0.30826808580E+03  0.00000000000E+00 0.  1.
         -3    1    1    2    0  502 -0.22883107861E+03 -0.15943352700E+01  0.59866644172E+03  0.64091162642E+03  0.00000000000E+00 0.  1.
<scales pt_clust_5="13000.00000" pt_clust_6="13000.00000" pt_clust_7="13000.00000" pt_clust_8="13000.00000" pt_clust_9="228.83675"></scales>
<clustering>
<clus scale="   78.496">  5  6 -1 -1</clus>
<clus scale="   89.353">  7  8 -1 -1</clus>
<clus scale="  228.837">  2  9  1 -1</clus>
<clus scale="  282.198">  1  5  2 -1</clus>
<clus scale="  228.837">  2  5  1 -1</clus>
</clustering>
</event>
<event>
 9    1  0.7835476E-005  0.1065614E+03  0.7546771E-02  0.1272595E+00
         21   -1    0    0  501  502  0.00000000000E+00  0.00000000000E+00  0.18139211366E+02  0.18139211366E+02  0.00000000000E+00 0.  1.
          1   -1    0    0  502    0 -0.00000000000E+00 -0.00000000000E+00 -0.72720037997E+03  0.72720037997E+03  0.00000000000E+00 0. -1.
         23    2    1    2    0    0 -0.47969354658E+02 -0.29175455157E+02 -0.36661995597E+03  0.38224582215E+03  0.92463021094E+02 0.  0.
        -24    2    1    2    0    0  0.52248196721E+02  0.46705176666E+01 -0.25984249764E+03  0.27683051994E+03  0.79782989382E+02 0.  0.
         11    1    4    4    0    0  0.48793356714E+02  0.66710881685E+01 -0.26543187195E+03  0.26996180049E+03  0.00000000000E+00 0. -1.
        -12    1    4    4    0    0  0.34548400074E+01 -0.20005705019E+01  0.55893743061E+01  0.68687194544E+01  0.00000000000E+00 0.  1.
        -13    1    3    3    0    0 -0.56800324200E+02  0.15690972400E+02 -0.15695930330E+03  0.16765651296E+03  0.00000000000E+00 0. -1.
         13    1    3    3    0    0  0.88309695418E+01 -0.44866427557E+02 -0.20966065266E+03  0.21458930919E+03  0.00000000000E+00 0.  1.
          2    1    1    2  501    0 -0.42788420632E+01  0.24504937491E+02 -0.82598714993E+02  0.86263249239E+02  0.00000000000E+00 0. -1.
<scales pt_clust_5="13000.00000" pt_clust_6="13000.00000" pt_clust_7="13000.00000" pt_clust_8="13000.00000" pt_clust_9="24.87571"></scales>
<clustering>
<clus scale="   24.876">  1  9  2 -1</clus>
<clus scale="   79.783">  5  6 -1 -1</clus>
<clus scale="   92.463">  7  8 -1 -1</clus>
<clus scale="   95.767">  1  5  2 -1</clus>
<clus scale="   24.876">  1  5  2 -1</clus>
</clustering>
</event>
<event>
 9    1  0.7835476E-005  0.1116040E+03  0.7546771E-02  0.1259364E+00
          1   -1    0    0  502    0 -0.00000000000E+00  0.00000000000E+00  0.38852137789E+03  0.38852137789E+03  0.00000000000E+00 0. -1.
         21   -1    0    0  501  502  0.00000000000E+00 -0.00000000000E+00 -0.91201445819E+02  0.91201445819E+02  0.00000000000E+00 0.  1.
         23    2    1    2    0    0  0.84311967598E+01  0.66385347641E+02  0.32131196037E+03  0.34083996300E+03  0.91936962330E+02 0.  0.
        -24    2    1    2    0    0  0.18776908127E+01 -0.36811361423E+02 -0.40949604353E+02  0.10326750995E+03  0.87342466548E+02 0.  0.
         11    1    4    4    0    0 -0.12474370807E+02  0.23829922418E+02  0.29236199797E+01  0.27055917712E+02  0.00000000000E+00 0. -1.
        -12    1    4    4    0    0  0.14352061619E+02 -0.60641283840E+02 -0.43873224333E+02  0.76211592241E+02  0.00000000000E+00 0.  1.
        -13    1    3    3    0    0  0.37593920660E+02  0.68233328954E+02  0.27710868123E+03  0.28785119639E+03  0.00000000000E+00 0. -1.
         13    1    3    3    0    0 -0.29162723900E+02 -0.18479813135E+01  0.44203279138E+02  0.52988766609E+02  0.00000000000E+00 0.  1.
          2    1    1    2  501    0 -0.10308887573E+02 -0.29573986218E+02  0.16957576058E+02  0.35615350757E+02  0.00000000000E+00 0. -1.
<scales pt_clust_5="13000.00000" pt_clust_6="13000.00000" pt_clust_7="13000.00000" pt_clust_8="13000.00000" pt_clust_9="31.31922"></scales>
<clustering>
<clus scale="   31.319">  2  9  1 -1</clus>
<clus scale="   87.342">  5  6 -1 -1</clus>
<clus scale="   91.937">  7  8 -1 -1</clus>
<clus scale="  107.851">  2  5  1 -1</clus>
<clus scale="   31.319">  2  5  1 -1</clus>
</clustering>
</event>
<event>
 9    1  0.1046846E-004  0.1381635E+03  0.7546771E-02  0.1218634E+00
          1   -1    0    0  502    0 -0.00000000000E+00  0.00000000000E+00  0.11582205232E+04  0.11582205232E+04  0.00000000000E+00 0. -1.
         21   -1    0    0  501  502  0.00000000000E+00 -0.00000000000E+00 -0.18657374273E+03  0.18657374273E+03  0.00000000000E+00 0.  1.
        -24    2    1    2    0    0  0.96626104623E+02 -0.79133388662E+02 -0.14146523229E+02  0.14919413263E+03  0.80374546943E+02 0.  0.
         23    2    1    2    0    0  0.36585584618E+02  0.11579086163E+03 -0.43137829695E+02  0.15743424976E+03  0.90435844716E+02 0.  0.
         11    1    3    3    0    0  0.30114181791E+02 -0.26944785121E+02  0.33198155507E+02  0.52297255370E+02  0.00000000000E+00 0. -1.
        -12    1    3    3    0    0  0.66511922832E+02 -0.52188603541E+02 -0.47344678736E+02  0.96896877261E+02  0.00000000000E+00 0.  1.
        -11    1    4    4    0    0  0.55233474170E+02  0.70582070649E+02  0.37245992356E+01  0.89701939808E+02  0.00000000000E+00 0.  1.
         11    1    4    4    0    0 -0.18647889552E+02  0.45208790980E+02 -0.46862428931E+02  0.67732309955E+02  0.00000000000E+00 0. -1.
          2    1    1    2  501    0 -0.13321168924E+03 -0.36657472966E+02  0.10289311334E+04  0.10381658835E+04  0.00000000000E+00 0. -1.
<scales pt_clust_5="13000.00000" pt_clust_6="13000.00000" pt_clust_7="13000.00000" pt_clust_8="13000.00000" pt_clust_9="138.16347"></scales>
<clustering>
<clus scale="   80.375">  5  6 -1 -1</clus>
<clus scale="   90.436">  7  8 -1 -1</clus>
<clus scale="  138.163">  2  9  1 -1</clus>
<clus scale="  130.206">  1  5  2 -1</clus>
<clus scale="  138.163">  2  5  1 -1</clus>
</clustering>
</event>
<event>
 9    1  0.7835476E-005  0.1078003E+03  0.7546771E-02  0.1267417E+00
         21   -1    0    0  501  502  0.00000000000E+00  0.00000000000E+00  0.28606539546E+03  0.28606539546E+03  0.00000000000E+00 0. -1.
          1   -1    0    0  502    0 -0.00000000000E+00 -0.00000000000E+00 -0.27406387394E+03  0.27406387394E+03  0.00000000000E+00 0. -1.
        -24    2    1    2    0    0  0.14783535833E+01 -0.55847425041E+02 -0.19518787920E+03  0.21887710049E+03  0.81778704553E+02 0.  0.
         23    2    1    2    0    0 -0.64505050470E+02  0.99179732518E+02  0.33652109924E+02  0.15160711970E+03  0.88626933626E+02 0.  0.
         11    1    3    3    0    0 -0.37052707767E+02 -0.41948643606E+02 -0.89863202790E+02  0.10586778107E+03  0.00000000000E+00 0. -1.
        -12    1    3    3    0    0  0.38531061350E+02 -0.13898781435E+02 -0.10532467641E+03  0.11300931941E+03  0.00000000000E+00 0.  1.
        -11    1    4    4    0    0 -0.13115119330E+02  0.40713721316E+02  0.56144289320E+02  0.70581829685E+02  0.00000000000E+00 0.  1.
         11    1    4    4    0    0 -0.51389931140E+02  0.58466011202E+02 -0.22492179397E+02  0.81025290018E+02  0.00000000000E+00 0. -1.
          2    1    1    2  501    0  0.63026696887E+02 -0.43332307477E+02  0.17353729080E+03  0.18964504921E+03  0.00000000000E+00 0. -1.
<scales pt_clust_5="13000.00000" pt_clust_6="13000.00000" pt_clust_7="13000.00000" pt_clust_8="13000.00000" pt_clust_9="76.48564"></scales>
<clustering>
<clus scale="   76.486">  1  9  2 -1</clus>
<clus scale="   81.779">  5  6 -1 -1</clus>
<clus scale="   88.627">  7  8 -1 -1</clus>
<clus scale="  102.244">  2  5  1 -1</clus>
<clus scale="   76.486">  1  5  2 -1</clus>
</clustering>
</event>
<event>
 9    1  0.7835476E-005  0.9513181E+02  0.7546771E-02  0.1299517E+00
          1   -1    0    0  502    0 -0.00000000000E+00  0.00000000000E+00  0.32669359219E+03  0.32669359219E+03  0.00000000000E+00 0. -1.
         21   -1    0    0  501  502  0.00000000000E+00 -0.00000000000E+00 -0.11034495241E+03  0.11034495241E+03  0.00000000000E+00 0.  1.
         23    2    1    2    0    0  0.41021659867E+00 -0.26053703510E+02  0.14541090546E+03  0.17394848063E+03  0.91841051497E+02 0.  0.
        -24    2    1    2    0    0 -0.23792207446E+02  0.14633834602E+02 -0.77219013766E+02  0.11266548851E+03  0.77139600495E+02 0.  0.
         13    1    4    4    0    0  0.85243931248E+01 -0.20268811441E+02 -0.19438805962E-01  0.21988414523E+02  0.00000000000E+00 0. -1.
        -14    1    4    4    0    0 -0.32316600571E+02  0.34902646043E+02 -0.77199574960E+02  0.90677073989E+02  0.00000000000E+00 0.  1.
        -11    1    3    3    0    0 -0.34827442713E+02 -0.37051990252E+02  0.48607049852E+02  0.70345192038E+02  0.00000000000E+00 0. -1.
         11    1    3    3    0    0  0.35237659311E+02  0.10998286742E+02  0.96803855612E+02  0.10360328859E+03  0.00000000000E+00 0.  1.
          2    1    1    2  501    0  0.23381990847E+02  0.11419868908E+02  0.14815674808E+03  0.15042457547E+03  0.00000000000E+00 0. -1.
<scales pt_clust_5="13000.00000" pt_clust_6="13000.00000" pt_clust_7="13000.00000" pt_clust_8="13000.00000" pt_clust_9="26.02175"></scales>
<clustering>
<clus scale="   26.022">  2  9  1 -1</clus>
<clus scale="   77.140">  5  6 -1 -1</clus>
<clus scale="   81.030">  2  5  1 -1</clus>
<clus scale="   91.841">  7  8 -1 -1</clus>
<clus scale="   26.022">  2  5  1 -1</clus>
</clustering>
</event>
<event>
 9    1  0.7835476E-005  0.1030536E+03  0.7546771E-02  0.1275686E+00
         21   -1    0    0  501  502  0.00000000000E+00  0.00000000000E+00  0.38590241140E+02  0.38590241140E+02  0.00000000000E+00 0. -1.
          1   -1    0    0  502    0 -0.00000000000E+00 -0.00000000000E+00 -0.57319623695E+03  0.57319623695E+03  0.00000000000E+00 0. -1.
         23    2    1    2    0    0  0.59171923486E+02  0.19408652244E+02 -0.23604348424E+03  0.25567750190E+03  0.76002935577E+02 0.  0.
        -24    2    1    2    0    0 -0.74116512108E+02  0.52078231586E+02 -0.18254348304E+03  0.21901729055E+03  0.80256157324E+02 0.  0.
         11    1    4    4    0    0 -0.50607262593E+02  0.13178163384E+02 -0.30974071474E+02  0.60779537025E+02  0.00000000000E+00 0. -1.
        -12    1    4    4    0    0 -0.23509249515E+02  0.38900068202E+02 -0.15156941157E+03  0.15823775353E+03  0.00000000000E+00 0.  1.
        -13    1    3    3    0    0  0.18622013053E+02  0.17969469348E+02 -0.12975006167E+02  0.28948782079E+02  0.00000000000E+00 0.  1.
         13    1    3    3    0    0  0.40549910433E+02  0.14391828959E+01 -0.22306847807E+03  0.22672871982E+03  0.00000000000E+00 0. -1.
          2    1    1    2  501    0  0.14944588622E+02 -0.71486883829E+02 -0.11601902853E+03  0.13709168563E+03  0.00000000000E+00 0. -1.
<scales pt_clust_5="13000.00000" pt_clust_6="13000.00000" pt_clust_7="13000.00000" pt_clust_8="13000.00000" pt_clust_9="73.03229"></scales>
<clustering>
<clus scale="   73.032">  1  9  2 -1</clus>
<clus scale="   76.003">  7  8 -1 -1</clus>
<clus scale="   80.256">  5  6 -1 -1</clus>
<clus scale="   99.777">  2  7  1 -1</clus>
<clus scale="   73.032">  1  5  2 -1</clus>
</clustering>
</event>
<event>
 9    1  0.7835476E-005  0.1557361E+03  0.7546771E-02  0.1214460E+00
         -4   -1    0    0    0  501 -0.00000000000E+00  0.00000000000E+00  0.65455508996E+03  0.65455508996E+03  0.00000000000E+00 0.  1.
         21   -1    0    0  501  502  0.00000000000E+00 -0.00000000000E+00 -0.16560873115E+03  0.16560873115E+03  0.00000000000E+00 0.  1.
         23    2    1    2    0    0  0.13156299214E+02  0.34673887751E+02 -0.30536047457E+02  0.10388357709E+03  0.92108526717E+02 0.  0.
        -24    2    1    2    0    0  0.11031859537E+03  0.16250588069E+02  0.55972839427E+03  0.57678439684E+03  0.83367205720E+02 0.  0.
         13    1    4    4    0    0  0.28921244681E+02 -0.35002251104E+01  0.35576623436E+02  0.45982454315E+02  0.00000000000E+00 0. -1.
        -14    1    4    4    0    0  0.81397350692E+02  0.19750813179E+02  0.52415177083E+03  0.53080194252E+03  0.00000000000E+00 0.  1.
        -11    1    3    3    0    0 -0.62881130740E+01 -0.28187782988E+02 -0.24381426487E+02  0.37796103415E+02  0.00000000000E+00 0. -1.
         11    1    3    3    0    0  0.19444412288E+02  0.62861670740E+02 -0.61546209706E+01  0.66087473675E+02  0.00000000000E+00 0.  1.
         -3    1    1    2    0  502 -0.12347489459E+03 -0.50924475820E+02 -0.40245988006E+02  0.13949584718E+03  0.00000000000E+00 0.  1.
<scales pt_clust_5="13000.00000" pt_clust_6="13000.00000" pt_clust_7="13000.00000" pt_clust_8="13000.00000" pt_clust_9="131.54336"></scales>
<clustering>
<clus scale="   83.367">  5  6 -1 -1</clus>
<clus scale="   92.109">  7  8 -1 -1</clus>
<clus scale="   99.294">  1  7  2 -1</clus>
<clus scale="  131.543">  2  9  1 -1</clus>
<clus scale="  131.543">  2  5  1 -1</clus>
</clustering>
</event>
<event>
 9    1  0.7835476E-005  0.1517476E+03  0.7546771E-02  0.1200116E+00
         21   -1    0    0  501  502  0.00000000000E+00  0.00000000000E+00  0.11429556177E+03  0.11429556177E+03  0.00000000000E+00 0. -1.
          1   -1    0    0  502    0 -0.00000000000E+00 -0.00000000000E+00 -0.44006464550E+03  0.44006464550E+03  0.00000000000E+00 0. -1.
        -24    2    1    2    0    0 -0.78712284661E+02  0.14320808524E+03 -0.21224578025E+03  0.27962704658E+03  0.80242348605E+02 0.  0.
         23    2    1    2    0    0  0.87212904098E+02 -0.21059798352E+02 -0.49495589263E+02  0.13655931111E+03  0.90271957692E+02 0.  0.
         11    1    3    3    0    0 -0.91005260807E+01  0.95223313896E+02 -0.13236249610E+03  0.16330991844E+03  0.00000000000E+00 0. -1.
        -12    1    3    3    0    0 -0.69611758580E+02  0.47984771344E+02 -0.79883284141E+02  0.11631712814E+03  0.00000000000E+00 0.  1.
        -13    1    4    4    0    0 -0.14457416093E+02 -0.17090273007E+02  0.20886868200E+01  0.22482369185E+02  0.00000000000E+00 0. -1.
         13    1    4    4    0    0  0.10167032019E+03 -0.39695253454E+01 -0.51584276083E+02  0.11407694192E+03  0.00000000000E+00 0.  1.
          2    1    1    2  501    0 -0.85006194373E+01 -0.12214828689E+03 -0.64027714225E+02  0.13817384959E+03  0.00000000000E+00 0. -1.
<scales pt_clust_5="13000.00000" pt_clust_6="13000.00000" pt_clust_7="13000.00000" pt_clust_8="13000.00000" pt_clust_9="122.44372"></scales>
<clustering>
<clus scale="   80.242">  5  6 -1 -1</clus>
<clus scale="   90.272">  7  8 -1 -1</clus>
<clus scale="  122.444">  1  9  2 -1</clus>
<clus scale="  146.004">  2  5  1 -1</clus>
<clus scale="  122.444">  1  5  2 -1</clus>
</clustering>
</event>
<event>
 9    1  0.7835476E-005  0.1376301E+03  0.7546771E-02  0.1219221E+00
         21   -1    0    0  501  502  0.00000000000E+00  0.00000000000E+00  0.13841867181E+03  0.13841867181E+03  0.00000000000E+00 0.  1.
          1   -1    0    0  502    0 -0.00000000000E+00 -0.00000000000E+00 -0.26431108592E+03  0.26431108592E+03  0.00000000000E+00 0. -1.
        -24    2    1    2    0    0 -0.25180441993E+02  0.78808489079E+02 -0.29119875271E+01  0.11569742700E+03  0.80824391943E+02 0.  0.
         23    2    1    2    0    0  0.54216321220E+02 -0.11685782244E+03 -0.38058788544E+01  0.15860567120E+03  0.92445194964E+02 0.  0.
         11    1    3    3    0    0  0.20578520287E+02  0.31434811027E+02  0.23960805087E+02  0.44561676605E+02  0.00000000000E+00 0. -1.
        -12    1    3    3    0    0 -0.45758962280E+02  0.47373678052E+02 -0.26872792614E+02  0.71135750393E+02  0.00000000000E+00 0.  1.
        -11    1    4    4    0    0  0.62118954420E+02 -0.66437790708E+02  0.31826090509E+02  0.96362049426E+02  0.00000000000E+00 0.  1.
         11    1    4    4    0    0 -0.79026332002E+01 -0.50420031729E+02 -0.35631969363E+02  0.62243621776E+02  0.00000000000E+00 0. -1.
          2    1    1    2  501    0 -0.29035879227E+02  0.38049333359E+02 -0.11917454773E+03  0.12842665953E+03  0.00000000000E+00 0. -1.
<scales pt_clust_5="13000.00000" pt_clust_6="13000.00000" pt_clust_7="13000.00000" pt_clust_8="13000.00000" pt_clust_9="47.86268"></scales>
<clustering>
<clus scale="   47.863">  1  9  2 -1</clus>
<clus scale="   80.824">  5  6 -1 -1</clus>
<clus scale="   92.445">  7  8 -1 -1</clus>
<clus scale="  130.110">  2  5  1 -1</clus>
<clus scale="   47.863">  1  5  2 -1</clus>
</clustering>
</event>
<event>
 9    1  0.7835476E-005  0.4469303E+03  0.7546771E-02  0.1083930E+00
         21   -1    0    0  501  502  0.00000000000E+00  0.00000000000E+00  0.26870890139E+03  0.26870890139E+03  0.00000000000E+00 0. -1.
         -4   -1    0    0    0  501 -0.00000000000E+00 -0.00000000000E+00 -0.89635515962E+03  0.89635515962E+03  0.00000000000E+00 0.  1.
         23    2    1    2    0    0 -0.78198882182E+01 -0.21683320926E+02 -0.71665968384E+02  0.11817626673E+03  0.91095015975E+02 0.  0.
        -24    2    1    2    0    0 -0.11458183849E+03  0.43446229481E+03 -0.27422267032E+03  0.53234331599E+03  0.79403084565E+02 0.  0.
         11    1    4    4    0    0 -0.10168828789E+03  0.25026866138E+03 -0.14155717688E+03  0.30498089299E+03  0.00000000000E+00 0. -1.
        -12    1    4    4    0    0 -0.12893550605E+02  0.18419363343E+03 -0.13266549344E+03  0.22736242300E+03  0.00000000000E+00 0.  1.
        -11    1    3    3    0    0 -0.42651441219E+02 -0.32018740703E+02 -0.59399496791E+02  0.79828850757E+02  0.00000000000E+00 0. -1.
         11    1    3    3    0    0  0.34831553000E+02  0.10335419777E+02 -0.12266471593E+02  0.38347415972E+02  0.00000000000E+00 0.  1.
         -3    1    1    2    0  502  0.12240172671E+03 -0.41277897388E+03 -0.28175761952E+03  0.51454447829E+03  0.00000000000E+00 0.  1.
<scales pt_clust_5="13000.00000" pt_clust_6="13000.00000" pt_clust_7="13000.00000" pt_clust_8="13000.00000" pt_clust_9="439.82048"></scales>
<clustering>
<clus scale="   79.403">  5  6 -1 -1</clus>
<clus scale="   91.095">  7  8 -1 -1</clus>
<clus scale="   93.966">  2  7  1 -1</clus>
<clus scale="  439.820">  1  9  2 -1</clus>
<clus scale="  439.820">  1  5  2 -1</clus>
</clustering>
</event>
<event>
 9    1  0.7835476E-005  0.1074604E+03  0.7546771E-02  0.1268038E+00
         21   -1    0    0  501  502  0.00000000000E+00  0.00000000000E+00  0.27002649060E+02  0.27002649060E+02  0.00000000000E+00 0. -1.
          1   -1    0    0  502    0 -0.00000000000E+00 -0.00000000000E+00 -0.13166392651E+04  0.13166392651E+04  0.00000000000E+00 0. -1.
        -24    2    1    2    0    0 -0.58026709587E+02 -0.92024488347E+01 -0.69649651196E+03  0.70412233536E+03  0.85024043045E+02 0.  0.
         23    2    1    2    0    0  0.42603959746E+02 -0.81379075799E+02 -0.45872355679E+03  0.47669856662E+03  0.91523606273E+02 0.  0.
         13    1    3    3    0    0 -0.78904630158E+02 -0.14725706379E+01 -0.47517432178E+03  0.48168324156E+03  0.00000000000E+00 0. -1.
        -14    1    3    3    0    0  0.20877920572E+02 -0.77298781968E+01 -0.22132219018E+03  0.22243909380E+03  0.00000000000E+00 0.  1.
        -11    1    4    4    0    0  0.70788043684E+02 -0.68491868425E+02 -0.35931978905E+03  0.37257589022E+03  0.00000000000E+00 0. -1.
         11    1    4    4    0    0 -0.28184083939E+02 -0.12887207374E+02 -0.99403767738E+02  0.10412267641E+03  0.00000000000E+00 0.  1.
          2    1    1    2  501    0  0.15422749841E+02  0.90581524634E+02 -0.13441654728E+03  0.16282101216E+03  0.00000000000E+00 0. -1.
<scales pt_clust_5="13000.00000" pt_clust_6="13000.00000" pt_clust_7="13000.00000" pt_clust_8="13000.00000" pt_clust_9="91.88511"></scales>
<clustering>
<clus scale="   85.024">  5  6 -1 -1</clus>
<clus scale="   91.524">  7  8 -1 -1</clus>
<clus scale="   91.885">  1  9  2 -1</clus>
<clus scale="  101.982">  2  5  1 -1</clus>
<clus scale="   91.885">  1  5  2 -1</clus>
</clustering>
</event>
<event>
 9    1  0.7835476E-005  0.1055535E+03  0.7546771E-02  0.1275303E+00
         21   -1    0    0  501  502  0.00000000000E+00  0.00000000000E+00  0.35794024930E+02  0.35794024930E+02  0.00000000000E+00 0.  1.
          1   -1    0    0  502    0 -0.00000000000E+00 -0.00000000000E+00 -0.58494363042E+03  0.58494363042E+03  0.00000000000E+00 0. -1.
         23    2    1    2    0    0  0.27941957824E+02 -0.38292474477E+02 -0.39911727250E+03  0.41204919000E+03  0.90790259216E+02 0.  0.
        -24    2    1    2    0    0 -0.43585459473E+02  0.54130037362E+02 -0.15460161095E+03  0.18596346055E+03  0.76491812168E+02 0.  0.
         11    1    4    4    0    0  0.69617344606E+01  0.51385510234E+02 -0.66169266004E+02  0.84067283602E+02  0.00000000000E+00 0. -1.
        -12    1    4    4    0    0 -0.50547193933E+02  0.27445271282E+01 -0.88432344949E+02  0.10189617695E+03  0.00000000000E+00 0.  1.
        -11    1    3    3    0    0 -0.83253294079E+01  0.26082451912E+02 -0.82489479076E+02  0.86914438189E+02  0.00000000000E+00 0.  1.
         11    1    3    3    0    0  0.36267287232E+02 -0.64374926389E+02 -0.31662779342E+03  0.32513475182E+03  0.00000000000E+00 0. -1.
          2    1    1    2  501    0  0.15643501649E+02 -0.15837562886E+02  0.45692779569E+01  0.22725004797E+02  0.00000000000E+00 0. -1.
<scales pt_clust_5="13000.00000" pt_clust_6="13000.00000" pt_clust_7="13000.00000" pt_clust_8="13000.00000" pt_clust_9="22.26090"></scales>
<clustering>
<clus scale="   22.261">  1  9  2 -1</clus>
<clus scale="   76.492">  5  6 -1 -1</clus>
<clus scale="   90.790">  7  8 -1 -1</clus>
<clus scale="   93.540">  1  5  2 -1</clus>
<clus scale="   22.261">  1  5  2 -1</clus>
</clustering>
</event>
<event>
 9    1  0.7835476E-005  0.1264255E+03  0.7546771E-02  0.1246197E+00
         21   -1    0    0  501  502  0.00000000000E+00  0.00000000000E+00  0.35195339281E+02  0.35195339281E+02  0.00000000000E+00 0. -1.
          1   -1    0    0  502    0 -0.00000000000E+00 -0.00000000000E+00 -0.60424678940E+03  0.60424678940E+03  0.00000000000E+00 0. -1.
        -24    2    1    2    0    0 -0.17282121042E+02 -0.59472603940E+02 -0.17602008286E+03  0.20327969052E+03  0.80646764840E+02 0.  0.
         23    2    1    2    0    0 -0.30057299033E+02  0.43639553295E+02 -0.19891735026E+03  0.23573300474E+03  0.11486551029E+03 0.  0.
         11    1    3    3    0    0  0.10520499449E+02 -0.61696091285E+02 -0.71130497563E+02  0.94745112128E+02  0.00000000000E+00 0. -1.
        -12    1    3    3    0    0 -0.27802620490E+02  0.22234873451E+01 -0.10488958530E+03  0.10853457839E+03  0.00000000000E+00 0.  1.
        -11    1    4    4    0    0  0.90587870405E+01 -0.27145193333E+02 -0.10137730102E+02  0.30359458416E+02  0.00000000000E+00 0.  1.
         11    1    4    4    0    0 -0.39116086073E+02  0.70784746628E+02 -0.18877962016E+03  0.20537354633E+03  0.00000000000E+00 0. -1.
          2    1    1    2  501    0  0.47339420074E+02  0.15833050645E+02 -0.19411401699E+03  0.20042943341E+03  0.00000000000E+00 0. -1.
<scales pt_clust_5="13000.00000" pt_clust_6="13000.00000" pt_clust_7="13000.00000" pt_clust_8="13000.00000" pt_clust_9="49.91702"></scales>
<clustering>
<clus scale="   49.917">  1  9  2 -1</clus>
<clus scale="   80.647">  5  6 -1 -1</clus>
<clus scale="   96.401">  2  5  1 -1</clus>
<clus scale="  114.866">  7  8 -1 -1</clus>
<clus scale="   49.917">  1  5  2 -1</clus>
</clustering>
</event>
<event>
 9    1  0.7835476E-005  0.9275911E+02  0.7546771E-02  0.1302852E+00
          3   -1    0    0  502    0 -0.00000000000E+00  0.00000000000E+00  0.45912412424E+02  0.45912412424E+02  0.00000000000E+00 0. -1.
         21   -1    0    0  501  502  0.00000000000E+00 -0.00000000000E+00 -0.58415199060E+03  0.58415199060E+03  0.00000000000E+00 0.  1.
         23    2    1    2    0    0  0.13087907686E+02 -0.17290729821E+02 -0.30334243774E+02  0.97958515239E+02  0.90583893144E+02 0.  0.
        -24    2    1    2    0    0  0.29086506845E+02  0.25763711440E+02 -0.45667419734E+03  0.46520968413E+03  0.79742924351E+02 0.  0.
         11    1    4    4    0    0  0.91138243120E+01 -0.27814881935E+02 -0.10884557285E+03  0.11271241360E+03  0.00000000000E+00 0. -1.
        -12    1    4    4    0    0  0.19972682533E+02  0.53578593375E+02 -0.34782862449E+03  0.35249727053E+03  0.00000000000E+00 0.  1.
        -11    1    3    3    0    0 -0.18200514678E+02  0.28477887804E+02  0.18588339684E+01  0.33848250945E+02  0.00000000000E+00 0.  1.
         11    1    3    3    0    0  0.31288422364E+02 -0.45768617625E+02 -0.32193077742E+02  0.64110264294E+02  0.00000000000E+00 0. -1.
          4    1    1    2  501    0 -0.42174414532E+02 -0.84729816193E+01 -0.51231137056E+02  0.66896203649E+02  0.00000000000E+00 0. -1.
<scales pt_clust_5="13000.00000" pt_clust_6="13000.00000" pt_clust_7="13000.00000" pt_clust_8="13000.00000" pt_clust_9="43.01714"></scales>
<clustering>
<clus scale="   43.017">  2  9  1 -1</clus>
<clus scale="   79.743">  5  6 -1 -1</clus>
<clus scale="   82.206">  2  5  1 -1</clus>
<clus scale="   90.584">  7  8 -1 -1</clus>
<clus scale="   43.017">  2  5  1 -1</clus>
</clustering>
</event>
<event>
 9    1  0.7835476E-005  0.9930061E+02  0.7546771E-02  0.1286306E+00
          1   -1    0    0  502    0 -0.00000000000E+00  0.00000000000E+00  0.72384706040E+03  0.72384706040E+03  0.00000000000E+00 0. -1.
         21   -1    0    0  501  502  0.00000000000E+00 -0.00000000000E+00 -0.24368686173E+03  0.24368686173E+03  0.00000000000E+00 0. -1.
        -24    2    1    2    0    0  0.45691784936E+02 -0.41915387892E+01  0.67983453018E+03  0.68605134202E+03  0.79913373405E+02 0.  0.
         23    2    1    2    0    0 -0.95720101212E+01  0.42690612931E+01 -0.12179684855E+02  0.90540477182E+02  0.89103226783E+02 0.  0.
         13    1    3    3    0    0  0.44318022860E+02 -0.33035770479E+02  0.29494004297E+03  0.30007512098E+03  0.00000000000E+00 0. -1.
        -14    1    3    3    0    0  0.13737620756E+01  0.28844231690E+02  0.38489448721E+03  0.38597622104E+03  0.00000000000E+00 0.  1.
        -11    1    4    4    0    0  0.36911631907E+02  0.15289746790E+02  0.38802396692E+01  0.40141016265E+02  0.00000000000E+00 0. -1.
         11    1    4    4    0    0 -0.46483642028E+02 -0.11020685497E+02 -0.16059924524E+02  0.50399460917E+02  0.00000000000E+00 0.  1.
          2    1    1    2  501    0 -0.36119774815E+02 -0.77522503864E-01 -0.18749464667E+03  0.19094210293E+03  0.00000000000E+00 0. -1.
<scales pt_clust_5="13000.00000" pt_clust_6="13000.00000" pt_clust_7="13000.00000" pt_clust_8="13000.00000" pt_clust_9="36.11986"></scales>
<clustering>
<clus scale="   36.120">  2  9  1 -1</clus>
<clus scale="   79.913">  5  6 -1 -1</clus>
<clus scale="   89.103">  7  8 -1 -1</clus>
<clus scale="   91.145">  1  5  2 -1</clus>
<clus scale="   36.120">  2  5  1 -1</clus>
</clustering>
</event>
<event>
 9    1  0.7835476E-005  0.2694395E+03  0.7546771E-02  0.1147591E+00
         21   -1    0    0  501  502  0.00000000000E+00  0.00000000000E+00  0.45098590626E+02  0.45098590626E+02  0.00000000000E+00 0.  1.
         -2   -1    0    0    0  501 -0.00000000000E+00 -0.00000000000E+00 -0.26000446395E+04  0.26000446395E+04  0.00000000000E+00 0.  1.
        -24    2    1    2    0    0  0.27526280541E+01  0.21177873303E+02 -0.12259774123E+03  0.14979808717E+03  0.83385739101E+02 0.  0.
         23    2    1    2    0    0  0.12895490766E+03  0.21078510611E+03 -0.82312778793E+03  0.86416631161E+03  0.90467285177E+02 0.  0.
         13    1    3    3    0    0 -0.12125659665E+02  0.51169080119E+02 -0.73684895085E+02  0.90524969739E+02  0.00000000000E+00 0. -1.
        -14    1    3    3    0    0  0.14878287719E+02 -0.29991206815E+02 -0.48912846143E+02  0.59273117427E+02  0.00000000000E+00 0.  1.
        -11    1    4    4    0    0  0.10762541721E+03  0.20045582485E+03 -0.79723483051E+03  0.82906522248E+03  0.00000000000E+00 0.  1.
         11    1    4    4    0    0  0.21329490447E+02  0.10329281255E+02 -0.25892957423E+02  0.35101089129E+02  0.00000000000E+00 0. -1.
         -1    1    1    2    0  502 -0.13170753571E+03 -0.23196297941E+03 -0.16092205197E+04  0.16311788314E+04  0.00000000000E+00 0.  1.
<scales pt_clust_5="13000.00000" pt_clust_6="13000.00000" pt_clust_7="13000.00000" pt_clust_8="13000.00000" pt_clust_9="253.79792"></scales>
<clustering>
<clus scale="   83.386">  5  6 -1 -1</clus>
<clus scale="   86.077">  2  5  1 -1</clus>
<clus scale="   90.467">  7  8 -1 -1</clus>
<clus scale="  253.798">  1  9  2 -1</clus>
<clus scale="  253.798">  1  5  2 -1</clus>
</clustering>
</event>
<event>
 9    1  0.7835476E-005  0.4308270E+03  0.7546771E-02  0.1091725E+00
          1   -1    0    0  502    0 -0.00000000000E+00  0.00000000000E+00  0.48272091927E+03  0.48272091927E+03  0.00000000000E+00 0. -1.
         21   -1    0    0  501  502  0.00000000000E+00 -0.00000000000E+00 -0.88388766061E+03  0.88388766061E+03  0.00000000000E+00 0. -1.
        -24    2    1    2    0    0 -0.11906998282E+02  0.28093027067E+02  0.17306056583E+03  0.19293799949E+03  0.79649968125E+02 0.  0.
         23    2    1    2    0    0  0.41352895460E+03  0.96419088450E+02  0.32609457046E+02  0.43539263739E+03  0.90556805877E+02 0.  0.
         13    1    3    3    0    0  0.17451910039E+02  0.46905565991E+02  0.11078869416E+03  0.12156823614E+03  0.00000000000E+00 0. -1.
        -14    1    3    3    0    0 -0.29358908320E+02 -0.18812538924E+02  0.62271871676E+02  0.71369763350E+02  0.00000000000E+00 0.  1.
        -11    1    4    4    0    0  0.86739360326E+02  0.58700649320E+02 -0.82700012076E+00  0.10473856400E+03  0.00000000000E+00 0.  1.
         11    1    4    4    0    0  0.32678959428E+03  0.37718439130E+02  0.33436457167E+02  0.33065407338E+03  0.00000000000E+00 0. -1.
          2    1    1    2  501    0 -0.40162195632E+03 -0.12451211552E+03 -0.60683676422E+03  0.73827794300E+03  0.00000000000E+00 0. -1.
<scales pt_clust_5="13000.00000" pt_clust_6="13000.00000" pt_clust_7="13000.00000" pt_clust_8="13000.00000" pt_clust_9="421.20233"></scales>
<clustering>
<clus scale="   79.650">  5  6 -1 -1</clus>
<clus scale="   85.294">  1  5  2 -1</clus>
<clus scale="   90.557">  7  8 -1 -1</clus>
<clus scale="  421.202">  2  9  1 -1</clus>
<clus scale="  421.202">  2  5  1 -1</clus>
</clustering>
</event>
<event>
 9    1  0.7835476E-005  0.1048937E+03  0.7546771E-02  0.1275159E+00
         21   -1    0    0  501  502  0.00000000000E+00  0.00000000000E+00  0.78380131731E+03  0.78380131731E+03  0.00000000000E+00 0.  1.
         -2   -1    0    0    0  501 -0.00000000000E+00 -0.00000000000E+00 -0.28546980591E+02  0.28546980591E+02  0.00000000000E+00 0.  1.
         23    2    1    2    0    0  0.33752922483E+01 -0.51038692067E+02  0.13524317679E+03  0.17051003780E+03  0.90369327960E+02 0.  0.
        -24    2    1    2    0    0  0.52761302917E+02  0.54333803631E+02  0.40514491989E+03  0.41973540964E+03  0.79369330891E+02 0.  0.
         13    1    4    4    0    0  0.60015172162E+02  0.70083199246E+02  0.34727997160E+03  0.35932833784E+03  0.00000000000E+00 0. -1.
        -14    1    4    4    0    0 -0.72538692443E+01 -0.15749395615E+02  0.57864948296E+02  0.60407071793E+02  0.00000000000E+00 0.  1.
        -11    1    3    3    0    0 -0.25112492230E+02  0.16816602827E+02  0.37680984424E+02  0.48304161144E+02  0.00000000000E+00 0. -1.
         11    1    3    3    0    0  0.28487784479E+02 -0.67855294894E+02  0.97562192362E+02  0.12220587665E+03  0.00000000000E+00 0.  1.
         -1    1    1    2    0  502 -0.56136595166E+02 -0.32951115633E+01  0.21486624004E+03  0.22210285047E+03  0.00000000000E+00 0.  1.
<scales pt_clust_5="13000.00000" pt_clust_6="13000.00000" pt_clust_7="13000.00000" pt_clust_8="13000.00000" pt_clust_9="56.23322"></scales>
<clustering>
<clus scale="   56.233">  1  9  2 -1</clus>
<clus scale="   79.369">  5  6 -1 -1</clus>
<clus scale="   90.369">  7  8 -1 -1</clus>
<clus scale="   95.580">  1  5  2 -1</clus>
<clus scale="   56.233">  1  5  2 -1</clus>
</clustering>
</event>
<event>
 9    1  0.7835476E-005  0.1354206E+03  0.7546771E-02  0.1224149E+00
         21   -1    0    0  501  502  0.00000000000E+00  0.00000000000E+00  0.73515174611E+02  0.73515174611E+02  0.00000000000E+00 0.  1.
          1   -1    0    0  502    0 -0.00000000000E+00 -0.00000000000E+00 -0.43964637677E+03  0.43964637677E+03  0.00000000000E+00 0. -1.
         23    2    1    2    0    0 -0.91182198095E+02  0.11139881323E+02 -0.22070569170E+03  0.25918163429E+03  0.10012905172E+03 0.  0.
        -24    2    1    2    0    0  0.76947418595E+02 -0.60818431508E+02 -0.15516409881E+03  0.20139258592E+03  0.82844971269E+02 0.  0.
         13    1    4    4    0    0  0.59253605531E+02 -0.50810980803E+02 -0.16209980841E+03  0.17991412792E+03  0.00000000000E+00 0. -1.
        -14    1    4    4    0    0  0.17693813064E+02 -0.10007450706E+02  0.69357096007E+01  0.21478457999E+02  0.00000000000E+00 0.  1.
        -11    1    3    3    0    0 -0.76493773038E+02 -0.37207796751E+02 -0.14652290531E+03  0.16942455322E+03  0.00000000000E+00 0.  1.
         11    1    3    3    0    0 -0.14688425057E+02  0.48347678074E+02 -0.74182786392E+02  0.89757081072E+02  0.00000000000E+00 0. -1.
          2    1    1    2  501    0  0.14234779500E+02  0.49678550185E+02  0.97385883592E+01  0.52587331166E+02  0.00000000000E+00 0. -1.
<scales pt_clust_5="13000.00000" pt_clust_6="13000.00000" pt_clust_7="13000.00000" pt_clust_8="13000.00000" pt_clust_9="51.67773"></scales>
<clustering>
<clus scale="   51.678">  1  9  2 -1</clus>
<clus scale="   82.845">  5  6 -1 -1</clus>
<clus scale="  100.129">  7  8 -1 -1</clus>
<clus scale="  123.192">  1  5  2 -1</clus>
<clus scale="   51.678">  1  5  2 -1</clus>
</clustering>
</event>
<event>
 9    1  0.7835476E-005  0.2068727E+03  0.7546771E-02  0.1144809E+00
          1   -1    0    0  502    0 -0.00000000000E+00  0.00000000000E+00  0.12159922407E+03  0.12159922407E+03  0.00000000000E+00 0. -1.
         21   -1    0    0  501  502  0.00000000000E+00 -0.00000000000E+00 -0.73271799256E+03  0.73271799256E+03  0.00000000000E+00 0. -1.
        -24    2    1    2    0    0  0.17869051365E+03 -0.15521367028E+03 -0.10434121859E+03  0.27147344707E+03  0.82396355837E+02 0.  0.
         23    2    1    2    0    0 -0.47330036756E+02  0.10585787766E+03 -0.26934180350E+03  0.30704075502E+03  0.91010963577E+02 0.  0.
         13    1    3    3    0    0  0.66063996002E+02 -0.11796560783E+02 -0.39860692577E+02  0.78054373527E+02  0.00000000000E+00 0. -1.
        -14    1    3    3    0    0  0.11262651765E+03 -0.14341710950E+03 -0.64480526016E+02  0.19341907354E+03  0.00000000000E+00 0.  1.
        -11    1    4    4    0    0  0.10762143390E+02  0.35314749024E+02 -0.21121953959E+02  0.42533424127E+02  0.00000000000E+00 0.  1.
         11    1    4    4    0    0 -0.58092180146E+02  0.70543128639E+02 -0.24821984954E+03  0.26450733090E+03  0.00000000000E+00 0. -1.
          2    1    1    2  501    0 -0.13136047690E+03  0.49355792619E+02 -0.23743574640E+03  0.27580301453E+03  0.00000000000E+00 0. -1.
<scales pt_clust_5="13000.00000" pt_clust_6="13000.00000" pt_clust_7="13000.00000" pt_clust_8="13000.00000" pt_clust_9="140.32665"></scales>
<clustering>
<clus scale="   82.396">  5  6 -1 -1</clus>
<clus scale="   91.011">  7  8 -1 -1</clus>
<clus scale="  140.327">  2  9  1 -1</clus>
<clus scale="  203.230">  1  5  2 -1</clus>
<clus scale="  140.327">  2  5  1 -1</clus>
</clustering>
</event>
<event>
 9    1  0.7835476E-005  0.1179694E+03  0.7546771E-02  0.1258758E+00
         21   -1    0    0  501  502  0.00000000000E+00  0.00000000000E+00  0.44294518665E+03  0.44294518665E+03  0.00000000000E+00 0. -1.
         -4   -1    0    0    0  501 -0.00000000000E+00 -0.00000000000E+00 -0.46971978997E+02  0.46971978997E+02  0.00000000000E+00 0.  1.
        -24    2    1    2    0    0 -0.29168487378E+02  0.39138877439E+02  0.59599702435E+02  0.11029525096E+03  0.78932030701E+02 0.  0.
         23    2    1    2    0    0  0.49134358707E+02 -0.17870985178E+02  0.15476006447E+03  0.19568061666E+03  0.10773425112E+03 0.  0.
         11    1    3    3    0    0 -0.52120189189E+02  0.31540530017E+02  0.60825399018E+02  0.86087445778E+02  0.00000000000E+00 0. -1.
        -12    1    3    3    0    0  0.22951701811E+02  0.75983474219E+01 -0.12256965823E+01  0.24207805181E+02  0.00000000000E+00 0.  1.
        -13    1    4    4    0    0 -0.31087196390E+02 -0.23938517959E+02  0.47760253455E+02  0.61810259922E+02  0.00000000000E+00 0. -1.
         13    1    4    4    0    0  0.80221555097E+02  0.60675327810E+01  0.10699981101E+03  0.13387035674E+03  0.00000000000E+00 0.  1.
         -3    1    1    2    0  502 -0.19965871329E+02 -0.21267892260E+02  0.18161344076E+03  0.18394129803E+03  0.00000000000E+00 0.  1.
<scales pt_clust_5="13000.00000" pt_clust_6="13000.00000" pt_clust_7="13000.00000" pt_clust_8="13000.00000" pt_clust_9="29.17121"></scales>
<clustering>
<clus scale="   29.171">  1  9  2 -1</clus>
<clus scale="   78.932">  5  6 -1 -1</clus>
<clus scale="   92.414">  2  5  1 -1</clus>
<clus scale="  107.734">  7  8 -1 -1</clus>
<clus scale="   29.171">  1  5  2 -1</clus>
</clustering>
</event>
<event>
 9    1  0.7835476E-005  0.9494208E+02  0.7546771E-02  0.1295758E+00
         21   -1    0    0  501  502  0.00000000000E+00  0.00000000000E+00  0.48559599103E+03  0.48559599103E+03  0.00000000000E+00 0.  1.
         -2   -1    0    0    0  501 -0.00000000000E+00 -0.00000000000E+00 -0.27009679431E+02  0.27009679431E+02  0.00000000000E+00 0.  1.
        -24    2    1    2    0    0 -0.32861480995E+02  0.25894515538E+02  0.11347595513E+03  0.14411574747E+03  0.78371891698E+02 0.  0.
         23    2    1    2    0    0  0.91647771810E+01 -0.35059539139E+02  0.31681779862E+03  0.33046361290E+03  0.86715151534E+02 0.  0.
         13    1    3    3    0    0 -0.17993662495E+02  0.24570194885E+02  0.12279748555E+03  0.12651754354E+03  0.00000000000E+00 0. -1.
        -14    1    3    3    0    0 -0.14867818501E+02  0.13243206537E+01 -0.93215304197E+01  0.17598203929E+02  0.00000000000E+00 0.  1.
        -13    1    4    4    0    0 -0.34923692392E+02 -0.34428943590E+02  0.14455269792E+03  0.15264500950E+03  0.00000000000E+00 0.  1.
         13    1    4    4    0    0  0.44088469573E+02 -0.63059554877E+00  0.17226510070E+03  0.17781860341E+03  0.00000000000E+00 0. -1.
         -1    1    1    2    0  502  0.23696703814E+02  0.91650236004E+01  0.28292557852E+02  0.38026310090E+02  0.00000000000E+00 0.  1.
<scales pt_clust_5="13000.00000" pt_clust_6="13000.00000" pt_clust_7="13000.00000" pt_clust_8="13000.00000" pt_clust_9="25.40732"></scales>
<clustering>
<clus scale="   25.407">  1  9  2 -1</clus>
<clus scale="   78.372">  5  6 -1 -1</clus>
<clus scale="   86.715">  7  8 -1 -1</clus>
<clus scale="   87.388">  2  5  1 -1</clus>
<clus scale="   25.407">  1  5  2 -1</clus>
</clustering>
</event>
<event>
 9    1  0.7835476E-005  0.1193356E+03  0.7546771E-02  0.1245313E+00
          1   -1    0    0  502    0 -0.00000000000E+00  0.00000000000E+00  0.53373267445E+03  0.53373267445E+03  0.00000000000E+00 0. -1.
         21   -1    0    0  501  502  0.00000000000E+00 -0.00000000000E+00 -0.51110117212E+02  0.51110117212E+02  0.00000000000E+00 0. -1.
         23    2    1    2    0    0  0.51050309795E+02 -0.54583492257E+02  0.27552714729E+03  0.29738432868E+03  0.83287083582E+02 0.  0.
        -24    2    1    2    0    0 -0.51593913362E+02  0.92410044365E+02  0.21137940422E+03  0.24938621382E+03  0.79439806891E+02 0.  0.
         13    1    4    4    0    0 -0.54026622367E+02  0.24306917611E+02  0.13253437034E+03  0.14517252319E+03  0.00000000000E+00 0. -1.
        -14    1    4    4    0    0  0.24327090044E+01  0.68103126754E+02  0.78845033879E+02  0.10421369063E+03  0.00000000000E+00 0.  1.
        -13    1    3    3    0    0  0.29325338471E+02  0.15750204076E+02  0.13134787492E+03  0.13550021642E+03  0.00000000000E+00 0. -1.
         13    1    3    3    0    0  0.21724971324E+02 -0.70333696333E+02  0.14417927238E+03  0.16188411226E+03  0.00000000000E+00 0.  1.
          2    1    1    2  501    0  0.54360356722E+00 -0.37826552108E+02 -0.42839942782E+01  0.38072249162E+02  0.00000000000E+00 0. -1.
<scales pt_clust_5="13000.00000" pt_clust_6="13000.00000" pt_clust_7="13000.00000" pt_clust_8="13000.00000" pt_clust_9="37.83046"></scales>
<clustering>
<clus scale="   37.830">  2  9  1 -1</clus>
<clus scale="   79.440">  5  6 -1 -1</clus>
<clus scale="   83.287">  7  8 -1 -1</clus>
<clus scale="  116.683">  2  5  1 -1</clus>
<clus scale="   37.830">  2  5  1 -1</clus>
</clustering>
</event>
<event>
 9    1  0.7835476E-005  0.1135541E+03  0.7546771E-02  0.1260656E+00
          1   -1    0    0  502    0 -0.00000000000E+00  0.00000000000E+00  0.50231098540E+03  0.50231098540E+03  0.00000000000E+00 0. -1.
         21   -1    0    0  501  502  0.00000000000E+00 -0.00000000000E+00 -0.31526893402E+02  0.31526893402E+02  0.00000000000E+00 0. -1.
        -24    2    1    2    0    0 -0.22611494775E+02  0.78752013097E+02  0.24052996484E+03  0.26483252409E+03  0.74621997896E+02 0.  0.
         23    2    1    2    0    0  0.71643038238E+01 -0.47056167245E+02  0.16771653214E+03  0.19721264517E+03  0.92186670052E+02 0.  0.
         13    1    3    3    0    0 -0.23301054615E+02  0.89531980408E+02  0.17057337361E+03  0.19404687693E+03  0.00000000000E+00 0. -1.
        -14    1    3    3    0    0  0.68955983994E+00 -0.10779967312E+02  0.69956591224E+02  0.70785647159E+02  0.00000000000E+00 0.  1.
        -11    1    4    4    0    0  0.47609022132E+02 -0.33787670370E+02  0.73791092136E+02  0.94092246950E+02  0.00000000000E+00 0.  1.
         11    1    4    4    0    0 -0.40444718308E+02 -0.13268496875E+02  0.93925440003E+02  0.10312039822E+03  0.00000000000E+00 0. -1.
          2    1    1    2  501    0  0.15447190951E+02 -0.31695845852E+02  0.62537595021E+02  0.71792709544E+02  0.00000000000E+00 0. -1.
<scales pt_clust_5="13000.00000" pt_clust_6="13000.00000" pt_clust_7="13000.00000" pt_clust_8="13000.00000" pt_clust_9="35.25964"></scales>
<clustering>
<clus scale="   35.260">  2  9  1 -1</clus>
<clus scale="   74.622">  5  6 -1 -1</clus>
<clus scale="   92.187">  7  8 -1 -1</clus>
<clus scale="   99.823">  1  5  2 -1</clus>
<clus scale="   35.260">  2  5  1 -1</clus>
</clustering>
</event>
<event>
 9    1  0.7835476E-005  0.1100654E+03  0.7546771E-02  0.1260490E+00
         21   -1    0    0  501  502  0.00000000000E+00  0.00000000000E+00  0.13374217192E+03  0.13374217192E+03  0.00000000000E+00 0.  1.
         -2   -1    0    0    0  501 -0.00000000000E+00 -0.00000000000E+00 -0.14949240615E+03  0.14949240615E+03  0.00000000000E+00 0.  1.
        -24    2    1    2    0    0  0.83727296634E+02 -0.26461047053E+02 -0.53821356262E+02  0.13188075527E+03  0.82373223852E+02 0.  0.
         23    2    1    2    0    0 -0.40444376412E+02  0.37856043844E+02  0.12904768470E+02  0.10000596514E+03  0.82254679957E+02 0.  0.
         13    1    3    3    0    0  0.20127509254E+02  0.11099801439E+02  0.17741772106E+02  0.29036058586E+02  0.00000000000E+00 0. -1.
        -14    1    3    3    0    0  0.63599787380E+02 -0.37560848491E+02 -0.71563128367E+02  0.10284469668E+03  0.00000000000E+00 0.  1.
        -13    1    4    4    0    0 -0.21995448693E+02  0.11929478667E+02  0.47076148850E+02  0.53313000432E+02  0.00000000000E+00 0.  1.
         13    1    4    4    0    0 -0.18448927719E+02  0.25926565176E+02 -0.34171380381E+02  0.46692964705E+02  0.00000000000E+00 0. -1.
         -1    1    1    2    0  502 -0.43282920222E+02 -0.11394996791E+02  0.25166353564E+02  0.51347857663E+02  0.00000000000E+00 0.  1.
<scales pt_clust_5="13000.00000" pt_clust_6="13000.00000" pt_clust_7="13000.00000" pt_clust_8="13000.00000" pt_clust_9="44.75776"></scales>
<clustering>
<clus scale="   44.758">  1  9  2 -1</clus>
<clus scale="   82.255">  7  8 -1 -1</clus>
<clus scale="   82.373">  5  6 -1 -1</clus>
<clus scale="  109.977">  1  7  2 -1</clus>
<clus scale="   44.758">  1  5  2 -1</clus>
</clustering>
</event>
<event>
 9    1  0.7835476E-005  0.1330332E+03  0.7546771E-02  0.1226147E+00
         21   -1    0    0  501  502  0.00000000000E+00  0.00000000000E+00  0.43564553313E+03  0.43564553313E+03  0.00000000000E+00 0.  1.
         -4   -1    0    0    0  501 -0.00000000000E+00 -0.00000000000E+00 -0.10880721948E+03  0.10880721948E+03  0.00000000000E+00 0.  1.
         23    2    1    2    0    0  0.42314078579E+02  0.77853585952E+02  0.44668881899E+02  0.13472384344E+03  0.91123777848E+02 0.  0.
        -24    2    1    2    0    0 -0.72748801998E+02 -0.10608838748E+03  0.31992473043E+03  0.35361350144E+03  0.78380744500E+02 0.  0.
         13    1    4    4    0    0 -0.59242283807E+02 -0.18769088832E+02  0.13944090700E+03  0.15266202354E+03  0.00000000000E+00 0. -1.
        -14    1    4    4    0    0 -0.13506518191E+02 -0.87319298643E+02  0.18048382343E+03  0.20095147790E+03  0.00000000000E+00 0.  1.
        -13    1    3    3    0    0  0.59208516695E+02  0.40847094174E+02  0.57477054622E+02  0.92074672738E+02  0.00000000000E+00 0. -1.
         13    1    3    3    0    0 -0.16894438116E+02  0.37006491778E+02 -0.12808172724E+02  0.42649170701E+02  0.00000000000E+00 0.  1.
         -3    1    1    2    0  502  0.30434723418E+02  0.28234801523E+02 -0.37755298674E+02  0.56115407729E+02  0.00000000000E+00 0.  1.
<scales pt_clust_5="13000.00000" pt_clust_6="13000.00000" pt_clust_7="13000.00000" pt_clust_8="13000.00000" pt_clust_9="41.51479"></scales>
<clustering>
<clus scale="   41.515">  1  9  2 -1</clus>
<clus scale="   78.381">  5  6 -1 -1</clus>
<clus scale="   91.124">  7  8 -1 -1</clus>
<clus scale="  124.651">  1  5  2 -1</clus>
<clus scale="   41.515">  1  5  2 -1</clus>
</clustering>
</event>
<event>
 9    1  0.7835476E-005  0.9297449E+02  0.7546771E-02  0.1299611E+00
         21   -1    0    0  501  502  0.00000000000E+00  0.00000000000E+00  0.10669429662E+03  0.10669429662E+03  0.00000000000E+00 0. -1.
          1   -1    0    0  502    0 -0.00000000000E+00 -0.00000000000E+00 -0.19415701888E+03  0.19415701888E+03  0.00000000000E+00 0. -1.
         23    2    1    2    0    0 -0.14423337440E+02 -0.36052864923E+02 -0.39969539176E+02  0.10242044025E+03  0.85933350837E+02 0.  0.
        -24    2    1    2    0    0  0.39919601717E+02  0.85990935113E+01  0.44222408266E+02  0.99357575346E+02  0.79049271820E+02 0.  0.
         13    1    4    4    0    0  0.38604184613E+02 -0.27634759656E+02  0.41397782227E+02  0.62989994318E+02  0.00000000000E+00 0. -1.
        -14    1    4    4    0    0  0.13154171045E+01  0.36233853167E+02  0.28246260384E+01  0.36367581027E+02  0.00000000000E+00 0.  1.
        -13    1    3    3    0    0 -0.22138967363E+02  0.23934123108E+02 -0.63250360513E+01  0.33211175919E+02  0.00000000000E+00 0.  1.
         13    1    3    3    0    0  0.77156299232E+01 -0.59986988031E+02 -0.33644503125E+02  0.69209264327E+02  0.00000000000E+00 0. -1.
          2    1    1    2  501    0 -0.25496264278E+02  0.27453771412E+02 -0.91715591351E+02  0.99073299903E+02  0.00000000000E+00 0. -1.
<scales pt_clust_5="13000.00000" pt_clust_6="13000.00000" pt_clust_7="13000.00000" pt_clust_8="13000.00000" pt_clust_9="37.46692"></scales>
<clustering>
<clus scale="   37.467">  1  9  2 -1</clus>
<clus scale="   79.049">  5  6 -1 -1</clus>
<clus scale="   85.933">  7  8 -1 -1</clus>
<clus scale="   86.652">  1  5  2 -1</clus>
<clus scale="   37.467">  1  5  2 -1</clus>
</clustering>
</event>
<event>
 9    1  0.7835476E-005  0.1575623E+03  0.7546771E-02  0.1192930E+00
         21   -1    0    0  501  502  0.00000000000E+00  0.00000000000E+00  0.65646245616E+02  0.65646245616E+02  0.00000000000E+00 0. -1.
          1   -1    0    0  502    0 -0.00000000000E+00 -0.00000000000E+00 -0.51973946359E+03  0.51973946359E+03  0.00000000000E+00 0. -1.
         23    2    1    2    0    0  0.11025847257E+03  0.85092485572E+02 -0.28052885133E+03  0.32543731936E+03  0.88404471199E+02 0.  0.
        -24    2    1    2    0    0 -0.81043861199E+02 -0.81519875571E+02 -0.77925849672E+02  0.15988349596E+03  0.79225606231E+02 0.  0.
         13    1    4    4    0    0 -0.87336709368E+02 -0.58123334154E+02 -0.84579993586E+02  0.13475829507E+03  0.00000000000E+00 0. -1.
        -14    1    4    4    0    0  0.62928481693E+01 -0.23396541417E+02  0.66541439143E+01  0.25125200887E+02  0.00000000000E+00 0.  1.
        -13    1    3    3    0    0  0.17672740531E+02  0.67560573695E+02 -0.10285622768E+03  0.12432280744E+03  0.00000000000E+00 0. -1.
         13    1    3    3    0    0  0.92585732042E+02  0.17531911877E+02 -0.17767262365E+03  0.20111451192E+03  0.00000000000E+00 0.  1.
          2    1    1    2  501    0 -0.29214611374E+02 -0.35726100006E+01 -0.95638516971E+02  0.10006489389E+03  0.00000000000E+00 0. -1.
<scales pt_clust_5="13000.00000" pt_clust_6="13000.00000" pt_clust_7="13000.00000" pt_clust_8="13000.00000" pt_clust_9="29.43226"></scales>
<clustering>
<clus scale="   29.432">  1  9  2 -1</clus>
<clus scale="   79.226">  5  6 -1 -1</clus>
<clus scale="   88.404">  7  8 -1 -1</clus>
<clus scale="  152.601">  1  5  2 -1</clus>
<clus scale="   29.432">  1  5  2 -1</clus>
</clustering>
</event>
<event>
 9    1  0.7835476E-005  0.1078810E+03  0.7546771E-02  0.1273501E+00
         21   -1    0    0  501  502  0.00000000000E+00  0.00000000000E+00  0.25267309075E+02  0.25267309075E+02  0.00000000000E+00 0. -1.
         -2   -1    0    0    0  501 -0.00000000000E+00 -0.00000000000E+00 -0.63634911229E+03  0.63634911229E+03  0.00000000000E+00 0.  1.
         23    2    1    2    0    0  0.40744072156E+02  0.95763020916E+01 -0.40677499286E+03  0.42111450331E+03  0.10059694380E+03 0.  0.
        -24    2    1    2    0    0 -0.35290878332E+02  0.22600412291E+02 -0.12917786906E+03  0.15859077051E+03  0.81901684408E+02 0.  0.
         13    1    4    4    0    0  0.84098418097E+00  0.45456142589E+02 -0.43918900884E+02  0.63212641207E+02  0.00000000000E+00 0. -1.
        -14    1    4    4    0    0 -0.36131862512E+02 -0.22855730299E+02 -0.85258968171E+02  0.95378129305E+02  0.00000000000E+00 0.  1.
        -13    1    3    3    0    0 -0.32434204509E+02  0.14668765504E+02 -0.13116472243E+03  0.13590928855E+03  0.00000000000E+00 0. -1.
         13    1    3    3    0    0  0.73178276665E+02 -0.50924634125E+01 -0.27561027043E+03  0.28520521476E+03  0.00000000000E+00 0.  1.
         -1    1    1    2    0  502 -0.54531938246E+01 -0.32176714382E+02 -0.75128941292E+02  0.81911147538E+02  0.00000000000E+00 0.  1.
<scales pt_clust_5="13000.00000" pt_clust_6="13000.00000" pt_clust_7="13000.00000" pt_clust_8="13000.00000" pt_clust_9="32.63554"></scales>
<clustering>
<clus scale="   32.636">  1  9  2 -1</clus>
<clus scale="   81.902">  5  6 -1 -1</clus>
<clus scale="   90.700">  1  5  2 -1</clus>
<clus scale="  100.597">  7  8 -1 -1</clus>
<clus scale="   32.636">  1  5  2 -1</clus>
</clustering>
</event>
<event>
 9    1  0.7835476E-005  0.1795422E+03  0.7546771E-02  0.1169128E+00
         21   -1    0    0  501  502  0.00000000000E+00  0.00000000000E+00  0.27694675137E+03  0.27694675137E+03  0.00000000000E+00 0.  1.
          3   -1    0    0  502    0 -0.00000000000E+00 -0.00000000000E+00 -0.15880982049E+03  0.15880982049E+03  0.00000000000E+00 0. -1.
         23    2    1    2    0    0  0.13801948296E+03  0.74002055896E+02 -0.96943476329E+01  0.18871782215E+03  0.10485587282E+03 0.  0.
        -24    2    1    2    0    0 -0.10982282208E+03 -0.72515086057E+02  0.62574096681E+02  0.17593486412E+03  0.98580266192E+02 0.  0.
         13    1    4    4    0    0 -0.27860795634E+02 -0.45741020005E+02 -0.19399350603E+02  0.56963142893E+02  0.00000000000E+00 0. -1.
        -14    1    4    4    0    0 -0.81962026450E+02 -0.26774066051E+02  0.81973447284E+02  0.11897172123E+03  0.00000000000E+00 0.  1.
        -13    1    3    3    0    0  0.11299388323E+03  0.28419674767E+01 -0.50346237918E+01  0.11314168933E+03  0.00000000000E+00 0.  1.
         13    1    3    3    0    0  0.25025599731E+02  0.71160088420E+02 -0.46597238411E+01  0.75576132820E+02  0.00000000000E+00 0. -1.
          4    1    1    2  501    0 -0.28196660879E+02 -0.14869698398E+01  0.65257181832E+02  0.71103885581E+02  0.00000000000E+00 0. -1.
<scales pt_clust_5="13000.00000" pt_clust_6="13000.00000" pt_clust_7="13000.00000" pt_clust_8="13000.00000" pt_clust_9="28.23584"></scales>
<clustering>
<clus scale="   28.236">  1  9  2 -1</clus>
<clus scale="   98.580">  5  6 -1 -1</clus>
<clus scale="  104.856">  7  8 -1 -1</clus>
<clus scale="  175.951">  1  5  2 -1</clus>
<clus scale="   28.236">  1  5  2 -1</clus>
</clustering>
</event>
<event>
 9    1  0.7835476E-005  0.1336962E+03  0.7546771E-02  0.1241808E+00
          3   -1    0    0  502    0 -0.00000000000E+00  0.00000000000E+00  0.21281838430E+03  0.21281838430E+03  0.00000000000E+00 0. -1.
         21   -1    0    0  501  502  0.00000000000E+00 -0.00000000000E+00 -0.15063404178E+03  0.15063404178E+03  0.00000000000E+00 0.  1.
        -24    2    1    2    0    0  0.39852374636E+02  0.50280630221E+01 -0.44333867734E+02  0.99486213707E+02  0.79489129494E+02 0.  0.
         23    2    1    2    0    0  0.80055661666E+02  0.16485062022E+01  0.43198419460E+02  0.12820204312E+03  0.90321835008E+02 0.  0.
         11    1    3    3    0    0  0.16833122582E+02  0.31575495679E+02  0.77943286174E+01  0.36621271167E+02  0.00000000000E+00 0. -1.
        -12    1    3    3    0    0  0.23019252054E+02 -0.26547432657E+02 -0.52128196351E+02  0.62864942541E+02  0.00000000000E+00 0.  1.
        -13    1    4    4    0    0  0.85100484835E+02  0.28995853537E+02  0.20273754029E+02  0.92162232742E+02  0.00000000000E+00 0.  1.
         13    1    4    4    0    0 -0.50448231691E+01 -0.27347347335E+02  0.22924665431E+02  0.36039810379E+02  0.00000000000E+00 0. -1.
          4    1    1    2  501    0 -0.11990803630E+03 -0.66765692243E+01  0.63319790791E+02  0.13576416925E+03  0.00000000000E+00 0. -1.
<scales pt_clust_5="13000.00000" pt_clust_6="13000.00000" pt_clust_7="13000.00000" pt_clust_8="13000.00000" pt_clust_9="98.57313"></scales>
<clustering>
<clus scale="   79.489">  5  6 -1 -1</clus>
<clus scale="   89.062">  1  5  2 -1</clus>
<clus scale="   90.322">  7  8 -1 -1</clus>
<clus scale="   98.573">  2  9  1 -1</clus>
<clus scale="   98.573">  2  5  1 -1</clus>
</clustering>
</event>
<event>
 9    1  0.7835476E-005  0.1891712E+03  0.7546771E-02  0.1182254E+00
         21   -1    0    0  501  502  0.00000000000E+00  0.00000000000E+00  0.20945852787E+03  0.20945852787E+03  0.00000000000E+00 0. -1.
          3   -1    0    0  502    0 -0.00000000000E+00 -0.00000000000E+00 -0.34596667876E+03  0.34596667876E+03  0.00000000000E+00 0. -1.
        -24    2    1    2    0    0 -0.77433453977E+02 -0.12489638153E+01  0.75261646914E+02  0.13472381329E+03  0.80552409434E+02 0.  0.
         23    2    1    2    0    0  0.11477973342E+03  0.14964736069E+03 -0.10537389298E+03  0.23432296823E+03  0.90746219499E+02 0.  0.
         11    1    3    3    0    0 -0.36099518486E+02  0.91636784185E+01 -0.10719837453E+02  0.38756459489E+02  0.00000000000E+00 0. -1.
        -12    1    3    3    0    0 -0.41333935491E+02 -0.10412642234E+02  0.85981484367E+02  0.95967353800E+02  0.00000000000E+00 0.  1.
        -11    1    4    4    0    0 -0.41366143467E+00  0.48998265940E+02 -0.54092363166E+02  0.72986196872E+02  0.00000000000E+00 0. -1.
         11    1    4    4    0    0  0.11519339486E+03  0.10064909475E+03 -0.51281529811E+02  0.16133677136E+03  0.00000000000E+00 0.  1.
          4    1    1    2  501    0 -0.37346279448E+02 -0.14839839687E+03 -0.10639590483E+03  0.18637842511E+03  0.00000000000E+00 0. -1.
<scales pt_clust_5="13000.00000" pt_clust_6="13000.00000" pt_clust_7="13000.00000" pt_clust_8="13000.00000" pt_clust_9="165.98458"></scales>
<clustering>
<clus scale="   80.552">  5  6 -1 -1</clus>
<clus scale="   90.746">  7  8 -1 -1</clus>
<clus scale="  111.742">  2  5  1 -1</clus>
<clus scale="  165.985">  1  9  2 -1</clus>
<clus scale="  165.985">  1  5  2 -1</clus>
</clustering>
</event>
<event>
 9    1  0.7835476E-005  0.9930727E+02  0.7546771E-02  0.1288565E+00
          1   -1    0    0  502    0 -0.00000000000E+00  0.00000000000E+00  0.45851461759E+02  0.45851461759E+02  0.00000000000E+00 0. -1.
         21   -1    0    0  501  502  0.00000000000E+00 -0.00000000000E+00 -0.29658044359E+03  0.29658044359E+03  0.00000000000E+00 0.  1.
        -24    2    1    2    0    0  0.13941655873E+02 -0.18615082048E+02 -0.78768169991E+02  0.11381113936E+03  0.78788703442E+02 0.  0.
         23    2    1    2    0    0 -0.37670102867E+02  0.39496195346E+02 -0.86458660490E+02  0.13746333089E+03  0.91880799232E+02 0.  0.
         13    1    3    3    0    0 -0.15185574019E+02 -0.24716979414E+02  0.63319659831E+00  0.29016058788E+02  0.00000000000E+00 0. -1.
        -14    1    3    3    0    0  0.29127229892E+02  0.61018973659E+01 -0.79401366590E+02  0.84795080571E+02  0.00000000000E+00 0.  1.
        -13    1    4    4    0    0 -0.56871995968E+02  0.10290434727E+02 -0.17891610198E+02  0.60501460212E+02  0.00000000000E+00 0.  1.
         13    1    4    4    0    0  0.19201893100E+02  0.29205760619E+02 -0.68567050292E+02  0.76961870674E+02  0.00000000000E+00 0. -1.
          2    1    1    2  501    0  0.23728446994E+02 -0.20881113298E+02 -0.85502151349E+02  0.91157435103E+02  0.00000000000E+00 0. -1.
<scales pt_clust_5="13000.00000" pt_clust_6="13000.00000" pt_clust_7="13000.00000" pt_clust_8="13000.00000" pt_clust_9="31.60791"></scales>
<clustering>
<clus scale="   31.608">  2  9  1 -1</clus>
<clus scale="   78.789">  5  6 -1 -1</clus>
<clus scale="   87.336">  1  5  2 -1</clus>
<clus scale="   91.881">  7  8 -1 -1</clus>
<clus scale="   31.608">  2  5  1 -1</clus>
</clustering>
</event>
<event>
 9    1  0.7835476E-005  0.9798009E+02  0.7546771E-02  0.1292191E+00
         21   -1    0    0  501  502  0.00000000000E+00  0.00000000000E+00  0.45171027749E+02  0.45171027749E+02  0.00000000000E+00 0. -1.
         -2   -1    0    0    0  501 -0.00000000000E+00 -0.00000000000E+00 -0.26512190895E+03  0.26512190895E+03  0.00000000000E+00 0.  1.
        -24    2    1    2    0    0 -0.30447776821E+02 -0.19727929577E+02 -0.11314544498E+03  0.14172546649E+03  0.77252558626E+02 0.  0.
         23    2    1    2    0    0  0.39750437873E+02 -0.59513415006E+01 -0.66737625530E+02  0.12007629658E+03  0.91372263642E+02 0.  0.
         11    1    3    3    0    0 -0.19002081656E+02  0.29248501731E+02 -0.50802175838E+02  0.61623169592E+02  0.00000000000E+00 0. -1.
        -12    1    3    3    0    0 -0.11445695166E+02 -0.48976431308E+02 -0.62343269138E+02  0.80102296897E+02  0.00000000000E+00 0.  1.
        -11    1    4    4    0    0  0.68966708382E+02  0.31687510089E+01 -0.49480382445E+02  0.84939720360E+02  0.00000000000E+00 0. -1.
         11    1    4    4    0    0 -0.29216270509E+02 -0.91200925095E+01 -0.17257243086E+02  0.35136576224E+02  0.00000000000E+00 0.  1.
         -1    1    1    2    0  502 -0.93026610515E+01  0.25679271078E+02 -0.40067810693E+02  0.48491173624E+02  0.00000000000E+00 0.  1.
<scales pt_clust_5="13000.00000" pt_clust_6="13000.00000" pt_clust_7="13000.00000" pt_clust_8="13000.00000" pt_clust_9="27.31236"></scales>
<clustering>
<clus scale="   27.312">  1  9  2 -1</clus>
<clus scale="   77.253">  5  6 -1 -1</clus>
<clus scale="   84.966">  2  5  1 -1</clus>
<clus scale="   91.372">  7  8 -1 -1</clus>
<clus scale="   27.312">  1  5  2 -1</clus>
</clustering>
</event>
<event>
 9    1  0.7835476E-005  0.1034356E+03  0.7546771E-02  0.1278113E+00
          1   -1    0    0  502    0 -0.00000000000E+00  0.00000000000E+00  0.22536620309E+03  0.22536620309E+03  0.00000000000E+00 0. -1.
         21   -1    0    0  501  502  0.00000000000E+00 -0.00000000000E+00 -0.97819977205E+02  0.97819977205E+02  0.00000000000E+00 0. -1.
        -24    2    1    2    0    0  0.43303569335E+02  0.38576652550E+02  0.77864776274E+02  0.12499063570E+03  0.78717078123E+02 0.  0.
         23    2    1    2    0    0 -0.45133409154E+02  0.45190518188E+01 -0.32381429119E+02  0.10548683889E+03  0.89562658382E+02 0.  0.
         13    1    3    3    0    0  0.63466914133E+02  0.40738584074E+02  0.71005352677E+02  0.10358301758E+03  0.00000000000E+00 0. -1.
        -14    1    3    3    0    0 -0.20163344798E+02 -0.21619315233E+01  0.68594235974E+01  0.21407618117E+02  0.00000000000E+00 0.  1.
        -11    1    4    4    0    0 -0.61908030142E+02  0.22476286886E+02 -0.13129555821E+01  0.65874968847E+02  0.00000000000E+00 0.  1.
         11    1    4    4    0    0  0.16774620988E+02 -0.17957235067E+02 -0.31068473536E+02  0.39611870045E+02  0.00000000000E+00 0. -1.
          2    1    1    2  501    0  0.18298398192E+01 -0.43095704369E+02  0.82062878728E+02  0.92708705708E+02  0.00000000000E+00 0. -1.
<scales pt_clust_5="13000.00000" pt_clust_6="13000.00000" pt_clust_7="13000.00000" pt_clust_8="13000.00000" pt_clust_9="43.13456"></scales>
<clustering>
<clus scale="   43.135">  2  9  1 -1</clus>
<clus scale="   78.717">  5  6 -1 -1</clus>
<clus scale="   89.563">  7  8 -1 -1</clus>
<clus scale="   94.201">  1  5  2 -1</clus>
<clus scale="   43.135">  2  5  1 -1</clus>
</clustering>
</event>
<event>
 9    1  0.7835476E-005  0.2442050E+03  0.7546771E-02  0.1117023E+00
          1   -1    0    0  502    0 -0.00000000000E+00  0.00000000000E+00  0.51891681509E+03  0.51891681509E+03  0.00000000000E+00 0. -1.
         21   -1    0    0  501  502  0.00000000000E+00 -0.00000000000E+00 -0.10390088495E+03  0.10390088495E+03  0.00000000000E+00 0. -1.
        -24    2    1    2    0    0  0.70325025235E+02 -0.97247653234E+02  0.25899621973E+02  0.14736516915E+03  0.81504523960E+02 0.  0.
         23    2    1    2    0    0  0.98439742444E+01 -0.19130503582E+02  0.50470373095E+02  0.10850292509E+03  0.93609541158E+02 0.  0.
         11    1    3    3    0    0  0.72503941239E+02 -0.37495029311E+02  0.31094937506E+02  0.87347546369E+02  0.00000000000E+00 0. -1.
        -12    1    3    3    0    0 -0.21789160035E+01 -0.59752623923E+02 -0.51953155325E+01  0.60017622780E+02  0.00000000000E+00 0.  1.
        -11    1    4    4    0    0 -0.30349320474E+02 -0.25203106327E+01 -0.11705937630E+02  0.32626096836E+02  0.00000000000E+00 0. -1.
         11    1    4    4    0    0  0.40193294719E+02 -0.16610192950E+02  0.62176310725E+02  0.75876828252E+02  0.00000000000E+00 0.  1.
          2    1    1    2  501    0 -0.80168999480E+02  0.11637815682E+03  0.33864593508E+03  0.36694960581E+03  0.00000000000E+00 0. -1.
<scales pt_clust_5="13000.00000" pt_clust_6="13000.00000" pt_clust_7="13000.00000" pt_clust_8="13000.00000" pt_clust_9="141.31866"></scales>
<clustering>
<clus scale="   81.505">  5  6 -1 -1</clus>
<clus scale="   93.610">  7  8 -1 -1</clus>
<clus scale="   94.019">  5  7 -1 -1</clus>
<clus scale="  141.319">  2  9  1 -1</clus>
<clus scale="  141.319">  2  5  1 -1</clus>
</clustering>
</event>
<event>
 9    1  0.7835476E-005  0.9798735E+02  0.7546771E-02  0.1294154E+00
         -4   -1    0    0    0  501 -0.00000000000E+00  0.00000000000E+00  0.12856906203E+03  0.12856906203E+03  0.00000000000E+00 0.  1.
         21   -1    0    0  501  502  0.00000000000E+00 -0.00000000000E+00 -0.29386634835E+03  0.29386634835E+03  0.00000000000E+00 0. -1.
        -24    2    1    2    0    0  0.22486411044E+02  0.30670484904E+01  0.73554612788E+02  0.10840889690E+03  0.76335852625E+02 0.  0.
         23    2    1    2    0    0 -0.86837317915E+02 -0.27525129974E+02 -0.12321434180E+03  0.17944835171E+03  0.93389423076E+02 0.  0.
         13    1    3    3    0    0 -0.72913953242E+01  0.34869182538E+02  0.38839011220E+02  0.52701927186E+02  0.00000000000E+00 0. -1.
        -14    1    3    3    0    0  0.29777806368E+02 -0.31802134048E+02  0.34715601568E+02  0.55706969711E+02  0.00000000000E+00 0.  1.
        -11    1    4    4    0    0 -0.33706370881E+02 -0.24407050149E+02 -0.11899150591E+03  0.12605872446E+03  0.00000000000E+00 0. -1.
         11    1    4    4    0    0 -0.53130947034E+02 -0.31180798253E+01 -0.42228358954E+01  0.53389627247E+02  0.00000000000E+00 0.  1.
         -3    1    1    2    0  502  0.64350906871E+02  0.24458081484E+02 -0.11563755731E+03  0.13457816177E+03  0.00000000000E+00 0.  1.
<scales pt_clust_5="13000.00000" pt_clust_6="13000.00000" pt_clust_7="13000.00000" pt_clust_8="13000.00000" pt_clust_9="68.84212"></scales>
<clustering>
<clus scale="   68.842">  2  9  1 -1</clus>
<clus scale="   76.336">  5  6 -1 -1</clus>
<clus scale="   81.897">  1  5  2 -1</clus>
<clus scale="   93.389">  7  8 -1 -1</clus>
<clus scale="   68.842">  2  5  1 -1</clus>
</clustering>
</event>
<event>
 9    1  0.7835476E-005  0.1116069E+03  0.7546771E-02  0.1262414E+00
         21   -1    0    0  501  502  0.00000000000E+00  0.00000000000E+00  0.10079935173E+03  0.10079935173E+03  0.00000000000E+00 0.  1.
          1   -1    0    0  502    0 -0.00000000000E+00 -0.00000000000E+00 -0.55403781565E+03  0.55403781565E+03  0.00000000000E+00 0. -1.
         23    2    1    2    0    0 -0.67526489645E+02 -0.55083409954E+01 -0.49057734792E+03  0.50388535624E+03  0.92973917382E+02 0.  0.
        -24    2    1    2    0    0  0.79636335642E+01  0.22344778014E+02  0.26186900617E+02  0.88058519218E+02  0.80658790463E+02 0.  0.
         13    1    4    4    0    0  0.39302500798E+02 -0.69709009588E+01  0.50873261573E+01  0.40238798647E+02  0.00000000000E+00 0. -1.
        -14    1    4    4    0    0 -0.31338867234E+02  0.29315678973E+02  0.21099574460E+02  0.47819720571E+02  0.00000000000E+00 0.  1.
        -13    1    3    3    0    0 -0.90829478382E+02 -0.95461070729E+01 -0.39612730536E+03  0.40651932839E+03  0.00000000000E+00 0. -1.
         13    1    3    3    0    0  0.23302988737E+02  0.40377660774E+01 -0.94450042563E+02  0.97366027849E+02  0.00000000000E+00 0.  1.
          2    1    1    2  501    0  0.59562856081E+02 -0.16836437018E+02  0.11151983383E+02  0.62893291927E+02  0.00000000000E+00 0. -1.
<scales pt_clust_5="13000.00000" pt_clust_6="13000.00000" pt_clust_7="13000.00000" pt_clust_8="13000.00000" pt_clust_9="61.89668"></scales>
<clustering>
<clus scale="   61.897">  1  9  2 -1</clus>
<clus scale="   80.659">  5  6 -1 -1</clus>
<clus scale="   92.974">  7  8 -1 -1</clus>
<clus scale="  101.577">  1  5  2 -1</clus>
<clus scale="   61.897">  1  5  2 -1</clus>
</clustering>
</event>
<event>
 9    1  0.7835476E-005  0.1241616E+03  0.7546771E-02  0.1247379E+00
          1   -1    0    0  502    0 -0.00000000000E+00  0.00000000000E+00  0.41001604594E+03  0.41001604594E+03  0.00000000000E+00 0. -1.
         21   -1    0    0  501  502  0.00000000000E+00 -0.00000000000E+00 -0.89264886829E+02  0.89264886829E+02  0.00000000000E+00 0. -1.
         23    2    1    2    0    0 -0.17631770959E+02 -0.38510764454E+02  0.69236378326E+02  0.12112355160E+03  0.89907065036E+02 0.  0.
        -24    2    1    2    0    0  0.20977721740E+02 -0.61495953310E+02  0.25789033049E+03  0.27789180073E+03  0.80589163502E+02 0.  0.
         11    1    4    4    0    0  0.16932352998E+01 -0.58393846235E+02  0.25015142070E+03  0.25688215508E+03  0.00000000000E+00 0. -1.
        -12    1    4    4    0    0  0.19284486440E+02 -0.31021070744E+01  0.77389097879E+01  0.21009645648E+02  0.00000000000E+00 0.  1.
        -11    1    3    3    0    0 -0.43659418794E+02  0.88415700576E+01  0.38995083495E+02  0.59202489367E+02  0.00000000000E+00 0.  1.
         11    1    3    3    0    0  0.26027647835E+02 -0.47352334511E+02  0.30241294831E+02  0.61921062237E+02  0.00000000000E+00 0. -1.
          2    1    1    2  501    0 -0.33459507810E+01  0.10000671776E+03 -0.63755497040E+01  0.10026558043E+03  0.00000000000E+00 0. -1.
<scales pt_clust_5="13000.00000" pt_clust_6="13000.00000" pt_clust_7="13000.00000" pt_clust_8="13000.00000" pt_clust_9="94.45358"></scales>
<clustering>
<clus scale="   80.589">  5  6 -1 -1</clus>
<clus scale="   89.907">  7  8 -1 -1</clus>
<clus scale="   99.384">  1  7  2 -1</clus>
<clus scale="   94.454">  2  9  1 -1</clus>
<clus scale="   94.454">  2  5  1 -1</clus>
</clustering>
</event>
<event>
 9    1  0.7835476E-005  0.1643162E+03  0.7546771E-02  0.1185459E+00
         21   -1    0    0  501  502  0.00000000000E+00  0.00000000000E+00  0.71202594050E+02  0.71202594050E+02  0.00000000000E+00 0. -1.
          1   -1    0    0  502    0 -0.00000000000E+00 -0.00000000000E+00 -0.64610990264E+03  0.64610990264E+03  0.00000000000E+00 0. -1.
         23    2    1    2    0    0 -0.60602917272E+02 -0.95618556071E+02 -0.20016755414E+03  0.24741876747E+03  0.91287320675E+02 0.  0.
        -24    2    1    2    0    0  0.12861089977E+03  0.12442832542E+03 -0.20041647491E+03  0.28056941942E+03  0.80803861255E+02 0.  0.
         11    1    4    4    0    0  0.72106207127E+02  0.11433938398E+03 -0.11401224294E+03  0.17683775438E+03  0.00000000000E+00 0. -1.
        -12    1    4    4    0    0  0.56504692642E+02  0.10088941443E+02 -0.86404231968E+02  0.10373166504E+03  0.00000000000E+00 0.  1.
        -13    1    3    3    0    0 -0.22397047420E+02 -0.99076542689E+02 -0.17226485658E+03  0.19998242387E+03  0.00000000000E+00 0. -1.
         13    1    3    3    0    0 -0.38205869852E+02  0.34579866173E+01 -0.27902697566E+02  0.47436343599E+02  0.00000000000E+00 0.  1.
          2    1    1    2  501    0 -0.68007982497E+02 -0.28809769349E+02 -0.17432327954E+03  0.18932430980E+03  0.00000000000E+00 0. -1.
<scales pt_clust_5="13000.00000" pt_clust_6="13000.00000" pt_clust_7="13000.00000" pt_clust_8="13000.00000" pt_clust_9="73.85861"></scales>
<clustering>
<clus scale="   73.859">  1  9  2 -1</clus>
<clus scale="   80.804">  5  6 -1 -1</clus>
<clus scale="   91.287">  7  8 -1 -1</clus>
<clus scale="  158.732">  1  5  2 -1</clus>
<clus scale="   73.859">  1  5  2 -1</clus>
</clustering>
</event>
<event>
 9    1  0.7835476E-005  0.1448763E+03  0.7546771E-02  0.1215300E+00
         21   -1    0    0  501  502  0.00000000000E+00  0.00000000000E+00  0.21408532971E+03  0.21408532971E+03  0.00000000000E+00 0.  1.
          1   -1    0    0  502    0 -0.00000000000E+00 -0.00000000000E+00 -0.21753637539E+03  0.21753637539E+03  0.00000000000E+00 0. -1.
        -24    2    1    2    0    0 -0.20135464567E+02 -0.89210145285E+02 -0.75656351956E+02  0.14284454365E+03  0.79478255535E+02 0.  0.
         23    2    1    2    0    0  0.60975322595E+02 -0.58434678882E+02  0.37509493683E+02  0.13170810811E+03  0.93848079168E+02 0.  0.
         13    1    3    3    0    0 -0.32803096106E+01 -0.95022779677E+02 -0.80265367522E+02  0.12442916986E+03  0.00000000000E+00 0. -1.
        -14    1    3    3    0    0 -0.16855154956E+02  0.58126343918E+01  0.46090155658E+01  0.18415373785E+02  0.00000000000E+00 0.  1.
        -11    1    4    4    0    0  0.14098607934E+02 -0.70590537656E+02  0.41545026557E+02  0.83113079500E+02  0.00000000000E+00 0.  1.
         11    1    4    4    0    0  0.46876714661E+02  0.12155858774E+02 -0.40355328740E+01  0.48595028609E+02  0.00000000000E+00 0. -1.
          2    1    1    2  501    0 -0.40839858028E+02  0.14764482417E+03  0.34695812599E+02  0.15706905335E+03  0.00000000000E+00 0. -1.
<scales pt_clust_5="13000.00000" pt_clust_6="13000.00000" pt_clust_7="13000.00000" pt_clust_8="13000.00000" pt_clust_9="110.37065"></scales>
<clustering>
<clus scale="   79.478">  5  6 -1 -1</clus>
<clus scale="   93.848">  7  8 -1 -1</clus>
<clus scale="  121.164">  2  5  1 -1</clus>
<clus scale="  110.371">  1  9  2 -1</clus>
<clus scale="  110.371">  1  5  2 -1</clus>
</clustering>
</event>
<event>
 9    1  0.7835476E-005  0.1168535E+03  0.7546771E-02  0.1251498E+00
         21   -1    0    0  501  502  0.00000000000E+00  0.00000000000E+00  0.10528336504E+03  0.10528336504E+03  0.00000000000E+00 0.  1.
         -2   -1    0    0    0  501 -0.00000000000E+00 -0.00000000000E+00 -0.20703146881E+03  0.20703146881E+03  0.00000000000E+00 0.  1.
         23    2    1    2    0    0 -0.65140912843E+02 -0.57187784183E+02 -0.12217952086E+03  0.17415710039E+03  0.88820488144E+02 0.  0.
        -24    2    1    2    0    0  0.48137410729E+02  0.21179468398E+02  0.24115958007E+02  0.98166562790E+02  0.79305197976E+02 0.  0.
         13    1    4    4    0    0  0.96966492262E+01  0.47402104916E+02  0.87974943453E+01  0.49177031869E+02  0.00000000000E+00 0. -1.
        -14    1    4    4    0    0  0.38440761503E+02 -0.26222636518E+02  0.15318463662E+02  0.48989530921E+02  0.00000000000E+00 0.  1.
        -11    1    3    3    0    0 -0.56211028234E+02 -0.76549301925E+01 -0.19819905383E+02  0.60092481233E+02  0.00000000000E+00 0. -1.
         11    1    3    3    0    0 -0.89298846086E+01 -0.49532853991E+02 -0.10235961548E+03  0.11406461916E+03  0.00000000000E+00 0.  1.
         -1    1    1    2    0  502  0.17003502114E+02  0.36008315785E+02 -0.36845409207E+01  0.39991170671E+02  0.00000000000E+00 0.  1.
<scales pt_clust_5="13000.00000" pt_clust_6="13000.00000" pt_clust_7="13000.00000" pt_clust_8="13000.00000" pt_clust_9="39.82107"></scales>
<clustering>
<clus scale="   39.821">  1  9  2 -1</clus>
<clus scale="   79.305">  5  6 -1 -1</clus>
<clus scale="   88.820">  7  8 -1 -1</clus>
<clus scale="  109.795">  1  5  2 -1</clus>
<clus scale="   39.821">  1  5  2 -1</clus>
</clustering>
</event>
<event>
 9    1  0.7835476E-005  0.1257004E+03  0.7546771E-02  0.1245905E+00
         21   -1    0    0  501  502  0.00000000000E+00  0.00000000000E+00  0.64256894323E+02  0.64256894323E+02  0.00000000000E+00 0.  1.
          1   -1    0    0  502    0 -0.00000000000E+00 -0.00000000000E+00 -0.58294377966E+03  0.58294377966E+03  0.00000000000E+00 0. -1.
        -24    2    1    2    0    0  0.33998644659E+02  0.39017742663E+02 -0.32256621880E+03  0.33731654081E+03  0.83995185038E+02 0.  0.
         23    2    1    2    0    0  0.72546038951E+02  0.46065974361E+01 -0.57167945304E+02  0.12943272312E+03  0.90556652631E+02 0.  0.
         11    1    3    3    0    0 -0.56263325490E+01  0.51615296660E+02 -0.12378150084E+03  0.13422985665E+03  0.00000000000E+00 0. -1.
        -12    1    3    3    0    0  0.39624977208E+02 -0.12597553996E+02 -0.19878471796E+03  0.20308668416E+03  0.00000000000E+00 0.  1.
        -13    1    4    4    0    0 -0.11681018043E+02  0.23037488872E+02 -0.28753001764E+02  0.38651095541E+02  0.00000000000E+00 0. -1.
         13    1    4    4    0    0  0.84227056994E+02 -0.18430891436E+02 -0.28414943541E+02  0.90781627576E+02  0.00000000000E+00 0.  1.
          2    1    1    2  501    0 -0.10654468361E+03 -0.43624340099E+02 -0.13895272124E+03  0.18045141006E+03  0.00000000000E+00 0. -1.
<scales pt_clust_5="13000.00000" pt_clust_6="13000.00000" pt_clust_7="13000.00000" pt_clust_8="13000.00000" pt_clust_9="87.17845"></scales>
<clustering>
<clus scale="   83.995">  5  6 -1 -1</clus>
<clus scale="   90.557">  7  8 -1 -1</clus>
<clus scale="   98.658">  2  5  1 -1</clus>
<clus scale="   87.178">  1  9  2 -1</clus>
<clus scale="   87.178">  1  5  2 -1</clus>
</clustering>
</event>
<event>
 9    1  0.7835476E-005  0.1716275E+03  0.7546771E-02  0.1177625E+00
         21   -1    0    0  501  502  0.00000000000E+00  0.00000000000E+00  0.37858071391E+02  0.37858071391E+02  0.00000000000E+00 0. -1.
          1   -1    0    0  502    0 -0.00000000000E+00 -0.00000000000E+00 -0.13939836840E+04  0.13939836840E+04  0.00000000000E+00 0. -1.
        -24    2    1    2    0    0 -0.75449830614E+02  0.86879397617E+02 -0.48047799631E+03  0.50061942073E+03  0.80746472384E+02 0.  0.
         23    2    1    2    0    0  0.88306283993E+02 -0.17835550415E+03 -0.68832994297E+03  0.72236573983E+03  0.91681328769E+02 0.  0.
         11    1    3    3    0    0 -0.65565433567E+02  0.31116177784E+02 -0.16731570640E+03  0.18237759788E+03  0.00000000000E+00 0. -1.
        -12    1    3    3    0    0 -0.98843970473E+01  0.55763219832E+02 -0.31316228991E+03  0.31824182286E+03  0.00000000000E+00 0.  1.
        -11    1    4    4    0    0  0.10761565106E+03 -0.15412196912E+03 -0.58092555686E+03  0.61058104485E+03  0.00000000000E+00 0. -1.
         11    1    4    4    0    0 -0.19309367072E+02 -0.24233535033E+02 -0.10740438611E+03  0.11178469498E+03  0.00000000000E+00 0.  1.
          2    1    1    2  501    0 -0.12856453379E+02  0.91476106533E+02 -0.18731767328E+03  0.20885659478E+03  0.00000000000E+00 0. -1.
<scales pt_clust_5="13000.00000" pt_clust_6="13000.00000" pt_clust_7="13000.00000" pt_clust_8="13000.00000" pt_clust_9="92.37514"></scales>
<clustering>
<clus scale="   80.746">  5  6 -1 -1</clus>
<clus scale="   91.681">  7  8 -1 -1</clus>
<clus scale="   92.375">  1  9  2 -1</clus>
<clus scale="  166.044">  2  5  1 -1</clus>
<clus scale="   92.375">  1  5  2 -1</clus>
</clustering>
</event>
<event>
 9    1  0.7835476E-005  0.1041689E+03  0.7546771E-02  0.1277959E+00
          1   -1    0    0  502    0 -0.00000000000E+00  0.00000000000E+00  0.45767265234E+02  0.45767265234E+02  0.00000000000E+00 0. -1.
         21   -1    0    0  501  502  0.00000000000E+00 -0.00000000000E+00 -0.42867019191E+03  0.42867019191E+03  0.00000000000E+00 0.  1.
        -24    2    1    2    0    0 -0.34807108740E+02  0.63084477088E+01 -0.95552331303E+02  0.12978329272E+03  0.80387335575E+02 0.  0.
         23    2    1    2    0    0  0.73700429582E+02  0.91789717346E+01 -0.27679833478E+03  0.30148124732E+03  0.93582143095E+02 0.  0.
         13    1    3    3    0    0 -0.48873568894E+02  0.21142576251E+02 -0.30005564819E+02  0.61122566922E+02  0.00000000000E+00 0. -1.
        -14    1    3    3    0    0  0.14066460154E+02 -0.14834128542E+02 -0.65546766484E+02  0.68660725800E+02  0.00000000000E+00 0.  1.
        -11    1    4    4    0    0  0.40452471933E+02  0.51344833715E+02 -0.16427667372E+03  0.17680361977E+03  0.00000000000E+00 0.  1.
         11    1    4    4    0    0  0.33247957649E+02 -0.42165861980E+02 -0.11252166106E+03  0.12467762756E+03  0.00000000000E+00 0. -1.
          2    1    1    2  501    0 -0.38893320842E+02 -0.15487419443E+02 -0.10552260589E+02  0.43172917097E+02  0.00000000000E+00 0. -1.
<scales pt_clust_5="13000.00000" pt_clust_6="13000.00000" pt_clust_7="13000.00000" pt_clust_8="13000.00000" pt_clust_9="41.86350"></scales>
<clustering>
<clus scale="   41.863">  2  9  1 -1</clus>
<clus scale="   80.387">  5  6 -1 -1</clus>
<clus scale="   92.497">  1  5  2 -1</clus>
<clus scale="   93.582">  7  8 -1 -1</clus>
<clus scale="   41.863">  2  5  1 -1</clus>
</clustering>
</event>
<event>
 9    1  0.7835476E-005  0.1247915E+03  0.7546771E-02  0.1237582E+00
         21   -1    0    0  501  502  0.00000000000E+00  0.00000000000E+00  0.20185187513E+03  0.20185187513E+03  0.00000000000E+00 0.  1.
          3   -1    0    0  502    0 -0.00000000000E+00 -0.00000000000E+00 -0.11590006141E+03  0.11590006141E+03  0.00000000000E+00 0. -1.
         23    2    1    2    0    0 -0.69498879645E+02 -0.51543061528E+02 -0.19566887486E+02  0.12584856679E+03  0.89264871100E+02 0.  0.
        -24    2    1    2    0    0  0.84043261793E+02  0.33040085460E+02  0.49810125851E+02  0.13142738655E+03  0.81468964638E+02 0.  0.
         13    1    4    4    0    0  0.63404775895E+02 -0.92127248204E+01  0.16130614603E+01  0.64090887591E+02  0.00000000000E+00 0. -1.
        -14    1    4    4    0    0  0.20638485897E+02  0.42252810280E+02  0.48197064391E+02  0.67336498963E+02  0.00000000000E+00 0.  1.
        -11    1    3    3    0    0  0.46649759444E+01 -0.49034885047E+02 -0.61370694607E+00  0.49260111535E+02  0.00000000000E+00 0.  1.
         11    1    3    3    0    0 -0.74163855589E+02 -0.25081764802E+01 -0.18953180540E+02  0.76588455251E+02  0.00000000000E+00 0. -1.
          4    1    1    2  501    0 -0.14544382148E+02  0.18502976068E+02  0.55708575354E+02  0.60475983195E+02  0.00000000000E+00 0. -1.
<scales pt_clust_5="13000.00000" pt_clust_6="13000.00000" pt_clust_7="13000.00000" pt_clust_8="13000.00000" pt_clust_9="23.53506"></scales>
<clustering>
<clus scale="   23.535">  1  9  2 -1</clus>
<clus scale="   81.469">  5  6 -1 -1</clus>
<clus scale="   89.265">  7  8 -1 -1</clus>
<clus scale="  119.339">  1  5  2 -1</clus>
<clus scale="   23.535">  1  5  2 -1</clus>
</clustering>
</event>
<event>
 9    1  0.7835476E-005  0.9840159E+02  0.7546771E-02  0.1288758E+00
         21   -1    0    0  501  502  0.00000000000E+00  0.00000000000E+00  0.13203343920E+03  0.13203343920E+03  0.00000000000E+00 0. -1.
         -2   -1    0    0    0  501 -0.00000000000E+00 -0.00000000000E+00 -0.17225605634E+03  0.17225605634E+03  0.00000000000E+00 0.  1.
        -24    2    1    2    0    0  0.24975873103E+02 -0.21764473566E+02 -0.86867565109E+02  0.12292287033E+03  0.80414996336E+02 0.  0.
         23    2    1    2    0    0 -0.44597547541E+02  0.29436942277E+02 -0.24028817698E+02  0.10761936737E+03  0.90272195808E+02 0.  0.
         13    1    3    3    0    0  0.29251967047E+02 -0.26123754491E+02 -0.35472272191E+01  0.39379067356E+02  0.00000000000E+00 0. -1.
        -14    1    3    3    0    0 -0.42760939440E+01  0.43592809252E+01 -0.83320337890E+02  0.83543802976E+02  0.00000000000E+00 0.  1.
        -13    1    4    4    0    0 -0.24193440455E+02  0.61872486034E+02 -0.17987806328E+02  0.68826508451E+02  0.00000000000E+00 0. -1.
         13    1    4    4    0    0 -0.20404107086E+02 -0.32435543757E+02 -0.60410113702E+01  0.38792858920E+02  0.00000000000E+00 0.  1.
         -1    1    1    2    0  502  0.19621674438E+02 -0.76724687112E+01  0.70673765672E+02  0.73747257835E+02  0.00000000000E+00 0.  1.
<scales pt_clust_5="13000.00000" pt_clust_6="13000.00000" pt_clust_7="13000.00000" pt_clust_8="13000.00000" pt_clust_9="21.06839"></scales>
<clustering>
<clus scale="   21.068">  1  9  2 -1</clus>
<clus scale="   80.415">  5  6 -1 -1</clus>
<clus scale="   89.445">  2  5  1 -1</clus>
<clus scale="   90.272">  7  8 -1 -1</clus>
<clus scale="   21.068">  1  5  2 -1</clus>
</clustering>
</event>
<event>
 9    1  0.7835476E-005  0.1039211E+03  0.7546771E-02  0.1282038E+00
          1   -1    0    0  502    0 -0.00000000000E+00  0.00000000000E+00  0.10218698131E+03  0.10218698131E+03  0.00000000000E+00 0. -1.
         21   -1    0    0  501  502  0.00000000000E+00 -0.00000000000E+00 -0.13288842828E+03  0.13288842828E+03  0.00000000000E+00 0.  1.
        -24    2    1    2    0    0  0.18790442379E+01 -0.37924524431E+02  0.31083100092E+02  0.93645373247E+02  0.79758989830E+02 0.  0.
         23    2    1    2    0    0 -0.38665976238E+01  0.16848332465E+02 -0.65874752794E+02  0.11986882072E+03  0.98641949702E+02 0.  0.
         11    1    3    3    0    0  0.43773013212E+01 -0.57106192989E+02  0.28262368918E+00  0.57274408952E+02  0.00000000000E+00 0. -1.
        -12    1    3    3    0    0 -0.24982570832E+01  0.19181668559E+02  0.30800476403E+02  0.36370964296E+02  0.00000000000E+00 0.  1.
        -13    1    4    4    0    0  0.24435135069E+02 -0.29060718634E+02 -0.46092285485E+01  0.38247172199E+02  0.00000000000E+00 0. -1.
         13    1    4    4    0    0 -0.28301732693E+02  0.45909051099E+02 -0.61265524246E+02  0.81621648521E+02  0.00000000000E+00 0.  1.
          2    1    1    2  501    0  0.19875533858E+01  0.21076191966E+02  0.40902057252E+01  0.21561215623E+02  0.00000000000E+00 0. -1.
<scales pt_clust_5="13000.00000" pt_clust_6="13000.00000" pt_clust_7="13000.00000" pt_clust_8="13000.00000" pt_clust_9="21.16971"></scales>
<clustering>
<clus scale="   21.170">  2  9  1 -1</clus>
<clus scale="   79.759">  5  6 -1 -1</clus>
<clus scale="   86.202">  1  5  2 -1</clus>
<clus scale="   98.642">  7  8 -1 -1</clus>
<clus scale="   21.170">  2  5  1 -1</clus>
</clustering>
</event>
<event>
 9    1  0.7835476E-005  0.1190197E+03  0.7546771E-02  0.1259199E+00
         -2   -1    0    0    0  501 -0.00000000000E+00  0.00000000000E+00  0.63031323774E+03  0.63031323774E+03  0.00000000000E+00 0.  1.
         21   -1    0    0  501  502  0.00000000000E+00 -0.00000000000E+00 -0.42567346847E+02  0.42567346847E+02  0.00000000000E+00 0.  1.
        -24    2    1    2    0    0 -0.37799137223E+02  0.56046694961E+01  0.28680176191E+03  0.30035636261E+03  0.80613316685E+02 0.  0.
         23    2    1    2    0    0 -0.54704003350E+02  0.30328522964E+02  0.10360106483E+03  0.15163440713E+03  0.91364465214E+02 0.  0.
         11    1    3    3    0    0  0.19651854055E+02  0.20422484219E+02  0.12048647559E+03  0.12377505415E+03  0.00000000000E+00 0. -1.
        -12    1    3    3    0    0 -0.57450991278E+02 -0.14817814723E+02  0.16631528632E+03  0.17658130846E+03  0.00000000000E+00 0.  1.
        -13    1    4    4    0    0 -0.38836654529E+02  0.32323068254E+01 -0.43465628762E+01  0.39212576443E+02  0.00000000000E+00 0.  1.
         13    1    4    4    0    0 -0.15867348820E+02  0.27096216138E+02  0.10794762770E+03  0.11242183068E+03  0.00000000000E+00 0. -1.
         -1    1    1    2    0  502  0.92503140572E+02 -0.35933192460E+02  0.19734306415E+03  0.22088981485E+03  0.00000000000E+00 0.  1.
<scales pt_clust_5="13000.00000" pt_clust_6="13000.00000" pt_clust_7="13000.00000" pt_clust_8="13000.00000" pt_clust_9="76.27734"></scales>
<clustering>
<clus scale="   80.613">  5  6 -1 -1</clus>
<clus scale="   89.212">  1  5  2 -1</clus>
<clus scale="   76.277">  2  9  1 -1</clus>
<clus scale="   91.364">  7  8 -1 -1</clus>
<clus scale="   76.277">  2  5  1 -1</clus>
</clustering>
</event>
<event>
 9    1  0.8482763E-005  0.1527458E+03  0.7546771E-02  0.1199728E+00
         21   -1    0    0  501  502  0.00000000000E+00  0.00000000000E+00  0.12923789647E+03  0.12923789647E+03  0.00000000000E+00 0. -1.
          1   -1    0    0  502    0 -0.00000000000E+00 -0.00000000000E+00 -0.85328275796E+03  0.85328275796E+03  0.00000000000E+00 0. -1.
        -24    2    1    2    0    0 -0.54201657064E+02  0.97365668677E+02 -0.32809489812E+03  0.35615574546E+03  0.82357512032E+02 0.  0.
         23    2    1    2    0    0  0.76507216576E+02 -0.15872578001E+03  0.23229382745E+02  0.20213157051E+03  0.96282605636E+02 0.  0.
         11    1    3    3    0    0 -0.51845891428E+02  0.71368234185E+02 -0.13474490262E+03  0.16105157587E+03  0.00000000000E+00 0. -1.
        -12    1    3    3    0    0 -0.23557656362E+01  0.25997434493E+02 -0.19334999550E+03  0.19510416959E+03  0.00000000000E+00 0.  1.
        -11    1    4    4    0    0  0.56839035455E+02 -0.35256102766E+02  0.36850987175E+02  0.76365332380E+02  0.00000000000E+00 0.  1.
         11    1    4    4    0    0  0.19668181120E+02 -0.12346967724E+03 -0.13621604430E+02  0.12576623813E+03  0.00000000000E+00 0. -1.
          2    1    1    2  501    0 -0.22305559512E+02  0.61360111330E+02 -0.41917934612E+03  0.42423333846E+03  0.00000000000E+00 0. -1.
<scales pt_clust_5="13000.00000" pt_clust_6="13000.00000" pt_clust_7="13000.00000" pt_clust_8="13000.00000" pt_clust_9="65.28863"></scales>
<clustering>
<clus scale="   65.289">  1  9  2 -1</clus>
<clus scale="   82.358">  5  6 -1 -1</clus>
<clus scale="   96.283">  7  8 -1 -1</clus>
<clus scale="  144.374">  2  5  1 -1</clus>
<clus scale="   65.289">  1  5  2 -1</clus>
</clustering>
</event>
<event>
 9    1  0.7835476E-005  0.1738390E+03  0.7546771E-02  0.1174428E+00
         -2   -1    0    0    0  501 -0.00000000000E+00  0.00000000000E+00  0.30955458656E+03  0.30955458656E+03  0.00000000000E+00 0.  1.
         21   -1    0    0  501  502  0.00000000000E+00 -0.00000000000E+00 -0.22806365486E+03  0.22806365486E+03  0.00000000000E+00 0.  1.
        -24    2    1    2    0    0 -0.13164762556E+03  0.65566282988E+02  0.16943606575E+03  0.24074939401E+03  0.87302093649E+02 0.  0.
         23    2    1    2    0    0  0.16426408906E+03  0.44774725396E+01 -0.11744238894E+02  0.18834908975E+03  0.91294653442E+02 0.  0.
         11    1    3    3    0    0 -0.37586404632E+01  0.39290536667E+02  0.28855136773E+02  0.48892663743E+02  0.00000000000E+00 0. -1.
        -12    1    3    3    0    0 -0.12788898510E+03  0.26275746322E+02  0.14058092898E+03  0.19185673026E+03  0.00000000000E+00 0.  1.
        -13    1    4    4    0    0  0.79314341904E+02 -0.38033918597E+02 -0.27277234992E+02  0.92094469672E+02  0.00000000000E+00 0. -1.
         13    1    4    4    0    0  0.84949747160E+02  0.42511391137E+02  0.15532996097E+02  0.96254620080E+02  0.00000000000E+00 0.  1.
         -1    1    1    2    0  502 -0.32616463500E+02 -0.70043755528E+02 -0.76200895161E+02  0.10851975766E+03  0.00000000000E+00 0.  1.
<scales pt_clust_5="13000.00000" pt_clust_6="13000.00000" pt_clust_7="13000.00000" pt_clust_8="13000.00000" pt_clust_9="77.26553"></scales>
<clustering>
<clus scale="   77.266">  2  9  1 -1</clus>
<clus scale="   87.302">  5  6 -1 -1</clus>
<clus scale="   91.295">  7  8 -1 -1</clus>
<clus scale="  171.776">  1  5  2 -1</clus>
<clus scale="   77.266">  2  5  1 -1</clus>
</clustering>
</event>
<event>
 9    1  0.7835476E-005  0.1406656E+03  0.7546771E-02  0.1214959E+00
          1   -1    0    0  502    0 -0.00000000000E+00  0.00000000000E+00  0.15695146442E+03  0.15695146442E+03  0.00000000000E+00 0. -1.
         21   -1    0    0  501  502  0.00000000000E+00 -0.00000000000E+00 -0.44955835695E+03  0.44955835695E+03  0.00000000000E+00 0. -1.
        -24    2    1    2    0    0 -0.88755144113E+02  0.56271864762E+02  0.82128613866E+02  0.15465370746E+03  0.78285769118E+02 0.  0.
         23    2    1    2    0    0  0.79958149380E+02 -0.96772988230E+02 -0.12526294658E+03  0.19896426702E+03  0.90208962203E+02 0.  0.
         11    1    3    3    0    0 -0.85086816328E+02  0.11227320493E+02  0.52316030111E+02  0.10051261635E+03  0.00000000000E+00 0. -1.
        -12    1    3    3    0    0 -0.36683277853E+01  0.45044544270E+02  0.29812583755E+02  0.54141091117E+02  0.00000000000E+00 0.  1.
        -13    1    4    4    0    0  0.90655975845E+02 -0.44357742752E+02 -0.86150550940E+02  0.13269526263E+03  0.00000000000E+00 0.  1.
         13    1    4    4    0    0 -0.10697826465E+02 -0.52415245478E+02 -0.39112395645E+02  0.66269004389E+02  0.00000000000E+00 0. -1.
          2    1    1    2  501    0  0.87969947328E+01  0.40501123468E+02 -0.24947255982E+03  0.25289184689E+03  0.00000000000E+00 0. -1.
<scales pt_clust_5="13000.00000" pt_clust_6="13000.00000" pt_clust_7="13000.00000" pt_clust_8="13000.00000" pt_clust_9="41.44548"></scales>
<clustering>
<clus scale="   41.445">  2  9  1 -1</clus>
<clus scale="   78.286">  5  6 -1 -1</clus>
<clus scale="   90.209">  7  8 -1 -1</clus>
<clus scale="  133.334">  1  5  2 -1</clus>
<clus scale="   41.445">  2  5  1 -1</clus>
</clustering>
</event>
<event>
 9    1  0.7835476E-005  0.1037720E+03  0.7546771E-02  0.1277988E+00
         21   -1    0    0  501  502  0.00000000000E+00  0.00000000000E+00  0.11728436561E+03  0.11728436561E+03  0.00000000000E+00 0. -1.
          3   -1    0    0  502    0 -0.00000000000E+00 -0.00000000000E+00 -0.15048802317E+03  0.15048802317E+03  0.00000000000E+00 0. -1.
         23    2    1    2    0    0 -0.48686058441E+02  0.86121775845E+01 -0.71289870545E+02  0.12662893999E+03  0.92239584293E+02 0.  0.
        -24    2    1    2    0    0  0.43943868661E+02  0.17301465607E+02  0.56395085351E+02  0.10906198881E+03  0.80521471957E+02 0.  0.
         13    1    4    4    0    0  0.54301100533E+02  0.39579481454E+02  0.31948149103E+02  0.74403152503E+02  0.00000000000E+00 0. -1.
        -14    1    4    4    0    0 -0.10357231872E+02 -0.22278015847E+02  0.24446936248E+02  0.34658836306E+02  0.00000000000E+00 0.  1.
        -13    1    3    3    0    0 -0.19406425653E+01  0.28361428008E+02 -0.70347282349E+02  0.75874085340E+02  0.00000000000E+00 0.  1.
         13    1    3    3    0    0 -0.46745415876E+02 -0.19749250424E+02 -0.94258819565E+00  0.50754854647E+02  0.00000000000E+00 0. -1.
          4    1    1    2  501    0  0.47421897797E+01 -0.25913643191E+02 -0.18308872368E+02  0.32081459984E+02  0.00000000000E+00 0. -1.
<scales pt_clust_5="13000.00000" pt_clust_6="13000.00000" pt_clust_7="13000.00000" pt_clust_8="13000.00000" pt_clust_9="26.34399"></scales>
<clustering>
<clus scale="   26.344">  1  9  2 -1</clus>
<clus scale="   80.521">  5  6 -1 -1</clus>
<clus scale="   92.240">  7  8 -1 -1</clus>
<clus scale="   93.510">  1  5  2 -1</clus>
<clus scale="   26.344">  1  5  2 -1</clus>
</clustering>
</event>
<event>
 9    1  0.7835476E-005  0.2009710E+03  0.7546771E-02  0.1181277E+00
          1   -1    0    0  502    0 -0.00000000000E+00  0.00000000000E+00  0.12867372871E+03  0.12867372871E+03  0.00000000000E+00 0. -1.
         21   -1    0    0  501  502  0.00000000000E+00 -0.00000000000E+00 -0.54152073833E+03  0.54152073833E+03  0.00000000000E+00 0. -1.
        -24    2    1    2    0    0 -0.46224131191E+02 -0.22015788878E+02 -0.46579930502E+02  0.10603533978E+03  0.80327069484E+02 0.  0.
         23    2    1    2    0    0 -0.13239105161E+03  0.78131976319E+02 -0.34173047958E+02  0.18292579247E+03  0.93070145989E+02 0.  0.
         11    1    3    3    0    0  0.26060084911E+00 -0.23682441035E+02 -0.53969396822E+02  0.58937439030E+02  0.00000000000E+00 0. -1.
        -12    1    3    3    0    0 -0.46484732040E+02  0.16666521569E+01  0.73894663198E+01  0.47097900747E+02  0.00000000000E+00 0.  1.
        -13    1    4    4    0    0 -0.93880901485E+02  0.22708069809E+02  0.17200590884E+02  0.98107800021E+02  0.00000000000E+00 0.  1.
         13    1    4    4    0    0 -0.38510150127E+02  0.55423906510E+02 -0.51373638843E+02  0.84817992452E+02  0.00000000000E+00 0. -1.
          2    1    1    2  501    0  0.17861518280E+03 -0.56116187441E+02 -0.33209403116E+03  0.38123333479E+03  0.00000000000E+00 0. -1.
<scales pt_clust_5="13000.00000" pt_clust_6="13000.00000" pt_clust_7="13000.00000" pt_clust_8="13000.00000" pt_clust_9="178.12152"></scales>
<clustering>
<clus scale="   80.327">  5  6 -1 -1</clus>
<clus scale="   93.070">  7  8 -1 -1</clus>
<clus scale="   95.257">  1  5  2 -1</clus>
<clus scale="  178.122">  2  9  1 -1</clus>
<clus scale="  178.122">  2  5  1 -1</clus>
</clustering>
</event>
<event>
 9    1  0.7835476E-005  0.9391379E+02  0.7546771E-02  0.1302628E+00
         -2   -1    0    0    0  501 -0.00000000000E+00  0.00000000000E+00  0.71309017583E+03  0.71309017583E+03  0.00000000000E+00 0.  1.
         21   -1    0    0  501  502  0.00000000000E+00 -0.00000000000E+00 -0.27663210729E+02  0.27663210729E+02  0.00000000000E+00 0. -1.
         23    2    1    2    0    0  0.16632884557E+02 -0.39224348790E+02  0.37491749129E+03  0.38837932717E+03  0.91979204773E+02 0.  0.
        -24    2    1    2    0    0  0.27613778248E+02 -0.22562690609E+02  0.11854605117E+03  0.14591495681E+03  0.77242557023E+02 0.  0.
         13    1    4    4    0    0  0.21516910761E+02 -0.44830630482E+02  0.39322241520E+02  0.63395595717E+02  0.00000000000E+00 0. -1.
        -14    1    4    4    0    0  0.60968674872E+01  0.22267939874E+02  0.79223809649E+02  0.82519361090E+02  0.00000000000E+00 0.  1.
        -11    1    3    3    0    0  0.95005087358E+01  0.30015387519E+02  0.13047667771E+03  0.13422125979E+03  0.00000000000E+00 0.  1.
         11    1    3    3    0    0  0.71323758214E+01 -0.69239736309E+02  0.24444081358E+03  0.25415806738E+03  0.00000000000E+00 0. -1.
         -1    1    1    2    0  502 -0.44246662805E+02  0.61787039398E+02  0.19196342265E+03  0.20645910259E+03  0.00000000000E+00 0.  1.
<scales pt_clust_5="13000.00000" pt_clust_6="13000.00000" pt_clust_7="13000.00000" pt_clust_8="13000.00000" pt_clust_9="75.99613"></scales>
<clustering>
<clus scale="   75.996">  2  9  1 -1</clus>
<clus scale="   77.243">  5  6 -1 -1</clus>
<clus scale="   79.536">  2  5  1 -1</clus>
<clus scale="   91.979">  7  8 -1 -1</clus>
<clus scale="   75.996">  2  5  1 -1</clus>
</clustering>
</event>
<event>
 9    1  0.7835476E-005  0.1053478E+03  0.7546771E-02  0.1273942E+00
         21   -1    0    0  501  502  0.00000000000E+00  0.00000000000E+00  0.59928265658E+03  0.59928265658E+03  0.00000000000E+00 0.  1.
         -4   -1    0    0    0  501 -0.00000000000E+00 -0.00000000000E+00 -0.41355339889E+02  0.41355339889E+02  0.00000000000E+00 0.  1.
         23    2    1    2    0    0 -0.24596418821E+02  0.54255215386E+02  0.47260551480E+02  0.11739822457E+03  0.89443676085E+02 0.  0.
        -24    2    1    2    0    0  0.26597505701E+02 -0.28856323310E+02  0.37710936619E+03  0.38727401554E+03  0.78927652575E+02 0.  0.
         11    1    4    4    0    0  0.48755652388E+02 -0.26132303511E+01  0.28103355991E+03  0.28524341256E+03  0.00000000000E+00 0. -1.
        -12    1    4    4    0    0 -0.22158146687E+02 -0.26243092959E+02  0.96075806280E+02  0.10203060298E+03  0.00000000000E+00 0.  1.
        -13    1    3    3    0    0  0.22705506553E+02  0.50617986423E+02  0.42168229599E+02  0.69684145721E+02  0.00000000000E+00 0.  1.
         13    1    3    3    0    0 -0.47301925374E+02  0.36372289627E+01  0.50923218808E+01  0.47714078853E+02  0.00000000000E+00 0. -1.
         -3    1    1    2    0  502 -0.20010868795E+01 -0.25398892076E+02  0.13355739902E+03  0.13596575635E+03  0.00000000000E+00 0.  1.
<scales pt_clust_5="13000.00000" pt_clust_6="13000.00000" pt_clust_7="13000.00000" pt_clust_8="13000.00000" pt_clust_9="25.47760"></scales>
<clustering>
<clus scale="   25.478">  1  9  2 -1</clus>
<clus scale="   78.928">  5  6 -1 -1</clus>
<clus scale="   89.444">  7  8 -1 -1</clus>
<clus scale="   96.579">  1  5  2 -1</clus>
<clus scale="   25.478">  1  5  2 -1</clus>
</clustering>
</event>
<event>
 9    1  0.7835476E-005  0.1074530E+03  0.7546771E-02  0.1267663E+00
          3   -1    0    0  502    0 -0.00000000000E+00  0.00000000000E+00  0.26464516121E+03  0.26464516121E+03  0.00000000000E+00 0. -1.
         21   -1    0    0  501  502  0.00000000000E+00 -0.00000000000E+00 -0.22306016801E+03  0.22306016801E+03  0.00000000000E+00 0. -1.
        -24    2    1    2    0    0 -0.53988803171E+02  0.62373976611E+02 -0.15423960408E+02  0.12004876700E+03  0.85839991135E+02 0.  0.
         23    2    1    2    0    0 -0.16461406847E+01 -0.15116252725E+01 -0.13249504132E+03  0.16098959126E+03  0.91420554191E+02 0.  0.
         11    1    3    3    0    0 -0.49278334655E+02  0.77979612893E+02 -0.31185311300E+02  0.97374010569E+02  0.00000000000E+00 0. -1.
        -12    1    3    3    0    0 -0.47104685155E+01 -0.15605636282E+02  0.15761350892E+02  0.22674756434E+02  0.00000000000E+00 0.  1.
        -11    1    4    4    0    0 -0.28467214638E+02 -0.30774976260E+02 -0.10398300707E+03  0.11211577602E+03  0.00000000000E+00 0. -1.
         11    1    4    4    0    0  0.26821073954E+02  0.29263350988E+02 -0.28512034258E+02  0.48873815245E+02  0.00000000000E+00 0.  1.
          4    1    1    2  501    0  0.55634943855E+02 -0.60862351339E+02  0.18950399494E+03  0.20666697096E+03  0.00000000000E+00 0. -1.
<scales pt_clust_5="13000.00000" pt_clust_6="13000.00000" pt_clust_7="13000.00000" pt_clust_8="13000.00000" pt_clust_9="82.45896"></scales>
<clustering>
<clus scale="   82.459">  2  9  1 -1</clus>
<clus scale="   85.840">  5  6 -1 -1</clus>
<clus scale="   91.421">  7  8 -1 -1</clus>
<clus scale="  102.747">  1  5  2 -1</clus>
<clus scale="   82.459">  2  5  1 -1</clus>
</clustering>
</event>
<event>
 9    1  0.7835476E-005  0.9258280E+02  0.7546771E-02  0.1305136E+00
         21   -1    0    0  501  502  0.00000000000E+00  0.00000000000E+00  0.27805927357E+02  0.27805927357E+02  0.00000000000E+00 0.  1.
         -4   -1    0    0    0  501 -0.00000000000E+00 -0.00000000000E+00 -0.45122392245E+03  0.45122392245E+03  0.00000000000E+00 0.  1.
        -24    2    1    2    0    0  0.10800964530E+02  0.15107250998E+02 -0.23170550584E+03  0.24473318661E+03  0.76563707625E+02 0.  0.
         23    2    1    2    0    0  0.17317507693E+02 -0.34394841573E+02 -0.12099310902E+03  0.15578621567E+03  0.90261350324E+02 0.  0.
         11    1    3    3    0    0 -0.40490976857E+01  0.26081628303E+02 -0.22409328499E+02  0.34624045558E+02  0.00000000000E+00 0. -1.
        -12    1    3    3    0    0  0.14850062216E+02 -0.10974377305E+02 -0.20929617734E+03  0.21010914106E+03  0.00000000000E+00 0.  1.
        -11    1    4    4    0    0  0.31718606787E+02 -0.91286514434E+00 -0.25180528333E+01  0.31831492729E+02  0.00000000000E+00 0.  1.
         11    1    4    4    0    0 -0.14401099094E+02 -0.33481976429E+02 -0.11847505618E+03  0.12395472294E+03  0.00000000000E+00 0. -1.
         -3    1    1    2    0  502 -0.28118472223E+02  0.19287590575E+02 -0.70719380237E+02  0.78510447531E+02  0.00000000000E+00 0.  1.
<scales pt_clust_5="13000.00000" pt_clust_6="13000.00000" pt_clust_7="13000.00000" pt_clust_8="13000.00000" pt_clust_9="34.09781"></scales>
<clustering>
<clus scale="   34.098">  1  9  2 -1</clus>
<clus scale="   76.564">  5  6 -1 -1</clus>
<clus scale="   79.287">  2  5  1 -1</clus>
<clus scale="   90.261">  7  8 -1 -1</clus>
<clus scale="   34.098">  1  5  2 -1</clus>
</clustering>
</event>
<event>
 9    1  0.7835476E-005  0.1227740E+03  0.7546771E-02  0.1243953E+00
         21   -1    0    0  501  502  0.00000000000E+00  0.00000000000E+00  0.14328709702E+03  0.14328709702E+03  0.00000000000E+00 0.  1.
          1   -1    0    0  502    0 -0.00000000000E+00 -0.00000000000E+00 -0.18325391766E+03  0.18325391766E+03  0.00000000000E+00 0. -1.
         23    2    1    2    0    0  0.47078342179E+02  0.67936264573E+02 -0.94380362061E+02  0.15748409578E+03  0.95193914381E+02 0.  0.
        -24    2    1    2    0    0  0.27931725621E+01 -0.75702617586E+02  0.44469082831E+02  0.11761397499E+03  0.78210355216E+02 0.  0.
         11    1    4    4    0    0 -0.18934378561E+02  0.91090217528E+01  0.51148425532E+01  0.21625137760E+02  0.00000000000E+00 0. -1.
        -12    1    4    4    0    0  0.21727551123E+02 -0.84811639339E+02  0.39354240278E+02  0.95988837231E+02  0.00000000000E+00 0.  1.
        -13    1    3    3    0    0 -0.10831981656E+02 -0.18837692648E+02 -0.17245003262E+02  0.27741316270E+02  0.00000000000E+00 0.  1.
         13    1    3    3    0    0  0.57910323835E+02  0.86773957221E+02 -0.77135358799E+02  0.12974277951E+03  0.00000000000E+00 0. -1.
          2    1    1    2  501    0 -0.49871514741E+02  0.77663530129E+01  0.99444585849E+01  0.51442943911E+02  0.00000000000E+00 0. -1.
<scales pt_clust_5="13000.00000" pt_clust_6="13000.00000" pt_clust_7="13000.00000" pt_clust_8="13000.00000" pt_clust_9="50.47261"></scales>
<clustering>
<clus scale="   50.473">  1  9  2 -1</clus>
<clus scale="   78.210">  5  6 -1 -1</clus>
<clus scale="   95.194">  7  8 -1 -1</clus>
<clus scale="  110.129">  1  5  2 -1</clus>
<clus scale="   50.473">  1  5  2 -1</clus>
</clustering>
</event>
<event>
 9    1  0.7835476E-005  0.1005182E+03  0.7546771E-02  0.1283362E+00
          1   -1    0    0  502    0 -0.00000000000E+00  0.00000000000E+00  0.20652661555E+03  0.20652661555E+03  0.00000000000E+00 0. -1.
         21   -1    0    0  501  502  0.00000000000E+00 -0.00000000000E+00 -0.71011032622E+02  0.71011032622E+02  0.00000000000E+00 0. -1.
        -24    2    1    2    0    0  0.33750735160E+02 -0.44132145633E+01  0.86309532566E+02  0.12355446880E+03  0.81595237369E+02 0.  0.
         23    2    1    2    0    0 -0.62903991257E+02  0.51565832071E+01  0.56780768649E+02  0.12385277455E+03  0.90177334230E+02 0.  0.
         13    1    3    3    0    0  0.46060485623E+02  0.17553107460E+02  0.21036723868E+02  0.53593130795E+02  0.00000000000E+00 0. -1.
        -14    1    3    3    0    0 -0.12309750463E+02 -0.21966322023E+02  0.65272808698E+02  0.69961338002E+02  0.00000000000E+00 0.  1.
        -13    1    4    4    0    0 -0.84218898528E+02  0.10511196915E+02  0.31934334450E+02  0.90681364385E+02  0.00000000000E+00 0. -1.
         13    1    4    4    0    0  0.21314907271E+02 -0.53546137076E+01  0.24846434199E+02  0.33171410165E+02  0.00000000000E+00 0.  1.
          2    1    1    2  501    0  0.29153256097E+02 -0.74336864388E+00 -0.75747182851E+01  0.30130404828E+02  0.00000000000E+00 0. -1.
<scales pt_clust_5="13000.00000" pt_clust_6="13000.00000" pt_clust_7="13000.00000" pt_clust_8="13000.00000" pt_clust_9="29.16273"></scales>
<clustering>
<clus scale="   29.163">  2  9  1 -1</clus>
<clus scale="   81.595">  5  6 -1 -1</clus>
<clus scale="   90.177">  7  8 -1 -1</clus>
<clus scale="   92.896">  1  5  2 -1</clus>
<clus scale="   29.163">  2  5  1 -1</clus>
</clustering>
</event>
<event>
 9    1  0.7835476E-005  0.1762070E+03  0.7546771E-02  0.1173403E+00
          1   -1    0    0  502    0 -0.00000000000E+00  0.00000000000E+00  0.10218266161E+04  0.10218266161E+04  0.00000000000E+00 0. -1.
         21   -1    0    0  501  502  0.00000000000E+00 -0.00000000000E+00 -0.53868318974E+02  0.53868318974E+02  0.00000000000E+00 0. -1.
         23    2    1    2    0    0  0.75779928749E+02  0.14599202362E+03  0.54375069766E+03  0.57593565328E+03  0.94767014058E+02 0.  0.
        -24    2    1    2    0    0  0.23738250847E+02 -0.14081074038E+03  0.24493749564E+03  0.29465325094E+03  0.80218404120E+02 0.  0.
         13    1    4    4    0    0  0.84065515162E+01 -0.14430531281E+03  0.23546947173E+03  0.27629796512E+03  0.00000000000E+00 0. -1.
        -14    1    4    4    0    0  0.15331699331E+02  0.34945724277E+01  0.94680239160E+01  0.18355285825E+02  0.00000000000E+00 0.  1.
        -13    1    3    3    0    0 -0.14291583015E+02  0.29479742020E+02  0.43492025519E+02  0.54450535519E+02  0.00000000000E+00 0.  1.
         13    1    3    3    0    0  0.90071511764E+02  0.11651228160E+03  0.50025867214E+03  0.52148511776E+03  0.00000000000E+00 0. -1.
          2    1    1    2  501    0 -0.99518179596E+02 -0.51812832387E+01  0.17927010382E+03  0.20510603085E+03  0.00000000000E+00 0. -1.
<scales pt_clust_5="13000.00000" pt_clust_6="13000.00000" pt_clust_7="13000.00000" pt_clust_8="13000.00000" pt_clust_9="99.65297"></scales>
<clustering>
<clus scale="   80.218">  5  6 -1 -1</clus>
<clus scale="   94.767">  7  8 -1 -1</clus>
<clus scale="   99.653">  2  9  1 -1</clus>
<clus scale="  168.829">  2  5  1 -1</clus>
<clus scale="   99.653">  2  5  1 -1</clus>
</clustering>
</event>
<event>
 9    1  0.7835476E-005  0.1474029E+03  0.7546771E-02  0.1207626E+00
         -2   -1    0    0    0  501 -0.00000000000E+00  0.00000000000E+00  0.37910063150E+03  0.37910063150E+03  0.00000000000E+00 0.  1.
         21   -1    0    0  501  502  0.00000000000E+00 -0.00000000000E+00 -0.94371782262E+02  0.94371782262E+02  0.00000000000E+00 0.  1.
        -24    2    1    2    0    0 -0.72068345465E+02  0.56473861044E+02  0.22510843845E+03  0.26603100691E+03  0.10823836740E+03 0.  0.
         23    2    1    2    0    0  0.87197098609E+02 -0.92839745284E+02  0.33745972725E+02  0.16031558322E+03  0.91322194654E+02 0.  0.
         11    1    3    3    0    0 -0.92341047812E+02  0.12712449366E+02  0.15677011735E+03  0.18238789755E+03  0.00000000000E+00 0. -1.
        -12    1    3    3    0    0  0.20272702347E+02  0.43761411678E+02  0.68338321097E+02  0.83643109357E+02  0.00000000000E+00 0.  1.
        -13    1    4    4    0    0  0.11449327202E+02 -0.40690425390E+02 -0.26947506283E+02  0.50129491387E+02  0.00000000000E+00 0.  1.
         13    1    4    4    0    0  0.75747771407E+02 -0.52149319894E+02  0.60693479008E+02  0.11018609183E+03  0.00000000000E+00 0. -1.
         -1    1    1    2    0  502 -0.15128753144E+02  0.36365884240E+02  0.25874438070E+02  0.47125823640E+02  0.00000000000E+00 0.  1.
<scales pt_clust_5="13000.00000" pt_clust_6="13000.00000" pt_clust_7="13000.00000" pt_clust_8="13000.00000" pt_clust_9="39.38727"></scales>
<clustering>
<clus scale="   39.387">  2  9  1 -1</clus>
<clus scale="   91.322">  7  8 -1 -1</clus>
<clus scale="  108.238">  5  6 -1 -1</clus>
<clus scale="  135.469">  2  7  1 -1</clus>
<clus scale="   39.387">  2  5  1 -1</clus>
</clustering>
</event>
<event>
 9    1  0.7835476E-005  0.1168999E+03  0.7546771E-02  0.1252243E+00
          1   -1    0    0  502    0 -0.00000000000E+00  0.00000000000E+00  0.13425053948E+03  0.13425053948E+03  0.00000000000E+00 0. -1.
         21   -1    0    0  501  502  0.00000000000E+00 -0.00000000000E+00 -0.19468792753E+03  0.19468792753E+03  0.00000000000E+00 0. -1.
         23    2    1    2    0    0  0.48409218172E+02 -0.55356765785E+02  0.52896482780E+02  0.12951863956E+03  0.92570060924E+02 0.  0.
        -24    2    1    2    0    0 -0.73010808914E+02  0.17247660066E+02 -0.10666870994E+03  0.15357261843E+03  0.81106568495E+02 0.  0.
         13    1    4    4    0    0 -0.65542415033E+02 -0.18088232631E+02 -0.92444104525E+02  0.11475584861E+03  0.00000000000E+00 0. -1.
        -14    1    4    4    0    0 -0.74683938808E+01  0.35335892697E+02 -0.14224605419E+02  0.38816769818E+02  0.00000000000E+00 0.  1.
        -13    1    3    3    0    0  0.17658548556E+02 -0.70127900038E+02  0.74598850800E+01  0.72700733052E+02  0.00000000000E+00 0. -1.
         13    1    3    3    0    0  0.30750669615E+02  0.14771134253E+02  0.45436597700E+02  0.56817906504E+02  0.00000000000E+00 0.  1.
          2    1    1    2  501    0  0.24601590742E+02  0.38109105719E+02 -0.66651608903E+01  0.45847209026E+02  0.00000000000E+00 0. -1.
<scales pt_clust_5="13000.00000" pt_clust_6="13000.00000" pt_clust_7="13000.00000" pt_clust_8="13000.00000" pt_clust_9="45.36016"></scales>
<clustering>
<clus scale="   45.360">  2  9  1 -1</clus>
<clus scale="   81.107">  5  6 -1 -1</clus>
<clus scale="   92.570">  7  8 -1 -1</clus>
<clus scale="  108.049">  2  5  1 -1</clus>
<clus scale="   45.360">  2  5  1 -1</clus>
</clustering>
</event>
<event>
 9    1  0.7835476E-005  0.9944103E+02  0.7546771E-02  0.1286008E+00
          1   -1    0    0  502    0 -0.00000000000E+00  0.00000000000E+00  0.23301130217E+03  0.23301130217E+03  0.00000000000E+00 0. -1.
         21   -1    0    0  501  502  0.00000000000E+00 -0.00000000000E+00 -0.20079900717E+03  0.20079900717E+03  0.00000000000E+00 0. -1.
         23    2    1    2    0    0  0.25782835134E+02 -0.41655416231E+02  0.18875959874E+03  0.21466143091E+03  0.89718534953E+02 0.  0.
        -24    2    1    2    0    0  0.18777134844E+02  0.21817575894E+02 -0.43394886108E+02  0.95931183066E+02  0.80567290716E+02 0.  0.
         13    1    4    4    0    0  0.37866632732E+02 -0.12761047575E+02 -0.39590135985E+02  0.56250378461E+02  0.00000000000E+00 0. -1.
        -14    1    4    4    0    0 -0.19089497889E+02  0.34578623468E+02 -0.38047501224E+01  0.39680804605E+02  0.00000000000E+00 0.  1.
        -11    1    3    3    0    0 -0.82016220317E+01  0.24950093913E+02  0.35772220239E+02  0.44378210093E+02  0.00000000000E+00 0.  1.
         11    1    3    3    0    0  0.33984457166E+02 -0.66605510144E+02  0.15298737850E+03  0.17028322081E+03  0.00000000000E+00 0. -1.
          2    1    1    2  501    0 -0.44559969978E+02  0.19837840337E+02 -0.11315241764E+03  0.12321769536E+03  0.00000000000E+00 0. -1.
<scales pt_clust_5="13000.00000" pt_clust_6="13000.00000" pt_clust_7="13000.00000" pt_clust_8="13000.00000" pt_clust_9="48.77633"></scales>
<clustering>
<clus scale="   48.776">  2  9  1 -1</clus>
<clus scale="   80.567">  5  6 -1 -1</clus>
<clus scale="   89.719">  7  8 -1 -1</clus>
<clus scale="   91.270">  2  5  1 -1</clus>
<clus scale="   48.776">  2  5  1 -1</clus>
</clustering>
</event>
<event>
 9    1  0.7835476E-005  0.1561341E+03  0.7546771E-02  0.1213427E+00
          1   -1    0    0  502    0 -0.00000000000E+00  0.00000000000E+00  0.10361241152E+04  0.10361241152E+04  0.00000000000E+00 0. -1.
         21   -1    0    0  501  502  0.00000000000E+00 -0.00000000000E+00 -0.72257019898E+02  0.72257019898E+02  0.00000000000E+00 0.  1.
         23    2    1    2    0    0  0.42421254147E+02  0.32212756439E+02  0.16742579348E+03  0.19538621628E+03  0.85481885287E+02 0.  0.
        -24    2    1    2    0    0 -0.14143022794E+03  0.84598867549E+01  0.64770147500E+02  0.17353584701E+03  0.76455471569E+02 0.  0.
         11    1    4    4    0    0 -0.10906146381E+03 -0.25378198871E+02  0.58364220975E+02  0.12627287181E+03  0.00000000000E+00 0. -1.
        -12    1    4    4    0    0 -0.32368764129E+02  0.33838085626E+02  0.64059265258E+01  0.47262975199E+02  0.00000000000E+00 0.  1.
        -11    1    3    3    0    0  0.23842791421E+02  0.60394173976E+02  0.12767965807E+03  0.14324116042E+03  0.00000000000E+00 0.  1.
         11    1    3    3    0    0  0.18578462726E+02 -0.28181417537E+02  0.39746135404E+02  0.52145055865E+02  0.00000000000E+00 0. -1.
          2    1    1    2  501    0  0.99008973790E+02 -0.40672643194E+02  0.73167115431E+03  0.73945907179E+03  0.00000000000E+00 0. -1.
<scales pt_clust_5="13000.00000" pt_clust_6="13000.00000" pt_clust_7="13000.00000" pt_clust_8="13000.00000" pt_clust_9="136.13391"></scales>
<clustering>
<clus scale="   76.455">  5  6 -1 -1</clus>
<clus scale="   85.482">  7  8 -1 -1</clus>
<clus scale="  100.719">  1  7  2 -1</clus>
<clus scale="  136.134">  2  9  1 -1</clus>
<clus scale="  136.134">  2  5  1 -1</clus>
</clustering>
</event>
<event>
 9    1  0.7835476E-005  0.9509245E+02  0.7546771E-02  0.1294284E+00
          1   -1    0    0  502    0 -0.00000000000E+00  0.00000000000E+00  0.19384748981E+03  0.19384748981E+03  0.00000000000E+00 0. -1.
         21   -1    0    0  501  502  0.00000000000E+00 -0.00000000000E+00 -0.16454212373E+03  0.16454212373E+03  0.00000000000E+00 0. -1.
        -24    2    1    2    0    0 -0.13786112240E+02  0.16713956632E+01  0.84529674243E+02  0.12063385208E+03  0.84937682961E+02 0.  0.
         23    2    1    2    0    0  0.50800037296E+02  0.22711056514E+02  0.54279486259E+02  0.11962187294E+03  0.90921361510E+02 0.  0.
         11    1    3    3    0    0 -0.49046002120E+02  0.82902422994E+01  0.42972792507E+02  0.65733548034E+02  0.00000000000E+00 0. -1.
        -12    1    3    3    0    0  0.35259889880E+02 -0.66188466362E+01  0.41556881736E+02  0.54900304049E+02  0.00000000000E+00 0.  1.
        -13    1    4    4    0    0  0.70120060190E+02  0.34425541501E+02  0.23758839308E+02  0.81648167119E+02  0.00000000000E+00 0. -1.
         13    1    4    4    0    0 -0.19320022894E+02 -0.11714484987E+02  0.30520646951E+02  0.37973705816E+02  0.00000000000E+00 0.  1.
          2    1    1    2  501    0 -0.37013925056E+02 -0.24382452177E+02 -0.10950379443E+03  0.11813388852E+03  0.00000000000E+00 0. -1.
<scales pt_clust_5="13000.00000" pt_clust_6="13000.00000" pt_clust_7="13000.00000" pt_clust_8="13000.00000" pt_clust_9="44.32307"></scales>
<clustering>
<clus scale="   44.323">  2  9  1 -1</clus>
<clus scale="   84.938">  5  6 -1 -1</clus>
<clus scale="   89.388">  1  5  2 -1</clus>
<clus scale="   90.921">  7  8 -1 -1</clus>
<clus scale="   44.323">  2  5  1 -1</clus>
</clustering>
</event>
<event>
 9    1  0.7835476E-005  0.1636464E+03  0.7546771E-02  0.1203108E+00
         21   -1    0    0  501  502  0.00000000000E+00  0.00000000000E+00  0.28950614710E+03  0.28950614710E+03  0.00000000000E+00 0. -1.
          3   -1    0    0  502    0 -0.00000000000E+00 -0.00000000000E+00 -0.21601068574E+03  0.21601068574E+03  0.00000000000E+00 0. -1.
        -24    2    1    2    0    0  0.73302591356E+02  0.18016172549E+02  0.12562282305E+02  0.10983248145E+03  0.78787757119E+02 0.  0.
         23    2    1    2    0    0 -0.19601686923E+03  0.71217757302E+01 -0.57259871970E+02  0.22346266940E+03  0.90462914859E+02 0.  0.
         13    1    3    3    0    0  0.26934836873E+02 -0.29396442589E+01  0.42790624576E+02  0.50647453019E+02  0.00000000000E+00 0. -1.
        -14    1    3    3    0    0  0.46367754483E+02  0.20955816808E+02 -0.30228342271E+02  0.59185028431E+02  0.00000000000E+00 0.  1.
        -13    1    4    4    0    0 -0.40276740018E+02  0.27417212809E+02 -0.44334668862E+02  0.65874746359E+02  0.00000000000E+00 0.  1.
         13    1    4    4    0    0 -0.15574012921E+03 -0.20295437078E+02 -0.12925203108E+02  0.15758792304E+03  0.00000000000E+00 0. -1.
          4    1    1    2  501    0  0.12271427787E+03 -0.25137948279E+02  0.11819305103E+03  0.17222168199E+03  0.00000000000E+00 0. -1.
<scales pt_clust_5="13000.00000" pt_clust_6="13000.00000" pt_clust_7="13000.00000" pt_clust_8="13000.00000" pt_clust_9="136.36939"></scales>
<clustering>
<clus scale="   78.788">  5  6 -1 -1</clus>
<clus scale="   90.463">  7  8 -1 -1</clus>
<clus scale="  109.112">  2  5  1 -1</clus>
<clus scale="  136.369">  1  9  2 -1</clus>
<clus scale="  136.369">  1  5  2 -1</clus>
</clustering>
</event>
<event>
 9    1  0.7835476E-005  0.9747467E+02  0.7546771E-02  0.1292218E+00
         21   -1    0    0  501  502  0.00000000000E+00  0.00000000000E+00  0.26802560116E+03  0.26802560116E+03  0.00000000000E+00 0.  1.
         -2   -1    0    0    0  501 -0.00000000000E+00 -0.00000000000E+00 -0.42677457593E+03  0.42677457593E+03  0.00000000000E+00 0.  1.
         23    2    1    2    0    0 -0.29075909787E+02  0.22298889615E+02 -0.38340798688E+03  0.39593991355E+03  0.91782796480E+02 0.  0.
        -24    2    1    2    0    0  0.13027509106E+02  0.57556608056E+02  0.62139058046E+02  0.11707141036E+03  0.79761980066E+02 0.  0.
         13    1    4    4    0    0  0.41430666657E+02  0.56418650243E+02  0.37261959540E+02  0.79297023045E+02  0.00000000000E+00 0. -1.
        -14    1    4    4    0    0 -0.28403157551E+02  0.11379578126E+01  0.24877098506E+02  0.37774387314E+02  0.00000000000E+00 0.  1.
        -11    1    3    3    0    0 -0.56599662182E+02 -0.52948386867E+01 -0.17766245454E+03  0.18653553235E+03  0.00000000000E+00 0.  1.
         11    1    3    3    0    0  0.27523752395E+02  0.27593728301E+02 -0.20574553234E+03  0.20940438120E+03  0.00000000000E+00 0. -1.
         -1    1    1    2    0  502  0.16048400681E+02 -0.79855497671E+02  0.16251995406E+03  0.18178885318E+03  0.00000000000E+00 0.  1.
<scales pt_clust_5="13000.00000" pt_clust_6="13000.00000" pt_clust_7="13000.00000" pt_clust_8="13000.00000" pt_clust_9="81.45214"></scales>
<clustering>
<clus scale="   79.762">  5  6 -1 -1</clus>
<clus scale="   81.452">  1  9  2 -1</clus>
<clus scale="   86.251">  1  5  2 -1</clus>
<clus scale="   91.783">  7  8 -1 -1</clus>
<clus scale="   81.452">  1  5  2 -1</clus>
</clustering>
</event>
<event>
 9    1  0.7835476E-005  0.1300947E+03  0.7546771E-02  0.1235262E+00
          1   -1    0    0  502    0 -0.00000000000E+00  0.00000000000E+00  0.24135373308E+03  0.24135373308E+03  0.00000000000E+00 0. -1.
         21   -1    0    0  501  502  0.00000000000E+00 -0.00000000000E+00 -0.27213270121E+03  0.27213270121E+03  0.00000000000E+00 0.  1.
         23    2    1    2    0    0  0.11300933338E+02  0.60834741126E+02  0.76020368334E+02  0.13407893948E+03  0.91484910165E+02 0.  0.
        -24    2    1    2    0    0  0.98788208242E+02 -0.21555887786E+02 -0.19403260046E+03  0.23355794987E+03  0.81712297232E+02 0.  0.
         13    1    4    4    0    0  0.43262676976E+02 -0.25794947018E+02 -0.26297956416E+02  0.56820955839E+02  0.00000000000E+00 0. -1.
        -14    1    4    4    0    0  0.55525531266E+02  0.42390592318E+01 -0.16773464404E+03  0.17673699403E+03  0.00000000000E+00 0.  1.
        -11    1    3    3    0    0  0.28946821052E+02 -0.13155948639E+02  0.36335964520E+02  0.48283534991E+02  0.00000000000E+00 0.  1.
         11    1    3    3    0    0 -0.17645887714E+02  0.73990689765E+02  0.39684403813E+02  0.85795404487E+02  0.00000000000E+00 0. -1.
          2    1    1    2  501    0 -0.11008914158E+03 -0.39278853340E+02  0.87233263990E+02  0.14584954494E+03  0.00000000000E+00 0. -1.
<scales pt_clust_5="13000.00000" pt_clust_6="13000.00000" pt_clust_7="13000.00000" pt_clust_8="13000.00000" pt_clust_9="101.23107"></scales>
<clustering>
<clus scale="   81.712">  5  6 -1 -1</clus>
<clus scale="   91.485">  7  8 -1 -1</clus>
<clus scale="  110.445">  1  7  2 -1</clus>
<clus scale="  101.231">  2  9  1 -1</clus>
<clus scale="  101.231">  2  5  1 -1</clus>
</clustering>
</event>
<event>
 9    1  0.7835476E-005  0.1178679E+03  0.7546771E-02  0.1250030E+00
         21   -1    0    0  501  502  0.00000000000E+00  0.00000000000E+00  0.38806577610E+03  0.38806577610E+03  0.00000000000E+00 0. -1.
          1   -1    0    0  502    0 -0.00000000000E+00 -0.00000000000E+00 -0.97156670751E+02  0.97156670751E+02  0.00000000000E+00 0. -1.
        -24    2    1    2    0    0  0.67652798506E+02 -0.26138862456E+02 -0.31868966297E+02  0.11407310215E+03  0.82078622945E+02 0.  0.
         23    2    1    2    0    0 -0.52609914250E+02  0.76391052218E+02  0.23104390794E+03  0.26547660587E+03  0.92158260234E+02 0.  0.
         13    1    3    3    0    0  0.77146646817E+02 -0.52211965909E+01 -0.43077706787E+02  0.88513020686E+02  0.00000000000E+00 0. -1.
        -14    1    3    3    0    0 -0.94938483101E+01 -0.20917665865E+02  0.11208740490E+02  0.25560081462E+02  0.00000000000E+00 0.  1.
        -13    1    4    4    0    0 -0.59589165064E+02  0.51148453092E+02  0.79720147871E+02  0.11190323866E+03  0.00000000000E+00 0.  1.
         13    1    4    4    0    0  0.69792508137E+01  0.25242599127E+02  0.15132376007E+03  0.15357336720E+03  0.00000000000E+00 0. -1.
          2    1    1    2  501    0 -0.15042884256E+02 -0.50252189763E+02  0.91734163699E+02  0.10567273883E+03  0.00000000000E+00 0. -1.
<scales pt_clust_5="13000.00000" pt_clust_6="13000.00000" pt_clust_7="13000.00000" pt_clust_8="13000.00000" pt_clust_9="52.45542"></scales>
<clustering>
<clus scale="   52.455">  1  9  2 -1</clus>
<clus scale="   82.079">  5  6 -1 -1</clus>
<clus scale="   92.158">  7  8 -1 -1</clus>
<clus scale="  110.166">  2  5  1 -1</clus>
<clus scale="   52.455">  1  5  2 -1</clus>
</clustering>
</event>
<event>
 9    1  0.7835476E-005  0.1167157E+03  0.7546771E-02  0.1251919E+00
         21   -1    0    0  501  502  0.00000000000E+00  0.00000000000E+00  0.40383115992E+02  0.40383115992E+02  0.00000000000E+00 0.  1.
          1   -1    0    0  502    0 -0.00000000000E+00 -0.00000000000E+00 -0.48205953378E+03  0.48205953378E+03  0.00000000000E+00 0. -1.
        -24    2    1    2    0    0  0.42701952658E+02 -0.65887547428E+02 -0.23031997289E+03  0.25659475098E+03  0.81418368032E+02 0.  0.
         23    2    1    2    0    0 -0.14650556179E+02  0.62917122732E+02 -0.96703041980E+02  0.14777543346E+03  0.91175091325E+02 0.  0.
         11    1    3    3    0    0 -0.19604371322E+02 -0.27388105888E+02 -0.11628988636E+03  0.12106930820E+03  0.00000000000E+00 0. -1.
        -12    1    3    3    0    0  0.62306323980E+02 -0.38499441540E+02 -0.11403008653E+03  0.13552544278E+03  0.00000000000E+00 0.  1.
        -13    1    4    4    0    0 -0.51550198954E+02  0.41794093734E+02 -0.42180117719E+02  0.78634163148E+02  0.00000000000E+00 0.  1.
         13    1    4    4    0    0  0.36899642775E+02  0.21123028998E+02 -0.54522924261E+02  0.69141270316E+02  0.00000000000E+00 0. -1.
          2    1    1    2  501    0 -0.28051396479E+02  0.29704246957E+01 -0.11465340293E+03  0.11807246533E+03  0.00000000000E+00 0. -1.
<scales pt_clust_5="13000.00000" pt_clust_6="13000.00000" pt_clust_7="13000.00000" pt_clust_8="13000.00000" pt_clust_9="28.20824"></scales>
<clustering>
<clus scale="   28.208">  1  9  2 -1</clus>
<clus scale="   81.418">  5  6 -1 -1</clus>
<clus scale="   91.175">  7  8 -1 -1</clus>
<clus scale="  109.264">  2  5  1 -1</clus>
<clus scale="   28.208">  1  5  2 -1</clus>
</clustering>
</event>
<event>
 9    1  0.7835476E-005  0.2747080E+03  0.7546771E-02  0.1098615E+00
          1   -1    0    0  502    0 -0.00000000000E+00  0.00000000000E+00  0.90095408805E+03  0.90095408805E+03  0.00000000000E+00 0. -1.
         21   -1    0    0  501  502  0.00000000000E+00 -0.00000000000E+00 -0.62530160052E+02  0.62530160052E+02  0.00000000000E+00 0. -1.
        -24    2    1    2    0    0 -0.71433948025E+02 -0.14268333062E+03  0.47555319746E+03  0.50879022412E+03  0.85178088567E+02 0.  0.
         23    2    1    2    0    0 -0.39443624395E+01 -0.80848672796E+01  0.19922152562E+03  0.21975998759E+03  0.92327205097E+02 0.  0.
         11    1    3    3    0    0 -0.37425950225E+02 -0.12898834055E+03  0.42900756755E+03  0.44953997238E+03  0.00000000000E+00 0. -1.
        -12    1    3    3    0    0 -0.34007997800E+02 -0.13694990073E+02  0.46545629912E+02  0.59250251741E+02  0.00000000000E+00 0.  1.
        -13    1    4    4    0    0  0.16223473516E+02 -0.44649297842E+02  0.75703371477E+02  0.89374276745E+02  0.00000000000E+00 0.  1.
         13    1    4    4    0    0 -0.20167835956E+02  0.36564430562E+02  0.12351815414E+03  0.13038571084E+03  0.00000000000E+00 0. -1.
          2    1    1    2  501    0  0.75378310465E+02  0.15076819790E+03  0.16364920492E+03  0.23493403640E+03  0.00000000000E+00 0. -1.
<scales pt_clust_5="13000.00000" pt_clust_6="13000.00000" pt_clust_7="13000.00000" pt_clust_8="13000.00000" pt_clust_9="168.56138"></scales>
<clustering>
<clus scale="   85.178">  5  6 -1 -1</clus>
<clus scale="   92.327">  7  8 -1 -1</clus>
<clus scale="   92.748">  5  7 -1 -1</clus>
<clus scale="  168.561">  2  9  1 -1</clus>
<clus scale="  168.561">  2  5  1 -1</clus>
</clustering>
</event>
<event>
 9    1  0.7835476E-005  0.1014385E+03  0.7546771E-02  0.1279562E+00
         21   -1    0    0  501  502  0.00000000000E+00  0.00000000000E+00  0.29092472129E+03  0.29092472129E+03  0.00000000000E+00 0.  1.
         -4   -1    0    0    0  501 -0.00000000000E+00 -0.00000000000E+00 -0.10509750000E+03  0.10509750000E+03  0.00000000000E+00 0.  1.
         23    2    1    2    0    0  0.47235292238E+02  0.31472605406E+02 -0.55110090758E+02  0.11625228959E+03  0.85180837095E+02 0.  0.
        -24    2    1    2    0    0 -0.55910448556E+02  0.15180731876E+01  0.12324524035E+03  0.15723394942E+03  0.80030261638E+02 0.  0.
         13    1    4    4    0    0 -0.49077153976E+02  0.12015845644E+02  0.13240377322E+03  0.14171699528E+03  0.00000000000E+00 0. -1.
        -14    1    4    4    0    0 -0.68332945797E+01 -0.10497772457E+02 -0.91585328719E+01  0.15516954138E+02  0.00000000000E+00 0.  1.
        -13    1    3    3    0    0  0.25328961473E+02 -0.28457981560E+02 -0.15375042145E+02  0.41082903071E+02  0.00000000000E+00 0.  1.
         13    1    3    3    0    0  0.21906330765E+02  0.59930586966E+02 -0.39735048614E+02  0.75169386521E+02  0.00000000000E+00 0. -1.
         -3    1    1    2    0  502  0.86751563180E+01 -0.32990678593E+02  0.11769207171E+03  0.12253598228E+03  0.00000000000E+00 0.  1.
<scales pt_clust_5="13000.00000" pt_clust_6="13000.00000" pt_clust_7="13000.00000" pt_clust_8="13000.00000" pt_clust_9="34.11221"></scales>
<clustering>
<clus scale="   34.112">  1  9  2 -1</clus>
<clus scale="   80.030">  5  6 -1 -1</clus>
<clus scale="   85.181">  7  8 -1 -1</clus>
<clus scale="   97.154">  1  5  2 -1</clus>
<clus scale="   34.112">  1  5  2 -1</clus>
</clustering>
</event>
<event>
 9    1  0.7835476E-005  0.1218848E+03  0.7546771E-02  0.1243008E+00
         21   -1    0    0  501  502  0.00000000000E+00  0.00000000000E+00  0.96990302452E+02  0.96990302452E+02  0.00000000000E+00 0. -1.
          1   -1    0    0  502    0 -0.00000000000E+00 -0.00000000000E+00 -0.32294216553E+03  0.32294216553E+03  0.00000000000E+00 0. -1.
        -24    2    1    2    0    0  0.83923017745E+02 -0.15740144569E+02 -0.23730713468E+03  0.26473637807E+03  0.80497507080E+02 0.  0.
         23    2    1    2    0    0 -0.63207162566E+02  0.32229375308E+02 -0.17255488935E+02  0.11621382466E+03  0.90410304227E+02 0.  0.
         11    1    3    3    0    0  0.96168291180E+02 -0.22822031948E+02 -0.17635158594E+03  0.20216099336E+03  0.00000000000E+00 0. -1.
        -12    1    3    3    0    0 -0.12245273435E+02  0.70818873794E+01 -0.60955548736E+02  0.62575384713E+02  0.00000000000E+00 0.  1.
        -11    1    4    4    0    0  0.16667973734E+02 -0.13609518965E+02 -0.10304003111E+02  0.23858181720E+02  0.00000000000E+00 0.  1.
         11    1    4    4    0    0 -0.79875136300E+02  0.45838894272E+02 -0.69514858240E+01  0.92355642937E+02  0.00000000000E+00 0. -1.
          2    1    1    2  501    0 -0.20715855179E+02 -0.16489230739E+02  0.28610760534E+02  0.38982265257E+02  0.00000000000E+00 0. -1.
<scales pt_clust_5="13000.00000" pt_clust_6="13000.00000" pt_clust_7="13000.00000" pt_clust_8="13000.00000" pt_clust_9="26.47719"></scales>
<clustering>
<clus scale="   26.477">  1  9  2 -1</clus>
<clus scale="   80.498">  5  6 -1 -1</clus>
<clus scale="   90.410">  7  8 -1 -1</clus>
<clus scale="  114.725">  2  5  1 -1</clus>
<clus scale="   26.477">  1  5  2 -1</clus>
</clustering>
</event>
<event>
 9    1  0.7835476E-005  0.9481981E+02  0.7546771E-02  0.1297170E+00
         21   -1    0    0  501  502  0.00000000000E+00  0.00000000000E+00  0.22960897639E+03  0.22960897639E+03  0.00000000000E+00 0. -1.
         -2   -1    0    0    0  501 -0.00000000000E+00 -0.00000000000E+00 -0.27824945765E+03  0.27824945765E+03  0.00000000000E+00 0.  1.
        -24    2    1    2    0    0 -0.19288626037E+02  0.18858941938E+02 -0.25104915186E+03  0.26537144718E+03  0.81661603837E+02 0.  0.
         23    2    1    2    0    0 -0.70250821803E+01  0.12536202962E+02  0.14275750534E+03  0.17012451122E+03  0.91411901985E+02 0.  0.
         11    1    3    3    0    0  0.51113037192E+01  0.42598812387E+02 -0.78150365282E+02  0.89153036046E+02  0.00000000000E+00 0. -1.
        -12    1    3    3    0    0 -0.24399929756E+02 -0.23739870449E+02 -0.17289878658E+03  0.17621841113E+03  0.00000000000E+00 0.  1.
        -11    1    4    4    0    0 -0.16954387798E+02  0.50281119869E+02  0.73936244938E+02  0.91006651385E+02  0.00000000000E+00 0. -1.
         11    1    4    4    0    0  0.99293056178E+01 -0.37744916907E+02  0.68821260398E+02  0.79117859837E+02  0.00000000000E+00 0.  1.
         -1    1    1    2    0  502  0.26313708217E+02 -0.31395144900E+02  0.59651165263E+02  0.72362475639E+02  0.00000000000E+00 0.  1.
<scales pt_clust_5="13000.00000" pt_clust_6="13000.00000" pt_clust_7="13000.00000" pt_clust_8="13000.00000" pt_clust_9="40.96421"></scales>
<clustering>
<clus scale="   40.964">  1  9  2 -1</clus>
<clus scale="   81.662">  5  6 -1 -1</clus>
<clus scale="   85.459">  2  5  1 -1</clus>
<clus scale="   91.412">  7  8 -1 -1</clus>
<clus scale="   40.964">  1  5  2 -1</clus>
</clustering>
</event>
<event>
 9    1  0.7835476E-005  0.1536961E+03  0.7546771E-02  0.1214045E+00
         21   -1    0    0  501  502  0.00000000000E+00  0.00000000000E+00  0.24241925214E+03  0.24241925214E+03  0.00000000000E+00 0. -1.
          1   -1    0    0  502    0 -0.00000000000E+00 -0.00000000000E+00 -0.15172143418E+03  0.15172143418E+03  0.00000000000E+00 0. -1.
        -24    2    1    2    0    0  0.25330371844E+02  0.62015831753E+02  0.40658090439E+02  0.11186323875E+03  0.79829272443E+02 0.  0.
         23    2    1    2    0    0  0.91607059792E+02 -0.71212324029E+02  0.51160072861E+02  0.16497359614E+03  0.10552670691E+03 0.  0.
         11    1    3    3    0    0  0.37318722133E+02  0.70119440713E+02  0.50715002759E+02  0.94241362959E+02  0.00000000000E+00 0. -1.
        -12    1    3    3    0    0 -0.11988350289E+02 -0.81036089597E+01 -0.10056912320E+02  0.17621875787E+02  0.00000000000E+00 0.  1.
        -11    1    4    4    0    0 -0.22289598139E+02 -0.21129318202E+02  0.20192221881E+02  0.36755953224E+02  0.00000000000E+00 0.  1.
         11    1    4    4    0    0  0.11389665793E+03 -0.50083005827E+02  0.30967850980E+02  0.12821764292E+03  0.00000000000E+00 0. -1.
          2    1    1    2  501    0 -0.11693743164E+03  0.91964922756E+01 -0.11203453337E+01  0.11730385143E+03  0.00000000000E+00 0. -1.
<scales pt_clust_5="13000.00000" pt_clust_6="13000.00000" pt_clust_7="13000.00000" pt_clust_8="13000.00000" pt_clust_9="111.74352"></scales>
<clustering>
<clus scale="   79.829">  5  6 -1 -1</clus>
<clus scale="  104.213">  2  5  1 -1</clus>
<clus scale="  105.527">  7  8 -1 -1</clus>
<clus scale="  111.744">  1  9  2 -1</clus>
<clus scale="  111.744">  1  5  2 -1</clus>
</clustering>
</event>
<event>
 9    1  0.7835476E-005  0.1125976E+03  0.7546771E-02  0.1261353E+00
         21   -1    0    0  501  502  0.00000000000E+00  0.00000000000E+00  0.54859198284E+03  0.54859198284E+03  0.00000000000E+00 0.  1.
         -2   -1    0    0    0  501 -0.00000000000E+00 -0.00000000000E+00 -0.79395327234E+02  0.79395327234E+02  0.00000000000E+00 0.  1.
        -24    2    1    2    0    0 -0.35253430189E+02 -0.52711920826E+02  0.31668559090E+02  0.10623814280E+03  0.79134660002E+02 0.  0.
         23    2    1    2    0    0 -0.33949524248E+02  0.85598577799E+02  0.42413068719E+03  0.44396696053E+03  0.93488691866E+02 0.  0.
         13    1    3    3    0    0 -0.35671292535E+02  0.11277123247E+02  0.12263813084E+02  0.39370239156E+02  0.00000000000E+00 0. -1.
        -14    1    3    3    0    0  0.41786234580E+00 -0.63989044072E+02  0.19404746006E+02  0.66867903644E+02  0.00000000000E+00 0.  1.
        -13    1    4    4    0    0  0.30378913862E+02  0.33923172535E+02  0.10719900719E+03  0.11647011284E+03  0.00000000000E+00 0. -1.
         13    1    4    4    0    0 -0.64328438110E+02  0.51675405264E+02  0.31693168000E+03  0.32749684769E+03  0.00000000000E+00 0.  1.
         -1    1    1    2    0  502  0.69202954437E+02 -0.32886656973E+02  0.13397409327E+02  0.77782206746E+02  0.00000000000E+00 0.  1.
<scales pt_clust_5="13000.00000" pt_clust_6="13000.00000" pt_clust_7="13000.00000" pt_clust_8="13000.00000" pt_clust_9="76.61976"></scales>
<clustering>
<clus scale="   76.620">  1  9  2 -1</clus>
<clus scale="   79.135">  5  6 -1 -1</clus>
<clus scale="   93.489">  7  8 -1 -1</clus>
<clus scale="  100.997">  2  5  1 -1</clus>
<clus scale="   76.620">  1  5  2 -1</clus>
</clustering>
</event>
<event>
 9    1  0.7835476E-005  0.1051373E+03  0.7546771E-02  0.1275057E+00
         21   -1    0    0  501  502  0.00000000000E+00  0.00000000000E+00  0.51328149323E+03  0.51328149323E+03  0.00000000000E+00 0.  1.
          1   -1    0    0  502    0 -0.00000000000E+00 -0.00000000000E+00 -0.35164198139E+02  0.35164198139E+02  0.00000000000E+00 0. -1.
         23    2    1    2    0    0 -0.18504727742E+01 -0.71277186392E+02  0.14025047368E+03  0.18187432119E+03  0.91237118496E+02 0.  0.
        -24    2    1    2    0    0 -0.15437399958E+02  0.21019417314E+02  0.25270633199E+03  0.26618699463E+03  0.79466324059E+02 0.  0.
         13    1    4    4    0    0 -0.44140985810E+02  0.21297341719E+02  0.10714225253E+03  0.11781963194E+03  0.00000000000E+00 0. -1.
        -14    1    4    4    0    0  0.28703585852E+02 -0.27792440506E+00  0.14556407946E+03  0.14836736269E+03  0.00000000000E+00 0.  1.
        -11    1    3    3    0    0 -0.37888918408E+02 -0.10571283606E+02  0.24649391924E+02  0.46421058771E+02  0.00000000000E+00 0. -1.
         11    1    3    3    0    0  0.36038445634E+02 -0.60705902786E+02  0.11560108176E+03  0.13545326242E+03  0.00000000000E+00 0.  1.
          2    1    1    2  501    0  0.17287872733E+02  0.50257769078E+02  0.85160489418E+02  0.10038437555E+03  0.00000000000E+00 0. -1.
<scales pt_clust_5="13000.00000" pt_clust_6="13000.00000" pt_clust_7="13000.00000" pt_clust_8="13000.00000" pt_clust_9="53.14806"></scales>
<clustering>
<clus scale="   53.148">  1  9  2 -1</clus>
<clus scale="   79.466">  5  6 -1 -1</clus>
<clus scale="   91.237">  7  8 -1 -1</clus>
<clus scale="   95.103">  1  5  2 -1</clus>
<clus scale="   53.148">  1  5  2 -1</clus>
</clustering>
</event>
<event>
 9    1  0.7835476E-005  0.2375212E+03  0.7546771E-02  0.1145276E+00
         21   -1    0    0  501  502  0.00000000000E+00  0.00000000000E+00  0.64303826420E+02  0.64303826420E+02  0.00000000000E+00 0. -1.
          1   -1    0    0  502    0 -0.00000000000E+00 -0.00000000000E+00 -0.15376528865E+04  0.15376528865E+04  0.00000000000E+00 0. -1.
        -24    2    1    2    0    0  0.10110629537E+03 -0.28228518356E+02 -0.16293888596E+03  0.21019184303E+03  0.81315423543E+02 0.  0.
         23    2    1    2    0    0  0.12686480080E+03 -0.11332707760E+03 -0.67416804830E+03  0.70124850506E+03  0.91154836920E+02 0.  0.
         13    1    3    3    0    0  0.66486055932E+02 -0.34920650536E+01 -0.15247193926E+03  0.16637392347E+03  0.00000000000E+00 0. -1.
        -14    1    3    3    0    0  0.34620239438E+02 -0.24736453303E+02 -0.10466946703E+02  0.43817919554E+02  0.00000000000E+00 0.  1.
        -11    1    4    4    0    0  0.10485478141E+03 -0.12778445664E+03 -0.60695143908E+03  0.62905758238E+03  0.00000000000E+00 0. -1.
         11    1    4    4    0    0  0.22010019394E+02  0.14457379037E+02 -0.67216609217E+02  0.72190922677E+02  0.00000000000E+00 0.  1.
          2    1    1    2  501    0 -0.22797109617E+03  0.14155559596E+03 -0.63624212580E+03  0.69051636482E+03  0.00000000000E+00 0. -1.
<scales pt_clust_5="13000.00000" pt_clust_6="13000.00000" pt_clust_7="13000.00000" pt_clust_8="13000.00000" pt_clust_9="219.33343"></scales>
<clustering>
<clus scale="   81.315">  5  6 -1 -1</clus>
<clus scale="   91.155">  7  8 -1 -1</clus>
<clus scale="  132.784">  2  5  1 -1</clus>
<clus scale="  219.333">  1  9  2 -1</clus>
<clus scale="  219.333">  1  5  2 -1</clus>
</clustering>
</event>
<event>
 9    1  0.7835476E-005  0.1985876E+03  0.7546771E-02  0.1181335E+00
          1   -1    0    0  502    0 -0.00000000000E+00  0.00000000000E+00  0.70457263568E+03  0.70457263568E+03  0.00000000000E+00 0. -1.
         21   -1    0    0  501  502  0.00000000000E+00 -0.00000000000E+00 -0.21750792446E+03  0.21750792446E+03  0.00000000000E+00 0.  1.
         23    2    1    2    0    0  0.25960255257E+02  0.35766266255E+02 -0.94523369591E+02  0.13658869552E+03  0.88139909754E+02 0.  0.
        -24    2    1    2    0    0  0.17406414473E+03  0.26837407293E+02  0.30889322260E+02  0.19625667965E+03  0.80894753635E+02 0.  0.
         11    1    4    4    0    0  0.80173261801E+02  0.52832324958E+02  0.21409020730E+02  0.98373536264E+02  0.00000000000E+00 0. -1.
        -12    1    4    4    0    0  0.93890882927E+02 -0.25994917666E+02  0.94803015299E+01  0.97883143382E+02  0.00000000000E+00 0.  1.
        -13    1    3    3    0    0  0.26120049821E+02  0.64594118844E+02 -0.64086243247E+02  0.94666275756E+02  0.00000000000E+00 0.  1.
         13    1    3    3    0    0 -0.15979456471E+00 -0.28827852589E+02 -0.30437126344E+02  0.41922419769E+02  0.00000000000E+00 0. -1.
          2    1    1    2  501    0 -0.20002439999E+03 -0.62603673547E+02  0.55069875855E+03  0.58923518496E+03  0.00000000000E+00 0. -1.
<scales pt_clust_5="13000.00000" pt_clust_6="13000.00000" pt_clust_7="13000.00000" pt_clust_8="13000.00000" pt_clust_9="181.36460"></scales>
<clustering>
<clus scale="   80.895">  5  6 -1 -1</clus>
<clus scale="   88.140">  7  8 -1 -1</clus>
<clus scale="   98.599">  1  7  2 -1</clus>
<clus scale="  181.365">  2  9  1 -1</clus>
<clus scale="  181.365">  2  5  1 -1</clus>
</clustering>
</event>
<event>
 9    1  0.7835476E-005  0.9918031E+02  0.7546771E-02  0.1287407E+00
          1   -1    0    0  502    0 -0.00000000000E+00  0.00000000000E+00  0.32566427674E+03  0.32566427674E+03  0.00000000000E+00 0. -1.
         21   -1    0    0  501  502  0.00000000000E+00 -0.00000000000E+00 -0.56192013457E+02  0.56192013457E+02  0.00000000000E+00 0.  1.
        -24    2    1    2    0    0 -0.31038582453E+02  0.23717272335E+02  0.24358644372E+03  0.26005611537E+03  0.82273476697E+02 0.  0.
         23    2    1    2    0    0  0.74230890089E+01 -0.20399680187E+02  0.19324091260E+02  0.97066508971E+02  0.92613376240E+02 0.  0.
         11    1    3    3    0    0 -0.25292180042E+02 -0.28572161571E+02  0.91901874142E+02  0.99508880301E+02  0.00000000000E+00 0. -1.
        -12    1    3    3    0    0 -0.57464024113E+01  0.52289433907E+02  0.15168456958E+03  0.16054723507E+03  0.00000000000E+00 0.  1.
        -13    1    4    4    0    0 -0.11828555343E+02  0.33673868305E+02  0.17224137094E+02  0.39629724031E+02  0.00000000000E+00 0. -1.
         13    1    4    4    0    0  0.19251644352E+02 -0.54073548492E+02  0.20999541660E+01  0.57436784940E+02  0.00000000000E+00 0.  1.
          2    1    1    2  501    0  0.23615493444E+02 -0.33175921483E+01  0.65617282945E+01  0.24733665852E+02  0.00000000000E+00 0. -1.
<scales pt_clust_5="13000.00000" pt_clust_6="13000.00000" pt_clust_7="13000.00000" pt_clust_8="13000.00000" pt_clust_9="23.84739"></scales>
<clustering>
<clus scale="   23.847">  2  9  1 -1</clus>
<clus scale="   82.273">  5  6 -1 -1</clus>
<clus scale="   89.601">  1  5  2 -1</clus>
<clus scale="   92.613">  7  8 -1 -1</clus>
<clus scale="   23.847">  2  5  1 -1</clus>
</clustering>
</event>
<event>
 9    1  0.7835476E-005  0.2801393E+03  0.7546771E-02  0.1128503E+00
         21   -1    0    0  501  502  0.00000000000E+00  0.00000000000E+00  0.22014152967E+03  0.22014152967E+03  0.00000000000E+00 0.  1.
         -2   -1    0    0    0  501 -0.00000000000E+00 -0.00000000000E+00 -0.51784464741E+03  0.51784464741E+03  0.00000000000E+00 0.  1.
         23    2    1    2    0    0  0.68958261753E+02  0.22272733692E+02 -0.53124823378E+02  0.13267031011E+03  0.97610695095E+02 0.  0.
        -24    2    1    2    0    0 -0.26697459522E+03  0.12550992245E+03 -0.11576148596E+03  0.32666922353E+03  0.79270958352E+02 0.  0.
         13    1    4    4    0    0 -0.14449743396E+03  0.36179375553E+02 -0.28197216860E+02  0.15160322779E+03  0.00000000000E+00 0. -1.
        -14    1    4    4    0    0 -0.12247716126E+03  0.89330546900E+02 -0.87564269105E+02  0.17506599574E+03  0.00000000000E+00 0.  1.
        -11    1    3    3    0    0  0.79403718028E+02  0.39529439386E+02 -0.64352311170E+02  0.10958442849E+03  0.00000000000E+00 0. -1.
         11    1    3    3    0    0 -0.10445456275E+02 -0.17256705694E+02  0.11227487792E+02  0.23085881623E+02  0.00000000000E+00 0.  1.
         -1    1    1    2    0  502  0.19801633347E+03 -0.14778265614E+03 -0.12881680839E+03  0.27864664344E+03  0.00000000000E+00 0.  1.
<scales pt_clust_5="13000.00000" pt_clust_6="13000.00000" pt_clust_7="13000.00000" pt_clust_8="13000.00000" pt_clust_9="268.68972"></scales>
<clustering>
<clus scale="   79.271">  5  6 -1 -1</clus>
<clus scale="   97.611">  7  8 -1 -1</clus>
<clus scale="  121.570">  2  7  1 -1</clus>
<clus scale="  268.690">  1  9  2 -1</clus>
<clus scale="  268.690">  1  5  2 -1</clus>
</clustering>
</event>
<event>
 9    1  0.7835476E-005  0.9472812E+02  0.7546771E-02  0.1298706E+00
         21   -1    0    0  501  502  0.00000000000E+00  0.00000000000E+00  0.90003156503E+02  0.90003156503E+02  0.00000000000E+00 0.  1.
          1   -1    0    0  502    0 -0.00000000000E+00 -0.00000000000E+00 -0.16476714709E+03  0.16476714709E+03  0.00000000000E+00 0. -1.
         23    2    1    2    0    0  0.26017967469E+01  0.27059483957E+02 -0.10384141075E+03  0.14167798933E+03  0.92469611533E+02 0.  0.
        -24    2    1    2    0    0  0.31397300965E+01 -0.59048562835E+00  0.29483519875E+02  0.86004717094E+02  0.80729962466E+02 0.  0.
         11    1    4    4    0    0 -0.36178757529E+02  0.47682601935E+01  0.28514217324E+02  0.46310899270E+02  0.00000000000E+00 0. -1.
        -12    1    4    4    0    0  0.39318487626E+02 -0.53587458219E+01  0.96930255037E+00  0.39693817823E+02  0.00000000000E+00 0.  1.
        -13    1    3    3    0    0  0.36995779118E+02  0.29046504928E+02 -0.20145030908E+02  0.51168441362E+02  0.00000000000E+00 0.  1.
         13    1    3    3    0    0 -0.34393982371E+02 -0.19870209712E+01 -0.83696379840E+02  0.90509547971E+02  0.00000000000E+00 0. -1.
          2    1    1    2  501    0 -0.57415268434E+01 -0.26468998329E+02 -0.40609970996E+00  0.27087597162E+02  0.00000000000E+00 0. -1.
<scales pt_clust_5="13000.00000" pt_clust_6="13000.00000" pt_clust_7="13000.00000" pt_clust_8="13000.00000" pt_clust_9="27.08455"></scales>
<clustering>
<clus scale="   27.085">  1  9  2 -1</clus>
<clus scale="   80.730">  5  6 -1 -1</clus>
<clus scale="   83.307">  1  5  2 -1</clus>
<clus scale="   92.470">  7  8 -1 -1</clus>
<clus scale="   27.085">  1  5  2 -1</clus>
</clustering>
</event>
<event>
 9    1  0.7835476E-005  0.1148285E+03  0.7546771E-02  0.1252286E+00
          1   -1    0    0  502    0 -0.00000000000E+00  0.00000000000E+00  0.12494689448E+04  0.12494689448E+04  0.00000000000E+00 0. -1.
         21   -1    0    0  501  502  0.00000000000E+00 -0.00000000000E+00 -0.29822459076E+02  0.29822459076E+02  0.00000000000E+00 0. -1.
        -24    2    1    2    0    0  0.54352090799E+02  0.11508384326E+01  0.60437842905E+03  0.61383006933E+03  0.92512671065E+02 0.  0.
         23    2    1    2    0    0 -0.10460872547E+03 -0.73975099247E+02  0.31951068188E+03  0.35675188047E+03  0.93645756082E+02 0.  0.
         11    1    3    3    0    0  0.31356526362E+02  0.33931557183E+02  0.13382138858E+03  0.14157240678E+03  0.00000000000E+00 0. -1.
        -12    1    3    3    0    0  0.22995564438E+02 -0.32780718751E+02  0.47055704047E+03  0.47225766255E+03  0.00000000000E+00 0.  1.
        -13    1    4    4    0    0 -0.33232075752E+02 -0.70862375447E+02  0.22534892788E+03  0.23855394863E+03  0.00000000000E+00 0.  1.
         13    1    4    4    0    0 -0.71376649716E+02 -0.31127238003E+01  0.94161753998E+02  0.11819793184E+03  0.00000000000E+00 0. -1.
          2    1    1    2  501    0  0.50256634669E+02  0.72824260814E+02  0.29575737483E+03  0.30870945411E+03  0.00000000000E+00 0. -1.
<scales pt_clust_5="13000.00000" pt_clust_6="13000.00000" pt_clust_7="13000.00000" pt_clust_8="13000.00000" pt_clust_9="88.48226"></scales>
<clustering>
<clus scale="   88.482">  2  9  1 -1</clus>
<clus scale="   92.513">  5  6 -1 -1</clus>
<clus scale="   93.646">  7  8 -1 -1</clus>
<clus scale="  113.906">  1  5  2 -1</clus>
<clus scale="   88.482">  2  5  1 -1</clus>
</clustering>
</event>
<event>
 9    1  0.7835476E-005  0.2563517E+03  0.7546771E-02  0.1109355E+00
          1   -1    0    0  502    0 -0.00000000000E+00  0.00000000000E+00  0.17179532830E+03  0.17179532830E+03  0.00000000000E+00 0. -1.
         21   -1    0    0  501  502  0.00000000000E+00 -0.00000000000E+00 -0.29277216371E+03  0.29277216371E+03  0.00000000000E+00 0. -1.
        -24    2    1    2    0    0  0.38511698287E+02  0.81221162775E+02 -0.47151800621E+02  0.12735727018E+03  0.76919137926E+02 0.  0.
         23    2    1    2    0    0  0.76534260918E+02  0.69206303605E+02 -0.47979729262E+02  0.14607682551E+03  0.91593553154E+02 0.  0.
         13    1    3    3    0    0  0.25042019865E+02  0.10503283267E+02  0.16064572788E+02  0.31551421793E+02  0.00000000000E+00 0. -1.
        -14    1    3    3    0    0  0.13469678423E+02  0.70717879509E+02 -0.63216373408E+02  0.95805848391E+02  0.00000000000E+00 0.  1.
        -13    1    4    4    0    0  0.58671197175E+02  0.15977385101E+02 -0.63404241704E+02  0.87850350475E+02  0.00000000000E+00 0. -1.
         13    1    4    4    0    0  0.17863063742E+02  0.53228918504E+02  0.15424512442E+02  0.58226475039E+02  0.00000000000E+00 0.  1.
          2    1    1    2  501    0 -0.11504595920E+03 -0.15042746638E+03 -0.25845305527E+02  0.19113339632E+03  0.00000000000E+00 0. -1.
<scales pt_clust_5="13000.00000" pt_clust_6="13000.00000" pt_clust_7="13000.00000" pt_clust_8="13000.00000" pt_clust_9="189.37801"></scales>
<clustering>
<clus scale="   76.919">  5  6 -1 -1</clus>
<clus scale="   91.594">  7  8 -1 -1</clus>
<clus scale="   98.237">  5  7 -1 -1</clus>
<clus scale="  189.378">  2  9  1 -1</clus>
<clus scale="  189.378">  2  5  1 -1</clus>
</clustering>
</event>
<event>
 9    1  0.7835476E-005  0.1923136E+03  0.7546771E-02  0.1190494E+00
          1   -1    0    0  502    0 -0.00000000000E+00  0.00000000000E+00  0.41747585179E+03  0.41747585179E+03  0.00000000000E+00 0. -1.
         21   -1    0    0  501  502  0.00000000000E+00 -0.00000000000E+00 -0.22862040225E+03  0.22862040225E+03  0.00000000000E+00 0. -1.
         23    2    1    2    0    0 -0.88974824038E+01 -0.13883503433E+02  0.20425686331E+03  0.22262532552E+03  0.87001451106E+02 0.  0.
        -24    2    1    2    0    0 -0.14664936973E+03  0.93955520063E+02  0.97511840739E+02  0.21525048260E+03  0.80563849087E+02 0.  0.
         13    1    4    4    0    0 -0.28549635888E+02  0.63892391946E+02  0.37928429296E+02  0.79598273893E+02  0.00000000000E+00 0. -1.
        -14    1    4    4    0    0 -0.11809973385E+03  0.30063128117E+02  0.59583411443E+02  0.13565220870E+03  0.00000000000E+00 0.  1.
        -13    1    3    3    0    0 -0.11294377109E+02 -0.46181384581E+02  0.70704703803E+02  0.85202337855E+02  0.00000000000E+00 0. -1.
         13    1    3    3    0    0  0.23968947053E+01  0.32297881148E+02  0.13355215950E+03  0.13742298767E+03  0.00000000000E+00 0.  1.
          2    1    1    2  501    0  0.15554685214E+03 -0.80072016631E+02 -0.11291325451E+03  0.20822044593E+03  0.00000000000E+00 0. -1.
<scales pt_clust_5="13000.00000" pt_clust_6="13000.00000" pt_clust_7="13000.00000" pt_clust_8="13000.00000" pt_clust_9="174.62529"></scales>
<clustering>
<clus scale="   80.564">  5  6 -1 -1</clus>
<clus scale="   87.001">  7  8 -1 -1</clus>
<clus scale="   88.550">  1  7  2 -1</clus>
<clus scale="  174.625">  2  9  1 -1</clus>
<clus scale="  174.625">  2  5  1 -1</clus>
</clustering>
</event>
<event>
 9    1  0.7835476E-005  0.1099817E+03  0.7546771E-02  0.1263327E+00
          1   -1    0    0  502    0 -0.00000000000E+00  0.00000000000E+00  0.45173647852E+03  0.45173647852E+03  0.00000000000E+00 0. -1.
         21   -1    0    0  501  502  0.00000000000E+00 -0.00000000000E+00 -0.77751694687E+02  0.77751694687E+02  0.00000000000E+00 0. -1.
        -24    2    1    2    0    0  0.62126760650E+01  0.73679627700E+02  0.19101267340E+03  0.22143062632E+03  0.84133203859E+02 0.  0.
         23    2    1    2    0    0 -0.35295009485E+02 -0.10673487832E+02 -0.13936415658E+02  0.99278899928E+02  0.91117590247E+02 0.  0.
         11    1    3    3    0    0 -0.23272709630E+02  0.73265922614E+02  0.16532240087E+03  0.18232117447E+03  0.00000000000E+00 0. -1.
        -12    1    3    3    0    0  0.29485385695E+02  0.41370508595E+00  0.25690272526E+02  0.39109451849E+02  0.00000000000E+00 0.  1.
        -11    1    4    4    0    0  0.68544381371E+01  0.32118001660E+02 -0.20722703519E+02  0.38832715510E+02  0.00000000000E+00 0. -1.
         11    1    4    4    0    0 -0.42149447622E+02 -0.42791489492E+02  0.67862878603E+01  0.60446184418E+02  0.00000000000E+00 0.  1.
          2    1    1    2  501    0  0.29082333420E+02 -0.63006139868E+02  0.19690852609E+03  0.20877864695E+03  0.00000000000E+00 0. -1.
<scales pt_clust_5="13000.00000" pt_clust_6="13000.00000" pt_clust_7="13000.00000" pt_clust_8="13000.00000" pt_clust_9="69.39424"></scales>
<clustering>
<clus scale="   69.394">  2  9  1 -1</clus>
<clus scale="   84.133">  5  6 -1 -1</clus>
<clus scale="   91.118">  7  8 -1 -1</clus>
<clus scale="  104.269">  1  5  2 -1</clus>
<clus scale="   69.394">  2  5  1 -1</clus>
</clustering>
</event>
<event>
 9    1  0.7835476E-005  0.2193354E+03  0.7546771E-02  0.1134824E+00
          1   -1    0    0  502    0 -0.00000000000E+00  0.00000000000E+00  0.14077341438E+04  0.14077341438E+04  0.00000000000E+00 0. -1.
         21   -1    0    0  501  502  0.00000000000E+00 -0.00000000000E+00 -0.48115755402E+02  0.48115755402E+02  0.00000000000E+00 0.  1.
         23    2    1    2    0    0 -0.19591330298E+03 -0.86011345845E+01  0.86938195703E+03  0.89575486345E+03  0.89976587986E+02 0.  0.
        -24    2    1    2    0    0  0.20779362993E+03 -0.15271110047E+02  0.48263723752E+03  0.53236826204E+03  0.84058693430E+02 0.  0.
         13    1    4    4    0    0  0.13608222807E+03 -0.34464130734E+02  0.38444257575E+03  0.40927037904E+03  0.00000000000E+00 0. -1.
        -14    1    4    4    0    0  0.71711401861E+02  0.19193020687E+02  0.98194661765E+02  0.12309788300E+03  0.00000000000E+00 0.  1.
        -13    1    3    3    0    0 -0.12243468023E+03 -0.42831196458E+02  0.62372072911E+03  0.63706538929E+03  0.00000000000E+00 0.  1.
         13    1    3    3    0    0 -0.73478622750E+02  0.34230061874E+02  0.24566122793E+03  0.25868947417E+03  0.00000000000E+00 0. -1.
          2    1    1    2  501    0 -0.11880326954E+02  0.23872244631E+02  0.75991938183E+01  0.27726773684E+02  0.00000000000E+00 0. -1.
<scales pt_clust_5="13000.00000" pt_clust_6="13000.00000" pt_clust_7="13000.00000" pt_clust_8="13000.00000" pt_clust_9="26.66508"></scales>
<clustering>
<clus scale="   26.665">  2  9  1 -1</clus>
<clus scale="   84.059">  5  6 -1 -1</clus>
<clus scale="   89.977">  7  8 -1 -1</clus>
<clus scale="  216.975">  2  5  1 -1</clus>
<clus scale="   26.665">  2  5  1 -1</clus>
</clustering>
</event>
<event>
 9    1  0.7835476E-005  0.2232710E+03  0.7546771E-02  0.1158729E+00
         21   -1    0    0  501  502  0.00000000000E+00  0.00000000000E+00  0.14097382909E+03  0.14097382909E+03  0.00000000000E+00 0. -1.
          1   -1    0    0  502    0 -0.00000000000E+00 -0.00000000000E+00 -0.82393587103E+03  0.82393587103E+03  0.00000000000E+00 0. -1.
         23    2    1    2    0    0  0.50182153525E+02 -0.57876540529E+02 -0.12120087394E+03  0.16801689815E+03  0.87590431803E+02 0.  0.
        -24    2    1    2    0    0  0.15655990712E+03 -0.22036379370E+02 -0.54736203606E+03  0.57477641490E+03  0.75934985837E+02 0.  0.
         13    1    4    4    0    0  0.12992465428E+03 -0.12723336227E+02 -0.31901165333E+03  0.34468932974E+03  0.00000000000E+00 0. -1.
        -14    1    4    4    0    0  0.26635252840E+02 -0.93130431434E+01 -0.22835038273E+03  0.23008708516E+03  0.00000000000E+00 0.  1.
        -13    1    3    3    0    0  0.47040544035E+02 -0.58971854834E+01 -0.14981633929E+02  0.49719603125E+02  0.00000000000E+00 0.  1.
         13    1    3    3    0    0  0.31416094896E+01 -0.51979355046E+02 -0.10621924001E+03  0.11829729502E+03  0.00000000000E+00 0. -1.
          2    1    1    2  501    0 -0.20674206064E+03  0.79912919899E+02 -0.14399131942E+02  0.22211638707E+03  0.00000000000E+00 0. -1.
<scales pt_clust_5="13000.00000" pt_clust_6="13000.00000" pt_clust_7="13000.00000" pt_clust_8="13000.00000" pt_clust_9="209.96144"></scales>
<clustering>
<clus scale="   75.935">  5  6 -1 -1</clus>
<clus scale="   87.590">  7  8 -1 -1</clus>
<clus scale="  116.362">  2  7  1 -1</clus>
<clus scale="  209.961">  1  9  2 -1</clus>
<clus scale="  209.961">  1  5  2 -1</clus>
</clustering>
</event>
<event>
 9    1  0.7835476E-005  0.1716037E+03  0.7546771E-02  0.1202567E+00
         21   -1    0    0  501  502  0.00000000000E+00  0.00000000000E+00  0.14563735541E+03  0.14563735541E+03  0.00000000000E+00 0. -1.
          1   -1    0    0  502    0 -0.00000000000E+00 -0.00000000000E+00 -0.33088104159E+03  0.33088104159E+03  0.00000000000E+00 0. -1.
         23    2    1    2    0    0  0.30316183805E+02 -0.28978386264E+02 -0.10108038901E+03  0.13922239638E+03  0.86062841807E+02 0.  0.
        -24    2    1    2    0    0 -0.17228332247E+02 -0.13723749791E+03 -0.45722897153E+02  0.16619171557E+03  0.79988478764E+02 0.  0.
         11    1    4    4    0    0  0.32198217016E+02 -0.51738137639E+02 -0.20029721090E+02  0.64146315501E+02  0.00000000000E+00 0. -1.
        -12    1    4    4    0    0 -0.49426549263E+02 -0.85499360272E+02 -0.25693176063E+02  0.10204540007E+03  0.00000000000E+00 0.  1.
        -11    1    3    3    0    0 -0.60605955335E+01  0.27366909785E+02 -0.22734001299E+02  0.36090350296E+02  0.00000000000E+00 0.  1.
         11    1    3    3    0    0  0.36376779338E+02 -0.56345296048E+02 -0.78346387710E+02  0.10313204608E+03  0.00000000000E+00 0. -1.
          2    1    1    2  501    0 -0.13087851558E+02  0.16621588418E+03 -0.38440400023E+02  0.17110428506E+03  0.00000000000E+00 0. -1.
<scales pt_clust_5="13000.00000" pt_clust_6="13000.00000" pt_clust_7="13000.00000" pt_clust_8="13000.00000" pt_clust_9="151.82122"></scales>
<clustering>
<clus scale="   79.988">  5  6 -1 -1</clus>
<clus scale="   86.063">  7  8 -1 -1</clus>
<clus scale="   95.737">  2  7  1 -1</clus>
<clus scale="  151.821">  1  9  2 -1</clus>
<clus scale="  151.821">  1  5  2 -1</clus>
</clustering>
</event>
<event>
 9    1  0.7835476E-005  0.1293236E+03  0.7546771E-02  0.1231054E+00
         21   -1    0    0  501  502  0.00000000000E+00  0.00000000000E+00  0.13725773684E+03  0.13725773684E+03  0.00000000000E+00 0. -1.
         -2   -1    0    0    0  501 -0.00000000000E+00 -0.00000000000E+00 -0.24707059752E+03  0.24707059752E+03  0.00000000000E+00 0.  1.
        -24    2    1    2    0    0 -0.82311534084E+02 -0.49932300377E+02 -0.16749459909E+03  0.21037020068E+03  0.83263181209E+02 0.  0.
         23    2    1    2    0    0  0.48153991268E+02  0.54807048531E+02  0.14998469524E+02  0.11907314172E+03  0.92902311847E+02 0.  0.
         11    1    3    3    0    0 -0.74704363349E+02 -0.10091308384E+02 -0.62872356022E+02  0.98160631416E+02  0.00000000000E+00 0. -1.
        -12    1    3    3    0    0 -0.76071707352E+01 -0.39840991993E+02 -0.10462224307E+03  0.11220956926E+03  0.00000000000E+00 0.  1.
        -11    1    4    4    0    0  0.43356523340E+02  0.79389328319E+02  0.11727988128E+01  0.90464518039E+02  0.00000000000E+00 0. -1.
         11    1    4    4    0    0  0.47974679286E+01 -0.24582279788E+02  0.13825670711E+02  0.28608623677E+02  0.00000000000E+00 0.  1.
         -1    1    1    2    0  502  0.34157542816E+02 -0.48747481539E+01  0.42683268886E+02  0.54884991970E+02  0.00000000000E+00 0.  1.
<scales pt_clust_5="13000.00000" pt_clust_6="13000.00000" pt_clust_7="13000.00000" pt_clust_8="13000.00000" pt_clust_9="34.50364"></scales>
<clustering>
<clus scale="   34.504">  1  9  2 -1</clus>
<clus scale="   83.263">  5  6 -1 -1</clus>
<clus scale="   92.902">  7  8 -1 -1</clus>
<clus scale="  122.583">  2  5  1 -1</clus>
<clus scale="   34.504">  1  5  2 -1</clus>
</clustering>
</event>
<event>
 9    1  0.7835476E-005  0.9619283E+02  0.7546771E-02  0.1294863E+00
         21   -1    0    0  501  502  0.00000000000E+00  0.00000000000E+00  0.36721025743E+02  0.36721025743E+02  0.00000000000E+00 0. -1.
          1   -1    0    0  502    0 -0.00000000000E+00 -0.00000000000E+00 -0.48175287466E+03  0.48175287466E+03  0.00000000000E+00 0. -1.
         23    2    1    2    0    0  0.15089225690E+02 -0.24146080897E+02 -0.30574434569E+03  0.31947604163E+03  0.88173795985E+02 0.  0.
        -24    2    1    2    0    0 -0.43019439661E+02  0.48487012930E+02 -0.12283031355E+03  0.15845877989E+03  0.76290473762E+02 0.  0.
         11    1    4    4    0    0 -0.18508522498E+02  0.29009077692E+02 -0.12240323711E+03  0.12714812012E+03  0.00000000000E+00 0. -1.
        -12    1    4    4    0    0 -0.24510917163E+02  0.19477935238E+02 -0.42707643706E+00  0.31310659776E+02  0.00000000000E+00 0.  1.
        -11    1    3    3    0    0  0.51286631016E+02 -0.79900072932E+01 -0.19732875226E+03  0.20404116057E+03  0.00000000000E+00 0. -1.
         11    1    3    3    0    0 -0.36197405326E+02 -0.16156073604E+02 -0.10841559343E+03  0.11543488106E+03  0.00000000000E+00 0.  1.
          2    1    1    2  501    0  0.27930213971E+02 -0.24340932033E+02 -0.16457189682E+02  0.40539078886E+02  0.00000000000E+00 0. -1.
<scales pt_clust_5="13000.00000" pt_clust_6="13000.00000" pt_clust_7="13000.00000" pt_clust_8="13000.00000" pt_clust_9="37.04832"></scales>
<clustering>
<clus scale="   37.048">  1  9  2 -1</clus>
<clus scale="   76.290">  5  6 -1 -1</clus>
<clus scale="   85.432">  1  5  2 -1</clus>
<clus scale="   88.174">  7  8 -1 -1</clus>
<clus scale="   37.048">  1  5  2 -1</clus>
</clustering>
</event>
<event>
 9    1  0.7835476E-005  0.9219321E+02  0.7546771E-02  0.1302911E+00
         21   -1    0    0  501  502  0.00000000000E+00  0.00000000000E+00  0.16533073877E+03  0.16533073877E+03  0.00000000000E+00 0. -1.
          1   -1    0    0  502    0 -0.00000000000E+00 -0.00000000000E+00 -0.18847046858E+03  0.18847046858E+03  0.00000000000E+00 0. -1.
         23    2    1    2    0    0 -0.26713420660E+02 -0.79677694920E+01 -0.13433315531E+03  0.16310000599E+03  0.88199337547E+02 0.  0.
        -24    2    1    2    0    0  0.21185843065E+02 -0.16502020389E+02  0.13323116780E+03  0.15730978306E+03  0.79212796623E+02 0.  0.
         13    1    4    4    0    0 -0.20727852647E+02 -0.23494921734E+02  0.95411180020E+02  0.10042384426E+03  0.00000000000E+00 0. -1.
        -14    1    4    4    0    0  0.41913695712E+02  0.69929013447E+01  0.37819987782E+02  0.56885938801E+02  0.00000000000E+00 0.  1.
        -13    1    3    3    0    0 -0.16006675436E+02 -0.37937006265E+02 -0.12235257021E+03  0.12909524212E+03  0.00000000000E+00 0. -1.
         13    1    3    3    0    0 -0.10706745224E+02  0.29969236773E+02 -0.11980585104E+02  0.34004763865E+02  0.00000000000E+00 0.  1.
          2    1    1    2  501    0  0.55275775954E+01  0.24469789881E+02 -0.22037742299E+02  0.33391418306E+02  0.00000000000E+00 0. -1.
<scales pt_clust_5="13000.00000" pt_clust_6="13000.00000" pt_clust_7="13000.00000" pt_clust_8="13000.00000" pt_clust_9="25.08636"></scales>
<clustering>
<clus scale="   25.086">  1  9  2 -1</clus>
<clus scale="   79.213">  5  6 -1 -1</clus>
<clus scale="   83.637">  1  5  2 -1</clus>
<clus scale="   88.199">  7  8 -1 -1</clus>
<clus scale="   25.086">  1  5  2 -1</clus>
</clustering>
</event>
<event>
 9    1  0.7835476E-005  0.9506058E+02  0.7546771E-02  0.1298844E+00
          1   -1    0    0  502    0 -0.00000000000E+00  0.00000000000E+00  0.37659645112E+03  0.37659645112E+03  0.00000000000E+00 0. -1.
         21   -1    0    0  501  502  0.00000000000E+00 -0.00000000000E+00 -0.56114832393E+02  0.56114832393E+02  0.00000000000E+00 0. -1.
        -24    2    1    2    0    0  0.11093843373E+02 -0.32842143534E+02  0.24002141378E+03  0.25517808135E+03  0.79397067817E+02 0.  0.
         23    2    1    2    0    0  0.15264277657E+00 -0.26335912718E+02  0.62008379030E+02  0.11453323651E+03  0.92624076766E+02 0.  0.
         13    1    3    3    0    0  0.30172160949E+02 -0.49429488030E+02  0.19640514402E+03  0.20476477768E+03  0.00000000000E+00 0. -1.
        -14    1    3    3    0    0 -0.19078317576E+02  0.16587344497E+02  0.43616269760E+02  0.50413303669E+02  0.00000000000E+00 0.  1.
        -13    1    4    4    0    0  0.40551853569E+01 -0.48288576084E+02  0.74576983515E+02  0.88937942290E+02  0.00000000000E+00 0.  1.
         13    1    4    4    0    0 -0.39025425804E+01  0.21952663366E+02 -0.12568604485E+02  0.25595294219E+02  0.00000000000E+00 0. -1.
          2    1    1    2  501    0 -0.11246486150E+02  0.59178056252E+02  0.18451825921E+02  0.62999965653E+02  0.00000000000E+00 0. -1.
<scales pt_clust_5="13000.00000" pt_clust_6="13000.00000" pt_clust_7="13000.00000" pt_clust_8="13000.00000" pt_clust_9="60.23725"></scales>
<clustering>
<clus scale="   60.237">  2  9  1 -1</clus>
<clus scale="   79.397">  5  6 -1 -1</clus>
<clus scale="   82.226">  1  5  2 -1</clus>
<clus scale="   92.624">  7  8 -1 -1</clus>
<clus scale="   60.237">  2  5  1 -1</clus>
</clustering>
</event>
<event>
 9    1  0.7835476E-005  0.1233517E+03  0.7546771E-02  0.1238254E+00
         -4   -1    0    0    0  501 -0.00000000000E+00  0.00000000000E+00  0.38955402154E+03  0.38955402154E+03  0.00000000000E+00 0.  1.
         21   -1    0    0  501  502  0.00000000000E+00 -0.00000000000E+00 -0.83703485824E+02  0.83703485824E+02  0.00000000000E+00 0. -1.
         23    2    1    2    0    0 -0.17146783755E+02 -0.94710592282E+02  0.12246172616E+03  0.18020718275E+03  0.90629166698E+02 0.  0.
        -24    2    1    2    0    0 -0.36068982865E+02  0.59068168345E+02  0.19684781394E+02  0.11726264292E+03  0.92590586826E+02 0.  0.
         13    1    4    4    0    0 -0.16215914513E+01  0.76798475803E+02  0.11618688048E+02  0.77689313013E+02  0.00000000000E+00 0. -1.
        -14    1    4    4    0    0 -0.34447391413E+02 -0.17730307459E+02  0.80660933454E+01  0.39573329903E+02  0.00000000000E+00 0.  1.
        -13    1    3    3    0    0  0.32862220250E+02 -0.67679965081E+02  0.73547116586E+02  0.10521255415E+03  0.00000000000E+00 0. -1.
         13    1    3    3    0    0 -0.50009004005E+02 -0.27030627201E+02  0.48914609575E+02  0.74994628597E+02  0.00000000000E+00 0.  1.
         -3    1    1    2    0  502  0.53215766620E+02  0.35642423937E+02  0.16370402816E+03  0.17578768170E+03  0.00000000000E+00 0.  1.
<scales pt_clust_5="13000.00000" pt_clust_6="13000.00000" pt_clust_7="13000.00000" pt_clust_8="13000.00000" pt_clust_9="64.04923"></scales>
<clustering>
<clus scale="   64.049">  2  9  1 -1</clus>
<clus scale="   90.629">  7  8 -1 -1</clus>
<clus scale="   92.591">  5  6 -1 -1</clus>
<clus scale="  121.886">  1  7  2 -1</clus>
<clus scale="   64.049">  2  5  1 -1</clus>
</clustering>
</event>
<event>
 9    1  0.7835476E-005  0.1054315E+03  0.7546771E-02  0.1273160E+00
         21   -1    0    0  501  502  0.00000000000E+00  0.00000000000E+00  0.19354871458E+03  0.19354871458E+03  0.00000000000E+00 0. -1.
         -2   -1    0    0    0  501 -0.00000000000E+00 -0.00000000000E+00 -0.26599475402E+03  0.26599475402E+03  0.00000000000E+00 0.  1.
         23    2    1    2    0    0 -0.52301171604E+02 -0.16550055068E+02 -0.10455146463E+03  0.14850121537E+03  0.90068226008E+02 0.  0.
        -24    2    1    2    0    0  0.38077953386E+02  0.54299476264E+02  0.15198570240E+03  0.18455668251E+03  0.81013280800E+02 0.  0.
         13    1    4    4    0    0  0.52360463461E+02  0.54902975355E+02  0.15241649890E+03  0.17025493818E+03  0.00000000000E+00 0. -1.
        -14    1    4    4    0    0 -0.14282510076E+02 -0.60349909024E+00 -0.43079649746E+00  0.14301744328E+02  0.00000000000E+00 0.  1.
        -11    1    3    3    0    0 -0.35428562795E+02 -0.42647737759E+02 -0.20880397892E+02  0.59245283473E+02  0.00000000000E+00 0.  1.
         11    1    3    3    0    0 -0.16872608809E+02  0.26097682690E+02 -0.83671066738E+02  0.89255931898E+02  0.00000000000E+00 0. -1.
         -1    1    1    2    0  502  0.14223218218E+02 -0.37749421196E+02 -0.11988027721E+03  0.12648557072E+03  0.00000000000E+00 0.  1.
<scales pt_clust_5="13000.00000" pt_clust_6="13000.00000" pt_clust_7="13000.00000" pt_clust_8="13000.00000" pt_clust_9="40.34006"></scales>
<clustering>
<clus scale="   40.340">  1  9  2 -1</clus>
<clus scale="   81.013">  5  6 -1 -1</clus>
<clus scale="   90.068">  7  8 -1 -1</clus>
<clus scale="   97.809">  1  5  2 -1</clus>
<clus scale="   40.340">  1  5  2 -1</clus>
</clustering>
</event>
<event>
 9    1  0.7835476E-005  0.9937848E+02  0.7546771E-02  0.1286720E+00
          1   -1    0    0  502    0 -0.00000000000E+00  0.00000000000E+00  0.32174049379E+03  0.32174049379E+03  0.00000000000E+00 0. -1.
         21   -1    0    0  501  502  0.00000000000E+00 -0.00000000000E+00 -0.11544598165E+03  0.11544598165E+03  0.00000000000E+00 0.  1.
        -24    2    1    2    0    0  0.33578294133E+02  0.53526462461E+01  0.24323601879E+03  0.25885077055E+03  0.81754559001E+02 0.  0.
         23    2    1    2    0    0 -0.66680024175E+02 -0.43693142977E+02 -0.12798065585E+02  0.12222310410E+03  0.91757181332E+02 0.  0.
         11    1    3    3    0    0 -0.11921382597E+02  0.28223471696E+02  0.46918840063E+02  0.56036249611E+02  0.00000000000E+00 0. -1.
        -12    1    3    3    0    0  0.45499676730E+02 -0.22870825450E+02  0.19631717873E+03  0.20281452094E+03  0.00000000000E+00 0.  1.
        -13    1    4    4    0    0  0.11331165580E+02 -0.21847538186E+02 -0.30608883182E+02  0.39276124654E+02  0.00000000000E+00 0.  1.
         13    1    4    4    0    0 -0.78011189755E+02 -0.21845604791E+02  0.17810817598E+02  0.82946979446E+02  0.00000000000E+00 0. -1.
          2    1    1    2  501    0  0.33101730042E+02  0.38340496731E+02 -0.24143441069E+02  0.56112600795E+02  0.00000000000E+00 0. -1.
<scales pt_clust_5="13000.00000" pt_clust_6="13000.00000" pt_clust_7="13000.00000" pt_clust_8="13000.00000" pt_clust_9="50.65292"></scales>
<clustering>
<clus scale="   50.653">  2  9  1 -1</clus>
<clus scale="   81.755">  5  6 -1 -1</clus>
<clus scale="   90.225">  1  5  2 -1</clus>
<clus scale="   91.757">  7  8 -1 -1</clus>
<clus scale="   50.653">  2  5  1 -1</clus>
</clustering>
</event>
<event>
 9    1  0.7835476E-005  0.9856495E+02  0.7546771E-02  0.1287579E+00
         21   -1    0    0  501  502  0.00000000000E+00  0.00000000000E+00  0.21283604701E+03  0.21283604701E+03  0.00000000000E+00 0. -1.
          1   -1    0    0  502    0 -0.00000000000E+00 -0.00000000000E+00 -0.29620769533E+03  0.29620769533E+03  0.00000000000E+00 0. -1.
        -24    2    1    2    0    0  0.30833392155E+02 -0.30614510626E+02 -0.25438488697E+03  0.27032885829E+03  0.80486486913E+02 0.  0.
         23    2    1    2    0    0 -0.27012435666E+02 -0.16895772927E+01  0.18200327989E+03  0.20437926389E+03  0.88955962516E+02 0.  0.
         13    1    3    3    0    0 -0.20939427958E+02 -0.11527644396E+01 -0.21850633656E+02  0.30285948891E+02  0.00000000000E+00 0. -1.
        -14    1    3    3    0    0  0.51772820113E+02 -0.29461746187E+02 -0.23253425331E+03  0.24004290940E+03  0.00000000000E+00 0.  1.
        -13    1    4    4    0    0 -0.41140934427E+01  0.28133475402E+02  0.15622490884E+03  0.15879118472E+03  0.00000000000E+00 0.  1.
         13    1    4    4    0    0 -0.22898342223E+02 -0.29823052695E+02  0.25778371048E+02  0.45588079171E+02  0.00000000000E+00 0. -1.
          2    1    1    2  501    0 -0.38209564887E+01  0.32304087919E+02 -0.10990041243E+02  0.34335620153E+02  0.00000000000E+00 0. -1.
<scales pt_clust_5="13000.00000" pt_clust_6="13000.00000" pt_clust_7="13000.00000" pt_clust_8="13000.00000" pt_clust_9="32.52929"></scales>
<clustering>
<clus scale="   32.529">  1  9  2 -1</clus>
<clus scale="   80.486">  5  6 -1 -1</clus>
<clus scale="   88.956">  7  8 -1 -1</clus>
<clus scale="   90.994">  2  5  1 -1</clus>
<clus scale="   32.529">  1  5  2 -1</clus>
</clustering>
</event>
<event>
 9    1  0.7835476E-005  0.9451912E+02  0.7546771E-02  0.1299206E+00
          1   -1    0    0  502    0 -0.00000000000E+00  0.00000000000E+00  0.71947668190E+03  0.71947668190E+03  0.00000000000E+00 0. -1.
         21   -1    0    0  501  502  0.00000000000E+00 -0.00000000000E+00 -0.25858585550E+02  0.25858585550E+02  0.00000000000E+00 0.  1.
         23    2    1    2    0    0  0.84712392999E+01 -0.67881031025E+01  0.30145371072E+03  0.31568687432E+03  0.93091474753E+02 0.  0.
        -24    2    1    2    0    0  0.13237379191E+02  0.39319498103E+02  0.10245806506E+03  0.13731415300E+03  0.81463306945E+02 0.  0.
         13    1    4    4    0    0  0.40301700291E+02  0.29934460490E+02  0.95414246738E+02  0.10781547872E+03  0.00000000000E+00 0. -1.
        -14    1    4    4    0    0 -0.27064321100E+02  0.93850376128E+01  0.70438183270E+01  0.29498674280E+02  0.00000000000E+00 0.  1.
        -11    1    3    3    0    0  0.28240486135E+02 -0.43200199476E+02  0.14814241640E+03  0.15687561260E+03  0.00000000000E+00 0.  1.
         11    1    3    3    0    0 -0.19769246835E+02  0.36412096374E+02  0.15331129432E+03  0.15881126172E+03  0.00000000000E+00 0. -1.
          2    1    1    2  501    0 -0.21708618491E+02 -0.32531395000E+02  0.28970632056E+03  0.29233424013E+03  0.00000000000E+00 0. -1.
<scales pt_clust_5="13000.00000" pt_clust_6="13000.00000" pt_clust_7="13000.00000" pt_clust_8="13000.00000" pt_clust_9="39.10956"></scales>
<clustering>
<clus scale="   39.110">  2  9  1 -1</clus>
<clus scale="   81.463">  5  6 -1 -1</clus>
<clus scale="   83.091">  2  5  1 -1</clus>
<clus scale="   93.091">  7  8 -1 -1</clus>
<clus scale="   39.110">  2  5  1 -1</clus>
</clustering>
</event>
<event>
 9    1  0.7835476E-005  0.1289519E+03  0.7546771E-02  0.1239384E+00
         21   -1    0    0  501  502  0.00000000000E+00  0.00000000000E+00  0.28541176284E+03  0.28541176284E+03  0.00000000000E+00 0. -1.
          3   -1    0    0  502    0 -0.00000000000E+00 -0.00000000000E+00 -0.10754043793E+03  0.10754043793E+03  0.00000000000E+00 0. -1.
         23    2    1    2    0    0  0.36428493802E+02 -0.29482823399E+02  0.95966259010E+02  0.14170316705E+03  0.93134272142E+02 0.  0.
        -24    2    1    2    0    0  0.72247204832E+02 -0.22319994264E+02  0.58594927848E+01  0.10885216373E+03  0.78080850038E+02 0.  0.
         11    1    4    4    0    0  0.76058494976E+02 -0.40563353171E+02 -0.65720993002E+01  0.86449249665E+02  0.00000000000E+00 0. -1.
        -12    1    4    4    0    0 -0.38112901436E+01  0.18243358907E+02  0.12431592085E+02  0.22402914063E+02  0.00000000000E+00 0.  1.
        -11    1    3    3    0    0 -0.31491442519E+02 -0.10263106519E+02  0.24037239067E+02  0.40924701212E+02  0.00000000000E+00 0.  1.
         11    1    3    3    0    0  0.67919936321E+02 -0.19219716880E+02  0.71929019943E+02  0.10077846584E+03  0.00000000000E+00 0. -1.
          4    1    1    2  501    0 -0.10867569863E+03  0.51802817663E+02  0.76045573114E+02  0.14239686999E+03  0.00000000000E+00 0. -1.
<scales pt_clust_5="13000.00000" pt_clust_6="13000.00000" pt_clust_7="13000.00000" pt_clust_8="13000.00000" pt_clust_9="102.62544"></scales>
<clustering>
<clus scale="   78.081">  5  6 -1 -1</clus>
<clus scale="   93.134">  7  8 -1 -1</clus>
<clus scale="  104.261">  2  7  1 -1</clus>
<clus scale="  102.625">  1  9  2 -1</clus>
<clus scale="  102.625">  1  5  2 -1</clus>
</clustering>
</event>
<event>
 9    1  0.8261041E-005  0.1284512E+03  0.7546771E-02  0.1233678E+00
          1   -1    0    0  502    0 -0.00000000000E+00  0.00000000000E+00  0.50300711224E+03  0.50300711224E+03  0.00000000000E+00 0. -1.
         21   -1    0    0  501  502  0.00000000000E+00 -0.00000000000E+00 -0.19255517013E+03  0.19255517013E+03  0.00000000000E+00 0.  1.
        -24    2    1    2    0    0 -0.87838670321E+02 -0.28569532458E+02  0.45476332306E+03  0.47005543335E+03  0.74903806499E+02 0.  0.
         23    2    1    2    0    0  0.64534939692E+02  0.64399718185E+02 -0.12399354304E+03  0.17818158507E+03  0.89789734380E+02 0.  0.
         11    1    3    3    0    0 -0.10067434535E+03 -0.29354120442E+02  0.42259613272E+03  0.43541299888E+03  0.00000000000E+00 0. -1.
        -12    1    3    3    0    0  0.12835675028E+02  0.78458798465E+00  0.32167190341E+02  0.34642434472E+02  0.00000000000E+00 0.  1.
        -13    1    4    4    0    0 -0.19537050423E+02  0.26734431296E+02 -0.50245409897E+02  0.60174972968E+02  0.00000000000E+00 0.  1.
         13    1    4    4    0    0  0.84071990115E+02  0.37665286889E+02 -0.73748133145E+02  0.11800661211E+03  0.00000000000E+00 0. -1.
          2    1    1    2  501    0  0.23303730629E+02 -0.35830185727E+02 -0.20317837915E+02  0.47325263951E+02  0.00000000000E+00 0. -1.
<scales pt_clust_5="13000.00000" pt_clust_6="13000.00000" pt_clust_7="13000.00000" pt_clust_8="13000.00000" pt_clust_9="42.74185"></scales>
<clustering>
<clus scale="   42.742">  2  9  1 -1</clus>
<clus scale="   74.904">  5  6 -1 -1</clus>
<clus scale="   89.790">  7  8 -1 -1</clus>
<clus scale="  118.525">  1  5  2 -1</clus>
<clus scale="   42.742">  2  5  1 -1</clus>
</clustering>
</event>
<event>
 9    1  0.7835476E-005  0.1459750E+03  0.7546771E-02  0.1208108E+00
         -2   -1    0    0    0  501 -0.00000000000E+00  0.00000000000E+00  0.80576293990E+02  0.80576293990E+02  0.00000000000E+00 0.  1.
         21   -1    0    0  501  502  0.00000000000E+00 -0.00000000000E+00 -0.44115042850E+03  0.44115042850E+03  0.00000000000E+00 0.  1.
        -24    2    1    2    0    0 -0.13422367434E+03  0.24590150810E+02 -0.11642225261E+03  0.19696297217E+03  0.81360931858E+02 0.  0.
         23    2    1    2    0    0  0.78078453499E+02  0.21362150932E+02 -0.21135702059E+03  0.24514338366E+03  0.94185465992E+02 0.  0.
         13    1    3    3    0    0 -0.17498279077E+02  0.29915488680E+02 -0.41252974030E+01  0.34901924192E+02  0.00000000000E+00 0. -1.
        -14    1    3    3    0    0 -0.11672539527E+03 -0.53253378708E+01 -0.11229695520E+03  0.16206104798E+03  0.00000000000E+00 0.  1.
        -11    1    4    4    0    0  0.52307986134E+01  0.46200538618E+02 -0.92766605877E+02  0.10376653694E+03  0.00000000000E+00 0. -1.
         11    1    4    4    0    0  0.72847654886E+02 -0.24838387686E+02 -0.11859041472E+03  0.14137684672E+03  0.00000000000E+00 0.  1.
         -1    1    1    2    0  502  0.56145220845E+02 -0.45952301742E+02 -0.32794861311E+02  0.79620366663E+02  0.00000000000E+00 0.  1.
<scales pt_clust_5="13000.00000" pt_clust_6="13000.00000" pt_clust_7="13000.00000" pt_clust_8="13000.00000" pt_clust_9="72.55277"></scales>
<clustering>
<clus scale="   72.553">  2  9  1 -1</clus>
<clus scale="   81.361">  5  6 -1 -1</clus>
<clus scale="   94.185">  7  8 -1 -1</clus>
<clus scale="  138.049">  1  5  2 -1</clus>
<clus scale="   72.553">  2  5  1 -1</clus>
</clustering>
</event>
<event>
 9    1  0.7835476E-005  0.2630221E+03  0.7546771E-02  0.1136125E+00
         21   -1    0    0  501  502  0.00000000000E+00  0.00000000000E+00  0.77220922278E+02  0.77220922278E+02  0.00000000000E+00 0. -1.
          1   -1    0    0  502    0 -0.00000000000E+00 -0.00000000000E+00 -0.16473375125E+04  0.16473375125E+04  0.00000000000E+00 0. -1.
        -24    2    1    2    0    0 -0.48880256635E+02  0.81479107362E+02 -0.45637982672E+03  0.47238025339E+03  0.76370368159E+02 0.  0.
         23    2    1    2    0    0  0.23923511903E+03  0.76867360365E+02 -0.30196626411E+03  0.40348511486E+03  0.92057481990E+02 0.  0.
         11    1    3    3    0    0 -0.17052500759E+02  0.81826759574E+02 -0.25106952303E+03  0.26461729300E+03  0.00000000000E+00 0. -1.
        -12    1    3    3    0    0 -0.31827755876E+02 -0.34765221206E+00 -0.20531030370E+03  0.20776296039E+03  0.00000000000E+00 0.  1.
        -11    1    4    4    0    0  0.95975860515E+02 -0.50087567913E+01 -0.70349550878E+02  0.11910295024E+03  0.00000000000E+00 0.  1.
         11    1    4    4    0    0  0.14325925852E+03  0.81876117156E+02 -0.23161671323E+03  0.28438216463E+03  0.00000000000E+00 0. -1.
          2    1    1    2  501    0 -0.19035486240E+03 -0.15834646773E+03 -0.81177049943E+03  0.84869306656E+03  0.00000000000E+00 0. -1.
<scales pt_clust_5="13000.00000" pt_clust_6="13000.00000" pt_clust_7="13000.00000" pt_clust_8="13000.00000" pt_clust_9="246.38614"></scales>
<clustering>
<clus scale="   76.370">  5  6 -1 -1</clus>
<clus scale="   92.057">  7  8 -1 -1</clus>
<clus scale="  121.904">  2  5  1 -1</clus>
<clus scale="  246.386">  1  9  2 -1</clus>
<clus scale="  246.386">  1  5  2 -1</clus>
</clustering>
</event>
<event>
 9    1  0.7835476E-005  0.1176044E+03  0.7546771E-02  0.1250824E+00
         21   -1    0    0  501  502  0.00000000000E+00  0.00000000000E+00  0.35524323811E+03  0.35524323811E+03  0.00000000000E+00 0.  1.
          1   -1    0    0  502    0 -0.00000000000E+00 -0.00000000000E+00 -0.21893971887E+03  0.21893971887E+03  0.00000000000E+00 0. -1.
         23    2    1    2    0    0  0.39469259355E+02 -0.64248182729E+02 -0.18927473554E+03  0.22336539629E+03  0.91550659904E+02 0.  0.
        -24    2    1    2    0    0 -0.78348058896E+01  0.52941879809E+02  0.25396849758E+03  0.27171934037E+03  0.80418749955E+02 0.  0.
         11    1    4    4    0    0 -0.79312477409E+01  0.52928104532E+02  0.71805074758E+02  0.89555891493E+02  0.00000000000E+00 0. -1.
        -12    1    4    4    0    0  0.96441851299E-01  0.13775277323E-01  0.18216342282E+03  0.18216344887E+03  0.00000000000E+00 0.  1.
        -13    1    3    3    0    0 -0.10418676413E+02 -0.67025647684E+02 -0.12167160996E+03  0.13930171189E+03  0.00000000000E+00 0. -1.
         13    1    3    3    0    0  0.49887935768E+02  0.27774649549E+01 -0.67603125579E+02  0.84063684400E+02  0.00000000000E+00 0.  1.
          2    1    1    2  501    0 -0.31634453466E+02  0.11306302920E+02  0.71609757199E+02  0.79098220321E+02  0.00000000000E+00 0. -1.
<scales pt_clust_5="13000.00000" pt_clust_6="13000.00000" pt_clust_7="13000.00000" pt_clust_8="13000.00000" pt_clust_9="33.59421"></scales>
<clustering>
<clus scale="   33.594">  1  9  2 -1</clus>
<clus scale="   80.419">  5  6 -1 -1</clus>
<clus scale="   91.551">  7  8 -1 -1</clus>
<clus scale="  109.163">  1  5  2 -1</clus>
<clus scale="   33.594">  1  5  2 -1</clus>
</clustering>
</event>
<event>
 9    1  0.7835476E-005  0.1647759E+03  0.7546771E-02  0.1184036E+00
          1   -1    0    0  502    0 -0.00000000000E+00  0.00000000000E+00  0.22581815646E+03  0.22581815646E+03  0.00000000000E+00 0. -1.
         21   -1    0    0  501  502  0.00000000000E+00 -0.00000000000E+00 -0.18364910167E+03  0.18364910167E+03  0.00000000000E+00 0.  1.
        -24    2    1    2    0    0 -0.12641925987E+03 -0.61096205169E+02  0.11653037483E+03  0.19988655053E+03  0.81613291039E+02 0.  0.
         23    2    1    2    0    0  0.13866036154E+03  0.34832648342E+02 -0.65486736550E+02  0.17927596838E+03  0.86089203273E+02 0.  0.
         11    1    3    3    0    0 -0.11342613684E+03 -0.31873960898E+02  0.53899470502E+02  0.12956307662E+03  0.00000000000E+00 0. -1.
        -12    1    3    3    0    0 -0.12993123022E+02 -0.29222244272E+02  0.62630904327E+02  0.70323473911E+02  0.00000000000E+00 0.  1.
        -13    1    4    4    0    0  0.36148057147E+02 -0.77307998824E+01  0.17292248649E+02  0.40810160079E+02  0.00000000000E+00 0. -1.
         13    1    4    4    0    0  0.10251230439E+03  0.42563448224E+02 -0.82778985199E+02  0.13846580830E+03  0.00000000000E+00 0.  1.
          2    1    1    2  501    0 -0.12241101674E+02  0.26263556827E+02 -0.88745834834E+01  0.30304739224E+02  0.00000000000E+00 0. -1.
<scales pt_clust_5="13000.00000" pt_clust_6="13000.00000" pt_clust_7="13000.00000" pt_clust_8="13000.00000" pt_clust_9="28.97618"></scales>
<clustering>
<clus scale="   28.976">  2  9  1 -1</clus>
<clus scale="   81.613">  5  6 -1 -1</clus>
<clus scale="   86.089">  7  8 -1 -1</clus>
<clus scale="  162.482">  1  5  2 -1</clus>
<clus scale="   28.976">  2  5  1 -1</clus>
</clustering>
</event>
<event>
 9    1  0.7835476E-005  0.1024219E+03  0.7546771E-02  0.1279958E+00
          3   -1    0    0  502    0 -0.00000000000E+00  0.00000000000E+00  0.18753326090E+03  0.18753326090E+03  0.00000000000E+00 0. -1.
         21   -1    0    0  501  502  0.00000000000E+00 -0.00000000000E+00 -0.12350212302E+03  0.12350212302E+03  0.00000000000E+00 0. -1.
        -24    2    1    2    0    0  0.49523164300E+02 -0.16822483008E+02  0.86938047717E+02  0.13059512647E+03  0.82227265430E+02 0.  0.
         23    2    1    2    0    0 -0.33396782368E+02 -0.47802286011E+02  0.28658561972E+01  0.10902137735E+03  0.92070863839E+02 0.  0.
         11    1    3    3    0    0 -0.19050080540E+02 -0.21374397408E+02  0.28244987823E+02  0.40218773853E+02  0.00000000000E+00 0. -1.
        -12    1    3    3    0    0  0.68573244841E+02  0.45519143994E+01  0.58693059894E+02  0.90376352617E+02  0.00000000000E+00 0.  1.
        -13    1    4    4    0    0 -0.38097188185E+01  0.22193416791E+02 -0.19519790063E+02  0.29800736744E+02  0.00000000000E+00 0.  1.
         13    1    4    4    0    0 -0.29587063550E+02 -0.69995702803E+02  0.22385646260E+02  0.79220640611E+02  0.00000000000E+00 0. -1.
          4    1    1    2  501    0 -0.16126381932E+02  0.64624769020E+02 -0.25772766034E+02  0.71418880095E+02  0.00000000000E+00 0. -1.
<scales pt_clust_5="13000.00000" pt_clust_6="13000.00000" pt_clust_7="13000.00000" pt_clust_8="13000.00000" pt_clust_9="66.60646"></scales>
<clustering>
<clus scale="   66.606">  2  9  1 -1</clus>
<clus scale="   82.227">  5  6 -1 -1</clus>
<clus scale="   92.071">  7  8 -1 -1</clus>
<clus scale="   93.672">  1  5  2 -1</clus>
<clus scale="   66.606">  2  5  1 -1</clus>
</clustering>
</event>
<event>
 9    1  0.7835476E-005  0.1152241E+03  0.7546771E-02  0.1253897E+00
         21   -1    0    0  501  502  0.00000000000E+00  0.00000000000E+00  0.10334151453E+03  0.10334151453E+03  0.00000000000E+00 0.  1.
          1   -1    0    0  502    0 -0.00000000000E+00 -0.00000000000E+00 -0.24474971105E+03  0.24474971105E+03  0.00000000000E+00 0. -1.
         23    2    1    2    0    0 -0.84487258609E+01  0.81304842278E+02 -0.14758306653E+03  0.19061056254E+03  0.88711705419E+02 0.  0.
        -24    2    1    2    0    0  0.69549776046E+01 -0.59901967905E+02 -0.38551445790E+02  0.10787463880E+03  0.80710013331E+02 0.  0.
         13    1    4    4    0    0  0.37805753949E+01 -0.80157527744E+02 -0.30932662969E+02  0.86002044410E+02  0.00000000000E+00 0. -1.
        -14    1    4    4    0    0  0.31744022097E+01  0.20255559839E+02 -0.76187828210E+01  0.21872594392E+02  0.00000000000E+00 0.  1.
        -11    1    3    3    0    0 -0.35683129477E+02  0.17726339928E+02 -0.17993556016E+02  0.43718153147E+02  0.00000000000E+00 0. -1.
         11    1    3    3    0    0  0.27234403616E+02  0.63578502350E+02 -0.12958951052E+03  0.14689240939E+03  0.00000000000E+00 0.  1.
          2    1    1    2  501    0  0.14937482562E+01 -0.21402874373E+02  0.44726315804E+02  0.49606024237E+02  0.00000000000E+00 0. -1.
<scales pt_clust_5="13000.00000" pt_clust_6="13000.00000" pt_clust_7="13000.00000" pt_clust_8="13000.00000" pt_clust_9="21.45494"></scales>
<clustering>
<clus scale="   21.455">  1  9  2 -1</clus>
<clus scale="   80.710">  5  6 -1 -1</clus>
<clus scale="   88.712">  7  8 -1 -1</clus>
<clus scale="  109.183">  1  5  2 -1</clus>
<clus scale="   21.455">  1  5  2 -1</clus>
</clustering>
</event>
<event>
 9    1  0.7835476E-005  0.1329393E+03  0.7546771E-02  0.1227072E+00
         21   -1    0    0  501  502  0.00000000000E+00  0.00000000000E+00  0.14018305621E+04  0.14018305621E+04  0.00000000000E+00 0. -1.
          1   -1    0    0  502    0 -0.00000000000E+00 -0.00000000000E+00 -0.29502861707E+02  0.29502861707E+02  0.00000000000E+00 0. -1.
        -24    2    1    2    0    0  0.76140309285E+02  0.82342281574E+02  0.28664581182E+03  0.32442075091E+03  0.10249587383E+03 0.  0.
         23    2    1    2    0    0  0.26965283876E+02 -0.59448809758E+02  0.57039980550E+03  0.58091790151E+03  0.88591098120E+02 0.  0.
         13    1    3    3    0    0  0.33838082747E+02  0.95169914265E+02  0.15028783257E+03  0.18107667173E+03  0.00000000000E+00 0. -1.
        -14    1    3    3    0    0  0.42302226539E+02 -0.12827632691E+02  0.13635797925E+03  0.14334407918E+03  0.00000000000E+00 0.  1.
        -13    1    4    4    0    0  0.94934916150E+01 -0.81416759106E+02  0.42770282865E+03  0.43548653789E+03  0.00000000000E+00 0. -1.
         13    1    4    4    0    0  0.17471792261E+02  0.21967949348E+02  0.14269697685E+03  0.14543136362E+03  0.00000000000E+00 0.  1.
          2    1    1    2  501    0 -0.10310559316E+03 -0.22893471816E+02  0.51528208302E+03  0.52599477134E+03  0.00000000000E+00 0. -1.
<scales pt_clust_5="13000.00000" pt_clust_6="13000.00000" pt_clust_7="13000.00000" pt_clust_8="13000.00000" pt_clust_9="105.61664"></scales>
<clustering>
<clus scale="   88.591">  7  8 -1 -1</clus>
<clus scale="  102.496">  5  6 -1 -1</clus>
<clus scale="  105.617">  1  9  2 -1</clus>
<clus scale="  122.539">  1  7  2 -1</clus>
<clus scale="  105.617">  1  5  2 -1</clus>
</clustering>
</event>
<event>
 9    1  0.7835476E-005  0.9558115E+02  0.7546771E-02  0.1293261E+00
         21   -1    0    0  501  502  0.00000000000E+00  0.00000000000E+00  0.59110552669E+02  0.59110552669E+02  0.00000000000E+00 0.  1.
          3   -1    0    0  502    0 -0.00000000000E+00 -0.00000000000E+00 -0.32200040659E+03  0.32200040659E+03  0.00000000000E+00 0. -1.
         23    2    1    2    0    0 -0.81834297417E+01  0.41750805008E+02 -0.21097636368E+03  0.23319459475E+03  0.89769676106E+02 0.  0.
        -24    2    1    2    0    0 -0.82883976601E+01 -0.16592750348E+02 -0.71958422040E+02  0.11177707698E+03  0.83499003196E+02 0.  0.
         11    1    4    4    0    0  0.21365890267E+02 -0.11023809920E+02 -0.77461405271E+02  0.81106688742E+02  0.00000000000E+00 0. -1.
        -12    1    4    4    0    0 -0.29654287927E+02 -0.55689404280E+01  0.55029832311E+01  0.30670388233E+02  0.00000000000E+00 0.  1.
        -11    1    3    3    0    0  0.29997900049E+02  0.22344707219E+02 -0.16948234251E+03  0.17356101052E+03  0.00000000000E+00 0. -1.
         11    1    3    3    0    0 -0.38181329791E+02  0.19406097789E+02 -0.41494021169E+02  0.59633584235E+02  0.00000000000E+00 0.  1.
          4    1    1    2  501    0  0.16471827402E+02 -0.25158054660E+02  0.20044931803E+02  0.36139287531E+02  0.00000000000E+00 0. -1.
<scales pt_clust_5="13000.00000" pt_clust_6="13000.00000" pt_clust_7="13000.00000" pt_clust_8="13000.00000" pt_clust_9="30.07073"></scales>
<clustering>
<clus scale="   30.071">  1  9  2 -1</clus>
<clus scale="   83.499">  5  6 -1 -1</clus>
<clus scale="   89.718">  1  5  2 -1</clus>
<clus scale="   89.770">  7  8 -1 -1</clus>
<clus scale="   30.071">  1  5  2 -1</clus>
</clustering>
</event>
<event>
 9    1  0.7835476E-005  0.1256033E+03  0.7546771E-02  0.1237596E+00
         21   -1    0    0  501  502  0.00000000000E+00  0.00000000000E+00  0.53146906457E+02  0.53146906457E+02  0.00000000000E+00 0. -1.
          1   -1    0    0  502    0 -0.00000000000E+00 -0.00000000000E+00 -0.42731457268E+03  0.42731457268E+03  0.00000000000E+00 0. -1.
         23    2    1    2    0    0  0.44757142019E+02 -0.63422873367E+02 -0.12598939578E+03  0.17381539280E+03  0.91174559483E+02 0.  0.
        -24    2    1    2    0    0 -0.67167321869E+02  0.70340158792E+02 -0.11062274709E+03  0.16710545783E+03  0.78915491494E+02 0.  0.
         11    1    4    4    0    0 -0.47067977665E+02  0.45539439036E+02 -0.16247652449E+02  0.67477561005E+02  0.00000000000E+00 0. -1.
        -12    1    4    4    0    0 -0.20099344204E+02  0.24800719756E+02 -0.94375094638E+02  0.99627896825E+02  0.00000000000E+00 0.  1.
        -11    1    3    3    0    0  0.52146373854E+02 -0.83445935274E+02 -0.10377311666E+03  0.14300814019E+03  0.00000000000E+00 0. -1.
         11    1    3    3    0    0 -0.73892318344E+01  0.20023061907E+02 -0.22216279112E+02  0.30807252601E+02  0.00000000000E+00 0.  1.
          2    1    1    2  501    0  0.22410179850E+02 -0.69172854245E+01 -0.13755552336E+03  0.13954062851E+03  0.00000000000E+00 0. -1.
<scales pt_clust_5="13000.00000" pt_clust_6="13000.00000" pt_clust_7="13000.00000" pt_clust_8="13000.00000" pt_clust_9="23.45348"></scales>
<clustering>
<clus scale="   23.453">  1  9  2 -1</clus>
<clus scale="   78.915">  5  6 -1 -1</clus>
<clus scale="   91.175">  7  8 -1 -1</clus>
<clus scale="  117.009">  1  5  2 -1</clus>
<clus scale="   23.453">  1  5  2 -1</clus>
</clustering>
</event>
<event>
 9    1  0.7835476E-005  0.2078730E+03  0.7546771E-02  0.1162228E+00
         21   -1    0    0  501  502  0.00000000000E+00  0.00000000000E+00  0.17612755609E+03  0.17612755609E+03  0.00000000000E+00 0. -1.
          1   -1    0    0  502    0 -0.00000000000E+00 -0.00000000000E+00 -0.42774982924E+03  0.42774982924E+03  0.00000000000E+00 0. -1.
         23    2    1    2    0    0  0.42654795149E+02  0.91842809046E+02 -0.91722586718E+02  0.16148856587E+03  0.86087112095E+02 0.  0.
        -24    2    1    2    0    0  0.58475144416E+02 -0.22334968197E+03 -0.74737271656E+02  0.25591104814E+03  0.81242734044E+02 0.  0.
         13    1    4    4    0    0  0.11028809771E+01 -0.12806575695E+03 -0.13068821772E+02  0.12873557609E+03  0.00000000000E+00 0. -1.
        -14    1    4    4    0    0  0.57372263439E+02 -0.95283925025E+02 -0.61668449884E+02  0.12717547205E+03  0.00000000000E+00 0.  1.
        -11    1    3    3    0    0  0.13266432839E+00  0.83702318854E+02 -0.36491533985E+02  0.91311159416E+02  0.00000000000E+00 0.  1.
         11    1    3    3    0    0  0.42522130821E+02  0.81404901919E+01 -0.55231052733E+02  0.70177406451E+02  0.00000000000E+00 0. -1.
          2    1    1    2  501    0 -0.10112993957E+03  0.13150687293E+03 -0.85162414778E+02  0.18647777131E+03  0.00000000000E+00 0. -1.
<scales pt_clust_5="13000.00000" pt_clust_6="13000.00000" pt_clust_7="13000.00000" pt_clust_8="13000.00000" pt_clust_9="191.33954"></scales>
<clustering>
<clus scale="   81.243">  5  6 -1 -1</clus>
<clus scale="   86.087">  7  8 -1 -1</clus>
<clus scale="  132.912">  2  7  1 -1</clus>
<clus scale="  191.340">  1  9  2 -1</clus>
<clus scale="  191.340">  1  5  2 -1</clus>
</clustering>
</event>
<event>
 9    1  0.7835476E-005  0.1125324E+03  0.7546771E-02  0.1268584E+00
         21   -1    0    0  501  502  0.00000000000E+00  0.00000000000E+00  0.49621210092E+02  0.49621210092E+02  0.00000000000E+00 0.  1.
          1   -1    0    0  502    0 -0.00000000000E+00 -0.00000000000E+00 -0.96130679589E+03  0.96130679589E+03  0.00000000000E+00 0. -1.
        -24    2    1    2    0    0  0.24350810181E+02  0.25006141098E+02 -0.73531464542E+03  0.74054604152E+03  0.80638345627E+02 0.  0.
         23    2    1    2    0    0  0.38833497252E+02  0.36860648004E+02 -0.51074741057E+02  0.11702325469E+03  0.90659059582E+02 0.  0.
         11    1    3    3    0    0  0.25326641424E+02 -0.22381616231E+02 -0.17526107603E+03  0.17849039268E+03  0.00000000000E+00 0. -1.
        -12    1    3    3    0    0 -0.97583124245E+00  0.47387757329E+02 -0.56005356940E+03  0.56205564883E+03  0.00000000000E+00 0.  1.
        -11    1    4    4    0    0  0.68120932585E+02  0.25259412664E+02 -0.27526289607E+02  0.77692959809E+02  0.00000000000E+00 0. -1.
         11    1    4    4    0    0 -0.29287435333E+02  0.11601235340E+02 -0.23548451450E+02  0.39330294882E+02  0.00000000000E+00 0.  1.
          2    1    1    2  501    0 -0.63184307433E+02 -0.61866789102E+02 -0.12529619931E+03  0.15335870977E+03  0.00000000000E+00 0. -1.
<scales pt_clust_5="13000.00000" pt_clust_6="13000.00000" pt_clust_7="13000.00000" pt_clust_8="13000.00000" pt_clust_9="66.66698"></scales>
<clustering>
<clus scale="   80.638">  5  6 -1 -1</clus>
<clus scale="   87.868">  2  5  1 -1</clus>
<clus scale="   66.667">  1  9  2 -1</clus>
<clus scale="   90.659">  7  8 -1 -1</clus>
<clus scale="   66.667">  1  5  2 -1</clus>
</clustering>
</event>
<event>
 9    1  0.7835476E-005  0.1124282E+03  0.7546771E-02  0.1260277E+00
         21   -1    0    0  501  502  0.00000000000E+00  0.00000000000E+00  0.41421403474E+03  0.41421403474E+03  0.00000000000E+00 0. -1.
          1   -1    0    0  502    0 -0.00000000000E+00 -0.00000000000E+00 -0.45841560475E+02  0.45841560475E+02  0.00000000000E+00 0. -1.
        -24    2    1    2    0    0  0.80734504782E+02 -0.17301593967E+01  0.15322649379E+03  0.19068072601E+03  0.79747897513E+02 0.  0.
         23    2    1    2    0    0 -0.46235059409E+02  0.19368096477E+02  0.20426662090E+03  0.22912975745E+03  0.90899886992E+02 0.  0.
         11    1    3    3    0    0  0.42714834615E+02  0.29162806344E+02  0.34302521410E+02  0.62061979868E+02  0.00000000000E+00 0. -1.
        -12    1    3    3    0    0  0.38019670167E+02 -0.30892965741E+02  0.11892397238E+03  0.12861874614E+03  0.00000000000E+00 0.  1.
        -11    1    4    4    0    0 -0.18486873044E+02 -0.34229226435E+02  0.11477041504E+03  0.12118437434E+03  0.00000000000E+00 0. -1.
         11    1    4    4    0    0 -0.27748186365E+02  0.53597322913E+02  0.89496205863E+02  0.10794538311E+03  0.00000000000E+00 0.  1.
          2    1    1    2  501    0 -0.34499445373E+02 -0.17637937080E+02  0.10879359573E+02  0.40245111755E+02  0.00000000000E+00 0. -1.
<scales pt_clust_5="13000.00000" pt_clust_6="13000.00000" pt_clust_7="13000.00000" pt_clust_8="13000.00000" pt_clust_9="38.74674"></scales>
<clustering>
<clus scale="   38.747">  1  9  2 -1</clus>
<clus scale="   79.748">  5  6 -1 -1</clus>
<clus scale="   90.900">  7  8 -1 -1</clus>
<clus scale="  103.620">  2  5  1 -1</clus>
<clus scale="   38.747">  1  5  2 -1</clus>
</clustering>
</event>
<event>
 9    1  0.7835476E-005  0.2053076E+03  0.7546771E-02  0.1159220E+00
         21   -1    0    0  501  502  0.00000000000E+00  0.00000000000E+00  0.18250990074E+03  0.18250990074E+03  0.00000000000E+00 0.  1.
         -2   -1    0    0    0  501 -0.00000000000E+00 -0.00000000000E+00 -0.76974179134E+03  0.76974179134E+03  0.00000000000E+00 0.  1.
        -24    2    1    2    0    0  0.12218608943E+03  0.26632665190E+02 -0.45607373480E+03  0.47947055789E+03  0.79057099603E+02 0.  0.
         23    2    1    2    0    0  0.95820990011E+02 -0.13627235423E+03  0.11526312801E+02  0.19010321557E+03  0.90854609285E+02 0.  0.
         11    1    3    3    0    0  0.20753588810E+02  0.21467847092E+02 -0.33556689360E+02  0.44918051027E+02  0.00000000000E+00 0. -1.
        -12    1    3    3    0    0  0.10143250062E+03  0.51648180977E+01 -0.42251704544E+03  0.43455250686E+03  0.00000000000E+00 0.  1.
        -11    1    4    4    0    0  0.89337525012E+02 -0.10773516784E+03  0.43690483363E+02  0.14661827342E+03  0.00000000000E+00 0.  1.
         11    1    4    4    0    0  0.64834649991E+01 -0.28537186391E+02 -0.32164170562E+02  0.43484942146E+02  0.00000000000E+00 0. -1.
         -1    1    1    2    0  502 -0.21800707944E+03  0.10963968904E+03 -0.14268446860E+03  0.28267791863E+03  0.00000000000E+00 0.  1.
<scales pt_clust_5="13000.00000" pt_clust_6="13000.00000" pt_clust_7="13000.00000" pt_clust_8="13000.00000" pt_clust_9="184.11052"></scales>
<clustering>
<clus scale="   79.057">  5  6 -1 -1</clus>
<clus scale="   90.855">  7  8 -1 -1</clus>
<clus scale="  147.949">  2  5  1 -1</clus>
<clus scale="  184.111">  1  9  2 -1</clus>
<clus scale="  184.111">  1  5  2 -1</clus>
</clustering>
</event>
<event>
 9    1  0.7835476E-005  0.1303444E+03  0.7546771E-02  0.1229935E+00
         -2   -1    0    0    0  501 -0.00000000000E+00  0.00000000000E+00  0.32125177716E+03  0.32125177716E+03  0.00000000000E+00 0.  1.
         21   -1    0    0  501  502  0.00000000000E+00 -0.00000000000E+00 -0.13134315334E+03  0.13134315334E+03  0.00000000000E+00 0. -1.
         23    2    1    2    0    0 -0.54554804357E+02  0.20353895614E+02  0.34517027358E+02  0.11436501853E+03  0.92181476122E+02 0.  0.
        -24    2    1    2    0    0  0.14138726085E+03 -0.65592979223E+02  0.28306843845E+02  0.17780240644E+03  0.80744175462E+02 0.  0.
         11    1    4    4    0    0  0.67986943188E+02 -0.71909867184E+02  0.22772127280E+00  0.98961130245E+02  0.00000000000E+00 0. -1.
        -12    1    4    4    0    0  0.73400317667E+02  0.63168879613E+01  0.28079122573E+02  0.78841276192E+02  0.00000000000E+00 0.  1.
        -11    1    3    3    0    0 -0.14697688014E+02 -0.29648321113E+02  0.37922584090E+02  0.50330580782E+02  0.00000000000E+00 0. -1.
         11    1    3    3    0    0 -0.39857116343E+02  0.50002216727E+02 -0.34055567320E+01  0.64034437746E+02  0.00000000000E+00 0.  1.
         -1    1    1    2    0  502 -0.86832456497E+02  0.45239083609E+02  0.12708475262E+03  0.16042750554E+03  0.00000000000E+00 0.  1.
<scales pt_clust_5="13000.00000" pt_clust_6="13000.00000" pt_clust_7="13000.00000" pt_clust_8="13000.00000" pt_clust_9="97.91047"></scales>
<clustering>
<clus scale="   80.744">  5  6 -1 -1</clus>
<clus scale="   92.181">  7  8 -1 -1</clus>
<clus scale="   97.910">  2  9  1 -1</clus>
<clus scale="  122.523">  2  5  1 -1</clus>
<clus scale="   97.910">  2  5  1 -1</clus>
</clustering>
</event>
<event>
 9    1  0.1711859E-004  0.9229089E+02  0.7546771E-02  0.1304961E+00
          3   -1    0    0  502    0 -0.00000000000E+00  0.00000000000E+00  0.18121249131E+03  0.18121249131E+03  0.00000000000E+00 0. -1.
         21   -1    0    0  501  502  0.00000000000E+00 -0.00000000000E+00 -0.30697598580E+03  0.30697598580E+03  0.00000000000E+00 0.  1.
        -24    2    1    2    0    0 -0.19596377667E+02  0.10183058936E+02  0.15708673625E+03  0.17652115760E+03  0.77432316686E+02 0.  0.
         23    2    1    2    0    0  0.16264454271E+02  0.25634991335E+02 -0.19904249800E+03  0.22046550755E+03  0.89807787828E+02 0.  0.
         11    1    3    3    0    0 -0.36296551637E+02  0.34199702332E+02  0.11413207275E+03  0.12455195435E+03  0.00000000000E+00 0. -1.
        -12    1    3    3    0    0  0.16700173970E+02 -0.24016643396E+02  0.42954663496E+02  0.51969203252E+02  0.00000000000E+00 0.  1.
        -13    1    4    4    0    0 -0.18884250775E+02  0.42209345463E+02 -0.58053177225E+02  0.74218698167E+02  0.00000000000E+00 0. -1.
         13    1    4    4    0    0  0.35148705046E+02 -0.16574354128E+02 -0.14098932077E+03  0.14624680938E+03  0.00000000000E+00 0.  1.
          4    1    1    2  501    0  0.33319233962E+01 -0.35818050271E+02 -0.83807732744E+02  0.91201811969E+02  0.00000000000E+00 0. -1.
<scales pt_clust_5="13000.00000" pt_clust_6="13000.00000" pt_clust_7="13000.00000" pt_clust_8="13000.00000" pt_clust_9="35.97269"></scales>
<clustering>
<clus scale="   35.973">  2  9  1 -1</clus>
<clus scale="   77.432">  5  6 -1 -1</clus>
<clus scale="   80.299">  1  5  2 -1</clus>
<clus scale="   89.808">  7  8 -1 -1</clus>
<clus scale="   35.973">  2  5  1 -1</clus>
</clustering>
</event>
<event>
 9    1  0.7835476E-005  0.9591369E+02  0.7546771E-02  0.1293759E+00
         21   -1    0    0  501  502  0.00000000000E+00  0.00000000000E+00  0.13282371887E+02  0.13282371887E+02  0.00000000000E+00 0. -1.
         -4   -1    0    0    0  501 -0.00000000000E+00 -0.00000000000E+00 -0.83705040987E+03  0.83705040987E+03  0.00000000000E+00 0.  1.
        -24    2    1    2    0    0  0.59972884888E+01  0.28344169141E+02 -0.37494219792E+03  0.38459498179E+03  0.80574740724E+02 0.  0.
         23    2    1    2    0    0 -0.23509081385E+02 -0.40004636645E+02 -0.32685186573E+03  0.34196268208E+03  0.89181197265E+02 0.  0.
         13    1    3    3    0    0  0.40303951159E+02  0.32667147400E+01 -0.13526287751E+03  0.14117763964E+03  0.00000000000E+00 0. -1.
        -14    1    3    3    0    0 -0.34306662671E+02  0.25077454401E+02 -0.23967932042E+03  0.24341734215E+03  0.00000000000E+00 0.  1.
        -13    1    4    4    0    0  0.11569644535E+02 -0.57961590376E+02 -0.22822608833E+03  0.23575527572E+03  0.00000000000E+00 0. -1.
         13    1    4    4    0    0 -0.35078725919E+02  0.17956953731E+02 -0.98625777393E+02  0.10620740636E+03  0.00000000000E+00 0.  1.
         -3    1    1    2    0  502  0.17511792896E+02  0.11660467504E+02 -0.12197397434E+03  0.12377511789E+03  0.00000000000E+00 0.  1.
<scales pt_clust_5="13000.00000" pt_clust_6="13000.00000" pt_clust_7="13000.00000" pt_clust_8="13000.00000" pt_clust_9="21.03877"></scales>
<clustering>
<clus scale="   21.039">  1  9  2 -1</clus>
<clus scale="   80.575">  5  6 -1 -1</clus>
<clus scale="   87.968">  2  5  1 -1</clus>
<clus scale="   89.181">  7  8 -1 -1</clus>
<clus scale="   21.039">  1  5  2 -1</clus>
</clustering>
</event>
<event>
 9    1  0.7835476E-005  0.5832520E+03  0.7546771E-02  0.1038884E+00
         21   -1    0    0  501  502  0.00000000000E+00  0.00000000000E+00  0.31630498721E+03  0.31630498721E+03  0.00000000000E+00 0. -1.
          1   -1    0    0  502    0 -0.00000000000E+00 -0.00000000000E+00 -0.14811761919E+04  0.14811761919E+04  0.00000000000E+00 0. -1.
         23    2    1    2    0    0  0.58551250763E+02  0.10328771491E+03 -0.46099825926E+02  0.15570254411E+03  0.89562756066E+02 0.  0.
        -24    2    1    2    0    0  0.40080488608E+03  0.31345923697E+03 -0.78097831173E+03  0.93552780243E+03  0.79899285253E+02 0.  0.
         13    1    4    4    0    0  0.39827366748E+03  0.30270853759E+03 -0.74102717609E+03  0.89407809986E+03  0.00000000000E+00 0. -1.
        -14    1    4    4    0    0  0.25312185997E+01  0.10750699382E+02 -0.39951135639E+02  0.41449702576E+02  0.00000000000E+00 0.  1.
        -11    1    3    3    0    0 -0.69090152948E+01  0.78178457558E+02 -0.27565256565E+02  0.83183226001E+02  0.00000000000E+00 0. -1.
         11    1    3    3    0    0  0.65460266058E+02  0.25109257348E+02 -0.18534569361E+02  0.72519318105E+02  0.00000000000E+00 0.  1.
          2    1    1    2  501    0 -0.45935613685E+03 -0.41674695188E+03 -0.33779306704E+03  0.70625083257E+03  0.00000000000E+00 0. -1.
<scales pt_clust_5="13000.00000" pt_clust_6="13000.00000" pt_clust_7="13000.00000" pt_clust_8="13000.00000" pt_clust_9="577.75345"></scales>
<clustering>
<clus scale="   79.899">  5  6 -1 -1</clus>
<clus scale="   89.563">  7  8 -1 -1</clus>
<clus scale="  148.722">  2  7  1 -1</clus>
<clus scale="  577.753">  1  9  2 -1</clus>
<clus scale="  577.753">  1  5  2 -1</clus>
</clustering>
</event>
<event>
 9    1  0.7835476E-005  0.2037715E+03  0.7546771E-02  0.1147607E+00
         21   -1    0    0  501  502  0.00000000000E+00  0.00000000000E+00  0.16641915593E+03  0.16641915593E+03  0.00000000000E+00 0.  1.
          1   -1    0    0  502    0 -0.00000000000E+00 -0.00000000000E+00 -0.48180021005E+03  0.48180021005E+03  0.00000000000E+00 0. -1.
         23    2    1    2    0    0 -0.21278890411E+03 -0.55216475387E+02 -0.11928299007E+03  0.26652111751E+03  0.92071154516E+02 0.  0.
        -24    2    1    2    0    0  0.11626634762E+03  0.92963913019E+02 -0.11200106106E+02  0.16973427084E+03  0.80772071958E+02 0.  0.
         13    1    4    4    0    0  0.26037062784E+02  0.51765114739E+02 -0.35045688232E+02  0.67718210298E+02  0.00000000000E+00 0. -1.
        -14    1    4    4    0    0  0.90229284836E+02  0.41198798280E+02  0.23845582126E+02  0.10201606054E+03  0.00000000000E+00 0.  1.
        -13    1    3    3    0    0 -0.30246993743E+02 -0.25052270308E+02  0.10342532775E+02  0.40613604399E+02  0.00000000000E+00 0. -1.
         13    1    3    3    0    0 -0.18254191036E+03 -0.30164205079E+02 -0.12962552284E+03  0.22590751311E+03  0.00000000000E+00 0.  1.
          2    1    1    2  501    0  0.96522556487E+02 -0.37747437631E+02 -0.18489795795E+03  0.21196397763E+03  0.00000000000E+00 0. -1.
<scales pt_clust_5="13000.00000" pt_clust_6="13000.00000" pt_clust_7="13000.00000" pt_clust_8="13000.00000" pt_clust_9="103.64113"></scales>
<clustering>
<clus scale="   80.772">  5  6 -1 -1</clus>
<clus scale="   92.071">  7  8 -1 -1</clus>
<clus scale="  103.641">  1  9  2 -1</clus>
<clus scale="  198.922">  1  5  2 -1</clus>
<clus scale="  103.641">  1  5  2 -1</clus>
</clustering>
</event>
<event>
 9    1  0.7835476E-005  0.1023485E+03  0.7546771E-02  0.1281512E+00
         21   -1    0    0  501  502  0.00000000000E+00  0.00000000000E+00  0.39670369495E+03  0.39670369495E+03  0.00000000000E+00 0. -1.
          3   -1    0    0  502    0 -0.00000000000E+00 -0.00000000000E+00 -0.41062996385E+02  0.41062996385E+02  0.00000000000E+00 0. -1.
         23    2    1    2    0    0 -0.16960700005E+02 -0.59414724299E+02  0.85985164565E+02  0.13895401449E+03  0.89983302953E+02 0.  0.
        -24    2    1    2    0    0  0.28844293095E+02  0.16654031868E+02  0.18819293121E+03  0.20604494401E+03  0.76997334839E+02 0.  0.
         11    1    4    4    0    0  0.30340360360E+02  0.22131243073E+02  0.30853687710E+02  0.48603286227E+02  0.00000000000E+00 0. -1.
        -12    1    4    4    0    0 -0.14960672656E+01 -0.54772112043E+01  0.15733924350E+03  0.15744165778E+03  0.00000000000E+00 0.  1.
        -13    1    3    3    0    0 -0.39467276235E+02  0.55363511132E+01  0.38458341411E+02  0.55383762071E+02  0.00000000000E+00 0.  1.
         13    1    3    3    0    0  0.22506576230E+02 -0.64951075412E+02  0.47526823154E+02  0.83570252422E+02  0.00000000000E+00 0. -1.
          4    1    1    2  501    0 -0.11883593089E+02  0.42760692430E+02  0.81462602786E+02  0.92767732830E+02  0.00000000000E+00 0. -1.
<scales pt_clust_5="13000.00000" pt_clust_6="13000.00000" pt_clust_7="13000.00000" pt_clust_8="13000.00000" pt_clust_9="44.38126"></scales>
<clustering>
<clus scale="   44.381">  1  9  2 -1</clus>
<clus scale="   76.997">  5  6 -1 -1</clus>
<clus scale="   89.983">  7  8 -1 -1</clus>
<clus scale="   91.142">  1  5  2 -1</clus>
<clus scale="   44.381">  1  5  2 -1</clus>
</clustering>
</event>
<event>
 9    1  0.7835476E-005  0.1799905E+03  0.7546771E-02  0.1169787E+00
          1   -1    0    0  502    0 -0.00000000000E+00  0.00000000000E+00  0.45242271309E+03  0.45242271309E+03  0.00000000000E+00 0. -1.
         21   -1    0    0  501  502  0.00000000000E+00 -0.00000000000E+00 -0.11759724175E+03  0.11759724175E+03  0.00000000000E+00 0. -1.
         23    2    1    2    0    0 -0.12267726777E+03 -0.83403262418E+02  0.12252040164E+03  0.21607319854E+03  0.98339016176E+02 0.  0.
        -24    2    1    2    0    0  0.79317915059E+02  0.14308719546E+03  0.75108123159E+02  0.19817382069E+03  0.82863477405E+02 0.  0.
         13    1    4    4    0    0  0.93723694400E+02  0.10465644790E+03  0.45889885845E+02  0.14779372315E+03  0.00000000000E+00 0. -1.
        -14    1    4    4    0    0 -0.14405779341E+02  0.38430747556E+02  0.29218237314E+02  0.50380097537E+02  0.00000000000E+00 0.  1.
        -13    1    3    3    0    0 -0.10494107350E+02 -0.26868781223E+02 -0.12688236283E+02  0.31512680519E+02  0.00000000000E+00 0.  1.
         13    1    3    3    0    0 -0.11218316041E+03 -0.56534481195E+02  0.13520863792E+03  0.18456051803E+03  0.00000000000E+00 0. -1.
          2    1    1    2  501    0  0.43359352706E+02 -0.59683933040E+02  0.13719694654E+03  0.15577293561E+03  0.00000000000E+00 0. -1.
<scales pt_clust_5="13000.00000" pt_clust_6="13000.00000" pt_clust_7="13000.00000" pt_clust_8="13000.00000" pt_clust_9="73.77134"></scales>
<clustering>
<clus scale="   73.771">  2  9  1 -1</clus>
<clus scale="   82.863">  5  6 -1 -1</clus>
<clus scale="   98.339">  7  8 -1 -1</clus>
<clus scale="  172.024">  2  5  1 -1</clus>
<clus scale="   73.771">  2  5  1 -1</clus>
</clustering>
</event>
<event>
 9    1  0.7835476E-005  0.1090706E+03  0.7546771E-02  0.1266633E+00
          1   -1    0    0  502    0 -0.00000000000E+00  0.00000000000E+00  0.78873074898E+02  0.78873074898E+02  0.00000000000E+00 0. -1.
         21   -1    0    0  501  502  0.00000000000E+00 -0.00000000000E+00 -0.41279298637E+03  0.41279298637E+03  0.00000000000E+00 0.  1.
         23    2    1    2    0    0  0.28012467306E+02  0.35623017127E+02 -0.82298713616E+01  0.10188062863E+03  0.90874826185E+02 0.  0.
        -24    2    1    2    0    0 -0.76148206112E+02 -0.84941932090E+02 -0.17214771385E+03  0.22148614363E+03  0.80047456665E+02 0.  0.
         13    1    4    4    0    0 -0.14143179239E+02  0.15648973022E+02 -0.29191390190E+02  0.36014679463E+02  0.00000000000E+00 0. -1.
        -14    1    4    4    0    0 -0.62005026873E+02 -0.10059090511E+03 -0.14295632366E+03  0.18547146417E+03  0.00000000000E+00 0.  1.
        -13    1    3    3    0    0  0.40692227713E+02  0.58115251328E+02 -0.19696723100E+02  0.73628803698E+02  0.00000000000E+00 0. -1.
         13    1    3    3    0    0 -0.12679760407E+02 -0.22492234201E+02  0.11466851739E+02  0.28251824935E+02  0.00000000000E+00 0.  1.
          2    1    1    2  501    0  0.48135738806E+02  0.49318914962E+02 -0.15354232627E+03  0.16829928900E+03  0.00000000000E+00 0. -1.
<scales pt_clust_5="13000.00000" pt_clust_6="13000.00000" pt_clust_7="13000.00000" pt_clust_8="13000.00000" pt_clust_9="68.91593"></scales>
<clustering>
<clus scale="   68.916">  2  9  1 -1</clus>
<clus scale="   80.047">  5  6 -1 -1</clus>
<clus scale="   90.875">  7  8 -1 -1</clus>
<clus scale="  100.228">  2  5  1 -1</clus>
<clus scale="   68.916">  2  5  1 -1</clus>
</clustering>
</event>
<event>
 9    1  0.7835476E-005  0.9287091E+02  0.7546771E-02  0.1306425E+00
         21   -1    0    0  501  502  0.00000000000E+00  0.00000000000E+00  0.42800942977E+02  0.42800942977E+02  0.00000000000E+00 0. -1.
          1   -1    0    0  502    0 -0.00000000000E+00 -0.00000000000E+00 -0.47243044359E+03  0.47243044359E+03  0.00000000000E+00 0. -1.
         23    2    1    2    0    0  0.33336680728E+01  0.75546838148E+01 -0.34364225024E+03  0.35577663156E+03  0.91754176038E+02 0.  0.
        -24    2    1    2    0    0 -0.36350936373E+02 -0.65425917347E+01 -0.93430386664E+02  0.12559379497E+03  0.75368216788E+02 0.  0.
         11    1    4    4    0    0 -0.49502969236E+02 -0.21218813700E+02 -0.90991204479E+02  0.10573637648E+03  0.00000000000E+00 0. -1.
        -12    1    4    4    0    0  0.13152032863E+02  0.14676221965E+02 -0.24391821854E+01  0.19857418496E+02  0.00000000000E+00 0.  1.
        -13    1    3    3    0    0  0.28516021193E+02  0.39947640729E+02 -0.14966059762E+03  0.15750324424E+03  0.00000000000E+00 0.  1.
         13    1    3    3    0    0 -0.25182353121E+02 -0.32392956914E+02 -0.19398165262E+03  0.19827338732E+03  0.00000000000E+00 0. -1.
          2    1    1    2  501    0  0.33017268300E+02 -0.10120920801E+01  0.74431362977E+01  0.33860960032E+02  0.00000000000E+00 0. -1.
<scales pt_clust_5="13000.00000" pt_clust_6="13000.00000" pt_clust_7="13000.00000" pt_clust_8="13000.00000" pt_clust_9="33.03278"></scales>
<clustering>
<clus scale="   33.033">  1  9  2 -1</clus>
<clus scale="   75.368">  5  6 -1 -1</clus>
<clus scale="   76.724">  1  5  2 -1</clus>
<clus scale="   91.754">  7  8 -1 -1</clus>
<clus scale="   33.033">  1  5  2 -1</clus>
</clustering>
</event>
<event>
 9    1  0.7835476E-005  0.9271506E+02  0.7546771E-02  0.1303509E+00
          1   -1    0    0  502    0 -0.00000000000E+00  0.00000000000E+00  0.52012376538E+03  0.52012376538E+03  0.00000000000E+00 0. -1.
         21   -1    0    0  501  502  0.00000000000E+00 -0.00000000000E+00 -0.28039500491E+02  0.28039500491E+02  0.00000000000E+00 0.  1.
        -24    2    1    2    0    0  0.19811806596E+02  0.39151685551E+01  0.30392811339E+03  0.31480087263E+03  0.79495000306E+02 0.  0.
         23    2    1    2    0    0 -0.61405705883E+01  0.31647474689E+02  0.11005188021E+03  0.14646083122E+03  0.91104826888E+02 0.  0.
         13    1    3    3    0    0  0.44033325059E+02 -0.18461458009E+02  0.15146760389E+03  0.15881496836E+03  0.00000000000E+00 0. -1.
        -14    1    3    3    0    0 -0.24221518463E+02  0.22376626564E+02  0.15246050950E+03  0.15598590427E+03  0.00000000000E+00 0.  1.
        -11    1    4    4    0    0 -0.14970878282E+02 -0.13718198529E+02 -0.63044313650E+01  0.21261750216E+02  0.00000000000E+00 0.  1.
         11    1    4    4    0    0  0.88303076941E+01  0.45365673218E+02  0.11635631158E+03  0.12519908100E+03  0.00000000000E+00 0. -1.
          2    1    1    2  501    0 -0.13671236008E+02 -0.35562643244E+02  0.78104271288E+02  0.86901562022E+02  0.00000000000E+00 0. -1.
<scales pt_clust_5="13000.00000" pt_clust_6="13000.00000" pt_clust_7="13000.00000" pt_clust_8="13000.00000" pt_clust_9="38.09994"></scales>
<clustering>
<clus scale="   38.100">  2  9  1 -1</clus>
<clus scale="   79.495">  5  6 -1 -1</clus>
<clus scale="   81.335">  1  5  2 -1</clus>
<clus scale="   91.105">  7  8 -1 -1</clus>
<clus scale="   38.100">  2  5  1 -1</clus>
</clustering>
</event>
<event>
 9    1  0.7835476E-005  0.9598817E+02  0.7546771E-02  0.1295686E+00
         21   -1    0    0  501  502  0.00000000000E+00  0.00000000000E+00  0.47475433707E+02  0.47475433707E+02  0.00000000000E+00 0.  1.
          1   -1    0    0  502    0 -0.00000000000E+00 -0.00000000000E+00 -0.79629155036E+03  0.79629155036E+03  0.00000000000E+00 0. -1.
        -24    2    1    2    0    0 -0.21480566087E+02 -0.11276664937E+02 -0.54303949969E+03  0.54945522096E+03  0.80128420196E+02 0.  0.
         23    2    1    2    0    0  0.73674897588E+02 -0.22015063076E+01 -0.47481416928E+02  0.12708951670E+03  0.92002299626E+02 0.  0.
         11    1    3    3    0    0  0.20987408599E+02 -0.31465470654E+01 -0.47408385300E+02  0.51941573666E+02  0.00000000000E+00 0. -1.
        -12    1    3    3    0    0 -0.42467974687E+02 -0.81301178717E+01 -0.49563111439E+03  0.49751364729E+03  0.00000000000E+00 0.  1.
        -13    1    4    4    0    0  0.94041132342E+02 -0.32377903032E+01 -0.26335925315E+02  0.97712838565E+02  0.00000000000E+00 0.  1.
         13    1    4    4    0    0 -0.20366234754E+02  0.10362839956E+01 -0.21145491613E+02  0.29376678133E+02  0.00000000000E+00 0. -1.
          2    1    1    2  501    0 -0.52194331500E+02  0.13478171245E+02 -0.15829520004E+03  0.16722224641E+03  0.00000000000E+00 0. -1.
<scales pt_clust_5="13000.00000" pt_clust_6="13000.00000" pt_clust_7="13000.00000" pt_clust_8="13000.00000" pt_clust_9="53.90651"></scales>
<clustering>
<clus scale="   53.907">  1  9  2 -1</clus>
<clus scale="   80.128">  5  6 -1 -1</clus>
<clus scale="   84.675">  2  5  1 -1</clus>
<clus scale="   92.002">  7  8 -1 -1</clus>
<clus scale="   53.907">  1  5  2 -1</clus>
</clustering>
</event>
<event>
 9    1  0.7835476E-005  0.1580889E+03  0.7546771E-02  0.1191720E+00
          1   -1    0    0  502    0 -0.00000000000E+00  0.00000000000E+00  0.84225256740E+03  0.84225256740E+03  0.00000000000E+00 0. -1.
         21   -1    0    0  501  502  0.00000000000E+00 -0.00000000000E+00 -0.86444104030E+02  0.86444104030E+02  0.00000000000E+00 0.  1.
         23    2    1    2    0    0 -0.11117501391E+03 -0.15125269969E+01  0.43556685823E+03  0.45789937461E+03  0.87127365565E+02 0.  0.
        -24    2    1    2    0    0  0.18182846148E+03 -0.26159548852E+01  0.34276846591E+03  0.39652473477E+03  0.81689726604E+02 0.  0.
         13    1    4    4    0    0  0.12442777706E+03  0.33140668426E+02  0.25556716420E+03  0.28617328845E+03  0.00000000000E+00 0. -1.
        -14    1    4    4    0    0  0.57400684420E+02 -0.35756623312E+02  0.87201301713E+02  0.11035144631E+03  0.00000000000E+00 0.  1.
        -13    1    3    3    0    0 -0.11587662613E+03 -0.23714129873E+02  0.35416980100E+03  0.37339791159E+03  0.00000000000E+00 0. -1.
         13    1    3    3    0    0  0.47016122261E+01  0.22201602876E+02  0.81397057233E+02  0.84501463028E+02  0.00000000000E+00 0.  1.
          2    1    1    2  501    0 -0.70653447578E+02  0.41284818821E+01 -0.22526860770E+02  0.74272562050E+02  0.00000000000E+00 0. -1.
<scales pt_clust_5="13000.00000" pt_clust_6="13000.00000" pt_clust_7="13000.00000" pt_clust_8="13000.00000" pt_clust_9="70.77396"></scales>
<clustering>
<clus scale="   70.774">  2  9  1 -1</clus>
<clus scale="   81.690">  5  6 -1 -1</clus>
<clus scale="   87.127">  7  8 -1 -1</clus>
<clus scale="  155.158">  2  5  1 -1</clus>
<clus scale="   70.774">  2  5  1 -1</clus>
</clustering>
</event>
<event>
 9    1  0.7835476E-005  0.2688083E+03  0.7546771E-02  0.1102486E+00
          1   -1    0    0  502    0 -0.00000000000E+00  0.00000000000E+00  0.52509627298E+03  0.52509627298E+03  0.00000000000E+00 0. -1.
         21   -1    0    0  501  502  0.00000000000E+00 -0.00000000000E+00 -0.18121061370E+03  0.18121061370E+03  0.00000000000E+00 0. -1.
         23    2    1    2    0    0 -0.16101843295E+03  0.20331413409E+03  0.32624979338E+03  0.42686348470E+03  0.92249303648E+02 0.  0.
        -24    2    1    2    0    0  0.13618599534E+03 -0.19430199253E+03  0.25019447082E+02  0.25201374787E+03  0.81148424230E+02 0.  0.
         13    1    4    4    0    0  0.13946987333E+03 -0.14441480401E+03  0.19314591178E+02  0.20169416109E+03  0.00000000000E+00 0. -1.
        -14    1    4    4    0    0 -0.32838779907E+01 -0.49887188519E+02  0.57048559041E+01  0.50319586782E+02  0.00000000000E+00 0.  1.
        -11    1    3    3    0    0 -0.50995949621E+02  0.90310783543E+01  0.55100736771E+02  0.75619034949E+02  0.00000000000E+00 0.  1.
         11    1    3    3    0    0 -0.11002248333E+03  0.19428305574E+03  0.27114905661E+03  0.35124444976E+03  0.00000000000E+00 0. -1.
          2    1    1    2  501    0  0.24832437609E+02 -0.90121415640E+01 -0.73835811757E+01  0.27429654102E+02  0.00000000000E+00 0. -1.
<scales pt_clust_5="13000.00000" pt_clust_6="13000.00000" pt_clust_7="13000.00000" pt_clust_8="13000.00000" pt_clust_9="26.41720"></scales>
<clustering>
<clus scale="   26.417">  2  9  1 -1</clus>
<clus scale="   81.148">  5  6 -1 -1</clus>
<clus scale="   92.249">  7  8 -1 -1</clus>
<clus scale="  265.204">  2  5  1 -1</clus>
<clus scale="   26.417">  2  5  1 -1</clus>
</clustering>
</event>
<event>
 9    1  0.7835476E-005  0.1376044E+03  0.7546771E-02  0.1217663E+00
         21   -1    0    0  501  502  0.00000000000E+00  0.00000000000E+00  0.91874446358E+02  0.91874446358E+02  0.00000000000E+00 0.  1.
         -2   -1    0    0    0  501 -0.00000000000E+00 -0.00000000000E+00 -0.43571270480E+03  0.43571270480E+03  0.00000000000E+00 0.  1.
        -24    2    1    2    0    0 -0.76060063789E+02  0.66046264263E+02 -0.26424172084E+03  0.29581936073E+03  0.86822605465E+02 0.  0.
         23    2    1    2    0    0  0.12032545854E+03 -0.24181700286E+02 -0.37243184477E+02  0.15756621760E+03  0.91526430825E+02 0.  0.
         13    1    3    3    0    0 -0.46250544565E+02  0.18431064730E+02 -0.21633242722E+03  0.22198769355E+03  0.00000000000E+00 0. -1.
        -14    1    3    3    0    0 -0.29809519224E+02  0.47615199533E+02 -0.47909293624E+02  0.73831667179E+02  0.00000000000E+00 0.  1.
        -13    1    4    4    0    0  0.11393395010E+03  0.36868256368E+01 -0.52110586105E+02  0.12533974171E+03  0.00000000000E+00 0.  1.
         13    1    4    4    0    0  0.63915084366E+01 -0.27868525923E+02  0.14867401628E+02  0.32226475892E+02  0.00000000000E+00 0. -1.
         -1    1    1    2    0  502 -0.44265394748E+02 -0.41864563977E+02 -0.42353353121E+02  0.74201572825E+02  0.00000000000E+00 0.  1.
<scales pt_clust_5="13000.00000" pt_clust_6="13000.00000" pt_clust_7="13000.00000" pt_clust_8="13000.00000" pt_clust_9="60.92673"></scales>
<clustering>
<clus scale="   60.927">  1  9  2 -1</clus>
<clus scale="   86.823">  5  6 -1 -1</clus>
<clus scale="   91.526">  7  8 -1 -1</clus>
<clus scale="  134.522">  2  5  1 -1</clus>
<clus scale="   60.927">  1  5  2 -1</clus>
</clustering>
</event>
<event>
 9    1  0.7835476E-005  0.2516276E+03  0.7546771E-02  0.1113409E+00
         21   -1    0    0  501  502  0.00000000000E+00  0.00000000000E+00  0.83293722545E+03  0.83293722545E+03  0.00000000000E+00 0. -1.
          1   -1    0    0  502    0 -0.00000000000E+00 -0.00000000000E+00 -0.12965049524E+03  0.12965049524E+03  0.00000000000E+00 0. -1.
         23    2    1    2    0    0 -0.64031876549E+02 -0.21403543649E+03  0.11252083520E+03  0.26673945490E+03  0.92616138756E+02 0.  0.
        -24    2    1    2    0    0  0.32310419149E+02  0.26790853796E+03  0.56106396705E+03  0.62663290300E+03  0.71113093791E+02 0.  0.
         13    1    4    4    0    0  0.13869358599E+02  0.11804958809E+03  0.32860794017E+03  0.34944419111E+03  0.00000000000E+00 0. -1.
        -14    1    4    4    0    0  0.18441060550E+02  0.14985894987E+03  0.23245602688E+03  0.27718871189E+03  0.00000000000E+00 0.  1.
        -13    1    3    3    0    0  0.20204830951E+02 -0.32433731630E+02  0.24594246404E+01  0.38291394735E+02  0.00000000000E+00 0.  1.
         13    1    3    3    0    0 -0.84236707500E+02 -0.18160170486E+03  0.11006141056E+03  0.22844806017E+03  0.00000000000E+00 0. -1.
          2    1    1    2  501    0  0.31721457400E+02 -0.53873101464E+02  0.29701927964E+02  0.69215362787E+02  0.00000000000E+00 0. -1.
<scales pt_clust_5="13000.00000" pt_clust_6="13000.00000" pt_clust_7="13000.00000" pt_clust_8="13000.00000" pt_clust_9="62.51852"></scales>
<clustering>
<clus scale="   62.519">  1  9  2 -1</clus>
<clus scale="   71.113">  5  6 -1 -1</clus>
<clus scale="   92.616">  7  8 -1 -1</clus>
<clus scale="  244.532">  1  5  2 -1</clus>
<clus scale="   62.519">  1  5  2 -1</clus>
</clustering>
</event>
<event>
 9    1  0.7835476E-005  0.1600504E+03  0.7546771E-02  0.1191048E+00
          1   -1    0    0  502    0 -0.00000000000E+00  0.00000000000E+00  0.37396881034E+03  0.37396881034E+03  0.00000000000E+00 0. -1.
         21   -1    0    0  501  502  0.00000000000E+00 -0.00000000000E+00 -0.10163612677E+03  0.10163612677E+03  0.00000000000E+00 0.  1.
        -24    2    1    2    0    0 -0.63078981250E+02 -0.11223002880E+03  0.21977285096E+03  0.26678979488E+03  0.79386090673E+02 0.  0.
         23    2    1    2    0    0  0.93441183672E+02  0.96547742794E+02  0.27469767244E+02  0.16642046320E+03  0.94278634980E+02 0.  0.
         11    1    3    3    0    0 -0.80499963933E+02 -0.96019548649E+02  0.19921228458E+03  0.23534131011E+03  0.00000000000E+00 0. -1.
        -12    1    3    3    0    0  0.17420982683E+02 -0.16210480152E+02  0.20560566373E+02  0.31448484765E+02  0.00000000000E+00 0.  1.
        -11    1    4    4    0    0  0.28600202016E+02  0.82420100267E+02 -0.13721406288E+02  0.88313767182E+02  0.00000000000E+00 0.  1.
         11    1    4    4    0    0  0.64840981656E+02  0.14127642527E+02  0.41191173532E+02  0.78106696015E+02  0.00000000000E+00 0. -1.
          2    1    1    2  501    0 -0.30362202422E+02  0.15682286007E+02  0.25090065371E+02  0.42394679037E+02  0.00000000000E+00 0. -1.
<scales pt_clust_5="13000.00000" pt_clust_6="13000.00000" pt_clust_7="13000.00000" pt_clust_8="13000.00000" pt_clust_9="34.17307"></scales>
<clustering>
<clus scale="   34.173">  2  9  1 -1</clus>
<clus scale="   79.386">  5  6 -1 -1</clus>
<clus scale="   94.279">  7  8 -1 -1</clus>
<clus scale="  151.756">  1  5  2 -1</clus>
<clus scale="   34.173">  2  5  1 -1</clus>
</clustering>
</event>
<event>
 9    1  0.7835476E-005  0.4938025E+03  0.7546771E-02  0.1044197E+00
          1   -1    0    0  502    0 -0.00000000000E+00  0.00000000000E+00  0.27105106164E+04  0.27105106164E+04  0.00000000000E+00 0. -1.
         21   -1    0    0  501  502  0.00000000000E+00 -0.00000000000E+00 -0.15458595145E+03  0.15458595145E+03  0.00000000000E+00 0. -1.
        -24    2    1    2    0    0 -0.18429967618E+03  0.55286046357E+02  0.64893070327E+03  0.68208288668E+03  0.84279826158E+02 0.  0.
         23    2    1    2    0    0 -0.60179211808E+02 -0.48825361290E+03  0.58021708535E+03  0.76612705200E+03  0.91025631706E+02 0.  0.
         13    1    3    3    0    0 -0.56252074163E+02  0.32883993983E+02  0.35146698655E+03  0.35745586517E+03  0.00000000000E+00 0. -1.
        -14    1    3    3    0    0 -0.12804760202E+03  0.22402052374E+02  0.29746371672E+03  0.32462702152E+03  0.00000000000E+00 0.  1.
        -13    1    4    4    0    0  0.13779580498E+02 -0.58552917854E+02  0.41546134770E+02  0.73105419377E+02  0.00000000000E+00 0.  1.
         13    1    4    4    0    0 -0.73958792306E+02 -0.42970069504E+03  0.53867095058E+03  0.69302163262E+03  0.00000000000E+00 0. -1.
          2    1    1    2  501    0  0.24447888799E+03  0.43296756654E+03  0.13267768763E+04  0.14168866291E+04  0.00000000000E+00 0. -1.
<scales pt_clust_5="13000.00000" pt_clust_6="13000.00000" pt_clust_7="13000.00000" pt_clust_8="13000.00000" pt_clust_9="485.34062"></scales>
<clustering>
<clus scale="   84.280">  5  6 -1 -1</clus>
<clus scale="   91.026">  7  8 -1 -1</clus>
<clus scale="  210.062">  1  5  2 -1</clus>
<clus scale="  485.341">  2  9  1 -1</clus>
<clus scale="  485.341">  2  5  1 -1</clus>
</clustering>
</event>
<event>
 9    1  0.7835476E-005  0.1750123E+03  0.7546771E-02  0.1175130E+00
         21   -1    0    0  501  502  0.00000000000E+00  0.00000000000E+00  0.84114381132E+03  0.84114381132E+03  0.00000000000E+00 0.  1.
         -2   -1    0    0    0  501 -0.00000000000E+00 -0.00000000000E+00 -0.74267835587E+02  0.74267835587E+02  0.00000000000E+00 0.  1.
        -24    2    1    2    0    0 -0.68232228408E+02  0.10486217725E+03  0.10823877822E+03  0.18460277459E+03  0.81919704984E+02 0.  0.
         23    2    1    2    0    0  0.13937508018E+03 -0.15231428279E+03  0.44127051534E+03  0.49722530655E+03  0.99439851405E+02 0.  0.
         13    1    3    3    0    0 -0.55633857804E+02  0.11772456488E+03  0.86250541355E+02  0.15618372257E+03  0.00000000000E+00 0. -1.
        -14    1    3    3    0    0 -0.12598370603E+02 -0.12862387632E+02  0.21988236866E+02  0.28419052024E+02  0.00000000000E+00 0.  1.
        -13    1    4    4    0    0  0.27378888378E+02 -0.10041979243E+03  0.23170191346E+03  0.25400691908E+03  0.00000000000E+00 0. -1.
         13    1    4    4    0    0  0.11199619180E+03 -0.51894490354E+02  0.20956860188E+03  0.24321838747E+03  0.00000000000E+00 0.  1.
         -1    1    1    2    0  502 -0.71142851772E+02  0.47452105535E+02  0.21736668217E+03  0.23358356576E+03  0.00000000000E+00 0.  1.
<scales pt_clust_5="13000.00000" pt_clust_6="13000.00000" pt_clust_7="13000.00000" pt_clust_8="13000.00000" pt_clust_9="85.51613"></scales>
<clustering>
<clus scale="   81.920">  5  6 -1 -1</clus>
<clus scale="   85.516">  1  9  2 -1</clus>
<clus scale="   99.440">  7  8 -1 -1</clus>
<clus scale="  165.686">  2  5  1 -1</clus>
<clus scale="   85.516">  1  5  2 -1</clus>
</clustering>
</event>
<event>
 9    1  0.7835476E-005  0.1106085E+03  0.7546771E-02  0.1264688E+00
         21   -1    0    0  501  502  0.00000000000E+00  0.00000000000E+00  0.45226475529E+02  0.45226475529E+02  0.00000000000E+00 0. -1.
          1   -1    0    0  502    0 -0.00000000000E+00 -0.00000000000E+00 -0.37457879688E+03  0.37457879688E+03  0.00000000000E+00 0. -1.
         23    2    1    2    0    0  0.45609728926E+02  0.48592720941E+02 -0.16760058660E+03  0.20389176450E+03  0.95080992314E+02 0.  0.
        -24    2    1    2    0    0 -0.53675169406E+02 -0.64373262264E+01 -0.12699628847E+03  0.16068607198E+03  0.82276931537E+02 0.  0.
         13    1    4    4    0    0 -0.54415414535E+02  0.29536224385E+02 -0.71936001294E+02  0.94911612419E+02  0.00000000000E+00 0. -1.
        -14    1    4    4    0    0  0.74024512830E+00 -0.35973550611E+02 -0.55060287176E+02  0.65774459559E+02  0.00000000000E+00 0.  1.
        -13    1    3    3    0    0  0.66762166429E+02  0.61922586143E+02 -0.12896485206E+03  0.15787186769E+03  0.00000000000E+00 0. -1.
         13    1    3    3    0    0 -0.21152437503E+02 -0.13329865202E+02 -0.38635734545E+02  0.46019896810E+02  0.00000000000E+00 0.  1.
          2    1    1    2  501    0  0.80654404802E+01 -0.42155394715E+02 -0.34755446279E+02  0.55227435933E+02  0.00000000000E+00 0. -1.
<scales pt_clust_5="13000.00000" pt_clust_6="13000.00000" pt_clust_7="13000.00000" pt_clust_8="13000.00000" pt_clust_9="42.92003"></scales>
<clustering>
<clus scale="   42.920">  1  9  2 -1</clus>
<clus scale="   82.277">  5  6 -1 -1</clus>
<clus scale="   95.081">  7  8 -1 -1</clus>
<clus scale="   99.817">  1  5  2 -1</clus>
<clus scale="   42.920">  1  5  2 -1</clus>
</clustering>
</event>
<event>
 9    1  0.7835476E-005  0.1242892E+03  0.7546771E-02  0.1256187E+00
          3   -1    0    0  502    0 -0.00000000000E+00  0.00000000000E+00  0.48906384206E+03  0.48906384206E+03  0.00000000000E+00 0. -1.
         21   -1    0    0  501  502  0.00000000000E+00 -0.00000000000E+00 -0.11932261647E+03  0.11932261647E+03  0.00000000000E+00 0. -1.
        -24    2    1    2    0    0  0.42598806411E+01  0.31297748445E+02  0.29046174403E+03  0.30212485142E+03  0.76900620691E+02 0.  0.
         23    2    1    2    0    0  0.38798884696E+02  0.69593614371E+02 -0.55498815678E+02  0.13248498678E+03  0.90130619473E+02 0.  0.
         11    1    3    3    0    0 -0.35749458383E+02  0.77530169231E+01  0.13648962386E+03  0.14130658324E+03  0.00000000000E+00 0. -1.
        -12    1    3    3    0    0  0.40009339024E+02  0.23544731522E+02  0.15397212017E+03  0.16081826819E+03  0.00000000000E+00 0.  1.
        -11    1    4    4    0    0  0.62811647032E+02  0.41109437490E+02 -0.13376386724E+02  0.76251010324E+02  0.00000000000E+00 0. -1.
         11    1    4    4    0    0 -0.24012762336E+02  0.28484176881E+02 -0.42122428954E+02  0.56233976461E+02  0.00000000000E+00 0.  1.
          4    1    1    2  501    0 -0.43058765337E+02 -0.10089136282E+03  0.13477829725E+03  0.17377662033E+03  0.00000000000E+00 0. -1.
<scales pt_clust_5="13000.00000" pt_clust_6="13000.00000" pt_clust_7="13000.00000" pt_clust_8="13000.00000" pt_clust_9="85.58207"></scales>
<clustering>
<clus scale="   76.901">  5  6 -1 -1</clus>
<clus scale="   83.135">  1  5  2 -1</clus>
<clus scale="   85.582">  2  9  1 -1</clus>
<clus scale="   90.131">  7  8 -1 -1</clus>
<clus scale="   85.582">  2  5  1 -1</clus>
</clustering>
</event>
<event>
 9    1  0.7835476E-005  0.1525026E+03  0.7546771E-02  0.1199460E+00
          1   -1    0    0  502    0 -0.00000000000E+00  0.00000000000E+00  0.24887113590E+03  0.24887113590E+03  0.00000000000E+00 0. -1.
         21   -1    0    0  501  502  0.00000000000E+00 -0.00000000000E+00 -0.30563407740E+03  0.30563407740E+03  0.00000000000E+00 0.  1.
         23    2    1    2    0    0  0.94978169629E+02  0.81178064293E+02  0.19425506792E+03  0.24779348848E+03  0.89754390921E+02 0.  0.
        -24    2    1    2    0    0 -0.65432392426E+02 -0.94156627161E+02 -0.16932628315E+03  0.21887702675E+03  0.78031367128E+02 0.  0.
         11    1    4    4    0    0 -0.28267640073E+02 -0.29256070975E+02 -0.85684910859E+01  0.41573984698E+02  0.00000000000E+00 0. -1.
        -12    1    4    4    0    0 -0.37164752353E+02 -0.64900556186E+02 -0.16075779207E+03  0.17730304205E+03  0.00000000000E+00 0.  1.
        -13    1    3    3    0    0  0.49173654885E+02  0.33323729276E+02  0.22178199767E+02  0.63406559696E+02  0.00000000000E+00 0.  1.
         13    1    3    3    0    0  0.45804514743E+02  0.47854335017E+02  0.17207686816E+03  0.18438692878E+03  0.00000000000E+00 0. -1.
          2    1    1    2  501    0 -0.29545777203E+02  0.12978562868E+02 -0.81691726264E+02  0.87834698067E+02  0.00000000000E+00 0. -1.
<scales pt_clust_5="13000.00000" pt_clust_6="13000.00000" pt_clust_7="13000.00000" pt_clust_8="13000.00000" pt_clust_9="32.27067"></scales>
<clustering>
<clus scale="   32.271">  2  9  1 -1</clus>
<clus scale="   78.031">  5  6 -1 -1</clus>
<clus scale="   89.754">  7  8 -1 -1</clus>
<clus scale="  145.911">  2  5  1 -1</clus>
<clus scale="   32.271">  2  5  1 -1</clus>
</clustering>
</event>
<event>
 9    1  0.7835476E-005  0.4202494E+03  0.7546771E-02  0.1037668E+00
         21   -1    0    0  501  502  0.00000000000E+00  0.00000000000E+00  0.10271951717E+04  0.10271951717E+04  0.00000000000E+00 0. -1.
          1   -1    0    0  502    0 -0.00000000000E+00 -0.00000000000E+00 -0.40184632854E+03  0.40184632854E+03  0.00000000000E+00 0. -1.
        -24    2    1    2    0    0 -0.46912791486E+03  0.32777862341E+02  0.20626246739E+02  0.47722807659E+03  0.78522648118E+02 0.  0.
         23    2    1    2    0    0  0.26689116537E+03 -0.26792542131E+03  0.20269592293E+03  0.44405410712E+03  0.11438307279E+03 0.  0.
         11    1    3    3    0    0 -0.41902201899E+03  0.21282726686E+02  0.41782234584E+02  0.42163747697E+03  0.00000000000E+00 0. -1.
        -12    1    3    3    0    0 -0.50105895867E+02  0.11495135654E+02 -0.21155987845E+02  0.55590599619E+02  0.00000000000E+00 0.  1.
        -13    1    4    4    0    0  0.18322698267E+03 -0.23902603982E+03  0.12430811413E+03  0.32581909418E+03  0.00000000000E+00 0. -1.
         13    1    4    4    0    0  0.83664182695E+02 -0.28899381488E+02  0.78387808802E+02  0.11823501294E+03  0.00000000000E+00 0.  1.
          2    1    1    2  501    0  0.20223674949E+03  0.23514755897E+03  0.40202667354E+03  0.50775931658E+03  0.00000000000E+00 0. -1.
<scales pt_clust_5="13000.00000" pt_clust_6="13000.00000" pt_clust_7="13000.00000" pt_clust_8="13000.00000" pt_clust_9="310.15170"></scales>
<clustering>
<clus scale="   78.523">  5  6 -1 -1</clus>
<clus scale="  114.383">  7  8 -1 -1</clus>
<clus scale="  310.152">  1  9  2 -1</clus>
<clus scale="  411.937">  2  5  1 -1</clus>
<clus scale="  310.152">  1  5  2 -1</clus>
</clustering>
</event>
<event>
 9    1  0.7835476E-005  0.9193922E+02  0.7546771E-02  0.1306837E+00
         21   -1    0    0  501  502  0.00000000000E+00  0.00000000000E+00  0.52790299703E+02  0.52790299703E+02  0.00000000000E+00 0.  1.
         -2   -1    0    0    0  501 -0.00000000000E+00 -0.00000000000E+00 -0.35433731426E+03  0.35433731426E+03  0.00000000000E+00 0.  1.
        -24    2    1    2    0    0  0.56462222073E+01  0.40428484408E+01 -0.15547187670E+03  0.17343871200E+03  0.76558852708E+02 0.  0.
         23    2    1    2    0    0 -0.11507007783E+02  0.58550905596E+02 -0.12930222501E+03  0.16862234022E+03  0.90298441032E+02 0.  0.
         13    1    3    3    0    0  0.36377970349E+02  0.88119419951E+01 -0.12260105485E+03  0.12818746311E+03  0.00000000000E+00 0. -1.
        -14    1    3    3    0    0 -0.30731748142E+02 -0.47690935543E+01 -0.32870821848E+02  0.45251248891E+02  0.00000000000E+00 0.  1.
        -11    1    4    4    0    0  0.15355704273E+02  0.73896249738E+02 -0.76768836030E+02  0.10765643299E+03  0.00000000000E+00 0.  1.
         11    1    4    4    0    0 -0.26862712055E+02 -0.15345344142E+02 -0.52533388981E+02  0.60965907224E+02  0.00000000000E+00 0. -1.
         -1    1    1    2    0  502  0.58607855754E+01 -0.62593754037E+02 -0.16772912847E+02  0.65066561745E+02  0.00000000000E+00 0.  1.
<scales pt_clust_5="13000.00000" pt_clust_6="13000.00000" pt_clust_7="13000.00000" pt_clust_8="13000.00000" pt_clust_9="62.86753"></scales>
<clustering>
<clus scale="   62.868">  1  9  2 -1</clus>
<clus scale="   76.559">  5  6 -1 -1</clus>
<clus scale="   78.487">  2  5  1 -1</clus>
<clus scale="   90.298">  7  8 -1 -1</clus>
<clus scale="   62.868">  1  5  2 -1</clus>
</clustering>
</event>
<event>
 9    1  0.7835476E-005  0.1575157E+03  0.7546771E-02  0.1192689E+00
         -4   -1    0    0    0  501 -0.00000000000E+00  0.00000000000E+00  0.46997701905E+02  0.46997701905E+02  0.00000000000E+00 0.  1.
         21   -1    0    0  501  502  0.00000000000E+00 -0.00000000000E+00 -0.82714602171E+03  0.82714602171E+03  0.00000000000E+00 0. -1.
        -24    2    1    2    0    0  0.48208772769E+02 -0.89305784887E+02 -0.24730487245E+03  0.27957224970E+03  0.81861675263E+02 0.  0.
         23    2    1    2    0    0 -0.76003205557E+02  0.15048655383E+03 -0.33293930409E+03  0.38367509301E+03  0.89080338191E+02 0.  0.
         13    1    3    3    0    0  0.47816695323E+02 -0.79863744234E+01 -0.79812330553E+02  0.93382153736E+02  0.00000000000E+00 0. -1.
        -14    1    3    3    0    0  0.39207744605E+00 -0.81319410464E+02 -0.16749254190E+03  0.18619009597E+03  0.00000000000E+00 0.  1.
        -11    1    4    4    0    0 -0.51167497155E+02  0.14189196364E+03 -0.21367849876E+03  0.26155294482E+03  0.00000000000E+00 0.  1.
         11    1    4    4    0    0 -0.24835708403E+02  0.85945901936E+01 -0.11926080532E+03  0.12212214819E+03  0.00000000000E+00 0. -1.
         -3    1    1    2    0  502  0.27794432788E+02 -0.61180768947E+02 -0.19990414326E+03  0.21089638090E+03  0.00000000000E+00 0.  1.
<scales pt_clust_5="13000.00000" pt_clust_6="13000.00000" pt_clust_7="13000.00000" pt_clust_8="13000.00000" pt_clust_9="67.19834"></scales>
<clustering>
<clus scale="   67.198">  2  9  1 -1</clus>
<clus scale="   81.862">  5  6 -1 -1</clus>
<clus scale="   89.080">  7  8 -1 -1</clus>
<clus scale="  153.549">  1  5  2 -1</clus>
<clus scale="   67.198">  2  5  1 -1</clus>
</clustering>
</event>
<event>
 9    1  0.7835476E-005  0.1591744E+03  0.7546771E-02  0.1212914E+00
         21   -1    0    0  501  502  0.00000000000E+00  0.00000000000E+00  0.10232410830E+03  0.10232410830E+03  0.00000000000E+00 0. -1.
          3   -1    0    0  502    0 -0.00000000000E+00 -0.00000000000E+00 -0.38628009756E+03  0.38628009756E+03  0.00000000000E+00 0. -1.
         23    2    1    2    0    0  0.27480722618E+02 -0.11420576715E+02 -0.79027859814E+02  0.12442060580E+03  0.91375406056E+02 0.  0.
        -24    2    1    2    0    0 -0.84721044742E+02 -0.11197502935E+03 -0.83887098310E+02  0.18210158204E+03  0.80049224221E+02 0.  0.
         11    1    4    4    0    0 -0.74074708200E+02 -0.10659528352E+03 -0.98710505714E+02  0.16307477059E+03  0.00000000000E+00 0. -1.
        -12    1    4    4    0    0 -0.10646336542E+02 -0.53797458272E+01  0.14823407404E+02  0.19026811451E+02  0.00000000000E+00 0.  1.
        -13    1    3    3    0    0 -0.31024973574E+02 -0.61449231121E+01 -0.87311675257E+01  0.32810704833E+02  0.00000000000E+00 0.  1.
         13    1    3    3    0    0  0.58505696192E+02 -0.52756536025E+01 -0.70296692289E+02  0.91609900964E+02  0.00000000000E+00 0. -1.
          4    1    1    2  501    0  0.57240322124E+02  0.12339560606E+03 -0.12104103114E+03  0.18208201803E+03  0.00000000000E+00 0. -1.
<scales pt_clust_5="13000.00000" pt_clust_6="13000.00000" pt_clust_7="13000.00000" pt_clust_8="13000.00000" pt_clust_9="137.58136"></scales>
<clustering>
<clus scale="   80.049">  5  6 -1 -1</clus>
<clus scale="   91.375">  7  8 -1 -1</clus>
<clus scale="   96.099">  2  7  1 -1</clus>
<clus scale="  137.581">  1  9  2 -1</clus>
<clus scale="  137.581">  1  5  2 -1</clus>
</clustering>
</event>
<event>
 9    1  0.7835476E-005  0.2131165E+03  0.7546771E-02  0.1161474E+00
          1   -1    0    0  502    0 -0.00000000000E+00  0.00000000000E+00  0.11748074431E+04  0.11748074431E+04  0.00000000000E+00 0. -1.
         21   -1    0    0  501  502  0.00000000000E+00 -0.00000000000E+00 -0.73094393841E+02  0.73094393841E+02  0.00000000000E+00 0. -1.
         23    2    1    2    0    0 -0.75311446970E+02  0.44070039237E+02  0.44480439425E+03  0.46217466872E+03  0.90224679918E+02 0.  0.
        -24    2    1    2    0    0  0.20330118674E+02  0.18217022681E+03  0.26783482419E+03  0.33231118892E+03  0.71385768731E+02 0.  0.
         13    1    4    4    0    0  0.12023431943E+01  0.16394063828E+03  0.25444654489E+03  0.30268964753E+03  0.00000000000E+00 0. -1.
        -14    1    4    4    0    0  0.19127775479E+02  0.18229588521E+02  0.13388279292E+02  0.29621541399E+02  0.00000000000E+00 0.  1.
        -13    1    3    3    0    0  0.76147475954E+01  0.40441171131E+02  0.11706743823E+03  0.12408971673E+03  0.00000000000E+00 0.  1.
         13    1    3    3    0    0 -0.82926194565E+02  0.36288681057E+01  0.32773695601E+03  0.33808495200E+03  0.00000000000E+00 0. -1.
          2    1    1    2  501    0  0.54981328296E+02 -0.22624026604E+03  0.38907383079E+03  0.45341597926E+03  0.00000000000E+00 0. -1.
<scales pt_clust_5="13000.00000" pt_clust_6="13000.00000" pt_clust_7="13000.00000" pt_clust_8="13000.00000" pt_clust_9="200.80526"></scales>
<clustering>
<clus scale="   71.386">  5  6 -1 -1</clus>
<clus scale="   90.225">  7  8 -1 -1</clus>
<clus scale="  125.517">  1  7  2 -1</clus>
<clus scale="  200.805">  2  9  1 -1</clus>
<clus scale="  200.805">  2  5  1 -1</clus>
</clustering>
</event>
<event>
 9    1  0.7835476E-005  0.1575273E+03  0.7546771E-02  0.1193059E+00
          1   -1    0    0  502    0 -0.00000000000E+00  0.00000000000E+00  0.28390013447E+03  0.28390013447E+03  0.00000000000E+00 0. -1.
         21   -1    0    0  501  502  0.00000000000E+00 -0.00000000000E+00 -0.26893217747E+03  0.26893217747E+03  0.00000000000E+00 0.  1.
         23    2    1    2    0    0  0.10768298135E+03 -0.49986435176E+02 -0.78015056750E+02  0.16907554224E+03  0.91683813880E+02 0.  0.
        -24    2    1    2    0    0 -0.13931500718E+03  0.24092386862E+02 -0.96479876132E+02  0.18993398095E+03  0.82325186243E+02 0.  0.
         11    1    4    4    0    0 -0.93258088024E+02  0.91702992781E+01 -0.14637619794E+02  0.94844215870E+02  0.00000000000E+00 0. -1.
        -12    1    4    4    0    0 -0.46056919156E+02  0.14922087583E+02 -0.81842256339E+02  0.95089765078E+02  0.00000000000E+00 0.  1.
        -13    1    3    3    0    0  0.45110678071E+02 -0.32625913382E+02 -0.87237242799E+02  0.10348797047E+03  0.00000000000E+00 0.  1.
         13    1    3    3    0    0  0.62572303283E+02 -0.17360521794E+02  0.92221860487E+01  0.65587571769E+02  0.00000000000E+00 0. -1.
          2    1    1    2  501    0  0.31632025827E+02  0.25894048315E+02  0.18946288989E+03  0.19382278875E+03  0.00000000000E+00 0. -1.
<scales pt_clust_5="13000.00000" pt_clust_6="13000.00000" pt_clust_7="13000.00000" pt_clust_8="13000.00000" pt_clust_9="40.87895"></scales>
<clustering>
<clus scale="   40.879">  2  9  1 -1</clus>
<clus scale="   82.325">  5  6 -1 -1</clus>
<clus scale="   91.684">  7  8 -1 -1</clus>
<clus scale="  152.271">  2  5  1 -1</clus>
<clus scale="   40.879">  2  5  1 -1</clus>
</clustering>
</event>
<event>
 9    1  0.7835476E-005  0.1066595E+03  0.7546771E-02  0.1271923E+00
         21   -1    0    0  501  502  0.00000000000E+00  0.00000000000E+00  0.12403940210E+03  0.12403940210E+03  0.00000000000E+00 0. -1.
          1   -1    0    0  502    0 -0.00000000000E+00 -0.00000000000E+00 -0.10263019440E+04  0.10263019440E+04  0.00000000000E+00 0. -1.
        -24    2    1    2    0    0  0.24676056296E+02 -0.47687025365E+02 -0.93946305093E+03  0.94448221840E+03  0.81073279633E+02 0.  0.
         23    2    1    2    0    0  0.15416456117E+02  0.51835156999E+02 -0.43396590261E+02  0.11574526112E+03  0.92677671557E+02 0.  0.
         11    1    3    3    0    0  0.41192214791E+02 -0.81167267893E+01 -0.23540185731E+03  0.23911652858E+03  0.00000000000E+00 0. -1.
        -12    1    3    3    0    0 -0.16516158495E+02 -0.39570298576E+02 -0.70406119362E+03  0.70536568982E+03  0.00000000000E+00 0.  1.
        -11    1    4    4    0    0 -0.32770630503E+02  0.33661262873E+02  0.21017459121E+01  0.47025654463E+02  0.00000000000E+00 0.  1.
         11    1    4    4    0    0  0.48187086620E+02  0.18173894126E+02 -0.45498336173E+02  0.68719606657E+02  0.00000000000E+00 0. -1.
          2    1    1    2  501    0 -0.40092512413E+02 -0.41481316334E+01  0.80597099260E+02  0.90113866617E+02  0.00000000000E+00 0. -1.
<scales pt_clust_5="13000.00000" pt_clust_6="13000.00000" pt_clust_7="13000.00000" pt_clust_8="13000.00000" pt_clust_9="40.30653"></scales>
<clustering>
<clus scale="   40.307">  1  9  2 -1</clus>
<clus scale="   81.073">  5  6 -1 -1</clus>
<clus scale="   92.678">  7  8 -1 -1</clus>
<clus scale="   96.747">  2  5  1 -1</clus>
<clus scale="   40.307">  1  5  2 -1</clus>
</clustering>
</event>
<event>
 9    1  0.7835476E-005  0.1019901E+03  0.7546771E-02  0.1276433E+00
          3   -1    0    0  502    0 -0.00000000000E+00  0.00000000000E+00  0.18847443835E+03  0.18847443835E+03  0.00000000000E+00 0. -1.
         21   -1    0    0  501  502  0.00000000000E+00 -0.00000000000E+00 -0.11145364483E+03  0.11145364483E+03  0.00000000000E+00 0. -1.
         23    2    1    2    0    0 -0.20435703294E+02 -0.68313854165E+02  0.11117459418E+03  0.15639963445E+03  0.83765473944E+02 0.  0.
        -24    2    1    2    0    0 -0.93592591317E+01  0.26784151638E+02 -0.27140419888E+02  0.91937330435E+02  0.83131725745E+02 0.  0.
         11    1    4    4    0    0 -0.16767277025E+02 -0.27949903504E+02 -0.92977769342E+01  0.33893765513E+02  0.00000000000E+00 0. -1.
        -12    1    4    4    0    0  0.74080178930E+01  0.54734055142E+02 -0.17842642954E+02  0.58043564923E+02  0.00000000000E+00 0.  1.
        -11    1    3    3    0    0  0.32224296155E+02 -0.34128274826E+02  0.42044550780E+02  0.63014987547E+02  0.00000000000E+00 0. -1.
         11    1    3    3    0    0 -0.52659999449E+02 -0.34185579339E+02  0.69130043398E+02  0.93384646902E+02  0.00000000000E+00 0.  1.
          4    1    1    2  501    0  0.29794962426E+02  0.41529702527E+02 -0.70133807702E+01  0.51591118303E+02  0.00000000000E+00 0. -1.
<scales pt_clust_5="13000.00000" pt_clust_6="13000.00000" pt_clust_7="13000.00000" pt_clust_8="13000.00000" pt_clust_9="51.11219"></scales>
<clustering>
<clus scale="   51.112">  2  9  1 -1</clus>
<clus scale="   83.132">  5  6 -1 -1</clus>
<clus scale="   83.765">  7  8 -1 -1</clus>
<clus scale="  101.470">  2  5  1 -1</clus>
<clus scale="   51.112">  2  5  1 -1</clus>
</clustering>
</event>
<event>
 9    1  0.7835476E-005  0.1218797E+03  0.7546771E-02  0.1259170E+00
          1   -1    0    0  502    0 -0.00000000000E+00  0.00000000000E+00  0.37200448128E+03  0.37200448128E+03  0.00000000000E+00 0. -1.
         21   -1    0    0  501  502  0.00000000000E+00 -0.00000000000E+00 -0.64326577906E+02  0.64326577906E+02  0.00000000000E+00 0.  1.
        -24    2    1    2    0    0  0.11538918777E+02 -0.22531722935E+02  0.24739132135E+03  0.26140021732E+03  0.80540564653E+02 0.  0.
         23    2    1    2    0    0 -0.12680896234E+02 -0.11473003479E+02  0.69293589752E+02  0.13973493700E+03  0.12013249394E+03 0.  0.
         11    1    3    3    0    0  0.22276662856E+02 -0.50070475012E+02  0.16553423602E+03  0.17436996722E+03  0.00000000000E+00 0. -1.
        -12    1    3    3    0    0 -0.10737744079E+02  0.27538752077E+02  0.81857085328E+02  0.87030250099E+02  0.00000000000E+00 0.  1.
        -13    1    4    4    0    0  0.28965758814E+02  0.33112391785E+02 -0.42273152367E+01  0.44196333190E+02  0.00000000000E+00 0.  1.
         13    1    4    4    0    0 -0.41646655048E+02 -0.44585395264E+02  0.73520904988E+02  0.95538603809E+02  0.00000000000E+00 0. -1.
          2    1    1    2  501    0  0.11419774571E+01  0.34004726414E+02 -0.90070077236E+01  0.35195904863E+02  0.00000000000E+00 0. -1.
<scales pt_clust_5="13000.00000" pt_clust_6="13000.00000" pt_clust_7="13000.00000" pt_clust_8="13000.00000" pt_clust_9="34.02390"></scales>
<clustering>
<clus scale="   34.024">  2  9  1 -1</clus>
<clus scale="   80.541">  5  6 -1 -1</clus>
<clus scale="   83.124">  1  5  2 -1</clus>
<clus scale="  120.132">  7  8 -1 -1</clus>
<clus scale="   34.024">  2  5  1 -1</clus>
</clustering>
</event>
<event>
 9    1  0.7835476E-005  0.1258225E+03  0.7546771E-02  0.1234359E+00
         21   -1    0    0  501  502  0.00000000000E+00  0.00000000000E+00  0.45237816394E+03  0.45237816394E+03  0.00000000000E+00 0.  1.
          1   -1    0    0  502    0 -0.00000000000E+00 -0.00000000000E+00 -0.23432224482E+03  0.23432224482E+03  0.00000000000E+00 0. -1.
         23    2    1    2    0    0  0.14167717272E+02 -0.83255060646E+02  0.22601861042E+02  0.12639716497E+03  0.91286745224E+02 0.  0.
        -24    2    1    2    0    0  0.93433785528E+02  0.89098472273E+01  0.34176610653E+03  0.36405720005E+03  0.83212473097E+02 0.  0.
         13    1    4    4    0    0  0.17291575731E+02  0.23116158574E+02  0.25738085069E+02  0.38675630590E+02  0.00000000000E+00 0. -1.
        -14    1    4    4    0    0  0.76142209797E+02 -0.14206311347E+02  0.31602802146E+03  0.32538156946E+03  0.00000000000E+00 0.  1.
        -13    1    3    3    0    0 -0.72047401387E+01 -0.92291260466E+02 -0.19800706827E+01  0.92593227175E+02  0.00000000000E+00 0. -1.
         13    1    3    3    0    0  0.21372457411E+02  0.90361998204E+01  0.24581931725E+02  0.33803937793E+02  0.00000000000E+00 0.  1.
          2    1    1    2  501    0 -0.10760150280E+03  0.74345213418E+02 -0.14631204845E+03  0.19624604374E+03  0.00000000000E+00 0. -1.
<scales pt_clust_5="13000.00000" pt_clust_6="13000.00000" pt_clust_7="13000.00000" pt_clust_8="13000.00000" pt_clust_9="94.37691"></scales>
<clustering>
<clus scale="   83.212">  5  6 -1 -1</clus>
<clus scale="   91.287">  7  8 -1 -1</clus>
<clus scale="  124.360">  2  7  1 -1</clus>
<clus scale="   94.377">  1  9  2 -1</clus>
<clus scale="   94.377">  1  5  2 -1</clus>
</clustering>
</event>
<event>
 9    1  0.7835476E-005  0.1496940E+03  0.7546771E-02  0.1216963E+00
         21   -1    0    0  501  502  0.00000000000E+00  0.00000000000E+00  0.12855589794E+03  0.12855589794E+03  0.00000000000E+00 0. -1.
          1   -1    0    0  502    0 -0.00000000000E+00 -0.00000000000E+00 -0.37682243690E+03  0.37682243690E+03  0.00000000000E+00 0. -1.
         23    2    1    2    0    0 -0.75302434151E+01  0.54776720891E+02 -0.67554024612E+01  0.10625976558E+03  0.90489273406E+02 0.  0.
        -24    2    1    2    0    0  0.11515348180E+03 -0.10509825824E+03 -0.21480099715E+03  0.27734644558E+03  0.80471201308E+02 0.  0.
         13    1    4    4    0    0  0.12730520897E+03 -0.96255602630E+02 -0.20307153045E+03  0.25828241084E+03  0.00000000000E+00 0. -1.
        -14    1    4    4    0    0 -0.12151727168E+02 -0.88426556132E+01 -0.11729466700E+02  0.19064034739E+02  0.00000000000E+00 0.  1.
        -11    1    3    3    0    0 -0.15537361719E+02  0.77323537387E+02  0.60887861798E+01  0.79103807496E+02  0.00000000000E+00 0. -1.
         11    1    3    3    0    0  0.80071183042E+01 -0.22546816497E+02 -0.12844188641E+02  0.27155958085E+02  0.00000000000E+00 0.  1.
          2    1    1    2  501    0 -0.10762323839E+03  0.50321537352E+02 -0.26710139350E+02  0.12177212368E+03  0.00000000000E+00 0. -1.
<scales pt_clust_5="13000.00000" pt_clust_6="13000.00000" pt_clust_7="13000.00000" pt_clust_8="13000.00000" pt_clust_9="126.22472"></scales>
<clustering>
<clus scale="   80.471">  5  6 -1 -1</clus>
<clus scale="   90.489">  7  8 -1 -1</clus>
<clus scale="  106.045">  2  7  1 -1</clus>
<clus scale="  126.225">  1  9  2 -1</clus>
<clus scale="  126.225">  1  5  2 -1</clus>
</clustering>
</event>
<event>
 9    1  0.7835476E-005  0.9471161E+02  0.7546771E-02  0.1299268E+00
          1   -1    0    0  502    0 -0.00000000000E+00  0.00000000000E+00  0.25166028117E+03  0.25166028117E+03  0.00000000000E+00 0. -1.
         21   -1    0    0  501  502  0.00000000000E+00 -0.00000000000E+00 -0.12990452277E+03  0.12990452277E+03  0.00000000000E+00 0. -1.
        -24    2    1    2    0    0  0.16256879564E+01 -0.13214055304E+02  0.12715304646E+03  0.15049187292E+03  0.79389246570E+02 0.  0.
         23    2    1    2    0    0 -0.77337667782E+02  0.51005776985E+01  0.56522788289E+02  0.13292901494E+03  0.92022642132E+02 0.  0.
         13    1    3    3    0    0  0.24916139452E+01 -0.42540320930E+02  0.10622463266E+03  0.11445330764E+03  0.00000000000E+00 0. -1.
        -14    1    3    3    0    0 -0.86592598875E+00  0.29326265626E+02  0.20928413803E+02  0.36038565283E+02  0.00000000000E+00 0.  1.
        -11    1    4    4    0    0 -0.47911803266E+02  0.43786825807E+02  0.53701137245E+02  0.84241552383E+02  0.00000000000E+00 0. -1.
         11    1    4    4    0    0 -0.29425864516E+02 -0.38686248109E+02  0.28216510448E+01  0.48687462553E+02  0.00000000000E+00 0.  1.
          2    1    1    2  501    0  0.75711979826E+02  0.81134776056E+01 -0.61920076351E+02  0.98143916079E+02  0.00000000000E+00 0. -1.
<scales pt_clust_5="13000.00000" pt_clust_6="13000.00000" pt_clust_7="13000.00000" pt_clust_8="13000.00000" pt_clust_9="76.14547"></scales>
<clustering>
<clus scale="   76.145">  2  9  1 -1</clus>
<clus scale="   79.389">  5  6 -1 -1</clus>
<clus scale="   82.491">  1  5  2 -1</clus>
<clus scale="   92.023">  7  8 -1 -1</clus>
<clus scale="   76.145">  2  5  1 -1</clus>
</clustering>
</event>
<event>
 9    1  0.7835476E-005  0.1218428E+03  0.7546771E-02  0.1244456E+00
          1   -1    0    0  502    0 -0.00000000000E+00  0.00000000000E+00  0.44927117423E+03  0.44927117423E+03  0.00000000000E+00 0. -1.
         21   -1    0    0  501  502  0.00000000000E+00 -0.00000000000E+00 -0.41257170071E+02  0.41257170071E+02  0.00000000000E+00 0. -1.
         23    2    1    2    0    0 -0.40665883805E+02  0.50909918935E+02  0.16671529338E+03  0.20072425800E+03  0.90833390067E+02 0.  0.
        -24    2    1    2    0    0  0.55996240354E+02 -0.78613145698E+02  0.21844091548E+03  0.25075325518E+03  0.76453618753E+02 0.  0.
         11    1    4    4    0    0  0.20705233666E+02 -0.69786611477E+02  0.82473327138E+02  0.11000330691E+03  0.00000000000E+00 0. -1.
        -12    1    4    4    0    0  0.35291006688E+02 -0.88265342205E+01  0.13596758834E+03  0.14074994827E+03  0.00000000000E+00 0.  1.
        -13    1    3    3    0    0  0.24631677444E+02  0.37904182166E+02  0.67992274196E+02  0.81648000035E+02  0.00000000000E+00 0.  1.
         13    1    3    3    0    0 -0.65297561249E+02  0.13005736769E+02  0.98723019184E+02  0.11907625796E+03  0.00000000000E+00 0. -1.
          2    1    1    2  501    0 -0.15330356549E+02  0.27703226763E+02  0.22857795306E+02  0.39050831121E+02  0.00000000000E+00 0. -1.
<scales pt_clust_5="13000.00000" pt_clust_6="13000.00000" pt_clust_7="13000.00000" pt_clust_8="13000.00000" pt_clust_9="31.66210"></scales>
<clustering>
<clus scale="   31.662">  2  9  1 -1</clus>
<clus scale="   76.454">  5  6 -1 -1</clus>
<clus scale="   90.833">  7  8 -1 -1</clus>
<clus scale="  111.535">  2  5  1 -1</clus>
<clus scale="   31.662">  2  5  1 -1</clus>
</clustering>
</event>
<event>
 9    1  0.7835476E-005  0.1453271E+03  0.7546771E-02  0.1225599E+00
         21   -1    0    0  501  502  0.00000000000E+00  0.00000000000E+00  0.36373400236E+03  0.36373400236E+03  0.00000000000E+00 0. -1.
         -4   -1    0    0    0  501 -0.00000000000E+00 -0.00000000000E+00 -0.15161710724E+03  0.15161710724E+03  0.00000000000E+00 0.  1.
         23    2    1    2    0    0  0.27652901575E+02  0.15128127113E+02  0.14663372027E+03  0.17565447684E+03  0.91430323848E+02 0.  0.
        -24    2    1    2    0    0  0.85882168051E+02 -0.65587171948E+02 -0.73332536385E+02  0.15340082249E+03  0.80478118359E+02 0.  0.
         13    1    4    4    0    0  0.69443330704E+02 -0.84397298862E+02 -0.54583069530E+02  0.12216624621E+03  0.00000000000E+00 0. -1.
        -14    1    4    4    0    0  0.16438837347E+02  0.18810126914E+02 -0.18749466855E+02  0.31234576277E+02  0.00000000000E+00 0.  1.
        -13    1    3    3    0    0  0.51559965046E+02 -0.15454679582E+02  0.59321146753E+02  0.80101657715E+02  0.00000000000E+00 0. -1.
         13    1    3    3    0    0 -0.23907063470E+02  0.30582806695E+02  0.87312573515E+02  0.95552819126E+02  0.00000000000E+00 0.  1.
         -3    1    1    2    0  502 -0.11353506963E+03  0.50459044835E+02  0.13881571124E+03  0.18629581028E+03  0.00000000000E+00 0.  1.
<scales pt_clust_5="13000.00000" pt_clust_6="13000.00000" pt_clust_7="13000.00000" pt_clust_8="13000.00000" pt_clust_9="121.00921"></scales>
<clustering>
<clus scale="   80.478">  5  6 -1 -1</clus>
<clus scale="   91.430">  7  8 -1 -1</clus>
<clus scale="   96.711">  2  7  1 -1</clus>
<clus scale="  121.009">  1  9  2 -1</clus>
<clus scale="  121.009">  1  5  2 -1</clus>
</clustering>
</event>
<event>
 9    1  0.7835476E-005  0.1014074E+03  0.7546771E-02  0.1280371E+00
         21   -1    0    0  501  502  0.00000000000E+00  0.00000000000E+00  0.89958673926E+02  0.89958673926E+02  0.00000000000E+00 0. -1.
          1   -1    0    0  502    0 -0.00000000000E+00 -0.00000000000E+00 -0.34907988252E+03  0.34907988252E+03  0.00000000000E+00 0. -1.
        -24    2    1    2    0    0 -0.42982320047E+02  0.42125561477E+02 -0.23310599621E+03  0.25561457273E+03  0.85897389694E+02 0.  0.
         23    2    1    2    0    0  0.14154201612E+02  0.18079662428E+02 -0.55994894036E+02  0.11024946144E+03  0.92153675851E+02 0.  0.
         11    1    3    3    0    0 -0.23485711599E+02  0.67219306259E+02 -0.18202009128E+03  0.19545159864E+03  0.00000000000E+00 0. -1.
        -12    1    3    3    0    0 -0.19496608448E+02 -0.25093744782E+02 -0.51085904930E+02  0.60162974084E+02  0.00000000000E+00 0.  1.
        -11    1    4    4    0    0  0.10592220361E+02 -0.32701932782E+02  0.26684083165E+00  0.34375612633E+02  0.00000000000E+00 0.  1.
         11    1    4    4    0    0  0.35619812511E+01  0.50781595210E+02 -0.56261734867E+02  0.75873848807E+02  0.00000000000E+00 0. -1.
          2    1    1    2  501    0  0.28828118434E+02 -0.60205223905E+02  0.29979681654E+02  0.73174522274E+02  0.00000000000E+00 0. -1.
<scales pt_clust_5="13000.00000" pt_clust_6="13000.00000" pt_clust_7="13000.00000" pt_clust_8="13000.00000" pt_clust_9="66.75125"></scales>
<clustering>
<clus scale="   66.751">  1  9  2 -1</clus>
<clus scale="   85.897">  5  6 -1 -1</clus>
<clus scale="   92.154">  7  8 -1 -1</clus>
<clus scale="   95.758">  2  5  1 -1</clus>
<clus scale="   66.751">  1  5  2 -1</clus>
</clustering>
</event>
<event>
 9    1  0.7835476E-005  0.1032712E+03  0.7546771E-02  0.1280184E+00
         -2   -1    0    0    0  501 -0.00000000000E+00  0.00000000000E+00  0.32336312345E+03  0.32336312345E+03  0.00000000000E+00 0.  1.
         21   -1    0    0  501  502  0.00000000000E+00 -0.00000000000E+00 -0.68157278735E+02  0.68157278735E+02  0.00000000000E+00 0.  1.
        -24    2    1    2    0    0  0.45307451891E+02  0.12777289319E+02  0.20478679063E+03  0.22521121729E+03  0.81033563773E+02 0.  0.
         23    2    1    2    0    0 -0.13667866077E+02  0.50690658021E+01 -0.95375391057E+01  0.96206768042E+02  0.94616444521E+02 0.  0.
         11    1    3    3    0    0 -0.22139932312E+02  0.73159894241E+01  0.31581068245E+02  0.39256390251E+02  0.00000000000E+00 0. -1.
        -12    1    3    3    0    0  0.67447384203E+02  0.54612998952E+01  0.17320572238E+03  0.18595482704E+03  0.00000000000E+00 0.  1.
        -11    1    4    4    0    0  0.15573248296E+02  0.35946754327E+02 -0.29682737185E+02  0.49150382460E+02  0.00000000000E+00 0.  1.
         11    1    4    4    0    0 -0.29241114373E+02 -0.30877688525E+02  0.20145198079E+02  0.47056385582E+02  0.00000000000E+00 0. -1.
         -1    1    1    2    0  502 -0.31639585814E+02 -0.17846355121E+02  0.59956593195E+02  0.70102416857E+02  0.00000000000E+00 0.  1.
<scales pt_clust_5="13000.00000" pt_clust_6="13000.00000" pt_clust_7="13000.00000" pt_clust_8="13000.00000" pt_clust_9="36.32571"></scales>
<clustering>
<clus scale="   36.326">  2  9  1 -1</clus>
<clus scale="   81.034">  5  6 -1 -1</clus>
<clus scale="   90.990">  1  5  2 -1</clus>
<clus scale="   94.616">  7  8 -1 -1</clus>
<clus scale="   36.326">  2  5  1 -1</clus>
</clustering>
</event>
<event>
 9    1  0.7835476E-005  0.1470224E+03  0.7546771E-02  0.1206304E+00
          1   -1    0    0  502    0 -0.00000000000E+00  0.00000000000E+00  0.10767993636E+04  0.10767993636E+04  0.00000000000E+00 0. -1.
         21   -1    0    0  501  502  0.00000000000E+00 -0.00000000000E+00 -0.41432158775E+02  0.41432158775E+02  0.00000000000E+00 0.  1.
        -24    2    1    2    0    0  0.98568772557E+02 -0.72646951467E+02  0.72590649414E+03  0.74044653839E+03  0.79545304687E+02 0.  0.
         23    2    1    2    0    0 -0.10894152087E+03  0.15552217197E+01  0.17368872919E+03  0.22417619874E+03  0.90645020539E+02 0.  0.
         11    1    3    3    0    0  0.91510862368E+02 -0.80031297692E+02  0.71589427658E+03  0.72614314138E+03  0.00000000000E+00 0. -1.
        -12    1    3    3    0    0  0.70579101890E+01  0.73843462253E+01  0.10012217564E+02  0.14303397007E+02  0.00000000000E+00 0.  1.
        -11    1    4    4    0    0 -0.53302450553E+02  0.25025026688E+02  0.25524331553E+02  0.64178615574E+02  0.00000000000E+00 0.  1.
         11    1    4    4    0    0 -0.55639070321E+02 -0.23469804969E+02  0.14816439764E+03  0.15999758317E+03  0.00000000000E+00 0. -1.
          2    1    1    2  501    0  0.10372748317E+02  0.71091729747E+02  0.13577198150E+03  0.15360878525E+03  0.00000000000E+00 0. -1.
<scales pt_clust_5="13000.00000" pt_clust_6="13000.00000" pt_clust_7="13000.00000" pt_clust_8="13000.00000" pt_clust_9="71.84447"></scales>
<clustering>
<clus scale="   71.844">  2  9  1 -1</clus>
<clus scale="   79.545">  5  6 -1 -1</clus>
<clus scale="   90.645">  7  8 -1 -1</clus>
<clus scale="  140.451">  1  5  2 -1</clus>
<clus scale="   71.844">  2  5  1 -1</clus>
</clustering>
</event>
<event>
 9    1  0.7835476E-005  0.1162953E+03  0.7546771E-02  0.1253117E+00
         21   -1    0    0  501  502  0.00000000000E+00  0.00000000000E+00  0.83055279971E+02  0.83055279971E+02  0.00000000000E+00 0.  1.
          1   -1    0    0  502    0 -0.00000000000E+00 -0.00000000000E+00 -0.78209538836E+03  0.78209538836E+03  0.00000000000E+00 0. -1.
        -24    2    1    2    0    0  0.24550688079E+02 -0.67231818787E+02 -0.60961645444E+03  0.61901395174E+03  0.80144851245E+02 0.  0.
         23    2    1    2    0    0  0.49727500821E+02  0.99141278540E+02 -0.32375618515E+02  0.14719258430E+03  0.91190233851E+02 0.  0.
         13    1    3    3    0    0  0.10583236144E+00 -0.76232049335E+02 -0.35642971340E+03  0.36449070927E+03  0.00000000000E+00 0. -1.
        -14    1    3    3    0    0  0.24444855718E+02  0.90002305481E+01 -0.25318674104E+03  0.25452324247E+03  0.00000000000E+00 0.  1.
        -11    1    4    4    0    0  0.39941213161E+02 -0.33754722105E+01 -0.34889994544E+01  0.40235151778E+02  0.00000000000E+00 0.  1.
         11    1    4    4    0    0  0.97862876603E+01  0.10251675075E+03 -0.28886619061E+02  0.10695743252E+03  0.00000000000E+00 0. -1.
          2    1    1    2  501    0 -0.74278188900E+02 -0.31909459754E+02 -0.57048035431E+02  0.98944132290E+02  0.00000000000E+00 0. -1.
<scales pt_clust_5="13000.00000" pt_clust_6="13000.00000" pt_clust_7="13000.00000" pt_clust_8="13000.00000" pt_clust_9="80.84221"></scales>
<clustering>
<clus scale="   80.145">  5  6 -1 -1</clus>
<clus scale="   80.842">  1  9  2 -1</clus>
<clus scale="   91.190">  7  8 -1 -1</clus>
<clus scale="  107.852">  2  5  1 -1</clus>
<clus scale="   80.842">  1  5  2 -1</clus>
</clustering>
</event>
<event>
 9    1  0.7835476E-005  0.1173110E+03  0.7546771E-02  0.1256269E+00
         21   -1    0    0  501  502  0.00000000000E+00  0.00000000000E+00  0.23520973745E+03  0.23520973745E+03  0.00000000000E+00 0.  1.
          1   -1    0    0  502    0 -0.00000000000E+00 -0.00000000000E+00 -0.11943879990E+03  0.11943879990E+03  0.00000000000E+00 0. -1.
         23    2    1    2    0    0 -0.73802936863E+01  0.29775286105E+02 -0.40164363259E+02  0.10391314422E+03  0.90794983718E+02 0.  0.
        -24    2    1    2    0    0  0.27110355789E+02 -0.55897903408E+02  0.44422030826E+02  0.13451630748E+03  0.11073289105E+03 0.  0.
         13    1    4    4    0    0  0.60201144912E+02 -0.63935428716E+02  0.48332720496E+02  0.10023955688E+03  0.00000000000E+00 0. -1.
        -14    1    4    4    0    0 -0.33090789123E+02  0.80375253080E+01 -0.39106896699E+01  0.34276750598E+02  0.00000000000E+00 0.  1.
        -13    1    3    3    0    0  0.11597480966E+02  0.22501105041E+02  0.25045109666E+02  0.35609813409E+02  0.00000000000E+00 0.  1.
         13    1    3    3    0    0 -0.18977774652E+02  0.72741810640E+01 -0.65209472925E+02  0.68303330813E+02  0.00000000000E+00 0. -1.
          2    1    1    2  501    0 -0.19730062103E+02  0.26122617303E+02  0.11151326999E+03  0.11621908565E+03  0.00000000000E+00 0. -1.
<scales pt_clust_5="13000.00000" pt_clust_6="13000.00000" pt_clust_7="13000.00000" pt_clust_8="13000.00000" pt_clust_9="32.73632"></scales>
<clustering>
<clus scale="   32.736">  1  9  2 -1</clus>
<clus scale="   90.795">  7  8 -1 -1</clus>
<clus scale="   98.711">  2  7  1 -1</clus>
<clus scale="  110.733">  5  6 -1 -1</clus>
<clus scale="   32.736">  1  5  2 -1</clus>
</clustering>
</event>
<event>
 9    1  0.7835476E-005  0.1060741E+03  0.7546771E-02  0.1272225E+00
         21   -1    0    0  501  502  0.00000000000E+00  0.00000000000E+00  0.25025592657E+03  0.25025592657E+03  0.00000000000E+00 0.  1.
          3   -1    0    0  502    0 -0.00000000000E+00 -0.00000000000E+00 -0.62214206777E+02  0.62214206777E+02  0.00000000000E+00 0. -1.
         23    2    1    2    0    0  0.94637937101E+01 -0.58006818012E+02  0.47980932217E+02  0.11760479804E+03  0.89857466787E+02 0.  0.
        -24    2    1    2    0    0  0.25639942182E+02  0.53501677808E+02  0.95182496464E+02  0.13771089913E+03  0.79904617787E+02 0.  0.
         11    1    4    4    0    0  0.20985335803E+02 -0.10108440203E+02  0.19113557294E+00  0.23293806364E+02  0.00000000000E+00 0. -1.
        -12    1    4    4    0    0  0.46546063790E+01  0.63610118011E+02  0.94991360891E+02  0.11441709277E+03  0.00000000000E+00 0.  1.
        -11    1    3    3    0    0 -0.37767670265E+02 -0.10684517950E+02  0.26581939286E+02  0.47404170041E+02  0.00000000000E+00 0. -1.
         11    1    3    3    0    0  0.47231463975E+02 -0.47322300062E+02  0.21398992931E+02  0.70200627995E+02  0.00000000000E+00 0.  1.
          4    1    1    2  501    0 -0.35103735892E+02  0.45051402038E+01  0.44878291117E+02  0.57154436183E+02  0.00000000000E+00 0. -1.
<scales pt_clust_5="13000.00000" pt_clust_6="13000.00000" pt_clust_7="13000.00000" pt_clust_8="13000.00000" pt_clust_9="35.39165"></scales>
<clustering>
<clus scale="   35.392">  1  9  2 -1</clus>
<clus scale="   79.905">  5  6 -1 -1</clus>
<clus scale="   89.857">  7  8 -1 -1</clus>
<clus scale="   97.786">  1  5  2 -1</clus>
<clus scale="   35.392">  1  5  2 -1</clus>
</clustering>
</event>
<event>
 9    1  0.1206655E-004  0.3783841E+03  0.7546771E-02  0.1051781E+00
         21   -1    0    0  501  502  0.00000000000E+00  0.00000000000E+00  0.10946682926E+03  0.10946682926E+03  0.00000000000E+00 0.  1.
         -2   -1    0    0    0  501 -0.00000000000E+00 -0.00000000000E+00 -0.18991101393E+04  0.18991101393E+04  0.00000000000E+00 0.  1.
         23    2    1    2    0    0 -0.26109650493E+03 -0.20837019636E+03 -0.58180685203E+03  0.67728329790E+03  0.92865111491E+02 0.  0.
        -24    2    1    2    0    0  0.30149912681E+03  0.27442190673E+03 -0.67418913033E+03  0.79205840602E+03  0.81341433033E+02 0.  0.
         11    1    4    4    0    0  0.26272631119E+02  0.15323945590E+02 -0.19643297339E+02  0.36206816826E+02  0.00000000000E+00 0. -1.
        -12    1    4    4    0    0  0.27522649569E+03  0.25909796114E+03 -0.65454583299E+03  0.75585158919E+03  0.00000000000E+00 0.  1.
        -13    1    3    3    0    0 -0.24804032733E+03 -0.15754695734E+03 -0.48152099963E+03  0.56409885732E+03  0.00000000000E+00 0.  1.
         13    1    3    3    0    0 -0.13056177608E+02 -0.50823239029E+02 -0.10028585240E+03  0.11318444058E+03  0.00000000000E+00 0. -1.
         -1    1    1    2    0  502 -0.40402621878E+02 -0.66051710362E+02 -0.53364732767E+03  0.53923526464E+03  0.00000000000E+00 0.  1.
<scales pt_clust_5="13000.00000" pt_clust_6="13000.00000" pt_clust_7="13000.00000" pt_clust_8="13000.00000" pt_clust_9="77.42872"></scales>
<clustering>
<clus scale="   77.429">  1  9  2 -1</clus>
<clus scale="   81.341">  5  6 -1 -1</clus>
<clus scale="   92.865">  7  8 -1 -1</clus>
<clus scale="  375.722">  1  5  2 -1</clus>
<clus scale="   77.429">  1  5  2 -1</clus>
</clustering>
</event>
<event>
 9    1  0.7835476E-005  0.1270820E+03  0.7546771E-02  0.1242811E+00
         21   -1    0    0  501  502  0.00000000000E+00  0.00000000000E+00  0.17963687204E+03  0.17963687204E+03  0.00000000000E+00 0.  1.
         -2   -1    0    0    0  501 -0.00000000000E+00 -0.00000000000E+00 -0.23464671284E+03  0.23464671284E+03  0.00000000000E+00 0.  1.
         23    2    1    2    0    0 -0.39418848118E+02 -0.25825307868E+02 -0.13072635723E+03  0.16557856229E+03  0.90033814218E+02 0.  0.
        -24    2    1    2    0    0 -0.64273209707E+02 -0.47127354780E+02  0.14999796692E+02  0.10813242960E+03  0.71523390416E+02 0.  0.
         13    1    4    4    0    0 -0.17222735473E+02  0.14271088389E+02  0.20824120906E+02  0.30560278017E+02  0.00000000000E+00 0. -1.
        -14    1    4    4    0    0 -0.47050474234E+02 -0.61398443169E+02 -0.58243242140E+01  0.77572151587E+02  0.00000000000E+00 0.  1.
        -11    1    3    3    0    0 -0.45735001397E+02 -0.50535790164E+02 -0.11979990710E+03  0.13783168787E+03  0.00000000000E+00 0.  1.
         11    1    3    3    0    0  0.63161532790E+01  0.24710482296E+02 -0.10926450124E+02  0.27746874416E+02  0.00000000000E+00 0. -1.
         -1    1    1    2    0  502  0.10369205783E+03  0.72952662647E+02  0.60716719728E+02  0.14057259298E+03  0.00000000000E+00 0.  1.
<scales pt_clust_5="13000.00000" pt_clust_6="13000.00000" pt_clust_7="13000.00000" pt_clust_8="13000.00000" pt_clust_9="105.04404"></scales>
<clustering>
<clus scale="   71.523">  5  6 -1 -1</clus>
<clus scale="   90.034">  7  8 -1 -1</clus>
<clus scale="  101.621">  2  7  1 -1</clus>
<clus scale="  105.044">  1  9  2 -1</clus>
<clus scale="  105.044">  1  5  2 -1</clus>
</clustering>
</event>
<event>
 9    1  0.7835476E-005  0.3296566E+03  0.7546771E-02  0.1071605E+00
         21   -1    0    0  501  502  0.00000000000E+00  0.00000000000E+00  0.40896619181E+03  0.40896619181E+03  0.00000000000E+00 0. -1.
          1   -1    0    0  502    0 -0.00000000000E+00 -0.00000000000E+00 -0.58975832961E+03  0.58975832961E+03  0.00000000000E+00 0. -1.
         23    2    1    2    0    0 -0.36514943471E+02 -0.27862002292E+03 -0.22931863657E+03  0.37374618756E+03  0.90203754728E+02 0.  0.
        -24    2    1    2    0    0 -0.33803675249E+02  0.43883859907E+03  0.19626667555E+02  0.44763713582E+03  0.79194663896E+02 0.  0.
         11    1    4    4    0    0  0.67343162255E+01  0.34401244417E+03  0.15404747955E+02  0.34442302336E+03  0.00000000000E+00 0. -1.
        -12    1    4    4    0    0 -0.40537991474E+02  0.94826154898E+02  0.42219195997E+01  0.10321411246E+03  0.00000000000E+00 0.  1.
        -13    1    3    3    0    0  0.17390820287E+02 -0.19376977763E+03 -0.15449004739E+03  0.24842774019E+03  0.00000000000E+00 0.  1.
         13    1    3    3    0    0 -0.53905763758E+02 -0.84850245290E+02 -0.74828589182E+02  0.12531844737E+03  0.00000000000E+00 0. -1.
          2    1    1    2  501    0  0.70318618720E+02 -0.16021857615E+03  0.28899831208E+02  0.17734119805E+03  0.00000000000E+00 0. -1.
<scales pt_clust_5="13000.00000" pt_clust_6="13000.00000" pt_clust_7="13000.00000" pt_clust_8="13000.00000" pt_clust_9="174.97057"></scales>
<clustering>
<clus scale="   79.195">  5  6 -1 -1</clus>
<clus scale="   90.204">  7  8 -1 -1</clus>
<clus scale="  174.971">  1  9  2 -1</clus>
<clus scale="  326.816">  1  5  2 -1</clus>
<clus scale="  174.971">  1  5  2 -1</clus>
</clustering>
</event>
<event>
 9    1  0.7835476E-005  0.1158221E+03  0.7546771E-02  0.1253975E+00
         21   -1    0    0  501  502  0.00000000000E+00  0.00000000000E+00  0.21252175070E+03  0.21252175070E+03  0.00000000000E+00 0.  1.
          1   -1    0    0  502    0 -0.00000000000E+00 -0.00000000000E+00 -0.90589118133E+02  0.90589118133E+02  0.00000000000E+00 0. -1.
         23    2    1    2    0    0 -0.35991339070E+01 -0.53943598469E+02  0.42474345627E+02  0.11570378353E+03  0.93061430815E+02 0.  0.
        -24    2    1    2    0    0  0.43144996139E+02  0.76740861140E+02  0.39655155654E+02  0.12684406305E+03  0.82257124313E+02 0.  0.
         11    1    4    4    0    0  0.13130370375E+02  0.28982151001E+02 -0.25419568498E+02  0.40725006636E+02  0.00000000000E+00 0. -1.
        -12    1    4    4    0    0  0.30014625763E+02  0.47758710140E+02  0.65074724153E+02  0.86119056413E+02  0.00000000000E+00 0.  1.
        -13    1    3    3    0    0  0.23381963343E+02  0.73397728168E+01 -0.13898441944E+02  0.28173660807E+02  0.00000000000E+00 0. -1.
         13    1    3    3    0    0 -0.26981097250E+02 -0.61283371286E+02  0.56372787571E+02  0.87530122720E+02  0.00000000000E+00 0.  1.
          2    1    1    2  501    0 -0.39545862232E+02 -0.22797262671E+02  0.39803131288E+02  0.60563022260E+02  0.00000000000E+00 0. -1.
<scales pt_clust_5="13000.00000" pt_clust_6="13000.00000" pt_clust_7="13000.00000" pt_clust_8="13000.00000" pt_clust_9="45.64636"></scales>
<clustering>
<clus scale="   45.646">  1  9  2 -1</clus>
<clus scale="   82.257">  5  6 -1 -1</clus>
<clus scale="   93.061">  7  8 -1 -1</clus>
<clus scale="  107.334">  1  5  2 -1</clus>
<clus scale="   45.646">  1  5  2 -1</clus>
</clustering>
</event>
<event>
 9    1  0.7835476E-005  0.8343463E+02  0.7546771E-02  0.1331423E+00
          1   -1    0    0  502    0 -0.00000000000E+00  0.00000000000E+00  0.30957599401E+03  0.30957599401E+03  0.00000000000E+00 0. -1.
         21   -1    0    0  501  502  0.00000000000E+00 -0.00000000000E+00 -0.40362849957E+02  0.40362849957E+02  0.00000000000E+00 0. -1.
         23    2    1    2    0    0 -0.15009458109E+02  0.33155923983E+02  0.16933955821E+03  0.18366682782E+03  0.61098433177E+02 0.  0.
        -24    2    1    2    0    0 -0.24403691860E+02 -0.18898630570E+02  0.90076304658E+02  0.12322955428E+03  0.78224573966E+02 0.  0.
         11    1    4    4    0    0 -0.47684888227E+02 -0.83910202791E+01  0.27595641079E+02  0.55729500205E+02  0.00000000000E+00 0. -1.
        -12    1    4    4    0    0  0.23281196366E+02 -0.10507610291E+02  0.62480663578E+02  0.67500054070E+02  0.00000000000E+00 0.  1.
        -11    1    3    3    0    0  0.21045056991E+02  0.18418055269E-01  0.37126673212E+02  0.42676511417E+02  0.00000000000E+00 0.  1.
         11    1    3    3    0    0 -0.36054515099E+02  0.33137505928E+02  0.13221288500E+03  0.14099031640E+03  0.00000000000E+00 0. -1.
          2    1    1    2  501    0  0.39413149969E+02 -0.14257293413E+02  0.97972811871E+01  0.43042461879E+02  0.00000000000E+00 0. -1.
<scales pt_clust_5="13000.00000" pt_clust_6="13000.00000" pt_clust_7="13000.00000" pt_clust_8="13000.00000" pt_clust_9="41.91261"></scales>
<clustering>
<clus scale="   41.913">  2  9  1 -1</clus>
<clus scale="   61.098">  7  8 -1 -1</clus>
<clus scale="   67.641">  1  7  2 -1</clus>
<clus scale="   78.225">  5  6 -1 -1</clus>
<clus scale="   41.913">  2  5  1 -1</clus>
</clustering>
</event>
<event>
 9    1  0.7835476E-005  0.1951407E+03  0.7546771E-02  0.1161939E+00
          1   -1    0    0  502    0 -0.00000000000E+00  0.00000000000E+00  0.16909667829E+04  0.16909667829E+04  0.00000000000E+00 0. -1.
         21   -1    0    0  501  502  0.00000000000E+00 -0.00000000000E+00 -0.49612912172E+02  0.49612912172E+02  0.00000000000E+00 0. -1.
        -24    2    1    2    0    0 -0.13912305905E+03 -0.18562265107E+02  0.65026041663E+03  0.67007417411E+03  0.80380384030E+02 0.  0.
         23    2    1    2    0    0  0.19658529754E+02  0.16969507125E+03  0.65676956836E+03  0.68464886438E+03  0.90636232113E+02 0.  0.
         11    1    3    3    0    0 -0.35960255934E+02 -0.41803772943E+02  0.25655950690E+03  0.26241851310E+03  0.00000000000E+00 0. -1.
        -12    1    3    3    0    0 -0.10316280311E+03  0.23241507836E+02  0.39370090973E+03  0.40765566101E+03  0.00000000000E+00 0.  1.
        -13    1    4    4    0    0  0.12689405793E+02  0.10930085630E+03  0.55739989072E+03  0.56815696456E+03  0.00000000000E+00 0. -1.
         13    1    4    4    0    0  0.69691239607E+01  0.60394214949E+02  0.99369677639E+02  0.11649189981E+03  0.00000000000E+00 0.  1.
          2    1    1    2  501    0  0.11946452929E+03 -0.15113280615E+03  0.33432388575E+03  0.38585665659E+03  0.00000000000E+00 0. -1.
<scales pt_clust_5="13000.00000" pt_clust_6="13000.00000" pt_clust_7="13000.00000" pt_clust_8="13000.00000" pt_clust_9="172.81480"></scales>
<clustering>
<clus scale="   80.380">  5  6 -1 -1</clus>
<clus scale="   90.636">  7  8 -1 -1</clus>
<clus scale="  161.743">  1  5  2 -1</clus>
<clus scale="  172.815">  2  9  1 -1</clus>
<clus scale="  172.815">  2  5  1 -1</clus>
</clustering>
</event>
<event>
 9    1  0.7835476E-005  0.1488241E+03  0.7546771E-02  0.1224468E+00
          1   -1    0    0  502    0 -0.00000000000E+00  0.00000000000E+00  0.40553957910E+03  0.40553957910E+03  0.00000000000E+00 0. -1.
         21   -1    0    0  501  502  0.00000000000E+00 -0.00000000000E+00 -0.24039402862E+03  0.24039402862E+03  0.00000000000E+00 0. -1.
         23    2    1    2    0    0  0.88314365673E+00 -0.41761010601E+01  0.58513305265E+02  0.10919922767E+03  0.92100188211E+02 0.  0.
        -24    2    1    2    0    0 -0.15315187475E+02  0.12522559173E+03  0.28360997019E+03  0.32183352333E+03  0.85007045352E+02 0.  0.
         13    1    4    4    0    0  0.10803744891E+02  0.85555286100E+02  0.24772350004E+03  0.26230394652E+03  0.00000000000E+00 0. -1.
        -14    1    4    4    0    0 -0.26118932366E+02  0.39670305632E+02  0.35886470144E+02  0.59529576819E+02  0.00000000000E+00 0.  1.
        -13    1    3    3    0    0  0.43511375541E+02 -0.17124023061E+02  0.37508397710E+02  0.59944573283E+02  0.00000000000E+00 0.  1.
         13    1    3    3    0    0 -0.42628231884E+02  0.12947922001E+02  0.21004907556E+02  0.49254654391E+02  0.00000000000E+00 0. -1.
          2    1    1    2  501    0  0.14432043818E+02 -0.12104949067E+03 -0.17697772497E+03  0.21490085672E+03  0.00000000000E+00 0. -1.
<scales pt_clust_5="13000.00000" pt_clust_6="13000.00000" pt_clust_7="13000.00000" pt_clust_8="13000.00000" pt_clust_9="122.15737"></scales>
<clustering>
<clus scale="   85.007">  5  6 -1 -1</clus>
<clus scale="   92.100">  7  8 -1 -1</clus>
<clus scale="   92.199">  1  7  2 -1</clus>
<clus scale="  122.157">  2  9  1 -1</clus>
<clus scale="  122.157">  2  5  1 -1</clus>
</clustering>
</event>
<event>
 9    1  0.7835476E-005  0.9994901E+02  0.7546771E-02  0.1286774E+00
         21   -1    0    0  501  502  0.00000000000E+00  0.00000000000E+00  0.53933520243E+02  0.53933520243E+02  0.00000000000E+00 0.  1.
         -4   -1    0    0    0  501 -0.00000000000E+00 -0.00000000000E+00 -0.46347163338E+03  0.46347163338E+03  0.00000000000E+00 0.  1.
        -24    2    1    2    0    0 -0.26307805253E+02  0.27387231439E+02 -0.32474251021E+03  0.33645352112E+03  0.79379549479E+02 0.  0.
         23    2    1    2    0    0  0.10447315726E+02 -0.48990719063E+02 -0.10434565878E+03  0.14777829247E+03  0.91875841533E+02 0.  0.
         13    1    3    3    0    0 -0.26536457831E+02 -0.21953027806E+02 -0.18689193359E+03  0.19003871675E+03  0.00000000000E+00 0. -1.
        -14    1    3    3    0    0  0.22865257819E+00  0.49340259245E+02 -0.13785057662E+03  0.14641480437E+03  0.00000000000E+00 0.  1.
        -13    1    4    4    0    0 -0.32293136646E+02 -0.48898651414E+02 -0.41622510358E+02  0.71877382764E+02  0.00000000000E+00 0.  1.
         13    1    4    4    0    0  0.42740452372E+02 -0.92067649319E-01 -0.62723148424E+02  0.75900909702E+02  0.00000000000E+00 0. -1.
         -3    1    1    2    0  502  0.15860489527E+02  0.21603487624E+02  0.19550055850E+02  0.33173340038E+02  0.00000000000E+00 0.  1.
<scales pt_clust_5="13000.00000" pt_clust_6="13000.00000" pt_clust_7="13000.00000" pt_clust_8="13000.00000" pt_clust_9="26.80048"></scales>
<clustering>
<clus scale="   26.800">  1  9  2 -1</clus>
<clus scale="   79.380">  5  6 -1 -1</clus>
<clus scale="   88.599">  2  5  1 -1</clus>
<clus scale="   91.876">  7  8 -1 -1</clus>
<clus scale="   26.800">  1  5  2 -1</clus>
</clustering>
</event>
<event>
 9    1  0.7835476E-005  0.2790188E+03  0.7546771E-02  0.1123661E+00
          1   -1    0    0  502    0 -0.00000000000E+00  0.00000000000E+00  0.40447899014E+03  0.40447899014E+03  0.00000000000E+00 0. -1.
         21   -1    0    0  501  502  0.00000000000E+00 -0.00000000000E+00 -0.34233118888E+03  0.34233118888E+03  0.00000000000E+00 0. -1.
        -24    2    1    2    0    0 -0.57065271524E+02 -0.96985401748E+02 -0.29083524724E+02  0.14171216364E+03  0.81079421238E+02 0.  0.
         23    2    1    2    0    0  0.94585752801E+01 -0.19358059163E+03  0.19813636071E+03  0.29185101941E+03  0.91411651298E+02 0.  0.
         11    1    3    3    0    0 -0.68224558689E+02 -0.93841459376E+02 -0.63516306651E+01  0.11619446251E+03  0.00000000000E+00 0. -1.
        -12    1    3    3    0    0  0.11159287165E+02 -0.31439423720E+01 -0.22731894059E+02  0.25517701134E+02  0.00000000000E+00 0.  1.
        -11    1    4    4    0    0  0.23425007287E+02 -0.11793622455E+02  0.58541680174E+01  0.26871765483E+02  0.00000000000E+00 0.  1.
         11    1    4    4    0    0 -0.13966432007E+02 -0.18178696917E+03  0.19228219269E+03  0.26497925392E+03  0.00000000000E+00 0. -1.
          2    1    1    2  501    0  0.47606696244E+02  0.29056599338E+03 -0.10690503473E+03  0.31324699597E+03  0.00000000000E+00 0. -1.
<scales pt_clust_5="13000.00000" pt_clust_6="13000.00000" pt_clust_7="13000.00000" pt_clust_8="13000.00000" pt_clust_9="263.61980"></scales>
<clustering>
<clus scale="   81.079">  5  6 -1 -1</clus>
<clus scale="   91.412">  7  8 -1 -1</clus>
<clus scale="  138.696">  1  5  2 -1</clus>
<clus scale="  263.620">  2  9  1 -1</clus>
<clus scale="  263.620">  2  5  1 -1</clus>
</clustering>
</event>
<event>
 9    1  0.7835476E-005  0.1856730E+03  0.7546771E-02  0.1186522E+00
         21   -1    0    0  501  502  0.00000000000E+00  0.00000000000E+00  0.37572681355E+03  0.37572681355E+03  0.00000000000E+00 0.  1.
          1   -1    0    0  502    0 -0.00000000000E+00 -0.00000000000E+00 -0.30638676280E+03  0.30638676280E+03  0.00000000000E+00 0. -1.
         23    2    1    2    0    0 -0.46894753847E+00 -0.59919286206E+02 -0.20305983316E+03  0.22973430440E+03  0.89185279072E+02 0.  0.
        -24    2    1    2    0    0  0.92612433689E+02  0.17506587463E+03  0.16160810905E+03  0.26792337954E+03  0.80253554814E+02 0.  0.
         13    1    4    4    0    0  0.53926115853E+02  0.85450595897E+02  0.32645781913E+02  0.10618652168E+03  0.00000000000E+00 0. -1.
        -14    1    4    4    0    0  0.38686317836E+02  0.89615278737E+02  0.12896232713E+03  0.16173685786E+03  0.00000000000E+00 0.  1.
        -11    1    3    3    0    0 -0.33983886068E+02 -0.34066218916E+02 -0.44220236427E+02  0.65351672459E+02  0.00000000000E+00 0.  1.
         11    1    3    3    0    0  0.33514938530E+02 -0.25853067290E+02 -0.15883959673E+03  0.16438263194E+03  0.00000000000E+00 0. -1.
          2    1    1    2  501    0 -0.92143486151E+02 -0.11514658843E+03  0.11079177487E+03  0.18445589241E+03  0.00000000000E+00 0. -1.
<scales pt_clust_5="13000.00000" pt_clust_6="13000.00000" pt_clust_7="13000.00000" pt_clust_8="13000.00000" pt_clust_9="167.43309"></scales>
<clustering>
<clus scale="   80.254">  5  6 -1 -1</clus>
<clus scale="   89.185">  7  8 -1 -1</clus>
<clus scale="  107.446">  2  7  1 -1</clus>
<clus scale="  167.433">  1  9  2 -1</clus>
<clus scale="  167.433">  1  5  2 -1</clus>
</clustering>
</event>
<event>
 9    1  0.7835476E-005  0.1603946E+03  0.7546771E-02  0.1190995E+00
         21   -1    0    0  501  502  0.00000000000E+00  0.00000000000E+00  0.98658797422E+02  0.98658797422E+02  0.00000000000E+00 0. -1.
         -4   -1    0    0    0  501 -0.00000000000E+00 -0.00000000000E+00 -0.41812682100E+03  0.41812682100E+03  0.00000000000E+00 0.  1.
         23    2    1    2    0    0  0.58554742895E+02  0.11420366988E+03 -0.13745802085E+03  0.21034404702E+03  0.94227249210E+02 0.  0.
        -24    2    1    2    0    0 -0.48445603499E+02 -0.88124163608E+02 -0.29008080185E+02  0.15090404008E+03  0.10870931830E+03 0.  0.
         11    1    4    4    0    0  0.46294526735E+01 -0.86775018031E+02  0.63267050587E+01  0.87128426953E+02  0.00000000000E+00 0. -1.
        -12    1    4    4    0    0 -0.53075056173E+02 -0.13491455770E+01 -0.35334785243E+02  0.63775613127E+02  0.00000000000E+00 0.  1.
        -11    1    3    3    0    0  0.35694258647E+02  0.12438874718E+03 -0.93119089902E+02  0.15942962532E+03  0.00000000000E+00 0. -1.
         11    1    3    3    0    0  0.22860484248E+02 -0.10185077306E+02 -0.44338930946E+02  0.50914421702E+02  0.00000000000E+00 0.  1.
         -3    1    1    2    0  502 -0.10109139396E+02 -0.26079506268E+02 -0.15300192255E+03  0.15553753132E+03  0.00000000000E+00 0.  1.
<scales pt_clust_5="13000.00000" pt_clust_6="13000.00000" pt_clust_7="13000.00000" pt_clust_8="13000.00000" pt_clust_9="27.97027"></scales>
<clustering>
<clus scale="   27.970">  1  9  2 -1</clus>
<clus scale="   94.227">  7  8 -1 -1</clus>
<clus scale="  108.709">  5  6 -1 -1</clus>
<clus scale="  150.955">  2  7  1 -1</clus>
<clus scale="   27.970">  1  5  2 -1</clus>
</clustering>
</event>
<event>
 9    1  0.7835476E-005  0.8472473E+02  0.7546771E-02  0.1319005E+00
         21   -1    0    0  501  502  0.00000000000E+00  0.00000000000E+00  0.23349057490E+03  0.23349057490E+03  0.00000000000E+00 0.  1.
         -2   -1    0    0    0  501 -0.00000000000E+00 -0.00000000000E+00 -0.10627531402E+03  0.10627531402E+03  0.00000000000E+00 0.  1.
        -24    2    1    2    0    0 -0.10826088078E+02 -0.28487474342E+01 -0.30167429956E+02  0.86044282469E+02  0.79801160207E+02 0.  0.
         23    2    1    2    0    0 -0.91102132924E+00  0.19639772939E+02  0.19367644071E+03  0.21204505963E+03  0.84059461018E+02 0.  0.
         13    1    3    3    0    0  0.11936608448E+02 -0.36904445467E+02 -0.85125141828E+01  0.39709993883E+02  0.00000000000E+00 0. -1.
        -14    1    3    3    0    0 -0.22762696526E+02  0.34055698033E+02 -0.21654915773E+02  0.46334288586E+02  0.00000000000E+00 0.  1.
        -11    1    4    4    0    0  0.26825571391E+02 -0.17209976784E+02  0.12722343448E+03  0.13115485832E+03  0.00000000000E+00 0. -1.
         11    1    4    4    0    0 -0.27736592720E+02  0.36849749723E+02  0.66453006236E+02  0.80890201311E+02  0.00000000000E+00 0.  1.
         -1    1    1    2    0  502  0.11737109407E+02 -0.16791025505E+02 -0.36293749873E+02  0.41676546817E+02  0.00000000000E+00 0.  1.
<scales pt_clust_5="13000.00000" pt_clust_6="13000.00000" pt_clust_7="13000.00000" pt_clust_8="13000.00000" pt_clust_9="20.48655"></scales>
<clustering>
<clus scale="   20.487">  1  9  2 -1</clus>
<clus scale="   79.801">  5  6 -1 -1</clus>
<clus scale="   80.502">  2  5  1 -1</clus>
<clus scale="   84.059">  7  8 -1 -1</clus>
<clus scale="   20.487">  1  5  2 -1</clus>
</clustering>
</event>
<event>
 9    1  0.7835476E-005  0.1465598E+03  0.7546771E-02  0.1206846E+00
         21   -1    0    0  501  502  0.00000000000E+00  0.00000000000E+00  0.28154983131E+02  0.28154983131E+02  0.00000000000E+00 0.  1.
         -2   -1    0    0    0  501 -0.00000000000E+00 -0.00000000000E+00 -0.16057313895E+04  0.16057313895E+04  0.00000000000E+00 0.  1.
         23    2    1    2    0    0 -0.13874598770E+03  0.10130327769E+02 -0.89188155616E+03  0.90728203223E+03  0.91405159379E+02 0.  0.
        -24    2    1    2    0    0  0.55712273681E+02 -0.61156604696E+02 -0.19801830585E+03  0.22928483493E+03  0.80723592209E+02 0.  0.
         11    1    4    4    0    0 -0.99383997127E+01 -0.22040928088E+02 -0.96996244760E+01  0.26051046328E+02  0.00000000000E+00 0. -1.
        -12    1    4    4    0    0  0.65650673394E+02 -0.39115676608E+02 -0.18831868138E+03  0.20323378860E+03  0.00000000000E+00 0.  1.
        -13    1    3    3    0    0 -0.12525916459E+02  0.34771841720E+02 -0.16252707089E+03  0.16667641805E+03  0.00000000000E+00 0. -1.
         13    1    3    3    0    0 -0.12622007124E+03 -0.24641513951E+02 -0.72935448526E+03  0.74060561419E+03  0.00000000000E+00 0.  1.
         -1    1    1    2    0  502  0.83033714016E+02  0.51026276927E+02 -0.48767654438E+03  0.49731950549E+03  0.00000000000E+00 0.  1.
<scales pt_clust_5="13000.00000" pt_clust_6="13000.00000" pt_clust_7="13000.00000" pt_clust_8="13000.00000" pt_clust_9="97.45916"></scales>
<clustering>
<clus scale="   80.724">  5  6 -1 -1</clus>
<clus scale="   91.405">  7  8 -1 -1</clus>
<clus scale="   97.459">  1  9  2 -1</clus>
<clus scale="  140.147">  1  5  2 -1</clus>
<clus scale="   97.459">  1  5  2 -1</clus>
</clustering>
</event>
<event>
 9    1  0.7835476E-005  0.1181520E+03  0.7546771E-02  0.1251376E+00
          1   -1    0    0  502    0 -0.00000000000E+00  0.00000000000E+00  0.51073014024E+03  0.51073014024E+03  0.00000000000E+00 0. -1.
         21   -1    0    0  501  502  0.00000000000E+00 -0.00000000000E+00 -0.69158878413E+02  0.69158878413E+02  0.00000000000E+00 0.  1.
        -24    2    1    2    0    0  0.28883207913E+02 -0.75946821732E+02  0.37170516266E+03  0.38905839474E+03  0.81237596823E+02 0.  0.
         23    2    1    2    0    0  0.12305759872E+02  0.14246951918E+02  0.16024548702E+02  0.99166467567E+02  0.96035382873E+02 0.  0.
         13    1    3    3    0    0  0.43725241229E+02 -0.76213670038E+02  0.22411840925E+03  0.24072698558E+03  0.00000000000E+00 0. -1.
        -14    1    3    3    0    0 -0.14842033316E+02  0.26684830619E+00  0.14758675341E+03  0.14833140916E+03  0.00000000000E+00 0.  1.
        -11    1    4    4    0    0  0.38987715649E+02 -0.19643396508E+02 -0.14859679571E+02  0.46116321134E+02  0.00000000000E+00 0.  1.
         11    1    4    4    0    0 -0.26681955777E+02  0.33890348427E+02  0.30884228273E+02  0.53050146433E+02  0.00000000000E+00 0. -1.
          2    1    1    2  501    0 -0.41188967785E+02  0.61699869814E+02  0.53841550461E+02  0.91664156344E+02  0.00000000000E+00 0. -1.
<scales pt_clust_5="13000.00000" pt_clust_6="13000.00000" pt_clust_7="13000.00000" pt_clust_8="13000.00000" pt_clust_9="74.18494"></scales>
<clustering>
<clus scale="   74.185">  2  9  1 -1</clus>
<clus scale="   81.238">  5  6 -1 -1</clus>
<clus scale="   96.035">  7  8 -1 -1</clus>
<clus scale="  106.474">  1  5  2 -1</clus>
<clus scale="   74.185">  2  5  1 -1</clus>
</clustering>
</event>
<event>
 9    1  0.7835476E-005  0.1020305E+03  0.7546771E-02  0.1281018E+00
         21   -1    0    0  501  502  0.00000000000E+00  0.00000000000E+00  0.38558153921E+03  0.38558153921E+03  0.00000000000E+00 0.  1.
         -4   -1    0    0    0  501 -0.00000000000E+00 -0.00000000000E+00 -0.50499185702E+02  0.50499185702E+02  0.00000000000E+00 0.  1.
        -24    2    1    2    0    0 -0.12373598594E+02 -0.40718052732E+02  0.21121552280E+02  0.93104569486E+02  0.80070438540E+02 0.  0.
         23    2    1    2    0    0  0.19847802255E+02  0.63415764779E+02  0.23461996534E+03  0.26011471631E+03  0.90540836254E+02 0.  0.
         11    1    3    3    0    0  0.67742211734E+01 -0.38680552297E+02 -0.22615731163E+02  0.45316073247E+02  0.00000000000E+00 0. -1.
        -12    1    3    3    0    0 -0.19147819767E+02 -0.20375004357E+01  0.43737283443E+02  0.47788496239E+02  0.00000000000E+00 0.  1.
        -11    1    4    4    0    0 -0.31092547976E+02  0.51070723489E+02  0.11946877495E+03  0.13359548467E+03  0.00000000000E+00 0. -1.
         11    1    4    4    0    0  0.50940350231E+02  0.12345041290E+02  0.11515119039E+03  0.12651923164E+03  0.00000000000E+00 0.  1.
         -3    1    1    2    0  502 -0.74742036617E+01 -0.22697712047E+02  0.79340835890E+02  0.82861439115E+02  0.00000000000E+00 0.  1.
<scales pt_clust_5="13000.00000" pt_clust_6="13000.00000" pt_clust_7="13000.00000" pt_clust_8="13000.00000" pt_clust_9="23.89665"></scales>
<clustering>
<clus scale="   23.897">  1  9  2 -1</clus>
<clus scale="   80.070">  5  6 -1 -1</clus>
<clus scale="   90.541">  7  8 -1 -1</clus>
<clus scale="   92.865">  2  5  1 -1</clus>
<clus scale="   23.897">  1  5  2 -1</clus>
</clustering>
</event>
<event>
 9    1  0.7835476E-005  0.8680443E+02  0.7546771E-02  0.1314055E+00
         21   -1    0    0  501  502  0.00000000000E+00  0.00000000000E+00  0.10963621625E+03  0.10963621625E+03  0.00000000000E+00 0. -1.
          1   -1    0    0  502    0 -0.00000000000E+00 -0.00000000000E+00 -0.27282197028E+03  0.27282197028E+03  0.00000000000E+00 0. -1.
         23    2    1    2    0    0  0.18822678992E+02 -0.21266363361E+01  0.16950539004E+02  0.87368380863E+02  0.83588859159E+02 0.  0.
        -24    2    1    2    0    0  0.81025631840E+01 -0.48195557989E+02  0.13369795355E+02  0.93342691300E+02  0.78394153170E+02 0.  0.
         11    1    4    4    0    0 -0.15263675945E+02 -0.62468001211E+02  0.41023764286E+01  0.64436484006E+02  0.00000000000E+00 0. -1.
        -12    1    4    4    0    0  0.23366239129E+02  0.14272443223E+02  0.92674189267E+01  0.28906207294E+02  0.00000000000E+00 0.  1.
        -13    1    3    3    0    0 -0.28028658659E+02 -0.20801834430E+02  0.29712056111E+01  0.35030702029E+02  0.00000000000E+00 0.  1.
         13    1    3    3    0    0  0.46851337652E+02  0.18675198094E+02  0.13979333393E+02  0.52337678834E+02  0.00000000000E+00 0. -1.
          2    1    1    2  501    0 -0.26925242176E+02  0.50322194325E+02 -0.19350608839E+03  0.20174711436E+03  0.00000000000E+00 0. -1.
<scales pt_clust_5="13000.00000" pt_clust_6="13000.00000" pt_clust_7="13000.00000" pt_clust_8="13000.00000" pt_clust_9="57.07272"></scales>
<clustering>
<clus scale="   57.073">  1  9  2 -1</clus>
<clus scale="   78.394">  5  6 -1 -1</clus>
<clus scale="   81.814">  1  5  2 -1</clus>
<clus scale="   83.589">  7  8 -1 -1</clus>
<clus scale="   57.073">  1  5  2 -1</clus>
</clustering>
</event>
<event>
 9    1  0.7835476E-005  0.9218526E+02  0.7546771E-02  0.1304587E+00
         21   -1    0    0  501  502  0.00000000000E+00  0.00000000000E+00  0.18802426770E+03  0.18802426770E+03  0.00000000000E+00 0. -1.
         -2   -1    0    0    0  501 -0.00000000000E+00 -0.00000000000E+00 -0.89902140535E+02  0.89902140535E+02  0.00000000000E+00 0.  1.
        -24    2    1    2    0    0 -0.30818541714E+01  0.10495477824E+02 -0.37790057350E+02  0.89698544450E+02  0.80610716173E+02 0.  0.
         23    2    1    2    0    0 -0.20558208105E+02 -0.32207083084E+01  0.68326452829E+02  0.11625838453E+03  0.91730556174E+02 0.  0.
         11    1    3    3    0    0  0.33506599697E+02  0.21563305319E+02 -0.31856963990E+02  0.51015042039E+02  0.00000000000E+00 0. -1.
        -12    1    3    3    0    0 -0.36588453869E+02 -0.11067827496E+02 -0.59330933608E+01  0.38683502411E+02  0.00000000000E+00 0.  1.
        -11    1    4    4    0    0 -0.47802848701E+02  0.16791044216E+02  0.64820808880E+02  0.82272649001E+02  0.00000000000E+00 0. -1.
         11    1    4    4    0    0  0.27244640596E+02 -0.20011752524E+02  0.35056439490E+01  0.33985735534E+02  0.00000000000E+00 0.  1.
         -1    1    1    2    0  502  0.23640062277E+02 -0.72747695154E+01  0.67585731689E+02  0.71969479253E+02  0.00000000000E+00 0.  1.
<scales pt_clust_5="13000.00000" pt_clust_6="13000.00000" pt_clust_7="13000.00000" pt_clust_8="13000.00000" pt_clust_9="24.73408"></scales>
<clustering>
<clus scale="   24.734">  1  9  2 -1</clus>
<clus scale="   80.611">  5  6 -1 -1</clus>
<clus scale="   81.128">  2  5  1 -1</clus>
<clus scale="   91.731">  7  8 -1 -1</clus>
<clus scale="   24.734">  1  5  2 -1</clus>
</clustering>
</event>
<event>
 9    1  0.7835476E-005  0.1359005E+03  0.7546771E-02  0.1244553E+00
          1   -1    0    0  502    0 -0.00000000000E+00  0.00000000000E+00  0.56130953083E+03  0.56130953083E+03  0.00000000000E+00 0. -1.
         21   -1    0    0  501  502  0.00000000000E+00 -0.00000000000E+00 -0.69215963917E+02  0.69215963917E+02  0.00000000000E+00 0.  1.
        -24    2    1    2    0    0  0.82192601888E+01 -0.15826164473E+02  0.21803681200E+03  0.23232703150E+03  0.78216203292E+02 0.  0.
         23    2    1    2    0    0  0.30283502242E+02  0.10062235202E+03  0.36692687210E+02  0.14321894098E+03  0.90129703911E+02 0.  0.
         11    1    3    3    0    0 -0.92210588769E+01  0.29647311105E+02  0.97441847801E+02  0.10226878647E+03  0.00000000000E+00 0. -1.
        -12    1    3    3    0    0  0.17440319066E+02 -0.45473475578E+02  0.12059496420E+03  0.13005824503E+03  0.00000000000E+00 0.  1.
        -11    1    4    4    0    0  0.62190623545E+01  0.10623971274E+03  0.10072856769E+02  0.10689722047E+03  0.00000000000E+00 0.  1.
         11    1    4    4    0    0  0.24064439888E+02 -0.56173607193E+01  0.26619830440E+02  0.36321720516E+02  0.00000000000E+00 0. -1.
          2    1    1    2  501    0 -0.38502762431E+02 -0.84796187551E+02  0.23736406770E+03  0.25497952226E+03  0.00000000000E+00 0. -1.
<scales pt_clust_5="13000.00000" pt_clust_6="13000.00000" pt_clust_7="13000.00000" pt_clust_8="13000.00000" pt_clust_9="101.71332"></scales>
<clustering>
<clus scale="   78.216">  5  6 -1 -1</clus>
<clus scale="   80.223">  1  5  2 -1</clus>
<clus scale="   90.130">  7  8 -1 -1</clus>
<clus scale="  101.713">  2  9  1 -1</clus>
<clus scale="  101.713">  2  5  1 -1</clus>
</clustering>
</event>
<event>
 9    1  0.7835476E-005  0.1220073E+03  0.7546771E-02  0.1250892E+00
          1   -1    0    0  502    0 -0.00000000000E+00  0.00000000000E+00  0.48958621864E+03  0.48958621864E+03  0.00000000000E+00 0. -1.
         21   -1    0    0  501  502  0.00000000000E+00 -0.00000000000E+00 -0.73943567236E+02  0.73943567236E+02  0.00000000000E+00 0.  1.
         23    2    1    2    0    0  0.53830115940E+02 -0.33949985535E+02  0.28786030225E+03  0.31434764252E+03  0.10908988882E+03 0.  0.
        -24    2    1    2    0    0 -0.22926757957E+02 -0.70300217210E+01 -0.24992287162E+02  0.88016179114E+02  0.80914621253E+02 0.  0.
         13    1    4    4    0    0 -0.78294083893E+01 -0.40388738052E+02  0.39683727799E+01  0.41331559125E+02  0.00000000000E+00 0. -1.
        -14    1    4    4    0    0 -0.15097349568E+02  0.33358716331E+02 -0.28960659942E+02  0.46684619989E+02  0.00000000000E+00 0.  1.
        -11    1    3    3    0    0 -0.61651581725E+01 -0.59302919182E+02  0.16219093039E+03  0.17280261370E+03  0.00000000000E+00 0. -1.
         11    1    3    3    0    0  0.59995274113E+02  0.25352933647E+02  0.12566937186E+03  0.14154502882E+03  0.00000000000E+00 0.  1.
          2    1    1    2  501    0 -0.30903357983E+02  0.40980007256E+02  0.15277463632E+03  0.16116596425E+03  0.00000000000E+00 0. -1.
<scales pt_clust_5="13000.00000" pt_clust_6="13000.00000" pt_clust_7="13000.00000" pt_clust_8="13000.00000" pt_clust_9="51.32622"></scales>
<clustering>
<clus scale="   51.326">  2  9  1 -1</clus>
<clus scale="   80.915">  5  6 -1 -1</clus>
<clus scale="   97.634">  2  5  1 -1</clus>
<clus scale="  109.090">  7  8 -1 -1</clus>
<clus scale="   51.326">  2  5  1 -1</clus>
</clustering>
</event>
<event>
 9    1  0.7835476E-005  0.1700675E+03  0.7546771E-02  0.1199630E+00
         21   -1    0    0  501  502  0.00000000000E+00  0.00000000000E+00  0.22405646509E+03  0.22405646509E+03  0.00000000000E+00 0. -1.
          1   -1    0    0  502    0 -0.00000000000E+00 -0.00000000000E+00 -0.32986442601E+03  0.32986442601E+03  0.00000000000E+00 0. -1.
         23    2    1    2    0    0 -0.10020052956E+02 -0.30030878037E+02 -0.38446377252E+02  0.11164951193E+03  0.99926145197E+02 0.  0.
        -24    2    1    2    0    0 -0.40766560577E+02  0.14843162461E+03  0.12243267982E+03  0.21288114539E+03  0.81454044274E+02 0.  0.
         11    1    4    4    0    0  0.23071180776E+02  0.45130746210E+02  0.51447189083E+02  0.72221028104E+02  0.00000000000E+00 0. -1.
        -12    1    4    4    0    0 -0.63837741354E+02  0.10330087840E+03  0.70985490733E+02  0.14066011728E+03  0.00000000000E+00 0.  1.
        -11    1    3    3    0    0  0.39911076233E+02 -0.17268835786E+02 -0.41381865335E+02  0.60029704931E+02  0.00000000000E+00 0.  1.
         11    1    3    3    0    0 -0.49931129189E+02 -0.12762042250E+02  0.29354880834E+01  0.51619807001E+02  0.00000000000E+00 0. -1.
          2    1    1    2  501    0  0.50786613534E+02 -0.11840074658E+03 -0.18979426348E+03  0.22939023378E+03  0.00000000000E+00 0. -1.
<scales pt_clust_5="13000.00000" pt_clust_6="13000.00000" pt_clust_7="13000.00000" pt_clust_8="13000.00000" pt_clust_9="149.29240"></scales>
<clustering>
<clus scale="   81.454">  5  6 -1 -1</clus>
<clus scale="   99.926">  7  8 -1 -1</clus>
<clus scale="  104.821">  2  7  1 -1</clus>
<clus scale="  149.292">  1  9  2 -1</clus>
<clus scale="  149.292">  1  5  2 -1</clus>
</clustering>
</event>
<event>
 9    1  0.7835476E-005  0.2083004E+03  0.7546771E-02  0.1143882E+00
          1   -1    0    0  502    0 -0.00000000000E+00  0.00000000000E+00  0.15811510003E+04  0.15811510003E+04  0.00000000000E+00 0. -1.
         21   -1    0    0  501  502  0.00000000000E+00 -0.00000000000E+00 -0.38121923856E+02  0.38121923856E+02  0.00000000000E+00 0. -1.
        -24    2    1    2    0    0 -0.30679135824E+02 -0.17624212647E+03  0.70062935736E+03  0.72743856643E+03  0.79264588674E+02 0.  0.
         23    2    1    2    0    0  0.95319849008E+02  0.18278216317E+03  0.60025806265E+03  0.64112780483E+03  0.90774046787E+02 0.  0.
         13    1    3    3    0    0 -0.53945858172E+02 -0.13112471681E+03  0.56790984610E+03  0.58534215658E+03  0.00000000000E+00 0. -1.
        -14    1    3    3    0    0  0.23266722349E+02 -0.45117409657E+02  0.13271951126E+03  0.14209640985E+03  0.00000000000E+00 0.  1.
        -13    1    4    4    0    0  0.10324347265E+03  0.11774587587E+03  0.37111361532E+03  0.40280096996E+03  0.00000000000E+00 0. -1.
         13    1    4    4    0    0 -0.79236236424E+01  0.65036287301E+02  0.22914444733E+03  0.23832683487E+03  0.00000000000E+00 0.  1.
          2    1    1    2  501    0 -0.64640713184E+02 -0.65400366976E+01  0.24214165639E+03  0.25070655284E+03  0.00000000000E+00 0. -1.
<scales pt_clust_5="13000.00000" pt_clust_6="13000.00000" pt_clust_7="13000.00000" pt_clust_8="13000.00000" pt_clust_9="64.97075"></scales>
<clustering>
<clus scale="   64.971">  2  9  1 -1</clus>
<clus scale="   79.265">  5  6 -1 -1</clus>
<clus scale="   90.774">  7  8 -1 -1</clus>
<clus scale="  203.549">  1  5  2 -1</clus>
<clus scale="   64.971">  2  5  1 -1</clus>
</clustering>
</event>
<event>
 9    1  0.7835476E-005  0.1109219E+03  0.7546771E-02  0.1292199E+00
          3   -1    0    0  502    0 -0.00000000000E+00  0.00000000000E+00  0.58770123843E+02  0.58770123843E+02  0.00000000000E+00 0. -1.
         21   -1    0    0  501  502  0.00000000000E+00 -0.00000000000E+00 -0.39303374854E+03  0.39303374854E+03  0.00000000000E+00 0. -1.
        -24    2    1    2    0    0 -0.26408060175E+02 -0.87957203308E+01  0.75910490134E+01  0.59042244499E+02  0.51513224244E+02 0.  0.
         23    2    1    2    0    0 -0.34445496781E+02  0.32634787620E+02 -0.10704222510E+03  0.14902336140E+03  0.92186781474E+02 0.  0.
         11    1    3    3    0    0 -0.35316091281E+02 -0.22513158943E+02  0.81914686853E+01  0.42675154225E+02  0.00000000000E+00 0. -1.
        -12    1    3    3    0    0  0.89080311057E+01  0.13717438612E+02 -0.60041967191E+00  0.16367090274E+02  0.00000000000E+00 0.  1.
        -13    1    4    4    0    0 -0.23383391772E+02  0.59343574964E+02 -0.10105439235E+03  0.11950076616E+03  0.00000000000E+00 0. -1.
         13    1    4    4    0    0 -0.11062105008E+02 -0.26708787345E+02 -0.59878327465E+01  0.29522595239E+02  0.00000000000E+00 0.  1.
          4    1    1    2  501    0  0.60853556956E+02 -0.23839067289E+02 -0.23481244861E+03  0.24373826648E+03  0.00000000000E+00 0. -1.
<scales pt_clust_5="13000.00000" pt_clust_6="13000.00000" pt_clust_7="13000.00000" pt_clust_8="13000.00000" pt_clust_9="61.68684"></scales>
<clustering>
<clus scale="   51.513">  5  6 -1 -1</clus>
<clus scale="   58.552">  1  5  2 -1</clus>
<clus scale="   61.687">  2  9  1 -1</clus>
<clus scale="   92.187">  7  8 -1 -1</clus>
<clus scale="   61.687">  2  5  1 -1</clus>
</clustering>
</event>
<event>
 9    1  0.7835476E-005  0.4556079E+03  0.7546771E-02  0.1077123E+00
          1   -1    0    0  502    0 -0.00000000000E+00  0.00000000000E+00  0.10974491639E+04  0.10974491639E+04  0.00000000000E+00 0. -1.
         21   -1    0    0  501  502  0.00000000000E+00 -0.00000000000E+00 -0.28896444929E+03  0.28896444929E+03  0.00000000000E+00 0. -1.
         23    2    1    2    0    0  0.62992498149E+01 -0.51683182076E+02  0.35848948722E+03  0.37398303385E+03  0.92939578790E+02 0.  0.
        -24    2    1    2    0    0  0.34131232478E+03 -0.25982494223E+03  0.26437710517E+03  0.51011075532E+03  0.79464616687E+02 0.  0.
         11    1    4    4    0    0  0.21302384442E+03 -0.19603031410E+03  0.14582745107E+03  0.32414917527E+03  0.00000000000E+00 0. -1.
        -12    1    4    4    0    0  0.12828848036E+03 -0.63794628129E+02  0.11854965409E+03  0.18596158005E+03  0.00000000000E+00 0.  1.
        -13    1    3    3    0    0  0.43329651863E+02 -0.47423614872E+00  0.14709784563E+03  0.15334751325E+03  0.00000000000E+00 0.  1.
         13    1    3    3    0    0 -0.37030402048E+02 -0.51208945927E+02  0.21139164158E+03  0.22063552060E+03  0.00000000000E+00 0. -1.
          2    1    1    2  501    0 -0.34761157459E+03  0.31150812431E+03  0.18561812222E+03  0.50231982402E+03  0.00000000000E+00 0. -1.
<scales pt_clust_5="13000.00000" pt_clust_6="13000.00000" pt_clust_7="13000.00000" pt_clust_8="13000.00000" pt_clust_9="448.62453"></scales>
<clustering>
<clus scale="   79.465">  5  6 -1 -1</clus>
<clus scale="   92.940">  7  8 -1 -1</clus>
<clus scale="  106.530">  1  7  2 -1</clus>
<clus scale="  448.625">  2  9  1 -1</clus>
<clus scale="  448.625">  2  5  1 -1</clus>
</clustering>
</event>
<event>
 9    1  0.7835476E-005  0.1582663E+03  0.7546771E-02  0.1192786E+00
         21   -1    0    0  501  502  0.00000000000E+00  0.00000000000E+00  0.30014297657E+03  0.30014297657E+03  0.00000000000E+00 0. -1.
          1   -1    0    0  502    0 -0.00000000000E+00 -0.00000000000E+00 -0.11982809474E+03  0.11982809474E+03  0.00000000000E+00 0. -1.
        -24    2    1    2    0    0 -0.10366004283E+03 -0.87012119347E+02  0.49932661583E+02  0.16424467304E+03  0.78527247098E+02 0.  0.
         23    2    1    2    0    0  0.77300858692E+02  0.90581202172E+02  0.15754162585E+03  0.21771089810E+03  0.91642208270E+02 0.  0.
         11    1    3    3    0    0 -0.30429620304E+02 -0.75710988634E+02  0.17997807360E+02  0.83558582213E+02  0.00000000000E+00 0. -1.
        -12    1    3    3    0    0 -0.73230422527E+02 -0.11301130713E+02  0.31934854222E+02  0.80686090828E+02  0.00000000000E+00 0.  1.
        -11    1    4    4    0    0  0.95925466752E+02  0.65104531018E+02  0.10496634156E+03  0.15639126571E+03  0.00000000000E+00 0. -1.
         11    1    4    4    0    0 -0.18624608060E+02  0.25476671154E+02  0.52575284291E+02  0.61319632392E+02  0.00000000000E+00 0.  1.
          2    1    1    2  501    0  0.26359184139E+02 -0.35690828251E+01 -0.27159405598E+02  0.38015500170E+02  0.00000000000E+00 0. -1.
<scales pt_clust_5="13000.00000" pt_clust_6="13000.00000" pt_clust_7="13000.00000" pt_clust_8="13000.00000" pt_clust_9="26.59973"></scales>
<clustering>
<clus scale="   26.600">  1  9  2 -1</clus>
<clus scale="   78.527">  5  6 -1 -1</clus>
<clus scale="   91.642">  7  8 -1 -1</clus>
<clus scale="  151.051">  2  5  1 -1</clus>
<clus scale="   26.600">  1  5  2 -1</clus>
</clustering>
</event>
<event>
 9    1  0.7835476E-005  0.3551898E+03  0.7546771E-02  0.1060886E+00
         21   -1    0    0  501  502  0.00000000000E+00  0.00000000000E+00  0.25205760673E+03  0.25205760673E+03  0.00000000000E+00 0. -1.
          1   -1    0    0  502    0 -0.00000000000E+00 -0.00000000000E+00 -0.13341288143E+04  0.13341288143E+04  0.00000000000E+00 0. -1.
         23    2    1    2    0    0 -0.27569439202E+03  0.19936089803E+03 -0.11084771516E+04  0.11632940367E+04  0.93697678453E+02 0.  0.
        -24    2    1    2    0    0  0.29068641266E+03 -0.21563465556E+03  0.67332435582E+02  0.37636740626E+03  0.78242395331E+02 0.  0.
         13    1    4    4    0    0  0.16587409510E+03 -0.16831151122E+03  0.33594452757E+02  0.23868717496E+03  0.00000000000E+00 0. -1.
        -14    1    4    4    0    0  0.12481231756E+03 -0.47323144341E+02  0.33737982824E+02  0.13768023130E+03  0.00000000000E+00 0.  1.
        -13    1    3    3    0    0 -0.25110602292E+03  0.13903528732E+03 -0.93084942504E+03  0.97409737602E+03  0.00000000000E+00 0. -1.
         13    1    3    3    0    0 -0.24588369095E+02  0.60325610710E+02 -0.17762772652E+03  0.18919666072E+03  0.00000000000E+00 0.  1.
          2    1    1    2  501    0 -0.14992020647E+02  0.16273757529E+02 -0.40926491628E+02  0.46524978068E+02  0.00000000000E+00 0. -1.
<scales pt_clust_5="13000.00000" pt_clust_6="13000.00000" pt_clust_7="13000.00000" pt_clust_8="13000.00000" pt_clust_9="22.12682"></scales>
<clustering>
<clus scale="   22.127">  1  9  2 -1</clus>
<clus scale="   78.242">  5  6 -1 -1</clus>
<clus scale="   93.698">  7  8 -1 -1</clus>
<clus scale="  351.429">  1  5  2 -1</clus>
<clus scale="   22.127">  1  5  2 -1</clus>
</clustering>
</event>
<event>
 9    1  0.7835476E-005  0.1503023E+03  0.7546771E-02  0.1217815E+00
         21   -1    0    0  501  502  0.00000000000E+00  0.00000000000E+00  0.49556421724E+03  0.49556421724E+03  0.00000000000E+00 0. -1.
          1   -1    0    0  502    0 -0.00000000000E+00 -0.00000000000E+00 -0.35408930362E+03  0.35408930362E+03  0.00000000000E+00 0. -1.
        -24    2    1    2    0    0  0.26933928345E+02  0.59815447393E+02  0.12823434126E+03  0.16441312429E+03  0.79273607950E+02 0.  0.
         23    2    1    2    0    0 -0.90709783451E+02 -0.15835045620E+03 -0.29314125940E+03  0.35714538825E+03  0.91202514185E+02 0.  0.
         13    1    3    3    0    0  0.55107529690E+02  0.35517161955E+02  0.85742563815E+02  0.10793560984E+03  0.00000000000E+00 0. -1.
        -14    1    3    3    0    0 -0.28173601346E+02  0.24298285437E+02  0.42491777442E+02  0.56477514448E+02  0.00000000000E+00 0.  1.
        -13    1    4    4    0    0 -0.51383461656E+02 -0.16197874606E+02 -0.54722843706E+02  0.76793364927E+02  0.00000000000E+00 0.  1.
         13    1    4    4    0    0 -0.39326321795E+02 -0.14215258160E+03 -0.23841841569E+03  0.28035202332E+03  0.00000000000E+00 0. -1.
          2    1    1    2  501    0  0.63775855106E+02  0.98535008812E+02  0.30638183176E+03  0.32809500833E+03  0.00000000000E+00 0. -1.
<scales pt_clust_5="13000.00000" pt_clust_6="13000.00000" pt_clust_7="13000.00000" pt_clust_8="13000.00000" pt_clust_9="119.46918"></scales>
<clustering>
<clus scale="   79.274">  5  6 -1 -1</clus>
<clus scale="   91.203">  7  8 -1 -1</clus>
<clus scale="  102.896">  2  5  1 -1</clus>
<clus scale="  119.469">  1  9  2 -1</clus>
<clus scale="  119.469">  1  5  2 -1</clus>
</clustering>
</event>
<event>
 9    1  0.7835476E-005  0.1140786E+03  0.7546771E-02  0.1257924E+00
          3   -1    0    0  502    0 -0.00000000000E+00  0.00000000000E+00  0.23711549482E+03  0.23711549482E+03  0.00000000000E+00 0. -1.
         21   -1    0    0  501  502  0.00000000000E+00 -0.00000000000E+00 -0.10916262017E+03  0.10916262017E+03  0.00000000000E+00 0.  1.
         23    2    1    2    0    0  0.20730198752E+02  0.49205063279E+02  0.85380926343E+02  0.13759076060E+03  0.93757321987E+02 0.  0.
        -24    2    1    2    0    0 -0.93594494854E+02 -0.40121073914E+02  0.35581528972E+02  0.13492699599E+03  0.81053186270E+02 0.  0.
         13    1    4    4    0    0 -0.60175543672E+02 -0.52137720268E+02  0.52721522013E+02  0.95493438593E+02  0.00000000000E+00 0. -1.
        -14    1    4    4    0    0 -0.33418951182E+02  0.12016646354E+02 -0.17139993041E+02  0.39433557399E+02  0.00000000000E+00 0.  1.
        -11    1    3    3    0    0 -0.57294443067E+01  0.55075402694E+02  0.84354281319E+01  0.56011453844E+02  0.00000000000E+00 0.  1.
         11    1    3    3    0    0  0.26459643058E+02 -0.58703394145E+01  0.76945498211E+02  0.81579306755E+02  0.00000000000E+00 0. -1.
          4    1    1    2  501    0  0.72864296102E+02 -0.90839893650E+01  0.69904193374E+01  0.73760358403E+02  0.00000000000E+00 0. -1.
<scales pt_clust_5="13000.00000" pt_clust_6="13000.00000" pt_clust_7="13000.00000" pt_clust_8="13000.00000" pt_clust_9="73.42836"></scales>
<clustering>
<clus scale="   73.428">  2  9  1 -1</clus>
<clus scale="   81.053">  5  6 -1 -1</clus>
<clus scale="   93.757">  7  8 -1 -1</clus>
<clus scale="  103.890">  2  5  1 -1</clus>
<clus scale="   73.428">  2  5  1 -1</clus>
</clustering>
</event>
<event>
 9    1  0.7835476E-005  0.1641673E+03  0.7546771E-02  0.1185095E+00
          1   -1    0    0  502    0 -0.00000000000E+00  0.00000000000E+00  0.71345877421E+03  0.71345877421E+03  0.00000000000E+00 0. -1.
         21   -1    0    0  501  502  0.00000000000E+00 -0.00000000000E+00 -0.10016842713E+03  0.10016842713E+03  0.00000000000E+00 0.  1.
        -24    2    1    2    0    0  0.11874616150E+03 -0.68334502635E+02  0.52499968111E+03  0.54887697728E+03  0.82891591249E+02 0.  0.
         23    2    1    2    0    0 -0.10996528714E+03  0.89542811518E+02 -0.57166232368E+01  0.16798108360E+03  0.89859252141E+02 0.  0.
         11    1    3    3    0    0  0.47709110938E+02 -0.73259767423E+02  0.25160073837E+03  0.26635706174E+03  0.00000000000E+00 0. -1.
        -12    1    3    3    0    0  0.71037050566E+02  0.49252647878E+01  0.27339894273E+03  0.28251991554E+03  0.00000000000E+00 0.  1.
        -11    1    4    4    0    0 -0.10992304312E+03  0.62316575289E+02 -0.31776932159E+02  0.13029276412E+03  0.00000000000E+00 0.  1.
         11    1    4    4    0    0 -0.42244015379E-01  0.27226236229E+02  0.26060308922E+02  0.37688319475E+02  0.00000000000E+00 0. -1.
          2    1    1    2  501    0 -0.87808743673E+01 -0.21208308882E+02  0.94007289220E+02  0.96769140468E+02  0.00000000000E+00 0. -1.
<scales pt_clust_5="13000.00000" pt_clust_6="13000.00000" pt_clust_7="13000.00000" pt_clust_8="13000.00000" pt_clust_9="22.95423"></scales>
<clustering>
<clus scale="   22.954">  2  9  1 -1</clus>
<clus scale="   82.892">  5  6 -1 -1</clus>
<clus scale="   89.859">  7  8 -1 -1</clus>
<clus scale="  160.459">  1  5  2 -1</clus>
<clus scale="   22.954">  2  5  1 -1</clus>
</clustering>
</event>
<event>
 9    1  0.7835476E-005  0.5754598E+03  0.7546771E-02  0.1059900E+00
          1   -1    0    0  502    0 -0.00000000000E+00  0.00000000000E+00  0.76493639445E+03  0.76493639445E+03  0.00000000000E+00 0. -1.
         21   -1    0    0  501  502  0.00000000000E+00 -0.00000000000E+00 -0.49766166356E+03  0.49766166356E+03  0.00000000000E+00 0. -1.
        -24    2    1    2    0    0 -0.19140184894E+02  0.12653710486E+02  0.40889291676E+02  0.94275918205E+02  0.81789678523E+02 0.  0.
         23    2    1    2    0    0 -0.11060596922E+03  0.54822550638E+03  0.15895951483E+03  0.58869655747E+03  0.92253038700E+02 0.  0.
         11    1    3    3    0    0  0.27800210380E+02  0.89161665418E+01 -0.36962636706E+01  0.29428083324E+02  0.00000000000E+00 0. -1.
        -12    1    3    3    0    0 -0.46940395274E+02  0.37375439443E+01  0.44585555346E+02  0.64847834881E+02  0.00000000000E+00 0.  1.
        -11    1    4    4    0    0 -0.20907680984E+02  0.56326042234E+02  0.47059223933E+02  0.76317263545E+02  0.00000000000E+00 0.  1.
         11    1    4    4    0    0 -0.89698288234E+02  0.49189946415E+03  0.11190029089E+03  0.51237929392E+03  0.00000000000E+00 0. -1.
          2    1    1    2  501    0  0.12974615411E+03 -0.56087921687E+03  0.67425924380E+02  0.57962558234E+03  0.00000000000E+00 0. -1.
<scales pt_clust_5="13000.00000" pt_clust_6="13000.00000" pt_clust_7="13000.00000" pt_clust_8="13000.00000" pt_clust_9="568.01706"></scales>
<clustering>
<clus scale="   81.790">  5  6 -1 -1</clus>
<clus scale="   84.947">  1  5  2 -1</clus>
<clus scale="   92.253">  7  8 -1 -1</clus>
<clus scale="  568.017">  2  9  1 -1</clus>
<clus scale="  568.017">  2  5  1 -1</clus>
</clustering>
</event>
<event>
 9    1  0.7835476E-005  0.1503315E+03  0.7546771E-02  0.1216740E+00
         21   -1    0    0  501  502  0.00000000000E+00  0.00000000000E+00  0.17623396480E+03  0.17623396480E+03  0.00000000000E+00 0.  1.
         -2   -1    0    0    0  501 -0.00000000000E+00 -0.00000000000E+00 -0.26866028376E+03  0.26866028376E+03  0.00000000000E+00 0.  1.
         23    2    1    2    0    0 -0.70023763805E+01  0.53157970437E+02 -0.97715030373E+02  0.14357607374E+03  0.90504467803E+02 0.  0.
        -24    2    1    2    0    0  0.12690232178E+03  0.66792174354E+01  0.52460446304E+02  0.15925601050E+03  0.80383874224E+02 0.  0.
         11    1    4    4    0    0  0.32231303127E+02  0.33370878793E+02  0.37724686950E+02  0.59796525469E+02  0.00000000000E+00 0. -1.
        -12    1    4    4    0    0  0.94671018655E+02 -0.26691661357E+02  0.14735759353E+02  0.99459485032E+02  0.00000000000E+00 0.  1.
        -13    1    3    3    0    0  0.18268846105E+02 -0.19409147057E+02 -0.14633410409E+02  0.30407275900E+02  0.00000000000E+00 0. -1.
         13    1    3    3    0    0 -0.25271222485E+02  0.72567117495E+02 -0.83081619965E+02  0.11316879783E+03  0.00000000000E+00 0.  1.
         -1    1    1    2    0  502 -0.11989994540E+03 -0.59837187873E+02 -0.47171734892E+02  0.14206216432E+03  0.00000000000E+00 0.  1.
<scales pt_clust_5="13000.00000" pt_clust_6="13000.00000" pt_clust_7="13000.00000" pt_clust_8="13000.00000" pt_clust_9="127.03543"></scales>
<clustering>
<clus scale="   80.384">  5  6 -1 -1</clus>
<clus scale="   90.504">  7  8 -1 -1</clus>
<clus scale="  105.194">  2  7  1 -1</clus>
<clus scale="  127.035">  1  9  2 -1</clus>
<clus scale="  127.035">  1  5  2 -1</clus>
</clustering>
</event>
<event>
 9    1  0.7835476E-005  0.1293841E+03  0.7546771E-02  0.1231080E+00
         21   -1    0    0  501  502  0.00000000000E+00  0.00000000000E+00  0.25457632242E+03  0.25457632242E+03  0.00000000000E+00 0.  1.
          1   -1    0    0  502    0 -0.00000000000E+00 -0.00000000000E+00 -0.13281803077E+03  0.13281803077E+03  0.00000000000E+00 0. -1.
         23    2    1    2    0    0  0.86930467610E+02 -0.25834739780E+02 -0.67052697242E+02  0.14522365060E+03  0.91484996072E+02 0.  0.
        -24    2    1    2    0    0 -0.96757012241E+02  0.57331740747E+01  0.14112249205E+03  0.18949407918E+03  0.81225978478E+02 0.  0.
         13    1    4    4    0    0 -0.69622429714E+00  0.27290454399E+02  0.22785088742E+02  0.35558598096E+02  0.00000000000E+00 0. -1.
        -14    1    4    4    0    0 -0.96060787943E+02 -0.21557280324E+02  0.11833740331E+03  0.15393548108E+03  0.00000000000E+00 0.  1.
        -11    1    3    3    0    0  0.79757116855E+02 -0.56013817014E+02 -0.46285458144E+02  0.10789387852E+03  0.00000000000E+00 0. -1.
         11    1    3    3    0    0  0.71733507551E+01  0.30179077234E+02 -0.20767239098E+02  0.37329772080E+02  0.00000000000E+00 0.  1.
          2    1    1    2  501    0  0.98265446304E+01  0.20101565705E+02  0.47688496849E+02  0.52676623419E+02  0.00000000000E+00 0. -1.
<scales pt_clust_5="13000.00000" pt_clust_6="13000.00000" pt_clust_7="13000.00000" pt_clust_8="13000.00000" pt_clust_9="22.37485"></scales>
<clustering>
<clus scale="   22.375">  1  9  2 -1</clus>
<clus scale="   81.226">  5  6 -1 -1</clus>
<clus scale="   91.485">  7  8 -1 -1</clus>
<clus scale="  122.345">  1  5  2 -1</clus>
<clus scale="   22.375">  1  5  2 -1</clus>
</clustering>
</event>
<event>
 9    1  0.7835476E-005  0.1563234E+03  0.7546771E-02  0.1195191E+00
          1   -1    0    0  502    0 -0.00000000000E+00  0.00000000000E+00  0.10177477208E+03  0.10177477208E+03  0.00000000000E+00 0. -1.
         21   -1    0    0  501  502  0.00000000000E+00 -0.00000000000E+00 -0.35017994498E+03  0.35017994498E+03  0.00000000000E+00 0. -1.
         23    2    1    2    0    0 -0.89570183334E+02 -0.11915163644E+03 -0.10738035046E+03  0.20596175676E+03  0.93111628562E+02 0.  0.
        -24    2    1    2    0    0  0.89686779808E+02  0.57427146392E+02 -0.12432434538E+03  0.18204898326E+03  0.79647309037E+02 0.  0.
         13    1    4    4    0    0  0.28700995953E+01  0.41229954222E+02 -0.21782395416E+02  0.46718511822E+02  0.00000000000E+00 0. -1.
        -14    1    4    4    0    0  0.86816680213E+02  0.16197192171E+02 -0.10254194996E+03  0.13533047144E+03  0.00000000000E+00 0.  1.
        -11    1    3    3    0    0 -0.16414382892E+02 -0.79483146491E+02 -0.89546522694E+02  0.12085355712E+03  0.00000000000E+00 0. -1.
         11    1    3    3    0    0 -0.73155800442E+02 -0.39668489944E+02 -0.17833827769E+02  0.85108199638E+02  0.00000000000E+00 0.  1.
          2    1    1    2  501    0 -0.11659647381E+00  0.61724490043E+02 -0.16700477067E+02  0.63943977043E+02  0.00000000000E+00 0. -1.
<scales pt_clust_5="13000.00000" pt_clust_6="13000.00000" pt_clust_7="13000.00000" pt_clust_8="13000.00000" pt_clust_9="61.72463"></scales>
<clustering>
<clus scale="   61.725">  2  9  1 -1</clus>
<clus scale="   79.647">  5  6 -1 -1</clus>
<clus scale="   93.112">  7  8 -1 -1</clus>
<clus scale="  148.697">  2  5  1 -1</clus>
<clus scale="   61.725">  2  5  1 -1</clus>
</clustering>
</event>
<event>
 9    1  0.7835476E-005  0.2149318E+03  0.7546771E-02  0.1140472E+00
         -2   -1    0    0    0  501 -0.00000000000E+00  0.00000000000E+00  0.46113751735E+03  0.46113751735E+03  0.00000000000E+00 0.  1.
         21   -1    0    0  501  502  0.00000000000E+00 -0.00000000000E+00 -0.36384019072E+03  0.36384019072E+03  0.00000000000E+00 0.  1.
         23    2    1    2    0    0  0.60902745087E+02  0.16844709055E+03  0.11907925006E+03  0.23371097782E+03  0.91418743608E+02 0.  0.
        -24    2    1    2    0    0  0.14594307160E+03 -0.12542073783E+03  0.19676603849E+03  0.28729358905E+03  0.82407468011E+02 0.  0.
         11    1    4    4    0    0 -0.57117751522E+01 -0.28678502314E+02  0.23206418715E+02  0.37331203302E+02  0.00000000000E+00 0. -1.
        -12    1    4    4    0    0  0.15165484675E+03 -0.96742235515E+02  0.17355961977E+03  0.24996238575E+03  0.00000000000E+00 0.  1.
        -13    1    3    3    0    0 -0.17434548271E+02  0.84279758558E+02  0.53638579200E+02  0.10141074082E+03  0.00000000000E+00 0.  1.
         13    1    3    3    0    0  0.78337293359E+02  0.84167331996E+02  0.65440670864E+02  0.13230023700E+03  0.00000000000E+00 0. -1.
         -1    1    1    2    0  502 -0.20684581668E+03 -0.43026352726E+02 -0.21854796193E+03  0.30397314120E+03  0.00000000000E+00 0.  1.
<scales pt_clust_5="13000.00000" pt_clust_6="13000.00000" pt_clust_7="13000.00000" pt_clust_8="13000.00000" pt_clust_9="198.50609"></scales>
<clustering>
<clus scale="   82.407">  5  6 -1 -1</clus>
<clus scale="   91.419">  7  8 -1 -1</clus>
<clus scale="  201.099">  1  7  2 -1</clus>
<clus scale="  198.506">  2  9  1 -1</clus>
<clus scale="  198.506">  2  5  1 -1</clus>
</clustering>
</event>
<event>
 9    1  0.7835476E-005  0.8055808E+02  0.7546771E-02  0.1329113E+00
         -4   -1    0    0    0  501 -0.00000000000E+00  0.00000000000E+00  0.18728930546E+03  0.18728930546E+03  0.00000000000E+00 0.  1.
         21   -1    0    0  501  502  0.00000000000E+00 -0.00000000000E+00 -0.23452522303E+03  0.23452522303E+03  0.00000000000E+00 0.  1.
         23    2    1    2    0    0  0.11688636195E+02  0.75925558241E+01  0.15637064059E+03  0.17471739447E+03  0.76681937709E+02 0.  0.
        -24    2    1    2    0    0 -0.38221718752E+02 -0.40854454644E+00 -0.74611358586E+02  0.11520560283E+03  0.79021575537E+02 0.  0.
         11    1    4    4    0    0 -0.51400627010E+02 -0.22553285874E+02 -0.68793339425E+02  0.88787379227E+02  0.00000000000E+00 0. -1.
        -12    1    4    4    0    0  0.13178908258E+02  0.22144741328E+02 -0.58180191609E+01  0.26418223602E+02  0.00000000000E+00 0.  1.
        -11    1    3    3    0    0  0.13881737650E+02  0.29159074006E+02  0.14799537019E+03  0.15147799786E+03  0.00000000000E+00 0.  1.
         11    1    3    3    0    0 -0.21931014549E+01 -0.21566518182E+02  0.83752703988E+01  0.23239396609E+02  0.00000000000E+00 0. -1.
         -3    1    1    2    0  502  0.26533082557E+02 -0.71840112777E+01 -0.12899519958E+03  0.13189153120E+03  0.00000000000E+00 0.  1.
<scales pt_clust_5="13000.00000" pt_clust_6="13000.00000" pt_clust_7="13000.00000" pt_clust_8="13000.00000" pt_clust_9="27.48844"></scales>
<clustering>
<clus scale="   27.488">  2  9  1 -1</clus>
<clus scale="   76.682">  7  8 -1 -1</clus>
<clus scale="   78.264">  1  7  2 -1</clus>
<clus scale="   79.022">  5  6 -1 -1</clus>
<clus scale="   27.488">  2  5  1 -1</clus>
</clustering>
</event>
<event>
 9    1  0.7835476E-005  0.1137041E+03  0.7546771E-02  0.1257708E+00
         21   -1    0    0  501  502  0.00000000000E+00  0.00000000000E+00  0.49773070665E+02  0.49773070665E+02  0.00000000000E+00 0.  1.
         -4   -1    0    0    0  501 -0.00000000000E+00 -0.00000000000E+00 -0.54543410443E+03  0.54543410443E+03  0.00000000000E+00 0.  1.
        -24    2    1    2    0    0 -0.55848448732E+02 -0.71484585632E+02 -0.33139134036E+03  0.35265836745E+03  0.79489675181E+02 0.  0.
         23    2    1    2    0    0 -0.15234333974E+02  0.42553633407E+02 -0.10438972151E+03  0.14520727988E+03  0.90249894872E+02 0.  0.
         13    1    3    3    0    0  0.18881484815E+02 -0.18912385117E+02 -0.48472662172E+02  0.55351492822E+02  0.00000000000E+00 0. -1.
        -14    1    3    3    0    0 -0.74729933547E+02 -0.52572200515E+02 -0.28291867818E+03  0.29730687463E+03  0.00000000000E+00 0.  1.
        -11    1    4    4    0    0 -0.35221504519E+02  0.87946851780E+01 -0.29233326949E+01  0.36420416555E+02  0.00000000000E+00 0.  1.
         11    1    4    4    0    0  0.19987170545E+02  0.33758948229E+02 -0.10146638882E+03  0.10878686332E+03  0.00000000000E+00 0. -1.
         -3    1    1    2    0  502  0.71082782706E+02  0.28930952225E+02 -0.59879971895E+02  0.97341527767E+02  0.00000000000E+00 0.  1.
<scales pt_clust_5="13000.00000" pt_clust_6="13000.00000" pt_clust_7="13000.00000" pt_clust_8="13000.00000" pt_clust_9="76.74478"></scales>
<clustering>
<clus scale="   76.745">  1  9  2 -1</clus>
<clus scale="   79.490">  5  6 -1 -1</clus>
<clus scale="   90.250">  7  8 -1 -1</clus>
<clus scale="  105.367">  2  5  1 -1</clus>
<clus scale="   76.745">  1  5  2 -1</clus>
</clustering>
</event>
<event>
 9    1  0.7835476E-005  0.1147404E+03  0.7546771E-02  0.1255181E+00
         21   -1    0    0  501  502  0.00000000000E+00  0.00000000000E+00  0.10440642062E+03  0.10440642062E+03  0.00000000000E+00 0. -1.
          1   -1    0    0  502    0 -0.00000000000E+00 -0.00000000000E+00 -0.36317684330E+03  0.36317684330E+03  0.00000000000E+00 0. -1.
        -24    2    1    2    0    0 -0.39892857008E+02 -0.63404312046E+02 -0.27006352659E+03  0.29176535285E+03  0.81124385379E+02 0.  0.
         23    2    1    2    0    0  0.47035853750E+02  0.37600477107E+02 -0.41928011933E+02  0.11624151079E+03  0.90155217426E+02 0.  0.
         13    1    3    3    0    0 -0.26946022974E+02  0.14816937309E+02 -0.64966790009E+02  0.71877072766E+02  0.00000000000E+00 0. -1.
        -14    1    3    3    0    0 -0.12946834034E+02 -0.78221249355E+02 -0.20509673658E+03  0.21988828008E+03  0.00000000000E+00 0.  1.
        -11    1    4    4    0    0  0.14909936638E+02  0.63113884874E+02 -0.37666637258E+02  0.74996294820E+02  0.00000000000E+00 0.  1.
         11    1    4    4    0    0  0.32125917112E+02 -0.25513407767E+02 -0.42613746759E+01  0.41245215969E+02  0.00000000000E+00 0. -1.
          2    1    1    2  501    0 -0.71429967422E+01  0.25803834939E+02  0.53221115835E+02  0.59576400284E+02  0.00000000000E+00 0. -1.
<scales pt_clust_5="13000.00000" pt_clust_6="13000.00000" pt_clust_7="13000.00000" pt_clust_8="13000.00000" pt_clust_9="26.77425"></scales>
<clustering>
<clus scale="   26.774">  1  9  2 -1</clus>
<clus scale="   81.124">  5  6 -1 -1</clus>
<clus scale="   90.155">  7  8 -1 -1</clus>
<clus scale="  107.789">  2  5  1 -1</clus>
<clus scale="   26.774">  1  5  2 -1</clus>
</clustering>
</event>
<event>
 9    1  0.7835476E-005  0.9347669E+02  0.7546771E-02  0.1300763E+00
         21   -1    0    0  501  502  0.00000000000E+00  0.00000000000E+00  0.10287323185E+03  0.10287323185E+03  0.00000000000E+00 0. -1.
          1   -1    0    0  502    0 -0.00000000000E+00 -0.00000000000E+00 -0.20287809527E+03  0.20287809527E+03  0.00000000000E+00 0. -1.
        -24    2    1    2    0    0  0.30020076320E+02 -0.74846830768E+01 -0.13377052253E+03  0.15853739797E+03  0.79261140513E+02 0.  0.
         23    2    1    2    0    0  0.40800457933E+01  0.31182843195E+02  0.23066039935E+01  0.95116968869E+02  0.89737956637E+02 0.  0.
         13    1    3    3    0    0  0.50952403269E+02  0.11092359616E+02 -0.11032429677E+03  0.12202720311E+03  0.00000000000E+00 0. -1.
        -14    1    3    3    0    0 -0.20932326948E+02 -0.18577042692E+02 -0.23446225756E+02  0.36510194862E+02  0.00000000000E+00 0.  1.
        -13    1    4    4    0    0  0.30401159015E+02  0.48540863843E+02  0.17812410013E+02  0.59981062699E+02  0.00000000000E+00 0. -1.
         13    1    4    4    0    0 -0.26321113221E+02 -0.17358020648E+02 -0.15505806020E+02  0.35135906169E+02  0.00000000000E+00 0.  1.
          2    1    1    2  501    0 -0.34100122114E+02 -0.23698160118E+02  0.31459055117E+02  0.52096960276E+02  0.00000000000E+00 0. -1.
<scales pt_clust_5="13000.00000" pt_clust_6="13000.00000" pt_clust_7="13000.00000" pt_clust_8="13000.00000" pt_clust_9="41.52615"></scales>
<clustering>
<clus scale="   41.526">  1  9  2 -1</clus>
<clus scale="   79.261">  5  6 -1 -1</clus>
<clus scale="   83.470">  2  5  1 -1</clus>
<clus scale="   89.738">  7  8 -1 -1</clus>
<clus scale="   41.526">  1  5  2 -1</clus>
</clustering>
</event>
<event>
 9    1  0.7835476E-005  0.1406673E+03  0.7546771E-02  0.1239118E+00
         21   -1    0    0  501  502  0.00000000000E+00  0.00000000000E+00  0.86199341423E+03  0.86199341423E+03  0.00000000000E+00 0. -1.
          3   -1    0    0  502    0 -0.00000000000E+00 -0.00000000000E+00 -0.82965149100E+02  0.82965149100E+02  0.00000000000E+00 0. -1.
        -24    2    1    2    0    0  0.67209486769E+01 -0.24769160532E+01 -0.29735295227E+02  0.86057322945E+02  0.80438602586E+02 0.  0.
         23    2    1    2    0    0  0.10100174377E+03 -0.51018009914E+01  0.20997773960E+03  0.25045561869E+03  0.91705971384E+02 0.  0.
         13    1    3    3    0    0  0.35170867883E+02  0.14075133376E+01 -0.42029668921E+02  0.54822113340E+02  0.00000000000E+00 0. -1.
        -14    1    3    3    0    0 -0.28449919206E+02 -0.38844293907E+01  0.12294373695E+02  0.31235209605E+02  0.00000000000E+00 0.  1.
        -13    1    4    4    0    0  0.10606837714E+03 -0.30419203753E+02  0.16273379997E+03  0.19661667844E+03  0.00000000000E+00 0. -1.
         13    1    4    4    0    0 -0.50666333646E+01  0.25317402762E+02  0.47243939624E+02  0.53838940252E+02  0.00000000000E+00 0.  1.
          4    1    1    2  501    0 -0.10772269245E+03  0.75787170446E+01  0.59878582076E+03  0.60844562170E+03  0.00000000000E+00 0. -1.
<scales pt_clust_5="13000.00000" pt_clust_6="13000.00000" pt_clust_7="13000.00000" pt_clust_8="13000.00000" pt_clust_9="106.66446"></scales>
<clustering>
<clus scale="   80.439">  5  6 -1 -1</clus>
<clus scale="   80.757">  2  5  1 -1</clus>
<clus scale="   91.706">  7  8 -1 -1</clus>
<clus scale="  106.664">  1  9  2 -1</clus>
<clus scale="  106.664">  1  5  2 -1</clus>
</clustering>
</event>
<event>
 9    1  0.7835476E-005  0.1940329E+03  0.7546771E-02  0.1192231E+00
         -4   -1    0    0    0  501 -0.00000000000E+00  0.00000000000E+00  0.58266930431E+03  0.58266930431E+03  0.00000000000E+00 0.  1.
         21   -1    0    0  501  502  0.00000000000E+00 -0.00000000000E+00 -0.18521172548E+03  0.18521172548E+03  0.00000000000E+00 0. -1.
        -24    2    1    2    0    0  0.46986291842E+00  0.39589106732E+01  0.81580160367E+02  0.11636540033E+03  0.82883593573E+02 0.  0.
         23    2    1    2    0    0  0.13139707213E+03  0.11848599055E+03 -0.85452824468E+02  0.21168883823E+03  0.78777271473E+02 0.  0.
         13    1    3    3    0    0  0.14115246986E+02 -0.29438187256E+02  0.71972354783E+02  0.79030797284E+02  0.00000000000E+00 0. -1.
        -14    1    3    3    0    0 -0.13645384068E+02  0.33397097929E+02  0.96078055839E+01  0.37334603046E+02  0.00000000000E+00 0.  1.
        -13    1    4    4    0    0  0.11778921989E+03  0.73696131366E+02 -0.88571689597E+02  0.16477367599E+03  0.00000000000E+00 0. -1.
         13    1    4    4    0    0  0.13607852232E+02  0.44789859183E+02  0.31188651285E+01  0.46915162236E+02  0.00000000000E+00 0.  1.
         -3    1    1    2    0  502 -0.13186693504E+03 -0.12244490122E+03  0.40133024293E+03  0.43982679123E+03  0.00000000000E+00 0.  1.
<scales pt_clust_5="13000.00000" pt_clust_6="13000.00000" pt_clust_7="13000.00000" pt_clust_8="13000.00000" pt_clust_9="177.32162"></scales>
<clustering>
<clus scale="   78.777">  7  8 -1 -1</clus>
<clus scale="   82.884">  5  6 -1 -1</clus>
<clus scale="   82.979">  1  5  2 -1</clus>
<clus scale="  177.322">  2  9  1 -1</clus>
<clus scale="  177.322">  2  5  1 -1</clus>
</clustering>
</event>
<event>
 9    1  0.7835476E-005  0.1910754E+03  0.7546771E-02  0.1158722E+00
         21   -1    0    0  501  502  0.00000000000E+00  0.00000000000E+00  0.58620392262E+03  0.58620392262E+03  0.00000000000E+00 0.  1.
          1   -1    0    0  502    0 -0.00000000000E+00 -0.00000000000E+00 -0.11746877580E+03  0.11746877580E+03  0.00000000000E+00 0. -1.
        -24    2    1    2    0    0  0.47663494090E+02 -0.11436127657E+03  0.16924659152E+03  0.22488393406E+03  0.81105269906E+02 0.  0.
         23    2    1    2    0    0 -0.16761907977E+03  0.14895042659E+03  0.15555291829E+03  0.28825472689E+03  0.92799200970E+02 0.  0.
         13    1    3    3    0    0  0.40601167264E+02 -0.12438500769E+03  0.13279752953E+03  0.18642765023E+03  0.00000000000E+00 0. -1.
        -14    1    3    3    0    0  0.70623268259E+01  0.10023731115E+02  0.36449061994E+02  0.38456283828E+02  0.00000000000E+00 0.  1.
        -13    1    4    4    0    0 -0.10520303484E+03  0.49949187532E+02  0.38315653659E+02  0.12259971121E+03  0.00000000000E+00 0.  1.
         13    1    4    4    0    0 -0.62416044934E+02  0.99001239056E+02  0.11723726464E+03  0.16565501568E+03  0.00000000000E+00 0. -1.
          2    1    1    2  501    0  0.11995558568E+03 -0.34589150015E+02  0.14393563700E+03  0.19053403747E+03  0.00000000000E+00 0. -1.
<scales pt_clust_5="13000.00000" pt_clust_6="13000.00000" pt_clust_7="13000.00000" pt_clust_8="13000.00000" pt_clust_9="124.84291"></scales>
<clustering>
<clus scale="   81.105">  5  6 -1 -1</clus>
<clus scale="   92.799">  7  8 -1 -1</clus>
<clus scale="  124.843">  1  9  2 -1</clus>
<clus scale="  185.678">  2  5  1 -1</clus>
<clus scale="  124.843">  1  5  2 -1</clus>
</clustering>
</event>
<event>
 9    1  0.7835476E-005  0.9992538E+02  0.7546771E-02  0.1285670E+00
         21   -1    0    0  501  502  0.00000000000E+00  0.00000000000E+00  0.49985022922E+02  0.49985022922E+02  0.00000000000E+00 0. -1.
          1   -1    0    0  502    0 -0.00000000000E+00 -0.00000000000E+00 -0.42018983500E+03  0.42018983500E+03  0.00000000000E+00 0. -1.
         23    2    1    2    0    0 -0.11735089647E+01 -0.53698981132E+02 -0.11533683883E+03  0.15576256611E+03  0.89857848363E+02 0.  0.
        -24    2    1    2    0    0 -0.31528460020E+02  0.25650676515E+02 -0.44318529840E+02  0.99500230057E+02  0.79272710924E+02 0.  0.
         13    1    4    4    0    0 -0.27962444382E+02  0.46966890866E+02 -0.53067930706E+02  0.76183937958E+02  0.00000000000E+00 0. -1.
        -14    1    4    4    0    0 -0.35660156377E+01 -0.21316214350E+02  0.87494008653E+01  0.23316292099E+02  0.00000000000E+00 0.  1.
        -13    1    3    3    0    0 -0.33798183998E+02 -0.22033350045E+02 -0.10799259890E+02  0.41766131853E+02  0.00000000000E+00 0. -1.
         13    1    3    3    0    0  0.32624675033E+02 -0.31665631087E+02 -0.10453757894E+03  0.11399643426E+03  0.00000000000E+00 0.  1.
          2    1    1    2  501    0  0.32701968985E+02  0.28048304617E+02 -0.21054944341E+03  0.21491206175E+03  0.00000000000E+00 0. -1.
<scales pt_clust_5="13000.00000" pt_clust_6="13000.00000" pt_clust_7="13000.00000" pt_clust_8="13000.00000" pt_clust_9="43.08280"></scales>
<clustering>
<clus scale="   43.083">  1  9  2 -1</clus>
<clus scale="   79.273">  5  6 -1 -1</clus>
<clus scale="   89.858">  7  8 -1 -1</clus>
<clus scale="   90.525">  1  5  2 -1</clus>
<clus scale="   43.083">  1  5  2 -1</clus>
</clustering>
</event>
<event>
 9    1  0.7835476E-005  0.9444109E+02  0.7546771E-02  0.1296610E+00
         21   -1    0    0  501  502  0.00000000000E+00  0.00000000000E+00  0.21615333249E+03  0.21615333249E+03  0.00000000000E+00 0.  1.
         -2   -1    0    0    0  501 -0.00000000000E+00 -0.00000000000E+00 -0.78048369359E+02  0.78048369359E+02  0.00000000000E+00 0.  1.
        -24    2    1    2    0    0  0.17087360999E+02  0.33505034149E+02  0.24838637773E+01  0.88042317913E+02  0.79565790042E+02 0.  0.
         23    2    1    2    0    0 -0.47075612050E+02 -0.43775283890E+01  0.50542501659E+02  0.11136447596E+03  0.87248071763E+02 0.  0.
         11    1    3    3    0    0  0.23337684510E+02  0.47097460947E+02  0.27175466701E+02  0.59171989457E+02  0.00000000000E+00 0. -1.
        -12    1    3    3    0    0 -0.62503235114E+01 -0.13592426797E+02 -0.24691602924E+02  0.28870328456E+02  0.00000000000E+00 0.  1.
        -13    1    4    4    0    0  0.21630348413E+02  0.14726728570E+02  0.23260505510E+02  0.35011421328E+02  0.00000000000E+00 0. -1.
         13    1    4    4    0    0 -0.68705960463E+02 -0.19104256959E+02  0.27281996149E+02  0.76353054628E+02  0.00000000000E+00 0.  1.
         -1    1    1    2    0  502  0.29988251051E+02 -0.29127505760E+02  0.85078597697E+02  0.94794907980E+02  0.00000000000E+00 0.  1.
<scales pt_clust_5="13000.00000" pt_clust_6="13000.00000" pt_clust_7="13000.00000" pt_clust_8="13000.00000" pt_clust_9="41.80558"></scales>
<clustering>
<clus scale="   41.806">  1  9  2 -1</clus>
<clus scale="   79.566">  5  6 -1 -1</clus>
<clus scale="   87.248">  7  8 -1 -1</clus>
<clus scale="   87.393">  2  5  1 -1</clus>
<clus scale="   41.806">  1  5  2 -1</clus>
</clustering>
</event>
<event>
 9    1  0.7835476E-005  0.1610914E+03  0.7546771E-02  0.1187491E+00
          1   -1    0    0  502    0 -0.00000000000E+00  0.00000000000E+00  0.14372328312E+04  0.14372328312E+04  0.00000000000E+00 0. -1.
         21   -1    0    0  501  502  0.00000000000E+00 -0.00000000000E+00 -0.52253243707E+02  0.52253243707E+02  0.00000000000E+00 0. -1.
         23    2    1    2    0    0 -0.14302608533E+03  0.33254494085E+02  0.56831455944E+03  0.59401884649E+03  0.91184587798E+02 0.  0.
        -24    2    1    2    0    0  0.10740130151E+03  0.12377316715E+03  0.58836547737E+03  0.61609740819E+03  0.80915047649E+02 0.  0.
         11    1    4    4    0    0  0.81978534872E+02  0.90167058236E+02  0.53166888505E+03  0.54545612280E+03  0.00000000000E+00 0. -1.
        -12    1    4    4    0    0  0.25422766637E+02  0.33606108913E+02  0.56696592326E+02  0.70641285387E+02  0.00000000000E+00 0.  1.
        -13    1    3    3    0    0 -0.12089679227E+03  0.60943797323E+02  0.48343566008E+03  0.50203607266E+03  0.00000000000E+00 0. -1.
         13    1    3    3    0    0 -0.22129293056E+02 -0.27689303238E+02  0.84878899358E+02  0.91982773829E+02  0.00000000000E+00 0.  1.
          2    1    1    2  501    0  0.35624783817E+02 -0.15702766123E+03  0.22829955067E+03  0.27936982022E+03  0.00000000000E+00 0. -1.
<scales pt_clust_5="13000.00000" pt_clust_6="13000.00000" pt_clust_7="13000.00000" pt_clust_8="13000.00000" pt_clust_9="161.01805"></scales>
<clustering>
<clus scale="   80.915">  5  6 -1 -1</clus>
<clus scale="   91.185">  7  8 -1 -1</clus>
<clus scale="  161.018">  2  9  1 -1</clus>
<clus scale="  161.018">  2  5  1 -1</clus>
<clus scale="  161.018">  2  5  1 -1</clus>
</clustering>
</event>
<event>
 9    1  0.7835476E-005  0.1073978E+03  0.7546771E-02  0.1269751E+00
         -2   -1    0    0    0  501 -0.00000000000E+00  0.00000000000E+00  0.43188624405E+03  0.43188624405E+03  0.00000000000E+00 0.  1.
         21   -1    0    0  501  502  0.00000000000E+00 -0.00000000000E+00 -0.45710476886E+02  0.45710476886E+02  0.00000000000E+00 0.  1.
        -24    2    1    2    0    0  0.12432346264E+02  0.62571011607E+02  0.28888891289E+03  0.30676519969E+03  0.81107268632E+02 0.  0.
         23    2    1    2    0    0 -0.13253066128E+02 -0.28132560862E+02  0.41029493627E+02  0.10486508207E+03  0.91357437282E+02 0.  0.
         13    1    3    3    0    0 -0.18094909267E+02  0.69267875753E+02  0.21224126753E+03  0.22399066944E+03  0.00000000000E+00 0. -1.
        -14    1    3    3    0    0  0.30527255532E+02 -0.66968641457E+01  0.76647645355E+02  0.82774530251E+02  0.00000000000E+00 0.  1.
        -11    1    4    4    0    0 -0.85556674977E+01 -0.54782006149E+02  0.51668480910E+02  0.75788518679E+02  0.00000000000E+00 0. -1.
         11    1    4    4    0    0 -0.46973986303E+01  0.26649445286E+02 -0.10638987283E+02  0.29076563386E+02  0.00000000000E+00 0.  1.
         -1    1    1    2    0  502  0.82071986395E+00 -0.34438450745E+02  0.56257360645E+02  0.65966439175E+02  0.00000000000E+00 0.  1.
<scales pt_clust_5="13000.00000" pt_clust_6="13000.00000" pt_clust_7="13000.00000" pt_clust_8="13000.00000" pt_clust_9="34.44825"></scales>
<clustering>
<clus scale="   34.448">  2  9  1 -1</clus>
<clus scale="   81.107">  5  6 -1 -1</clus>
<clus scale="   91.357">  7  8 -1 -1</clus>
<clus scale="   98.826">  1  5  2 -1</clus>
<clus scale="   34.448">  2  5  1 -1</clus>
</clustering>
</event>
<event>
 9    1  0.7835476E-005  0.1770194E+03  0.7546771E-02  0.1172043E+00
          1   -1    0    0  502    0 -0.00000000000E+00  0.00000000000E+00  0.13955892949E+03  0.13955892949E+03  0.00000000000E+00 0. -1.
         21   -1    0    0  501  502  0.00000000000E+00 -0.00000000000E+00 -0.49819742896E+03  0.49819742896E+03  0.00000000000E+00 0.  1.
         23    2    1    2    0    0 -0.72144606539E+02 -0.13389924152E+03 -0.45042492869E+02  0.18330348336E+03  0.91855809385E+02 0.  0.
        -24    2    1    2    0    0  0.10133867956E+03  0.11327356693E+03 -0.35807563453E+03  0.39739019330E+03  0.81242702732E+02 0.  0.
         13    1    4    4    0    0  0.36810466790E+02 -0.24420288336E+00 -0.44751410800E+02  0.57946172168E+02  0.00000000000E+00 0. -1.
        -14    1    4    4    0    0  0.64528212774E+02  0.11351776981E+03 -0.31332422373E+03  0.33944402114E+03  0.00000000000E+00 0.  1.
        -11    1    3    3    0    0 -0.24193203323E+02 -0.85517562855E+02 -0.67475402825E+02  0.11158626542E+03  0.00000000000E+00 0. -1.
         11    1    3    3    0    0 -0.47951403216E+02 -0.48381678661E+02  0.22432909957E+02  0.71717217943E+02  0.00000000000E+00 0.  1.
          2    1    1    2  501    0 -0.29194073024E+02  0.20625674589E+02  0.44479627929E+02  0.57062681787E+02  0.00000000000E+00 0. -1.
<scales pt_clust_5="13000.00000" pt_clust_6="13000.00000" pt_clust_7="13000.00000" pt_clust_8="13000.00000" pt_clust_9="35.74512"></scales>
<clustering>
<clus scale="   35.745">  2  9  1 -1</clus>
<clus scale="   81.243">  5  6 -1 -1</clus>
<clus scale="   91.856">  7  8 -1 -1</clus>
<clus scale="  171.752">  2  5  1 -1</clus>
<clus scale="   35.745">  2  5  1 -1</clus>
</clustering>
</event>
<event>
 9    1  0.7835476E-005  0.1436690E+03  0.7546771E-02  0.1210454E+00
         21   -1    0    0  501  502  0.00000000000E+00  0.00000000000E+00  0.37992867456E+03  0.37992867456E+03  0.00000000000E+00 0.  1.
          1   -1    0    0  502    0 -0.00000000000E+00 -0.00000000000E+00 -0.24852579449E+03  0.24852579449E+03  0.00000000000E+00 0. -1.
         23    2    1    2    0    0  0.67444485158E+02 -0.89873024501E+02 -0.15373114680E+03  0.21090945725E+03  0.90684147174E+02 0.  0.
        -24    2    1    2    0    0 -0.77636282031E+02  0.66639937519E+02  0.33614587275E+03  0.36057258449E+03  0.80933722020E+02 0.  0.
         11    1    4    4    0    0 -0.41607128359E+02 -0.54424028861E+01  0.62282906846E+02  0.75099489776E+02  0.00000000000E+00 0. -1.
        -12    1    4    4    0    0 -0.36029153672E+02  0.72082340405E+02  0.27386296590E+03  0.28547309472E+03  0.00000000000E+00 0.  1.
        -11    1    3    3    0    0  0.56107017408E+02 -0.68098257124E+02 -0.44248468712E+02  0.98708140541E+02  0.00000000000E+00 0. -1.
         11    1    3    3    0    0  0.11337467750E+02 -0.21774767377E+02 -0.10948267809E+03  0.11220131670E+03  0.00000000000E+00 0.  1.
          2    1    1    2  501    0  0.10191796873E+02  0.23233086982E+02 -0.51011845875E+02  0.56972427311E+02  0.00000000000E+00 0. -1.
<scales pt_clust_5="13000.00000" pt_clust_6="13000.00000" pt_clust_7="13000.00000" pt_clust_8="13000.00000" pt_clust_9="25.37025"></scales>
<clustering>
<clus scale="   25.370">  1  9  2 -1</clus>
<clus scale="   80.934">  5  6 -1 -1</clus>
<clus scale="   90.684">  7  8 -1 -1</clus>
<clus scale="  137.722">  1  5  2 -1</clus>
<clus scale="   25.370">  1  5  2 -1</clus>
</clustering>
</event>
<event>
 9    1  0.7835476E-005  0.2287475E+03  0.7546771E-02  0.1159608E+00
         21   -1    0    0  501  502  0.00000000000E+00  0.00000000000E+00  0.15406184713E+03  0.15406184713E+03  0.00000000000E+00 0. -1.
          1   -1    0    0  502    0 -0.00000000000E+00 -0.00000000000E+00 -0.80657267216E+03  0.80657267216E+03  0.00000000000E+00 0. -1.
         23    2    1    2    0    0  0.64615361786E+02 -0.37372539242E+01 -0.38183141437E+03  0.39627374266E+03  0.83955572032E+02 0.  0.
        -24    2    1    2    0    0 -0.25528412174E+03 -0.44848159601E+02 -0.24478122714E+03  0.36590213020E+03  0.82372200973E+02 0.  0.
         11    1    4    4    0    0 -0.15841045127E+03  0.99924258065E+01 -0.12218697571E+03  0.20030820422E+03  0.00000000000E+00 0. -1.
        -12    1    4    4    0    0 -0.96873670475E+02 -0.54840585407E+02 -0.12259425143E+03  0.16559392598E+03  0.00000000000E+00 0.  1.
        -13    1    3    3    0    0  0.35002097779E+02 -0.38178371917E+02 -0.12258396350E+03  0.13307728221E+03  0.00000000000E+00 0.  1.
         13    1    3    3    0    0  0.29613264006E+02  0.34441117993E+02 -0.25924745087E+03  0.26319646046E+03  0.00000000000E+00 0. -1.
          2    1    1    2  501    0  0.19066875996E+03  0.48585413525E+02 -0.25898183510E+02  0.19845864642E+03  0.00000000000E+00 0. -1.
<scales pt_clust_5="13000.00000" pt_clust_6="13000.00000" pt_clust_7="13000.00000" pt_clust_8="13000.00000" pt_clust_9="213.40160"></scales>
<clustering>
<clus scale="   82.372">  5  6 -1 -1</clus>
<clus scale="   83.956">  7  8 -1 -1</clus>
<clus scale="  106.008">  2  7  1 -1</clus>
<clus scale="  213.402">  1  9  2 -1</clus>
<clus scale="  213.402">  1  5  2 -1</clus>
</clustering>
</event>
<event>
 9    1  0.7835476E-005  0.2789533E+03  0.7546771E-02  0.1097573E+00
         21   -1    0    0  501  502  0.00000000000E+00  0.00000000000E+00  0.56185552570E+03  0.56185552570E+03  0.00000000000E+00 0.  1.
         -2   -1    0    0    0  501 -0.00000000000E+00 -0.00000000000E+00 -0.26415328172E+03  0.26415328172E+03  0.00000000000E+00 0.  1.
        -24    2    1    2    0    0  0.13539658242E+03  0.13823174532E+03  0.72509157654E+02  0.22204511446E+03  0.81278564025E+02 0.  0.
         23    2    1    2    0    0 -0.25842609391E+03 -0.25720666029E+03  0.10429516291E+03  0.39442229136E+03  0.10840733741E+03 0.  0.
         11    1    3    3    0    0  0.36086787171E+02  0.36199789272E+02  0.60433172153E+02  0.79150800679E+02  0.00000000000E+00 0. -1.
        -12    1    3    3    0    0  0.99309795246E+02  0.10203195605E+03  0.12075985501E+02  0.14289431379E+03  0.00000000000E+00 0.  1.
        -11    1    4    4    0    0 -0.34533865866E+02 -0.51881104689E+02  0.61637828648E+02  0.87655341171E+02  0.00000000000E+00 0.  1.
         11    1    4    4    0    0 -0.22389222805E+03 -0.20532555560E+03  0.42657334263E+02  0.30676695019E+03  0.00000000000E+00 0. -1.
         -1    1    1    2    0  502  0.12302951150E+03  0.11897491497E+03  0.12089792342E+03  0.20954140159E+03  0.00000000000E+00 0.  1.
<scales pt_clust_5="13000.00000" pt_clust_6="13000.00000" pt_clust_7="13000.00000" pt_clust_8="13000.00000" pt_clust_9="171.14699"></scales>
<clustering>
<clus scale="   81.279">  5  6 -1 -1</clus>
<clus scale="  108.407">  7  8 -1 -1</clus>
<clus scale="  171.147">  1  9  2 -1</clus>
<clus scale="  269.572">  2  5  1 -1</clus>
<clus scale="  171.147">  1  5  2 -1</clus>
</clustering>
</event>
<event>
 9    1  0.7835476E-005  0.9363880E+02  0.7546771E-02  0.1302694E+00
         21   -1    0    0  501  502  0.00000000000E+00  0.00000000000E+00  0.21681460691E+03  0.21681460691E+03  0.00000000000E+00 0. -1.
          1   -1    0    0  502    0 -0.00000000000E+00 -0.00000000000E+00 -0.20571479778E+03  0.20571479778E+03  0.00000000000E+00 0. -1.
        -24    2    1    2    0    0  0.12595969120E+02 -0.61509632950E+01 -0.13398082630E+03  0.15637476389E+03  0.79408514513E+02 0.  0.
         23    2    1    2    0    0  0.30654800122E+02  0.25776833911E+02 -0.12068414755E+02  0.10198513142E+03  0.93011603896E+02 0.  0.
         11    1    3    3    0    0 -0.94205992479E+01 -0.34729540889E+02 -0.10201077765E+03  0.10817156492E+03  0.00000000000E+00 0. -1.
        -12    1    3    3    0    0  0.22016568368E+02  0.28578577594E+02 -0.31970048653E+02  0.48203198969E+02  0.00000000000E+00 0.  1.
        -13    1    4    4    0    0  0.30631466588E+00  0.57122647871E+02 -0.17441570507E+01  0.57150090221E+02  0.00000000000E+00 0.  1.
         13    1    4    4    0    0  0.30348485457E+02 -0.31345813960E+02 -0.10324257705E+02  0.44835041200E+02  0.00000000000E+00 0. -1.
          2    1    1    2  501    0 -0.43250769243E+02 -0.19625870616E+02  0.15714905018E+03  0.16416950938E+03  0.00000000000E+00 0. -1.
<scales pt_clust_5="13000.00000" pt_clust_6="13000.00000" pt_clust_7="13000.00000" pt_clust_8="13000.00000" pt_clust_9="47.49530"></scales>
<clustering>
<clus scale="   47.495">  1  9  2 -1</clus>
<clus scale="   79.409">  5  6 -1 -1</clus>
<clus scale="   80.142">  2  5  1 -1</clus>
<clus scale="   93.012">  7  8 -1 -1</clus>
<clus scale="   47.495">  1  5  2 -1</clus>
</clustering>
</event>
<event>
 9    1  0.7835476E-005  0.1286238E+03  0.7546771E-02  0.1234333E+00
         21   -1    0    0  501  502  0.00000000000E+00  0.00000000000E+00  0.40127653206E+03  0.40127653206E+03  0.00000000000E+00 0. -1.
          1   -1    0    0  502    0 -0.00000000000E+00 -0.00000000000E+00 -0.69418468145E+02  0.69418468145E+02  0.00000000000E+00 0. -1.
        -24    2    1    2    0    0 -0.10068376532E+03  0.10359807424E+02  0.47171255157E+02  0.13788221667E+03  0.80881593404E+02 0.  0.
         23    2    1    2    0    0  0.42171521401E+02 -0.30363480244E+02  0.18393693179E+03  0.21459955533E+03  0.97569442556E+02 0.  0.
         13    1    3    3    0    0 -0.80162513716E+02 -0.88921775205E+01 -0.26127284968E+01  0.80696504116E+02  0.00000000000E+00 0. -1.
        -14    1    3    3    0    0 -0.20521251602E+02  0.19251984944E+02  0.49783983653E+02  0.57185712551E+02  0.00000000000E+00 0.  1.
        -11    1    4    4    0    0 -0.45847489029E+01  0.22897453023E+02  0.76069179784E+01  0.24559692151E+02  0.00000000000E+00 0.  1.
         11    1    4    4    0    0  0.46756270304E+02 -0.53260933267E+02  0.17633001381E+03  0.19003986318E+03  0.00000000000E+00 0. -1.
          2    1    1    2  501    0  0.58512243917E+02  0.20003672820E+02  0.10074987696E+03  0.11821322820E+03  0.00000000000E+00 0. -1.
<scales pt_clust_5="13000.00000" pt_clust_6="13000.00000" pt_clust_7="13000.00000" pt_clust_8="13000.00000" pt_clust_9="61.83712"></scales>
<clustering>
<clus scale="   61.837">  1  9  2 -1</clus>
<clus scale="   80.882">  5  6 -1 -1</clus>
<clus scale="   97.569">  7  8 -1 -1</clus>
<clus scale="  116.474">  2  5  1 -1</clus>
<clus scale="   61.837">  1  5  2 -1</clus>
</clustering>
</event>
<event>
 9    1  0.7835476E-005  0.1853661E+03  0.7546771E-02  0.1184392E+00
         21   -1    0    0  501  502  0.00000000000E+00  0.00000000000E+00  0.13298050457E+03  0.13298050457E+03  0.00000000000E+00 0. -1.
         -4   -1    0    0    0  501 -0.00000000000E+00 -0.00000000000E+00 -0.65150139834E+03  0.65150139834E+03  0.00000000000E+00 0.  1.
         23    2    1    2    0    0 -0.36134193155E+02  0.57152158707E+02  0.24237124363E+02  0.11578980196E+03  0.90817349008E+02 0.  0.
        -24    2    1    2    0    0 -0.10017169495E+03 -0.15098372234E+03 -0.41436135762E+03  0.45924196393E+03  0.79858586682E+02 0.  0.
         11    1    4    4    0    0 -0.99856978708E+02 -0.15856793401E+03 -0.40918905456E+03  0.45005653896E+03  0.00000000000E+00 0. -1.
        -12    1    4    4    0    0 -0.31471624476E+00  0.75842116684E+01 -0.51723030645E+01  0.91854249732E+01  0.00000000000E+00 0.  1.
        -13    1    3    3    0    0 -0.25603796330E+01  0.64639266180E+02  0.41947489300E+02  0.77099819291E+02  0.00000000000E+00 0. -1.
         13    1    3    3    0    0 -0.33573813522E+02 -0.74871074739E+01 -0.17710364937E+02  0.38689982669E+02  0.00000000000E+00 0.  1.
         -3    1    1    2    0  502  0.13630588811E+03  0.93831563633E+02 -0.12839666050E+03  0.20945013701E+03  0.00000000000E+00 0.  1.
<scales pt_clust_5="13000.00000" pt_clust_6="13000.00000" pt_clust_7="13000.00000" pt_clust_8="13000.00000" pt_clust_9="167.28176"></scales>
<clustering>
<clus scale="   79.859">  5  6 -1 -1</clus>
<clus scale="   90.817">  7  8 -1 -1</clus>
<clus scale="  113.225">  2  7  1 -1</clus>
<clus scale="  167.282">  1  9  2 -1</clus>
<clus scale="  167.282">  1  5  2 -1</clus>
</clustering>
</event>
<event>
 9    1  0.7835476E-005  0.1198946E+03  0.7546771E-02  0.1248509E+00
          1   -1    0    0  502    0 -0.00000000000E+00  0.00000000000E+00  0.27692640447E+03  0.27692640447E+03  0.00000000000E+00 0. -1.
         21   -1    0    0  501  502  0.00000000000E+00 -0.00000000000E+00 -0.13373971702E+03  0.13373971702E+03  0.00000000000E+00 0. -1.
         23    2    1    2    0    0 -0.89045818964E+02  0.22734372391E+02  0.20307470401E+03  0.24159426528E+03  0.93179633214E+02 0.  0.
        -24    2    1    2    0    0  0.36413854780E+02  0.17408762975E+02 -0.13177472239E+02  0.88056611217E+02  0.77144586046E+02 0.  0.
         11    1    4    4    0    0 -0.97378212597E+01  0.32859329462E+02 -0.18756295329E+02  0.39068648685E+02  0.00000000000E+00 0. -1.
        -12    1    4    4    0    0  0.46151676039E+02 -0.15450566487E+02  0.55788230902E+01  0.48987962532E+02  0.00000000000E+00 0.  1.
        -11    1    3    3    0    0  0.12042156039E+02  0.21545949128E+02  0.17458707403E+02  0.30233225267E+02  0.00000000000E+00 0.  1.
         11    1    3    3    0    0 -0.10108797500E+03  0.11884232629E+01  0.18561599660E+03  0.21136104001E+03  0.00000000000E+00 0. -1.
          2    1    1    2  501    0  0.52631964184E+02 -0.40143135366E+02 -0.46710544323E+02  0.81015244996E+02  0.00000000000E+00 0. -1.
<scales pt_clust_5="13000.00000" pt_clust_6="13000.00000" pt_clust_7="13000.00000" pt_clust_8="13000.00000" pt_clust_9="66.19362"></scales>
<clustering>
<clus scale="   66.194">  2  9  1 -1</clus>
<clus scale="   77.145">  5  6 -1 -1</clus>
<clus scale="   93.180">  7  8 -1 -1</clus>
<clus scale="  107.905">  2  5  1 -1</clus>
<clus scale="   66.194">  2  5  1 -1</clus>
</clustering>
</event>
<event>
 9    1  0.7835476E-005  0.1932085E+03  0.7546771E-02  0.1191778E+00
          1   -1    0    0  502    0 -0.00000000000E+00  0.00000000000E+00  0.19091665439E+04  0.19091665439E+04  0.00000000000E+00 0. -1.
         21   -1    0    0  501  502  0.00000000000E+00 -0.00000000000E+00 -0.39530742532E+02  0.39530742532E+02  0.00000000000E+00 0. -1.
        -24    2    1    2    0    0 -0.25855089923E+02 -0.54976232129E+01  0.89278768006E+03  0.89681430715E+03  0.80668149212E+02 0.  0.
         23    2    1    2    0    0 -0.11058108789E+03 -0.11930206900E+03  0.32935305624E+03  0.37850370051E+03  0.91271326160E+02 0.  0.
         11    1    3    3    0    0  0.88418687985E+00 -0.34428213186E+02  0.20284622792E+03  0.20574906034E+03  0.00000000000E+00 0. -1.
        -12    1    3    3    0    0 -0.26739276803E+02  0.28930589973E+02  0.68994145214E+03  0.69106524681E+03  0.00000000000E+00 0.  1.
        -13    1    4    4    0    0 -0.10025914751E+03 -0.63839850802E+02  0.15548026298E+03  0.19570778060E+03  0.00000000000E+00 0. -1.
         13    1    4    4    0    0 -0.10321940379E+02 -0.55462218202E+02  0.17387279326E+03  0.18279591992E+03  0.00000000000E+00 0.  1.
          2    1    1    2  501    0  0.13643617781E+03  0.12479969222E+03  0.64749506507E+03  0.67337927878E+03  0.00000000000E+00 0. -1.
<scales pt_clust_5="13000.00000" pt_clust_6="13000.00000" pt_clust_7="13000.00000" pt_clust_8="13000.00000" pt_clust_9="170.29124"></scales>
<clustering>
<clus scale="   80.668">  5  6 -1 -1</clus>
<clus scale="   84.889">  1  5  2 -1</clus>
<clus scale="   91.271">  7  8 -1 -1</clus>
<clus scale="  170.291">  2  9  1 -1</clus>
<clus scale="  170.291">  2  5  1 -1</clus>
</clustering>
</event>
<event>
 9    1  0.7835476E-005  0.9268557E+02  0.7546771E-02  0.1300234E+00
          1   -1    0    0  502    0 -0.00000000000E+00  0.00000000000E+00  0.32375338718E+03  0.32375338718E+03  0.00000000000E+00 0. -1.
         21   -1    0    0  501  502  0.00000000000E+00 -0.00000000000E+00 -0.74057680291E+02  0.74057680291E+02  0.00000000000E+00 0. -1.
        -24    2    1    2    0    0  0.11489178322E+02  0.33807658801E+02  0.23263374574E+03  0.24873277801E+03  0.80464751207E+02 0.  0.
         23    2    1    2    0    0 -0.34081098380E+02 -0.22500082066E+01  0.42399389744E+02  0.10272890488E+03  0.87114498469E+02 0.  0.
         13    1    3    3    0    0  0.22144582222E+02  0.56866832088E+02  0.18413528066E+03  0.19398458882E+03  0.00000000000E+00 0. -1.
        -14    1    3    3    0    0 -0.10655403900E+02 -0.23059173287E+02  0.48498465076E+02  0.54748189191E+02  0.00000000000E+00 0.  1.
        -13    1    4    4    0    0  0.44911608532E+01  0.37514629338E+02  0.21822857228E+02  0.43632041412E+02  0.00000000000E+00 0. -1.
         13    1    4    4    0    0 -0.38572259233E+02 -0.39764637544E+02  0.20576532516E+02  0.59096863468E+02  0.00000000000E+00 0.  1.
          2    1    1    2  501    0  0.22591920058E+02 -0.31557650594E+02 -0.25337428598E+02  0.46349384580E+02  0.00000000000E+00 0. -1.
<scales pt_clust_5="13000.00000" pt_clust_6="13000.00000" pt_clust_7="13000.00000" pt_clust_8="13000.00000" pt_clust_9="38.81083"></scales>
<clustering>
<clus scale="   38.811">  2  9  1 -1</clus>
<clus scale="   80.465">  5  6 -1 -1</clus>
<clus scale="   86.465">  1  5  2 -1</clus>
<clus scale="   87.114">  7  8 -1 -1</clus>
<clus scale="   38.811">  2  5  1 -1</clus>
</clustering>
</event>
<event>
 9    1  0.7835476E-005  0.1055741E+03  0.7546771E-02  0.1271153E+00
         -4   -1    0    0    0  501 -0.00000000000E+00  0.00000000000E+00  0.15614580722E+04  0.15614580722E+04  0.00000000000E+00 0.  1.
         21   -1    0    0  501  502  0.00000000000E+00 -0.00000000000E+00 -0.24854532443E+02  0.24854532443E+02  0.00000000000E+00 0.  1.
        -24    2    1    2    0    0  0.46023536170E+02  0.60917258316E+02  0.11869112622E+04  0.11921409144E+04  0.81317508823E+02 0.  0.
         23    2    1    2    0    0 -0.47419521931E+01 -0.23712110859E+02  0.31739586883E+03  0.32989533231E+03  0.86637419287E+02 0.  0.
         11    1    3    3    0    0 -0.11861693951E+02  0.30870480180E+02  0.17289441056E+03  0.17602887130E+03  0.00000000000E+00 0. -1.
        -12    1    3    3    0    0  0.57885230121E+02  0.30046778135E+02  0.10140168516E+04  0.10161120431E+04  0.00000000000E+00 0.  1.
        -13    1    4    4    0    0 -0.45612961425E+02 -0.15923483919E+02  0.17475917276E+03  0.18131427978E+03  0.00000000000E+00 0. -1.
         13    1    4    4    0    0  0.40871009232E+02 -0.77886269406E+01  0.14263669607E+03  0.14858105253E+03  0.00000000000E+00 0.  1.
         -3    1    1    2    0  502 -0.41281583976E+02 -0.37205147456E+02  0.32296408770E+02  0.64276357958E+02  0.00000000000E+00 0.  1.
<scales pt_clust_5="13000.00000" pt_clust_6="13000.00000" pt_clust_7="13000.00000" pt_clust_8="13000.00000" pt_clust_9="55.57330"></scales>
<clustering>
<clus scale="   55.573">  2  9  1 -1</clus>
<clus scale="   81.318">  5  6 -1 -1</clus>
<clus scale="   86.637">  7  8 -1 -1</clus>
<clus scale="  101.254">  1  5  2 -1</clus>
<clus scale="   55.573">  2  5  1 -1</clus>
</clustering>
</event>
<event>
 9    1  0.7835476E-005  0.8542529E+02  0.7546771E-02  0.1316752E+00
         21   -1    0    0  501  502  0.00000000000E+00  0.00000000000E+00  0.50482178223E+02  0.50482178223E+02  0.00000000000E+00 0. -1.
          3   -1    0    0  502    0 -0.00000000000E+00 -0.00000000000E+00 -0.37649314016E+03  0.37649314016E+03  0.00000000000E+00 0. -1.
         23    2    1    2    0    0  0.16830809171E+02 -0.11408893311E+01 -0.28334668901E+03  0.29625671200E+03  0.84841708294E+02 0.  0.
        -24    2    1    2    0    0  0.20652184758E+02 -0.95099227798E+01 -0.33408834762E+02  0.90667666715E+02  0.81163564367E+02 0.  0.
         11    1    4    4    0    0 -0.40498581131E+01 -0.31942300398E+02 -0.45009912869E+02  0.55340800156E+02  0.00000000000E+00 0. -1.
        -12    1    4    4    0    0  0.24702042871E+02  0.22432377618E+02  0.11601078107E+02  0.35326866558E+02  0.00000000000E+00 0.  1.
        -13    1    3    3    0    0 -0.19069383855E+01  0.40649064291E+02 -0.13559391881E+03  0.14156868884E+03  0.00000000000E+00 0.  1.
         13    1    3    3    0    0  0.18737747556E+02 -0.41789953622E+02 -0.14775277020E+03  0.15468802316E+03  0.00000000000E+00 0. -1.
          4    1    1    2  501    0 -0.37482993929E+02  0.10650812111E+02 -0.92554381605E+01  0.40050939664E+02  0.00000000000E+00 0. -1.
<scales pt_clust_5="13000.00000" pt_clust_6="13000.00000" pt_clust_7="13000.00000" pt_clust_8="13000.00000" pt_clust_9="38.96684"></scales>
<clustering>
<clus scale="   38.967">  1  9  2 -1</clus>
<clus scale="   81.164">  5  6 -1 -1</clus>
<clus scale="   81.773">  1  5  2 -1</clus>
<clus scale="   84.842">  7  8 -1 -1</clus>
<clus scale="   38.967">  1  5  2 -1</clus>
</clustering>
</event>
<event>
 9    1  0.7835476E-005  0.1128713E+03  0.7546771E-02  0.1263953E+00
         -4   -1    0    0    0  501 -0.00000000000E+00  0.00000000000E+00  0.73118949641E+02  0.73118949641E+02  0.00000000000E+00 0.  1.
         21   -1    0    0  501  502  0.00000000000E+00 -0.00000000000E+00 -0.28686691575E+03  0.28686691575E+03  0.00000000000E+00 0. -1.
        -24    2    1    2    0    0  0.35141520396E+02 -0.31189072441E+02 -0.27232575730E+02  0.98369547079E+02  0.82019936090E+02 0.  0.
         23    2    1    2    0    0  0.78448828337E+01  0.70367027757E+02 -0.11264586678E+03  0.16759797136E+03  0.10191627898E+03 0.  0.
         13    1    3    3    0    0  0.35341390071E+02  0.29519019626E+01 -0.47030333802E+02  0.58903139771E+02  0.00000000000E+00 0. -1.
        -14    1    3    3    0    0 -0.19986967460E+00 -0.34140974404E+02  0.19797758072E+02  0.39466407308E+02  0.00000000000E+00 0.  1.
        -13    1    4    4    0    0  0.43103490887E+02  0.73293889217E+02 -0.59603137359E+02  0.10383852419E+03  0.00000000000E+00 0. -1.
         13    1    4    4    0    0 -0.35258608053E+02 -0.29268614598E+01 -0.53042729416E+02  0.63759447172E+02  0.00000000000E+00 0.  1.
         -3    1    1    2    0  502 -0.42986403230E+02 -0.39177955316E+02 -0.73869523606E+02  0.94018346949E+02  0.00000000000E+00 0.  1.
<scales pt_clust_5="13000.00000" pt_clust_6="13000.00000" pt_clust_7="13000.00000" pt_clust_8="13000.00000" pt_clust_9="58.16135"></scales>
<clustering>
<clus scale="   58.161">  2  9  1 -1</clus>
<clus scale="   82.020">  5  6 -1 -1</clus>
<clus scale="   95.290">  1  5  2 -1</clus>
<clus scale="  101.916">  7  8 -1 -1</clus>
<clus scale="   58.161">  2  5  1 -1</clus>
</clustering>
</event>
<event>
 9    1  0.7835476E-005  0.2515189E+03  0.7546771E-02  0.1136271E+00
         21   -1    0    0  501  502  0.00000000000E+00  0.00000000000E+00  0.67506208934E+03  0.67506208934E+03  0.00000000000E+00 0. -1.
         -4   -1    0    0    0  501 -0.00000000000E+00 -0.00000000000E+00 -0.76071453945E+03  0.76071453945E+03  0.00000000000E+00 0.  1.
         23    2    1    2    0    0 -0.11533468474E+03  0.15394491201E+02 -0.16395542927E+03  0.21489145059E+03  0.75880648957E+02 0.  0.
        -24    2    1    2    0    0  0.33889496864E+02 -0.23679288029E+03  0.59849699259E+03  0.64970011456E+03  0.81806005702E+02 0.  0.
         13    1    4    4    0    0 -0.15011595935E+02 -0.16307097216E+03  0.36715893219E+03  0.40202384439E+03  0.00000000000E+00 0. -1.
        -14    1    4    4    0    0  0.48901092799E+02 -0.73721908133E+02  0.23133806040E+03  0.24767627017E+03  0.00000000000E+00 0.  1.
        -13    1    3    3    0    0 -0.97488254113E+02 -0.29368273062E+01 -0.77040217100E+02  0.12428909725E+03  0.00000000000E+00 0.  1.
         13    1    3    3    0    0 -0.17846430630E+02  0.18331318508E+02 -0.86915212167E+02  0.90602353338E+02  0.00000000000E+00 0. -1.
         -3    1    1    2    0  502  0.81445187879E+02  0.22139838909E+03 -0.52019401342E+03  0.57118506364E+03  0.00000000000E+00 0.  1.
<scales pt_clust_5="13000.00000" pt_clust_6="13000.00000" pt_clust_7="13000.00000" pt_clust_8="13000.00000" pt_clust_9="237.84359"></scales>
<clustering>
<clus scale="   75.881">  7  8 -1 -1</clus>
<clus scale="   81.806">  5  6 -1 -1</clus>
<clus scale="  138.913">  2  7  1 -1</clus>
<clus scale="  237.844">  1  9  2 -1</clus>
<clus scale="  237.844">  1  5  2 -1</clus>
</clustering>
</event>
<event>
 9    1  0.7835476E-005  0.1103326E+03  0.7546771E-02  0.1264485E+00
          1   -1    0    0  502    0 -0.00000000000E+00  0.00000000000E+00  0.23273526752E+03  0.23273526752E+03  0.00000000000E+00 0. -1.
         21   -1    0    0  501  502  0.00000000000E+00 -0.00000000000E+00 -0.15364182568E+03  0.15364182568E+03  0.00000000000E+00 0. -1.
         23    2    1    2    0    0 -0.58677705722E+02  0.11009538532E+02  0.12936455762E+03  0.16936188421E+03  0.91564053904E+02 0.  0.
        -24    2    1    2    0    0  0.66981695123E+02 -0.38503706528E+02 -0.10642073247E+03  0.15394647690E+03  0.80031634687E+02 0.  0.
         11    1    4    4    0    0  0.74882640766E+02 -0.96849724602E+01 -0.96353462039E+02  0.12241404424E+03  0.00000000000E+00 0. -1.
        -12    1    4    4    0    0 -0.79009456437E+01 -0.28818734068E+02 -0.10067270433E+02  0.31532432658E+02  0.00000000000E+00 0.  1.
        -11    1    3    3    0    0 -0.59029918382E+02 -0.16949228431E+02  0.12728115485E+03  0.14132338798E+03  0.00000000000E+00 0. -1.
         11    1    3    3    0    0  0.35221266044E+00  0.27958766964E+02  0.20834027670E+01  0.28038496232E+02  0.00000000000E+00 0.  1.
          2    1    1    2  501    0 -0.83039894008E+01  0.27494167996E+02  0.56149616696E+02  0.63068732101E+02  0.00000000000E+00 0. -1.
<scales pt_clust_5="13000.00000" pt_clust_6="13000.00000" pt_clust_7="13000.00000" pt_clust_8="13000.00000" pt_clust_9="28.72083"></scales>
<clustering>
<clus scale="   28.721">  2  9  1 -1</clus>
<clus scale="   80.032">  5  6 -1 -1</clus>
<clus scale="   91.564">  7  8 -1 -1</clus>
<clus scale="  100.967">  2  5  1 -1</clus>
<clus scale="   28.721">  2  5  1 -1</clus>
</clustering>
</event>
<event>
 9    1  0.7835476E-005  0.1245690E+03  0.7546771E-02  0.1237659E+00
         21   -1    0    0  501  502  0.00000000000E+00  0.00000000000E+00  0.31214651232E+02  0.31214651232E+02  0.00000000000E+00 0.  1.
          1   -1    0    0  502    0 -0.00000000000E+00 -0.00000000000E+00 -0.72201942622E+03  0.72201942622E+03  0.00000000000E+00 0. -1.
        -24    2    1    2    0    0 -0.88660596135E+02  0.37605283417E+02 -0.49617066214E+03  0.51174983389E+03  0.80172987150E+02 0.  0.
         23    2    1    2    0    0  0.68775334299E+02 -0.17112828698E+02 -0.13699523199E+03  0.17716002631E+03  0.87149789560E+02 0.  0.
         11    1    3    3    0    0 -0.57338550521E+02 -0.11768081269E+02 -0.15659732902E+03  0.16717930664E+03  0.00000000000E+00 0. -1.
        -12    1    3    3    0    0 -0.31322045615E+02  0.49373364686E+02 -0.33957333311E+03  0.34457052724E+03  0.00000000000E+00 0.  1.
        -11    1    4    4    0    0  0.47284333601E+02  0.20320761775E+02 -0.25165440965E+02  0.57289100030E+02  0.00000000000E+00 0.  1.
         11    1    4    4    0    0  0.21491000698E+02 -0.37433590474E+02 -0.11182979103E+03  0.11987092628E+03  0.00000000000E+00 0. -1.
          2    1    1    2  501    0  0.19885261836E+02 -0.20492454719E+02 -0.57638880856E+02  0.64324217252E+02  0.00000000000E+00 0. -1.
<scales pt_clust_5="13000.00000" pt_clust_6="13000.00000" pt_clust_7="13000.00000" pt_clust_8="13000.00000" pt_clust_9="28.55459"></scales>
<clustering>
<clus scale="   28.555">  1  9  2 -1</clus>
<clus scale="   80.173">  5  6 -1 -1</clus>
<clus scale="   87.150">  7  8 -1 -1</clus>
<clus scale="  119.792">  2  5  1 -1</clus>
<clus scale="   28.555">  1  5  2 -1</clus>
</clustering>
</event>
<event>
 9    1  0.7835476E-005  0.1785455E+03  0.7546771E-02  0.1170337E+00
          1   -1    0    0  502    0 -0.00000000000E+00  0.00000000000E+00  0.68204567803E+03  0.68204567803E+03  0.00000000000E+00 0. -1.
         21   -1    0    0  501  502  0.00000000000E+00 -0.00000000000E+00 -0.90944518131E+02  0.90944518131E+02  0.00000000000E+00 0. -1.
         23    2    1    2    0    0  0.50496668678E+02 -0.18318960855E+03  0.46660119168E+03  0.51190274013E+03  0.90660890382E+02 0.  0.
        -24    2    1    2    0    0 -0.45252038522E+02  0.94101791483E+02  0.10679426551E+03  0.17010593481E+03  0.81413265267E+02 0.  0.
         11    1    4    4    0    0  0.19322565526E+02  0.72201091492E+01  0.43831241361E+01  0.21087989279E+02  0.00000000000E+00 0. -1.
        -12    1    4    4    0    0 -0.64574604048E+02  0.86881682334E+02  0.10241114138E+03  0.14901794553E+03  0.00000000000E+00 0.  1.
        -13    1    3    3    0    0  0.33179503985E+02 -0.93897210159E+02  0.13317059740E+03  0.16628882576E+03  0.00000000000E+00 0.  1.
         13    1    3    3    0    0  0.17317164693E+02 -0.89292398391E+02  0.33343059428E+03  0.34561391437E+03  0.00000000000E+00 0. -1.
          2    1    1    2  501    0 -0.52446301551E+01  0.89087817067E+02  0.17705702707E+02  0.90981521221E+02  0.00000000000E+00 0. -1.
<scales pt_clust_5="13000.00000" pt_clust_6="13000.00000" pt_clust_7="13000.00000" pt_clust_8="13000.00000" pt_clust_9="89.24206"></scales>
<clustering>
<clus scale="   81.413">  5  6 -1 -1</clus>
<clus scale="   89.242">  2  9  1 -1</clus>
<clus scale="   90.661">  7  8 -1 -1</clus>
<clus scale="  174.032">  2  5  1 -1</clus>
<clus scale="   89.242">  2  5  1 -1</clus>
</clustering>
</event>
<event>
 9    1  0.7835476E-005  0.1556352E+03  0.7546771E-02  0.1223539E+00
         21   -1    0    0  501  502  0.00000000000E+00  0.00000000000E+00  0.80473407433E+02  0.80473407433E+02  0.00000000000E+00 0. -1.
          1   -1    0    0  502    0 -0.00000000000E+00 -0.00000000000E+00 -0.53005272651E+03  0.53005272651E+03  0.00000000000E+00 0. -1.
        -24    2    1    2    0    0  0.21154558079E+02  0.57925842084E+01 -0.20562522574E+03  0.22144404066E+03  0.79212753554E+02 0.  0.
         23    2    1    2    0    0 -0.12880896521E+03  0.51992325292E+02 -0.19876782378E+03  0.25881173558E+03  0.90442884141E+02 0.  0.
         13    1    3    3    0    0  0.32524036910E+02 -0.29875235240E+02 -0.12441422461E+03  0.13201985435E+03  0.00000000000E+00 0. -1.
        -14    1    3    3    0    0 -0.11369478832E+02  0.35667819448E+02 -0.81211001124E+02  0.89424186307E+02  0.00000000000E+00 0.  1.
        -13    1    4    4    0    0 -0.33369869807E+02  0.32406163731E+02 -0.11811086152E+02  0.47991764031E+02  0.00000000000E+00 0.  1.
         13    1    4    4    0    0 -0.95439095404E+02  0.19586161561E+02 -0.18695673763E+03  0.21081997154E+03  0.00000000000E+00 0. -1.
          2    1    1    2  501    0  0.10765440713E+03 -0.57784909500E+02 -0.45186269560E+02  0.13027035771E+03  0.00000000000E+00 0. -1.
<scales pt_clust_5="13000.00000" pt_clust_6="13000.00000" pt_clust_7="13000.00000" pt_clust_8="13000.00000" pt_clust_9="126.65861"></scales>
<clustering>
<clus scale="   79.213">  5  6 -1 -1</clus>
<clus scale="   82.193">  2  5  1 -1</clus>
<clus scale="   90.443">  7  8 -1 -1</clus>
<clus scale="  126.659">  1  9  2 -1</clus>
<clus scale="  126.659">  1  5  2 -1</clus>
</clustering>
</event>
<event>
 9    1  0.7835476E-005  0.1098708E+03  0.7546771E-02  0.1261982E+00
         21   -1    0    0  501  502  0.00000000000E+00  0.00000000000E+00  0.13242942481E+03  0.13242942481E+03  0.00000000000E+00 0. -1.
          1   -1    0    0  502    0 -0.00000000000E+00 -0.00000000000E+00 -0.30086161335E+03  0.30086161335E+03  0.00000000000E+00 0. -1.
        -24    2    1    2    0    0 -0.72901811757E+02 -0.71773491782E+01 -0.23805016298E+03  0.26334519469E+03  0.85537260743E+02 0.  0.
         23    2    1    2    0    0  0.10932795598E+02  0.16422571643E+02  0.52875602614E+02  0.10509262369E+03  0.88653275869E+02 0.  0.
         13    1    3    3    0    0 -0.19780024762E+02  0.37981262673E+02 -0.86032281427E+02  0.96100880024E+02  0.00000000000E+00 0. -1.
        -14    1    3    3    0    0 -0.53121786995E+02 -0.45158611851E+02 -0.15201788155E+03  0.16724431467E+03  0.00000000000E+00 0.  1.
        -13    1    4    4    0    0  0.38384191119E+02 -0.12803697230E+02  0.22695182852E+01  0.40526923198E+02  0.00000000000E+00 0.  1.
         13    1    4    4    0    0 -0.27451395521E+02  0.29226268873E+02  0.50606084329E+02  0.64565700487E+02  0.00000000000E+00 0. -1.
          2    1    1    2  501    0  0.61969016159E+02 -0.92452224646E+01  0.16742371819E+02  0.64853219783E+02  0.00000000000E+00 0. -1.
<scales pt_clust_5="13000.00000" pt_clust_6="13000.00000" pt_clust_7="13000.00000" pt_clust_8="13000.00000" pt_clust_9="62.65487"></scales>
<clustering>
<clus scale="   62.655">  1  9  2 -1</clus>
<clus scale="   85.537">  5  6 -1 -1</clus>
<clus scale="   88.653">  7  8 -1 -1</clus>
<clus scale="  107.372">  2  5  1 -1</clus>
<clus scale="   62.655">  1  5  2 -1</clus>
</clustering>
</event>
<event>
 9    1  0.7835476E-005  0.1036120E+03  0.7546771E-02  0.1277541E+00
         21   -1    0    0  501  502  0.00000000000E+00  0.00000000000E+00  0.82623049070E+02  0.82623049070E+02  0.00000000000E+00 0.  1.
         -2   -1    0    0    0  501 -0.00000000000E+00 -0.00000000000E+00 -0.30436491593E+03  0.30436491593E+03  0.00000000000E+00 0.  1.
        -24    2    1    2    0    0 -0.45184419105E+02  0.85021644014E-02 -0.15190583099E+03  0.17761492299E+03  0.80187577446E+02 0.  0.
         23    2    1    2    0    0  0.56379160684E+02  0.68740003188E+02 -0.54420820037E+02  0.13803365523E+03  0.90486830677E+02 0.  0.
         13    1    3    3    0    0 -0.52321169843E+02 -0.21710702838E+02 -0.58419497367E+02  0.81373810923E+02  0.00000000000E+00 0. -1.
        -14    1    3    3    0    0  0.71367507380E+01  0.21719205003E+02 -0.93486333622E+02  0.96241112063E+02  0.00000000000E+00 0.  1.
        -11    1    4    4    0    0  0.59094926007E+02  0.88575479431E+02 -0.49470438161E+02  0.11741017881E+03  0.00000000000E+00 0.  1.
         11    1    4    4    0    0 -0.27157653231E+01 -0.19835476243E+02 -0.49503818757E+01  0.20623476424E+02  0.00000000000E+00 0. -1.
         -1    1    1    2    0  502 -0.11194741579E+02 -0.68748505353E+02 -0.15415215836E+02  0.71339386782E+02  0.00000000000E+00 0.  1.
<scales pt_clust_5="13000.00000" pt_clust_6="13000.00000" pt_clust_7="13000.00000" pt_clust_8="13000.00000" pt_clust_9="69.65400"></scales>
<clustering>
<clus scale="   69.654">  1  9  2 -1</clus>
<clus scale="   80.188">  5  6 -1 -1</clus>
<clus scale="   90.487">  7  8 -1 -1</clus>
<clus scale="   94.750">  2  5  1 -1</clus>
<clus scale="   69.654">  1  5  2 -1</clus>
</clustering>
</event>
<event>
 9    1  0.7835476E-005  0.9626475E+02  0.7546771E-02  0.1294483E+00
         21   -1    0    0  501  502  0.00000000000E+00  0.00000000000E+00  0.85460003907E+02  0.85460003907E+02  0.00000000000E+00 0. -1.
         -2   -1    0    0    0  501 -0.00000000000E+00 -0.00000000000E+00 -0.20834050584E+03  0.20834050584E+03  0.00000000000E+00 0.  1.
        -24    2    1    2    0    0 -0.32141488811E+02 -0.32735282928E+02 -0.11144142006E+03  0.14438136473E+03  0.79511724441E+02 0.  0.
         23    2    1    2    0    0  0.31554314000E+01 -0.14179904585E+02  0.47575333381E+01  0.91942569900E+02  0.90662978083E+02 0.  0.
         11    1    3    3    0    0 -0.29565283275E+02 -0.52870665973E+02 -0.46569776401E+02  0.76407835787E+02  0.00000000000E+00 0. -1.
        -12    1    3    3    0    0 -0.25762055359E+01  0.20135383045E+02 -0.64871643660E+02  0.67973528939E+02  0.00000000000E+00 0.  1.
        -13    1    4    4    0    0  0.23792690328E+01  0.24242629100E+02 -0.31016567413E+02  0.39438476656E+02  0.00000000000E+00 0.  1.
         13    1    4    4    0    0  0.77616236716E+00 -0.38422533685E+02  0.35774100751E+02  0.52504093244E+02  0.00000000000E+00 0. -1.
         -1    1    1    2    0  502  0.28986057411E+02  0.46915187513E+02 -0.16196615213E+02  0.57476575124E+02  0.00000000000E+00 0.  1.
<scales pt_clust_5="13000.00000" pt_clust_6="13000.00000" pt_clust_7="13000.00000" pt_clust_8="13000.00000" pt_clust_9="55.14731"></scales>
<clustering>
<clus scale="   55.147">  1  9  2 -1</clus>
<clus scale="   79.512">  5  6 -1 -1</clus>
<clus scale="   85.844">  2  5  1 -1</clus>
<clus scale="   90.663">  7  8 -1 -1</clus>
<clus scale="   55.147">  1  5  2 -1</clus>
</clustering>
</event>
<event>
 9    1  0.7835476E-005  0.9613159E+02  0.7546771E-02  0.1294471E+00
         21   -1    0    0  501  502  0.00000000000E+00  0.00000000000E+00  0.35351012266E+03  0.35351012266E+03  0.00000000000E+00 0.  1.
         -2   -1    0    0    0  501 -0.00000000000E+00 -0.00000000000E+00 -0.14252858955E+03  0.14252858955E+03  0.00000000000E+00 0.  1.
         23    2    1    2    0    0 -0.32870327159E+02 -0.13739799674E+01 -0.75568558304E+02  0.12262226521E+03  0.90792437425E+02 0.  0.
        -24    2    1    2    0    0  0.13645777227E+02 -0.49928170435E+02  0.30180515745E+03  0.31654632308E+03  0.80225882049E+02 0.  0.
         13    1    4    4    0    0  0.42346141799E+02 -0.61901910929E+01  0.14965167690E+03  0.15565069415E+03  0.00000000000E+00 0. -1.
        -14    1    4    4    0    0 -0.28700364572E+02 -0.43737979342E+02  0.15215348055E+03  0.16089562893E+03  0.00000000000E+00 0.  1.
        -13    1    3    3    0    0 -0.22988515535E+01  0.36642430978E+02 -0.61883997151E+02  0.71955413764E+02  0.00000000000E+00 0. -1.
         13    1    3    3    0    0 -0.30571475606E+02 -0.38016410946E+02 -0.13684561152E+02  0.50666851450E+02  0.00000000000E+00 0.  1.
         -1    1    1    2    0  502  0.19224549932E+02  0.51302150403E+02 -0.15255066036E+02  0.56870123930E+02  0.00000000000E+00 0.  1.
<scales pt_clust_5="13000.00000" pt_clust_6="13000.00000" pt_clust_7="13000.00000" pt_clust_8="13000.00000" pt_clust_9="54.78592"></scales>
<clustering>
<clus scale="   54.786">  1  9  2 -1</clus>
<clus scale="   80.226">  5  6 -1 -1</clus>
<clus scale="   86.222">  1  5  2 -1</clus>
<clus scale="   90.792">  7  8 -1 -1</clus>
<clus scale="   54.786">  1  5  2 -1</clus>
</clustering>
</event>
<event>
 9    1  0.7835476E-005  0.1607955E+03  0.7546771E-02  0.1190368E+00
          1   -1    0    0  502    0 -0.00000000000E+00  0.00000000000E+00  0.87328163208E+03  0.87328163208E+03  0.00000000000E+00 0. -1.
         21   -1    0    0  501  502  0.00000000000E+00 -0.00000000000E+00 -0.77492074157E+02  0.77492074157E+02  0.00000000000E+00 0.  1.
        -24    2    1    2    0    0  0.73075147248E+01  0.13327745806E+03  0.75803890802E+03  0.77357279213E+03  0.77301992582E+02 0.  0.
         23    2    1    2    0    0 -0.15113734404E+02 -0.10824384234E+03  0.19331402646E+02  0.14515582632E+03  0.93548684726E+02 0.  0.
         13    1    3    3    0    0  0.10163558582E+02  0.14122063527E+03  0.74259962427E+03  0.75597669786E+03  0.00000000000E+00 0. -1.
        -14    1    3    3    0    0 -0.28560438575E+01 -0.79431772128E+01  0.15439283754E+02  0.17596094270E+02  0.00000000000E+00 0.  1.
        -11    1    4    4    0    0  0.27190969276E+02 -0.95185437333E+02  0.72255780281E+01  0.99256361349E+02  0.00000000000E+00 0.  1.
         11    1    4    4    0    0 -0.42304703679E+02 -0.13058405004E+02  0.12105824618E+02  0.45899464968E+02  0.00000000000E+00 0. -1.
          2    1    1    2  501    0  0.78062196788E+01 -0.25033615720E+02  0.18419247250E+02  0.32045087782E+02  0.00000000000E+00 0. -1.
<scales pt_clust_5="13000.00000" pt_clust_6="13000.00000" pt_clust_7="13000.00000" pt_clust_8="13000.00000" pt_clust_9="26.22249"></scales>
<clustering>
<clus scale="   26.222">  2  9  1 -1</clus>
<clus scale="   77.302">  5  6 -1 -1</clus>
<clus scale="   93.549">  7  8 -1 -1</clus>
<clus scale="  151.919">  1  5  2 -1</clus>
<clus scale="   26.222">  2  5  1 -1</clus>
</clustering>
</event>
<event>
 9    1  0.7835476E-005  0.1046914E+03  0.7546771E-02  0.1275243E+00
          3   -1    0    0  502    0 -0.00000000000E+00  0.00000000000E+00  0.37123274812E+02  0.37123274812E+02  0.00000000000E+00 0. -1.
         21   -1    0    0  501  502  0.00000000000E+00 -0.00000000000E+00 -0.72998138004E+03  0.72998138004E+03  0.00000000000E+00 0. -1.
         23    2    1    2    0    0 -0.65635735511E+02 -0.47504288852E+02 -0.16025339578E+03  0.20149808021E+03  0.91409070849E+02 0.  0.
        -24    2    1    2    0    0  0.35406047786E+02 -0.23803722230E+02 -0.15504310922E+03  0.18018287476E+03  0.81285282977E+02 0.  0.
         13    1    4    4    0    0  0.83198610592E+00 -0.45346806622E+02 -0.11241742468E+03  0.12122170780E+03  0.00000000000E+00 0. -1.
        -14    1    4    4    0    0  0.34574061680E+02  0.21543084393E+02 -0.42625684542E+02  0.58961166956E+02  0.00000000000E+00 0.  1.
        -11    1    3    3    0    0 -0.81715442841E+02 -0.22482159712E+02 -0.14529129017E+03  0.16820350800E+03  0.00000000000E+00 0.  1.
         11    1    3    3    0    0  0.16079707330E+02 -0.25022129139E+02 -0.14962105617E+02  0.33294572215E+02  0.00000000000E+00 0. -1.
          4    1    1    2  501    0  0.30229687725E+02  0.71308011081E+02 -0.37756160023E+03  0.38542369988E+03  0.00000000000E+00 0. -1.
<scales pt_clust_5="13000.00000" pt_clust_6="13000.00000" pt_clust_7="13000.00000" pt_clust_8="13000.00000" pt_clust_9="77.45106"></scales>
<clustering>
<clus scale="   77.451">  2  9  1 -1</clus>
<clus scale="   81.285">  5  6 -1 -1</clus>
<clus scale="   91.409">  7  8 -1 -1</clus>
<clus scale="   95.979">  2  5  1 -1</clus>
<clus scale="   77.451">  2  5  1 -1</clus>
</clustering>
</event>
<event>
 9    1  0.7835476E-005  0.1611525E+03  0.7546771E-02  0.1203410E+00
         21   -1    0    0  501  502  0.00000000000E+00  0.00000000000E+00  0.52828154733E+02  0.52828154733E+02  0.00000000000E+00 0. -1.
          1   -1    0    0  502    0 -0.00000000000E+00 -0.00000000000E+00 -0.87179600142E+03  0.87179600142E+03  0.00000000000E+00 0. -1.
         23    2    1    2    0    0  0.41580238353E+02  0.53244854060E+02 -0.29414991372E+03  0.31529195002E+03  0.91219029269E+02 0.  0.
        -24    2    1    2    0    0 -0.57455336367E+02  0.10825295020E+03 -0.25090498884E+03  0.29095843133E+03  0.81753767113E+02 0.  0.
         11    1    4    4    0    0 -0.18413462962E+02  0.10323357428E+03 -0.20662766344E+03  0.23171365471E+03  0.00000000000E+00 0. -1.
        -12    1    4    4    0    0 -0.39041873406E+02  0.50193759152E+01 -0.44277325396E+02  0.59244776629E+02  0.00000000000E+00 0.  1.
        -13    1    3    3    0    0 -0.97960018473E+01  0.58768327710E+02 -0.18834048343E+03  0.19753940289E+03  0.00000000000E+00 0.  1.
         13    1    3    3    0    0  0.51376240200E+02 -0.55234736499E+01 -0.10580943029E+03  0.11775254713E+03  0.00000000000E+00 0. -1.
          2    1    1    2  501    0  0.15875098015E+02 -0.16149780426E+03 -0.27391294413E+03  0.31837377480E+03  0.00000000000E+00 0. -1.
<scales pt_clust_5="13000.00000" pt_clust_6="13000.00000" pt_clust_7="13000.00000" pt_clust_8="13000.00000" pt_clust_9="138.87577"></scales>
<clustering>
<clus scale="   81.754">  5  6 -1 -1</clus>
<clus scale="   91.219">  7  8 -1 -1</clus>
<clus scale="  113.511">  2  7  1 -1</clus>
<clus scale="  138.876">  1  9  2 -1</clus>
<clus scale="  138.876">  1  5  2 -1</clus>
</clustering>
</event>
<event>
 9    1  0.7835476E-005  0.1185330E+03  0.7546771E-02  0.1249467E+00
         -2   -1    0    0    0  501 -0.00000000000E+00  0.00000000000E+00  0.32546751830E+03  0.32546751830E+03  0.00000000000E+00 0.  1.
         21   -1    0    0  501  502  0.00000000000E+00 -0.00000000000E+00 -0.15801746516E+03  0.15801746516E+03  0.00000000000E+00 0.  1.
        -24    2    1    2    0    0  0.57419573709E+02 -0.27854442290E+02  0.11494189037E+03  0.15419569274E+03  0.80571682973E+02 0.  0.
         23    2    1    2    0    0 -0.90353237108E+02  0.11916162623E+03 -0.55235752571E+02  0.18427074253E+03  0.92420330938E+02 0.  0.
         11    1    3    3    0    0  0.72052050510E+02 -0.39531619551E+02  0.80761848193E+02  0.11522466338E+03  0.00000000000E+00 0. -1.
        -12    1    3    3    0    0 -0.14632476802E+02  0.11677177261E+02  0.34180042181E+02  0.38971029363E+02  0.00000000000E+00 0.  1.
        -11    1    4    4    0    0 -0.10688221031E+03  0.85109884765E+02 -0.33708148979E+02  0.14072575697E+03  0.00000000000E+00 0.  1.
         11    1    4    4    0    0  0.16528973203E+02  0.34051741463E+02 -0.21527603592E+02  0.43544985569E+02  0.00000000000E+00 0. -1.
         -1    1    1    2    0  502  0.32933663400E+02 -0.91307183938E+02  0.10774391534E+03  0.14501854818E+03  0.00000000000E+00 0.  1.
<scales pt_clust_5="13000.00000" pt_clust_6="13000.00000" pt_clust_7="13000.00000" pt_clust_8="13000.00000" pt_clust_9="97.06512"></scales>
<clustering>
<clus scale="   80.572">  5  6 -1 -1</clus>
<clus scale="   92.420">  7  8 -1 -1</clus>
<clus scale="   97.065">  2  9  1 -1</clus>
<clus scale="  109.546">  1  5  2 -1</clus>
<clus scale="   97.065">  2  5  1 -1</clus>
</clustering>
</event>
<event>
 9    1  0.7835476E-005  0.1937863E+03  0.7546771E-02  0.1174530E+00
         21   -1    0    0  501  502  0.00000000000E+00  0.00000000000E+00  0.67343739258E+03  0.67343739258E+03  0.00000000000E+00 0.  1.
         -2   -1    0    0    0  501 -0.00000000000E+00 -0.00000000000E+00 -0.25496704883E+03  0.25496704883E+03  0.00000000000E+00 0.  1.
        -24    2    1    2    0    0  0.94245300605E+02 -0.10031436905E+02 -0.34543808602E+02  0.12844857114E+03  0.79517006382E+02 0.  0.
         23    2    1    2    0    0  0.11984568016E+03  0.11129191059E+03  0.52059690676E+03  0.55367135945E+03  0.93712104516E+02 0.  0.
         11    1    3    3    0    0  0.75904451255E+02  0.27196270777E+02 -0.12938729695E+02  0.81661089820E+02  0.00000000000E+00 0. -1.
        -12    1    3    3    0    0  0.18340849350E+02 -0.37227707682E+02 -0.21605078907E+02  0.46787481324E+02  0.00000000000E+00 0.  1.
        -11    1    4    4    0    0  0.36367849270E+02 -0.10370617422E+02  0.70430908338E+02  0.79941747639E+02  0.00000000000E+00 0. -1.
         11    1    4    4    0    0  0.83477830887E+02  0.12166252801E+03  0.45016599842E+03  0.47372961181E+03  0.00000000000E+00 0.  1.
         -1    1    1    2    0  502 -0.21409098076E+03 -0.10126047369E+03 -0.67582754409E+02  0.24628451082E+03  0.00000000000E+00 0.  1.
<scales pt_clust_5="13000.00000" pt_clust_6="13000.00000" pt_clust_7="13000.00000" pt_clust_8="13000.00000" pt_clust_9="169.62075"></scales>
<clustering>
<clus scale="   79.517">  5  6 -1 -1</clus>
<clus scale="   93.712">  7  8 -1 -1</clus>
<clus scale="  123.716">  2  5  1 -1</clus>
<clus scale="  169.621">  1  9  2 -1</clus>
<clus scale="  169.621">  1  5  2 -1</clus>
</clustering>
</event>
<event>
 9    1  0.7835476E-005  0.1967113E+03  0.7546771E-02  0.1183787E+00
         21   -1    0    0  501  502  0.00000000000E+00  0.00000000000E+00  0.22043799649E+03  0.22043799649E+03  0.00000000000E+00 0. -1.
          1   -1    0    0  502    0 -0.00000000000E+00 -0.00000000000E+00 -0.62151682908E+03  0.62151682908E+03  0.00000000000E+00 0. -1.
         23    2    1    2    0    0  0.24814833547E+02 -0.13824097039E+02 -0.44823569203E+03  0.45840723331E+03  0.91733714184E+02 0.  0.
        -24    2    1    2    0    0 -0.69069260353E+02  0.17848295098E+03  0.74000926688E+01  0.20847162881E+03  0.82334270683E+02 0.  0.
         13    1    4    4    0    0 -0.49237079412E+02  0.17825493252E+03  0.18312192309E+02  0.18583446220E+03  0.00000000000E+00 0. -1.
        -14    1    4    4    0    0 -0.19832180941E+02  0.22801846712E+00 -0.10912099641E+02  0.22637166604E+02  0.00000000000E+00 0.  1.
        -11    1    3    3    0    0  0.27280108726E+02 -0.51032668233E+02 -0.24156023157E+03  0.24839461153E+03  0.00000000000E+00 0.  1.
         11    1    3    3    0    0 -0.24652751788E+01  0.37208571194E+02 -0.20667546046E+03  0.21001262178E+03  0.00000000000E+00 0. -1.
          2    1    1    2  501    0  0.44254426805E+02 -0.16465885394E+03  0.39756766766E+02  0.17507596345E+03  0.00000000000E+00 0. -1.
<scales pt_clust_5="13000.00000" pt_clust_6="13000.00000" pt_clust_7="13000.00000" pt_clust_8="13000.00000" pt_clust_9="178.65164"></scales>
<clustering>
<clus scale="   82.334">  5  6 -1 -1</clus>
<clus scale="   91.734">  7  8 -1 -1</clus>
<clus scale="   96.031">  2  7  1 -1</clus>
<clus scale="  178.652">  1  9  2 -1</clus>
<clus scale="  178.652">  1  5  2 -1</clus>
</clustering>
</event>
<event>
 9    1  0.7835476E-005  0.2804810E+03  0.7546771E-02  0.1116564E+00
          1   -1    0    0  502    0 -0.00000000000E+00  0.00000000000E+00  0.27111519634E+04  0.27111519634E+04  0.00000000000E+00 0. -1.
         21   -1    0    0  501  502  0.00000000000E+00 -0.00000000000E+00 -0.92848360240E+02  0.92848360240E+02  0.00000000000E+00 0. -1.
        -24    2    1    2    0    0 -0.11309509391E+03 -0.85778890515E+02  0.25999404397E+03  0.30689226319E+03  0.80233658655E+02 0.  0.
         23    2    1    2    0    0  0.27864384056E+03  0.27088643112E+03  0.21047442068E+04  0.21421903558E+04  0.89495789063E+02 0.  0.
         11    1    3    3    0    0 -0.98733011020E+02 -0.33108256649E+02  0.13501229947E+03  0.17050714100E+03  0.00000000000E+00 0. -1.
        -12    1    3    3    0    0 -0.14362082889E+02 -0.52670633866E+02  0.12498174449E+03  0.13638512218E+03  0.00000000000E+00 0.  1.
        -13    1    4    4    0    0  0.13180579392E+03  0.68058096394E+02  0.79887459172E+03  0.81253017488E+03  0.00000000000E+00 0.  1.
         13    1    4    4    0    0  0.14683804664E+03  0.20282833472E+03  0.13058696150E+04  0.13296601810E+04  0.00000000000E+00 0. -1.
          2    1    1    2  501    0 -0.16554874665E+03 -0.18510754060E+03  0.25356535244E+03  0.35491770464E+03  0.00000000000E+00 0. -1.
<scales pt_clust_5="13000.00000" pt_clust_6="13000.00000" pt_clust_7="13000.00000" pt_clust_8="13000.00000" pt_clust_9="265.81962"></scales>
<clustering>
<clus scale="   80.234">  5  6 -1 -1</clus>
<clus scale="   89.496">  7  8 -1 -1</clus>
<clus scale="  163.052">  1  5  2 -1</clus>
<clus scale="  265.820">  2  9  1 -1</clus>
<clus scale="  265.820">  2  5  1 -1</clus>
</clustering>
</event>
<event>
 9    1  0.7835476E-005  0.9613400E+02  0.7546771E-02  0.1294453E+00
          3   -1    0    0  502    0 -0.00000000000E+00  0.00000000000E+00  0.42391012101E+03  0.42391012101E+03  0.00000000000E+00 0. -1.
         21   -1    0    0  501  502  0.00000000000E+00 -0.00000000000E+00 -0.66176340882E+02  0.66176340882E+02  0.00000000000E+00 0.  1.
         23    2    1    2    0    0  0.20826960679E+02  0.31071174596E+02  0.17090919104E+03  0.19690609594E+03  0.90348651635E+02 0.  0.
        -24    2    1    2    0    0  0.11759910421E+02 -0.23603305938E+02 -0.17787969287E+02  0.85854602303E+02  0.79744525460E+02 0.  0.
         11    1    4    4    0    0  0.19410047523E+02 -0.33503481436E+02  0.21731792068E+02  0.44401621588E+02  0.00000000000E+00 0. -1.
        -12    1    4    4    0    0 -0.76501371020E+01  0.99001754980E+01 -0.39519761355E+02  0.41452980714E+02  0.00000000000E+00 0.  1.
        -11    1    3    3    0    0 -0.21802444320E+02  0.36623287880E+02  0.13274773237E+03  0.13942228030E+03  0.00000000000E+00 0. -1.
         11    1    3    3    0    0  0.42629404999E+02 -0.55521132844E+01  0.38161458670E+02  0.57483815638E+02  0.00000000000E+00 0.  1.
          4    1    1    2  501    0 -0.32586871100E+02 -0.74678686577E+01  0.20461255837E+03  0.20732576365E+03  0.00000000000E+00 0. -1.
<scales pt_clust_5="13000.00000" pt_clust_6="13000.00000" pt_clust_7="13000.00000" pt_clust_8="13000.00000" pt_clust_9="33.43164"></scales>
<clustering>
<clus scale="   33.432">  2  9  1 -1</clus>
<clus scale="   79.745">  5  6 -1 -1</clus>
<clus scale="   86.244">  2  5  1 -1</clus>
<clus scale="   90.349">  7  8 -1 -1</clus>
<clus scale="   33.432">  2  5  1 -1</clus>
</clustering>
</event>
<event>
 9    1  0.7835476E-005  0.1093277E+03  0.7546771E-02  0.1266117E+00
         21   -1    0    0  501  502  0.00000000000E+00  0.00000000000E+00  0.31811895025E+02  0.31811895025E+02  0.00000000000E+00 0. -1.
          1   -1    0    0  502    0 -0.00000000000E+00 -0.00000000000E+00 -0.54627002135E+03  0.54627002135E+03  0.00000000000E+00 0. -1.
         23    2    1    2    0    0 -0.59322455808E+02  0.27470596413E+02 -0.23526778266E+03  0.26082525210E+03  0.91679305982E+02 0.  0.
        -24    2    1    2    0    0  0.59591706401E+02  0.20565969037E+02 -0.19218478670E+03  0.21787079476E+03  0.80984939443E+02 0.  0.
         11    1    4    4    0    0  0.36391851409E+02  0.20334295014E+02 -0.19005384130E+03  0.19457212800E+03  0.00000000000E+00 0. -1.
        -12    1    4    4    0    0  0.23199854992E+02  0.23167402305E+00 -0.21309454025E+01  0.23298666760E+02  0.00000000000E+00 0.  1.
        -13    1    3    3    0    0  0.24074047480E+02  0.43863794184E+01 -0.35451678639E+02  0.43076926594E+02  0.00000000000E+00 0.  1.
         13    1    3    3    0    0 -0.83396503288E+02  0.23084216994E+02 -0.19981610402E+03  0.21774832551E+03  0.00000000000E+00 0. -1.
          2    1    1    2  501    0 -0.26925059320E+00 -0.48036565450E+02 -0.87005556963E+02  0.99385869511E+02  0.00000000000E+00 0. -1.
<scales pt_clust_5="13000.00000" pt_clust_6="13000.00000" pt_clust_7="13000.00000" pt_clust_8="13000.00000" pt_clust_9="48.03732"></scales>
<clustering>
<clus scale="   48.037">  1  9  2 -1</clus>
<clus scale="   80.985">  5  6 -1 -1</clus>
<clus scale="   91.679">  7  8 -1 -1</clus>
<clus scale="  100.529">  1  5  2 -1</clus>
<clus scale="   48.037">  1  5  2 -1</clus>
</clustering>
</event>
<event>
 9    1  0.7835476E-005  0.1211752E+03  0.7546771E-02  0.1244291E+00
         -2   -1    0    0    0  501 -0.00000000000E+00  0.00000000000E+00  0.18598022170E+03  0.18598022170E+03  0.00000000000E+00 0.  1.
         21   -1    0    0  501  502  0.00000000000E+00 -0.00000000000E+00 -0.12977554290E+03  0.12977554290E+03  0.00000000000E+00 0.  1.
         23    2    1    2    0    0 -0.41320320098E+02 -0.76529629442E+02  0.82999005165E+02  0.15063100317E+03  0.90756328830E+02 0.  0.
        -24    2    1    2    0    0  0.24856642828E+02  0.57116883499E+02 -0.63810766596E+02  0.12020122392E+03  0.80599809084E+02 0.  0.
         11    1    4    4    0    0 -0.28747140270E+02  0.13446224090E+02 -0.28069234486E+02  0.42368395540E+02  0.00000000000E+00 0. -1.
        -12    1    4    4    0    0  0.53603783099E+02  0.43670659409E+02 -0.35741532110E+02  0.77832828378E+02  0.00000000000E+00 0.  1.
        -13    1    3    3    0    0  0.18702789699E+02 -0.38218075636E+02  0.17369882107E+01  0.42584419403E+02  0.00000000000E+00 0. -1.
         13    1    3    3    0    0 -0.60023109797E+02 -0.38311553807E+02  0.81262016954E+02  0.10804658377E+03  0.00000000000E+00 0.  1.
         -1    1    1    2    0  502  0.16463677270E+02  0.19412745943E+02  0.37016440235E+02  0.44923537505E+02  0.00000000000E+00 0.  1.
<scales pt_clust_5="13000.00000" pt_clust_6="13000.00000" pt_clust_7="13000.00000" pt_clust_8="13000.00000" pt_clust_9="25.45404"></scales>
<clustering>
<clus scale="   25.454">  2  9  1 -1</clus>
<clus scale="   80.600">  5  6 -1 -1</clus>
<clus scale="   90.756">  7  8 -1 -1</clus>
<clus scale="  113.768">  2  5  1 -1</clus>
<clus scale="   25.454">  2  5  1 -1</clus>
</clustering>
</event>
<event>
 9    1  0.7835476E-005  0.9446535E+02  0.7546771E-02  0.1294042E+00
         21   -1    0    0  501  502  0.00000000000E+00  0.00000000000E+00  0.11012985972E+03  0.11012985972E+03  0.00000000000E+00 0. -1.
          3   -1    0    0  502    0 -0.00000000000E+00 -0.00000000000E+00 -0.30285800967E+03  0.30285800967E+03  0.00000000000E+00 0. -1.
        -24    2    1    2    0    0 -0.54248945112E+01  0.21873622273E+02 -0.20653848208E+03  0.22643075328E+03  0.90026977179E+02 0.  0.
         23    2    1    2    0    0 -0.39502636073E+02  0.23900743616E+02  0.47467830561E+02  0.11412367923E+03  0.92947917791E+02 0.  0.
         13    1    3    3    0    0  0.37139460937E+02  0.24759331167E+02 -0.14374580546E+03  0.15051651280E+03  0.00000000000E+00 0. -1.
        -14    1    3    3    0    0 -0.42564355448E+02 -0.28857088943E+01 -0.62792676621E+02  0.75914240481E+02  0.00000000000E+00 0.  1.
        -13    1    4    4    0    0 -0.31185821681E+02  0.59043594769E+02  0.37834606378E+02  0.76747371271E+02  0.00000000000E+00 0. -1.
         13    1    4    4    0    0 -0.83168143922E+01 -0.35142851154E+02  0.96332241831E+01  0.37376307964E+02  0.00000000000E+00 0.  1.
          4    1    1    2  501    0  0.44927530585E+02 -0.45774365889E+02 -0.33657498429E+02  0.72433436874E+02  0.00000000000E+00 0. -1.
<scales pt_clust_5="13000.00000" pt_clust_6="13000.00000" pt_clust_7="13000.00000" pt_clust_8="13000.00000" pt_clust_9="64.13872"></scales>
<clustering>
<clus scale="   64.139">  1  9  2 -1</clus>
<clus scale="   90.027">  5  6 -1 -1</clus>
<clus scale="   91.593">  2  5  1 -1</clus>
<clus scale="   92.948">  7  8 -1 -1</clus>
<clus scale="   64.139">  1  5  2 -1</clus>
</clustering>
</event>
<event>
 9    1  0.7835476E-005  0.2850329E+03  0.7546771E-02  0.1119479E+00
         21   -1    0    0  501  502  0.00000000000E+00  0.00000000000E+00  0.73524713864E+03  0.73524713864E+03  0.00000000000E+00 0. -1.
          1   -1    0    0  502    0 -0.00000000000E+00 -0.00000000000E+00 -0.21107397486E+03  0.21107397486E+03  0.00000000000E+00 0. -1.
        -24    2    1    2    0    0 -0.11816351928E+03 -0.14535102546E+02  0.25682757511E+03  0.29463859447E+03  0.81716653865E+02 0.  0.
         23    2    1    2    0    0 -0.18017930494E+03 -0.14910328154E+03  0.15279150079E+03  0.29264408020E+03  0.87171924748E+02 0.  0.
         11    1    3    3    0    0 -0.12123362319E+03  0.32146269081E+01  0.24414886725E+03  0.27261070154E+03  0.00000000000E+00 0. -1.
        -12    1    3    3    0    0  0.30701039055E+01 -0.17749729454E+02  0.12678707859E+02  0.22027892924E+02  0.00000000000E+00 0.  1.
        -11    1    4    4    0    0 -0.14564944738E+03 -0.15286890513E+03  0.14736988533E+03  0.25748892555E+03  0.00000000000E+00 0. -1.
         11    1    4    4    0    0 -0.34529857563E+02  0.37656235866E+01  0.54216154635E+01  0.35155154651E+02  0.00000000000E+00 0.  1.
          2    1    1    2  501    0  0.29834282422E+03  0.16363838409E+03  0.11455408787E+03  0.35903843883E+03  0.00000000000E+00 0. -1.
<scales pt_clust_5="13000.00000" pt_clust_6="13000.00000" pt_clust_7="13000.00000" pt_clust_8="13000.00000" pt_clust_9="271.37591"></scales>
<clustering>
<clus scale="   81.717">  5  6 -1 -1</clus>
<clus scale="   87.172">  7  8 -1 -1</clus>
<clus scale="  144.401">  2  5  1 -1</clus>
<clus scale="  271.376">  1  9  2 -1</clus>
<clus scale="  271.376">  1  5  2 -1</clus>
</clustering>
</event>
<event>
 9    1  0.7835476E-005  0.1501694E+03  0.7546771E-02  0.1202010E+00
         21   -1    0    0  501  502  0.00000000000E+00  0.00000000000E+00  0.24303147040E+03  0.24303147040E+03  0.00000000000E+00 0. -1.
          1   -1    0    0  502    0 -0.00000000000E+00 -0.00000000000E+00 -0.52308021581E+03  0.52308021581E+03  0.00000000000E+00 0. -1.
        -24    2    1    2    0    0 -0.13690476774E+03  0.28709668111E+02 -0.37458607881E+03  0.40798665212E+03  0.81063045824E+02 0.  0.
         23    2    1    2    0    0  0.82070705430E+02 -0.16861064738E+02 -0.97987834551E+02  0.15759298158E+03  0.90631318692E+02 0.  0.
         11    1    3    3    0    0 -0.11997013843E+03  0.52956003369E+02 -0.28697198893E+03  0.31551560157E+03  0.00000000000E+00 0. -1.
        -12    1    3    3    0    0 -0.16934629308E+02 -0.24246335259E+02 -0.87614089878E+02  0.92471050542E+02  0.00000000000E+00 0.  1.
        -13    1    4    4    0    0  0.81737848163E+02  0.16763021383E+02 -0.44902448628E+02  0.94753916019E+02  0.00000000000E+00 0.  1.
         13    1    4    4    0    0  0.33285726718E+00 -0.33624086120E+02 -0.53085385923E+02  0.62839065556E+02  0.00000000000E+00 0. -1.
          2    1    1    2  501    0  0.54834062310E+02 -0.11848603373E+02  0.19252516795E+03  0.20053205251E+03  0.00000000000E+00 0. -1.
<scales pt_clust_5="13000.00000" pt_clust_6="13000.00000" pt_clust_7="13000.00000" pt_clust_8="13000.00000" pt_clust_9="56.09959"></scales>
<clustering>
<clus scale="   56.100">  1  9  2 -1</clus>
<clus scale="   81.063">  5  6 -1 -1</clus>
<clus scale="   90.631">  7  8 -1 -1</clus>
<clus scale="  144.596">  2  5  1 -1</clus>
<clus scale="   56.100">  1  5  2 -1</clus>
</clustering>
</event>
<event>
 9    1  0.7835476E-005  0.9096559E+02  0.7546771E-02  0.1308807E+00
          1   -1    0    0  502    0 -0.00000000000E+00  0.00000000000E+00  0.54081568915E+03  0.54081568915E+03  0.00000000000E+00 0. -1.
         21   -1    0    0  501  502  0.00000000000E+00 -0.00000000000E+00 -0.26716881066E+02  0.26716881066E+02  0.00000000000E+00 0. -1.
        -24    2    1    2    0    0 -0.95653722355E+01 -0.21484432222E+02  0.32950540759E+03  0.33916180005E+03  0.76836422369E+02 0.  0.
         23    2    1    2    0    0  0.14624396022E+01 -0.19206694323E+02  0.11301230026E+03  0.14563456765E+03  0.89814316503E+02 0.  0.
         13    1    3    3    0    0 -0.61908730891E+00 -0.48788750762E+02  0.24762760673E+03  0.25238890048E+03  0.00000000000E+00 0. -1.
        -14    1    3    3    0    0 -0.89462849266E+01  0.27304318540E+02  0.81877800862E+02  0.86772899564E+02  0.00000000000E+00 0.  1.
        -13    1    4    4    0    0  0.39975540686E+02 -0.12178564081E+02  0.92355119896E+02  0.10136976594E+03  0.00000000000E+00 0.  1.
         13    1    4    4    0    0 -0.38513101084E+02 -0.70281302428E+01  0.20657180361E+02  0.44264801708E+02  0.00000000000E+00 0. -1.
          2    1    1    2  501    0  0.81029326333E+01  0.40691126546E+02  0.71581100231E+02  0.82736202518E+02  0.00000000000E+00 0. -1.
<scales pt_clust_5="13000.00000" pt_clust_6="13000.00000" pt_clust_7="13000.00000" pt_clust_8="13000.00000" pt_clust_9="41.49006"></scales>
<clustering>
<clus scale="   41.490">  2  9  1 -1</clus>
<clus scale="   76.836">  5  6 -1 -1</clus>
<clus scale="   78.179">  1  5  2 -1</clus>
<clus scale="   89.814">  7  8 -1 -1</clus>
<clus scale="   41.490">  2  5  1 -1</clus>
</clustering>
</event>
<event>
 9    1  0.7835476E-005  0.1113074E+03  0.7546771E-02  0.1263167E+00
         21   -1    0    0  501  502  0.00000000000E+00  0.00000000000E+00  0.31917619987E+03  0.31917619987E+03  0.00000000000E+00 0.  1.
          3   -1    0    0  502    0 -0.00000000000E+00 -0.00000000000E+00 -0.13382157162E+03  0.13382157162E+03  0.00000000000E+00 0. -1.
         23    2    1    2    0    0 -0.52563361629E+02 -0.29599627797E+02 -0.79100860071E+02  0.13590955381E+03  0.92603540973E+02 0.  0.
        -24    2    1    2    0    0  0.78710643588E+02 -0.53830403798E+01  0.11216116795E+03  0.15865517995E+03  0.79793458321E+02 0.  0.
         11    1    4    4    0    0  0.54873594165E+02  0.13047133952E+02  0.17108238550E+02  0.58940909963E+02  0.00000000000E+00 0. -1.
        -12    1    4    4    0    0  0.23837049423E+02 -0.18430174332E+02  0.95052929402E+02  0.99714269987E+02  0.00000000000E+00 0.  1.
        -11    1    3    3    0    0 -0.54726234467E+02 -0.59274473795E+02 -0.60200937654E+02  0.10066070175E+03  0.00000000000E+00 0. -1.
         11    1    3    3    0    0  0.21628728384E+01  0.29674845998E+02 -0.18899922417E+02  0.35248852056E+02  0.00000000000E+00 0.  1.
          4    1    1    2  501    0 -0.26147281959E+02  0.34982668177E+02  0.15229432038E+03  0.15843303773E+03  0.00000000000E+00 0. -1.
<scales pt_clust_5="13000.00000" pt_clust_6="13000.00000" pt_clust_7="13000.00000" pt_clust_8="13000.00000" pt_clust_9="43.67456"></scales>
<clustering>
<clus scale="   43.675">  1  9  2 -1</clus>
<clus scale="   79.793">  5  6 -1 -1</clus>
<clus scale="   92.604">  7  8 -1 -1</clus>
<clus scale="  100.901">  1  5  2 -1</clus>
<clus scale="   43.675">  1  5  2 -1</clus>
</clustering>
</event>
<event>
 9    1  0.7835476E-005  0.9834747E+02  0.7546771E-02  0.1291171E+00
         21   -1    0    0  501  502  0.00000000000E+00  0.00000000000E+00  0.56795540687E+03  0.56795540687E+03  0.00000000000E+00 0.  1.
         -2   -1    0    0    0  501 -0.00000000000E+00 -0.00000000000E+00 -0.44178853972E+02  0.44178853972E+02  0.00000000000E+00 0.  1.
        -24    2    1    2    0    0  0.18488304999E+02  0.11358118624E+02  0.44490584445E+02  0.95585926723E+02  0.81770612098E+02 0.  0.
         23    2    1    2    0    0 -0.57750352184E+02  0.48048924899E+02  0.31569542912E+03  0.33813149150E+03  0.95002627424E+02 0.  0.
         11    1    3    3    0    0  0.37690742406E+02 -0.16931511667E+02  0.45393642931E+02  0.61382823078E+02  0.00000000000E+00 0. -1.
        -12    1    3    3    0    0 -0.19202437407E+02  0.28289630291E+02 -0.90305848667E+00  0.34203103646E+02  0.00000000000E+00 0.  1.
        -13    1    4    4    0    0 -0.42159572537E+02 -0.70980172329E+01  0.23674419683E+03  0.24057353582E+03  0.00000000000E+00 0. -1.
         13    1    4    4    0    0 -0.15590779647E+02  0.55146942132E+02  0.78951232288E+02  0.97557955679E+02  0.00000000000E+00 0.  1.
         -1    1    1    2    0  502  0.39262047185E+02 -0.59407043523E+02  0.16359053934E+03  0.17841684262E+03  0.00000000000E+00 0.  1.
<scales pt_clust_5="13000.00000" pt_clust_6="13000.00000" pt_clust_7="13000.00000" pt_clust_8="13000.00000" pt_clust_9="71.20888"></scales>
<clustering>
<clus scale="   71.209">  1  9  2 -1</clus>
<clus scale="   81.771">  5  6 -1 -1</clus>
<clus scale="   85.634">  2  5  1 -1</clus>
<clus scale="   95.003">  7  8 -1 -1</clus>
<clus scale="   71.209">  1  5  2 -1</clus>
</clustering>
</event>
<event>
 9    1  0.7835476E-005  0.1239322E+03  0.7546771E-02  0.1256540E+00
          1   -1    0    0  502    0 -0.00000000000E+00  0.00000000000E+00  0.14983096143E+04  0.14983096143E+04  0.00000000000E+00 0. -1.
         21   -1    0    0  501  502  0.00000000000E+00 -0.00000000000E+00 -0.19174557114E+02  0.19174557114E+02  0.00000000000E+00 0.  1.
        -24    2    1    2    0    0 -0.15302532863E+02 -0.12012098141E+02  0.72066229205E+03  0.72545725675E+03  0.80966870922E+02 0.  0.
         23    2    1    2    0    0 -0.77254842952E+02 -0.17731283277E+01  0.28206014800E+03  0.30651081600E+03  0.91757825236E+02 0.  0.
         11    1    3    3    0    0  0.30643430246E+02 -0.93603629107E+01  0.17914606612E+03  0.18198887114E+03  0.00000000000E+00 0. -1.
        -12    1    3    3    0    0 -0.45945963109E+02 -0.26517352303E+01  0.54151622592E+03  0.54346838561E+03  0.00000000000E+00 0.  1.
        -11    1    4    4    0    0 -0.10291651689E+02 -0.40885547012E+02  0.10900741094E+03  0.11687669438E+03  0.00000000000E+00 0.  1.
         11    1    4    4    0    0 -0.66963191263E+02  0.39112418685E+02  0.17305273706E+03  0.18963412162E+03  0.00000000000E+00 0. -1.
          2    1    1    2  501    0  0.92557375816E+02  0.13785226469E+02  0.47641261718E+03  0.48551609870E+03  0.00000000000E+00 0. -1.
<scales pt_clust_5="13000.00000" pt_clust_6="13000.00000" pt_clust_7="13000.00000" pt_clust_8="13000.00000" pt_clust_9="83.30481"></scales>
<clustering>
<clus scale="   80.967">  5  6 -1 -1</clus>
<clus scale="   83.271">  1  5  2 -1</clus>
<clus scale="   83.305">  2  9  1 -1</clus>
<clus scale="   91.758">  7  8 -1 -1</clus>
<clus scale="   83.305">  2  5  1 -1</clus>
</clustering>
</event>
<event>
 9    1  0.7835476E-005  0.9812784E+02  0.7546771E-02  0.1291952E+00
         -4   -1    0    0    0  501 -0.00000000000E+00  0.00000000000E+00  0.51091083161E+02  0.51091083161E+02  0.00000000000E+00 0.  1.
         21   -1    0    0  501  502  0.00000000000E+00 -0.00000000000E+00 -0.29933943828E+03  0.29933943828E+03  0.00000000000E+00 0.  1.
        -24    2    1    2    0    0  0.73611759255E+01  0.41414574068E+02 -0.43446862843E+02  0.98871555458E+02  0.78221485102E+02 0.  0.
         23    2    1    2    0    0 -0.34353039339E+02 -0.23290257363E+01 -0.13976823777E+03  0.17102596051E+03  0.92353468835E+02 0.  0.
         11    1    3    3    0    0 -0.34432118649E+02  0.20695473081E+02 -0.97867472739E+01  0.41347960323E+02  0.00000000000E+00 0. -1.
        -12    1    3    3    0    0  0.41793294574E+02  0.20719100986E+02 -0.33660115569E+02  0.57523595135E+02  0.00000000000E+00 0.  1.
        -11    1    4    4    0    0 -0.29866009262E+02  0.42754602054E+02 -0.61952465798E+02  0.80981741920E+02  0.00000000000E+00 0.  1.
         11    1    4    4    0    0 -0.44870300767E+01 -0.45083627790E+02 -0.77815771972E+02  0.90044218589E+02  0.00000000000E+00 0. -1.
         -3    1    1    2    0  502  0.26991863413E+02 -0.39085548331E+02 -0.65033254504E+02  0.80533005472E+02  0.00000000000E+00 0.  1.
<scales pt_clust_5="13000.00000" pt_clust_6="13000.00000" pt_clust_7="13000.00000" pt_clust_8="13000.00000" pt_clust_9="47.49990"></scales>
<clustering>
<clus scale="   47.500">  2  9  1 -1</clus>
<clus scale="   78.221">  5  6 -1 -1</clus>
<clus scale="   84.962">  1  5  2 -1</clus>
<clus scale="   92.353">  7  8 -1 -1</clus>
<clus scale="   47.500">  2  5  1 -1</clus>
</clustering>
</event>
<event>
 9    1  0.7835476E-005  0.1168145E+03  0.7546771E-02  0.1252454E+00
          1   -1    0    0  502    0 -0.00000000000E+00  0.00000000000E+00  0.53572368904E+03  0.53572368904E+03  0.00000000000E+00 0. -1.
         21   -1    0    0  501  502  0.00000000000E+00 -0.00000000000E+00 -0.63052531082E+02  0.63052531082E+02  0.00000000000E+00 0. -1.
        -24    2    1    2    0    0 -0.54039984220E+02 -0.52320702209E+02  0.29480377275E+03  0.31455405054E+03  0.79857438665E+02 0.  0.
         23    2    1    2    0    0  0.58044857510E+01  0.74509163412E+02  0.22930942123E+02  0.12044093586E+03  0.91623596508E+02 0.  0.
         13    1    3    3    0    0 -0.63308786536E+02 -0.75316078932E+01  0.16195144095E+03  0.17404883451E+03  0.00000000000E+00 0. -1.
        -14    1    3    3    0    0  0.92688023161E+01 -0.44789094315E+02  0.13285233180E+03  0.14050521602E+03  0.00000000000E+00 0.  1.
        -13    1    4    4    0    0 -0.35820428807E+02  0.36132841120E+02 -0.14091572290E+02  0.52794485857E+02  0.00000000000E+00 0. -1.
         13    1    4    4    0    0  0.41624914558E+02  0.38376322292E+02  0.37022514414E+02  0.67646450003E+02  0.00000000000E+00 0.  1.
          2    1    1    2  501    0  0.48235498469E+02 -0.22188461203E+02  0.15493644309E+03  0.16378123372E+03  0.00000000000E+00 0. -1.
<scales pt_clust_5="13000.00000" pt_clust_6="13000.00000" pt_clust_7="13000.00000" pt_clust_8="13000.00000" pt_clust_9="53.09420"></scales>
<clustering>
<clus scale="   53.094">  2  9  1 -1</clus>
<clus scale="   79.857">  5  6 -1 -1</clus>
<clus scale="   91.624">  7  8 -1 -1</clus>
<clus scale="  107.833">  1  5  2 -1</clus>
<clus scale="   53.094">  2  5  1 -1</clus>
</clustering>
</event>
<event>
 9    1  0.7835476E-005  0.1487312E+03  0.7546771E-02  0.1219441E+00
          1   -1    0    0  502    0 -0.00000000000E+00  0.00000000000E+00  0.20179275563E+03  0.20179275563E+03  0.00000000000E+00 0. -1.
         21   -1    0    0  501  502  0.00000000000E+00 -0.00000000000E+00 -0.19621576866E+03  0.19621576866E+03  0.00000000000E+00 0. -1.
        -24    2    1    2    0    0  0.60035731503E+02  0.26454398942E+02  0.22815733002E+02  0.10512511350E+03  0.78908855873E+02 0.  0.
         23    2    1    2    0    0 -0.16928877153E+02 -0.13199749182E+03  0.36839699323E+02  0.16670090963E+03  0.93392211116E+02 0.  0.
         13    1    3    3    0    0  0.76910840586E+01 -0.23895160823E+02  0.20581636540E+02  0.32461288443E+02  0.00000000000E+00 0. -1.
        -14    1    3    3    0    0  0.52344647444E+02  0.50349559765E+02  0.22340964624E+01  0.72663825055E+02  0.00000000000E+00 0.  1.
        -13    1    4    4    0    0 -0.40467431234E+02 -0.25323645207E+02  0.31770470137E+02  0.57343375990E+02  0.00000000000E+00 0.  1.
         13    1    4    4    0    0  0.23538554080E+02 -0.10667384662E+03  0.50692291865E+01  0.10935753364E+03  0.00000000000E+00 0. -1.
          2    1    1    2  501    0 -0.43106854350E+02  0.10554309288E+03 -0.54078445350E+02  0.12618250116E+03  0.00000000000E+00 0. -1.
<scales pt_clust_5="13000.00000" pt_clust_6="13000.00000" pt_clust_7="13000.00000" pt_clust_8="13000.00000" pt_clust_9="115.75341"></scales>
<clustering>
<clus scale="   78.909">  5  6 -1 -1</clus>
<clus scale="   93.392">  7  8 -1 -1</clus>
<clus scale="  102.619">  1  5  2 -1</clus>
<clus scale="  115.753">  2  9  1 -1</clus>
<clus scale="  115.753">  2  5  1 -1</clus>
</clustering>
</event>
<event>
 9    1  0.7835476E-005  0.1291885E+03  0.7546771E-02  0.1230832E+00
         21   -1    0    0  501  502  0.00000000000E+00  0.00000000000E+00  0.26652044962E+03  0.26652044962E+03  0.00000000000E+00 0. -1.
          1   -1    0    0  502    0 -0.00000000000E+00 -0.00000000000E+00 -0.14204502547E+03  0.14204502547E+03  0.00000000000E+00 0. -1.
        -24    2    1    2    0    0 -0.52198662818E+02 -0.79289989245E+02  0.47282899056E+02  0.13332997083E+03  0.80805976170E+02 0.  0.
         23    2    1    2    0    0  0.70197243528E+02  0.60818151437E+02  0.15017271287E+03  0.19783223877E+03  0.89214631434E+02 0.  0.
         13    1    3    3    0    0 -0.74178820466E+02 -0.61508645966E+02  0.37766293455E+02  0.10349929399E+03  0.00000000000E+00 0. -1.
        -14    1    3    3    0    0  0.21980157647E+02 -0.17781343278E+02  0.95166056011E+01  0.29830676847E+02  0.00000000000E+00 0.  1.
        -13    1    4    4    0    0  0.13948102792E+02  0.46025921132E+02  0.14520575301E+02  0.50237258032E+02  0.00000000000E+00 0.  1.
         13    1    4    4    0    0  0.56249140736E+02  0.14792230305E+02  0.13565213757E+03  0.14759498074E+03  0.00000000000E+00 0. -1.
          2    1    1    2  501    0 -0.17998580710E+02  0.18471837808E+02 -0.72980187780E+02  0.77403265487E+02  0.00000000000E+00 0. -1.
<scales pt_clust_5="13000.00000" pt_clust_6="13000.00000" pt_clust_7="13000.00000" pt_clust_8="13000.00000" pt_clust_9="25.79066"></scales>
<clustering>
<clus scale="   25.791">  1  9  2 -1</clus>
<clus scale="   80.806">  5  6 -1 -1</clus>
<clus scale="   89.215">  7  8 -1 -1</clus>
<clus scale="  123.531">  2  5  1 -1</clus>
<clus scale="   25.791">  1  5  2 -1</clus>
</clustering>
</event>
<event>
 9    1  0.7835476E-005  0.9436686E+02  0.7546771E-02  0.1297272E+00
         21   -1    0    0  501  502  0.00000000000E+00  0.00000000000E+00  0.21167543689E+03  0.21167543689E+03  0.00000000000E+00 0. -1.
          1   -1    0    0  502    0 -0.00000000000E+00 -0.00000000000E+00 -0.19791643583E+03  0.19791643583E+03  0.00000000000E+00 0. -1.
         23    2    1    2    0    0 -0.29022127340E+02 -0.10367756163E+02 -0.14089001292E+03  0.17051685479E+03  0.90973775260E+02 0.  0.
        -24    2    1    2    0    0  0.85688099201E+01  0.23243907022E+01  0.42740462937E+00  0.83295241605E+02  0.82819607000E+02 0.  0.
         13    1    4    4    0    0  0.14405797547E+02 -0.36158166666E+02  0.15030097376E+02  0.41723420841E+02  0.00000000000E+00 0. -1.
        -14    1    4    4    0    0 -0.58369876271E+01  0.38482557368E+02 -0.14602692747E+02  0.41571820763E+02  0.00000000000E+00 0.  1.
        -11    1    3    3    0    0 -0.36247979201E+02  0.34021075120E+02 -0.59559860730E+02  0.77580452169E+02  0.00000000000E+00 0.  1.
         11    1    3    3    0    0  0.72258518617E+01 -0.44388831282E+02 -0.81330152188E+02  0.92936402624E+02  0.00000000000E+00 0. -1.
          2    1    1    2  501    0  0.20453317419E+02  0.80433654604E+01  0.15422160935E+03  0.15577977632E+03  0.00000000000E+00 0. -1.
<scales pt_clust_5="13000.00000" pt_clust_6="13000.00000" pt_clust_7="13000.00000" pt_clust_8="13000.00000" pt_clust_9="21.97803"></scales>
<clustering>
<clus scale="   21.978">  1  9  2 -1</clus>
<clus scale="   82.820">  5  6 -1 -1</clus>
<clus scale="   86.533">  1  5  2 -1</clus>
<clus scale="   90.974">  7  8 -1 -1</clus>
<clus scale="   21.978">  1  5  2 -1</clus>
</clustering>
</event>
<event>
 9    1  0.7835476E-005  0.3003007E+03  0.7546771E-02  0.1085090E+00
          1   -1    0    0  502    0 -0.00000000000E+00  0.00000000000E+00  0.19753631941E+04  0.19753631941E+04  0.00000000000E+00 0. -1.
         21   -1    0    0  501  502  0.00000000000E+00 -0.00000000000E+00 -0.83609779502E+02  0.83609779502E+02  0.00000000000E+00 0. -1.
        -24    2    1    2    0    0 -0.43731742402E+02  0.10481970029E+03  0.81404095819E+02  0.16125296440E+03  0.80475193994E+02 0.  0.
         23    2    1    2    0    0 -0.11197477335E+03  0.65514688876E+02  0.14085463197E+03  0.21235036652E+03  0.91772144415E+02 0.  0.
         11    1    3    3    0    0 -0.63356764906E+01  0.99359567616E+02  0.46804521226E+02  0.11001421581E+03  0.00000000000E+00 0. -1.
        -12    1    3    3    0    0 -0.37396065912E+02  0.54601326716E+01  0.34599574593E+02  0.51238748584E+02  0.00000000000E+00 0.  1.
        -11    1    4    4    0    0 -0.81415615256E+02  0.52237096181E+02  0.37481854638E+02  0.10374057091E+03  0.00000000000E+00 0. -1.
         11    1    4    4    0    0 -0.30559158094E+02  0.13277592695E+02  0.10337277733E+03  0.10860979562E+03  0.00000000000E+00 0.  1.
          2    1    1    2  501    0  0.15570651575E+03 -0.17033438916E+03  0.16694946868E+04  0.16853696427E+04  0.00000000000E+00 0. -1.
<scales pt_clust_5="13000.00000" pt_clust_6="13000.00000" pt_clust_7="13000.00000" pt_clust_8="13000.00000" pt_clust_9="230.77776"></scales>
<clustering>
<clus scale="   80.475">  5  6 -1 -1</clus>
<clus scale="   91.772">  7  8 -1 -1</clus>
<clus scale="  120.584">  5  7 -1 -1</clus>
<clus scale="  230.778">  2  9  1 -1</clus>
<clus scale="  230.778">  2  5  1 -1</clus>
</clustering>
</event>
<event>
 9    1  0.7835476E-005  0.1392916E+03  0.7546771E-02  0.1214526E+00
          1   -1    0    0  502    0 -0.00000000000E+00  0.00000000000E+00  0.19928476203E+03  0.19928476203E+03  0.00000000000E+00 0. -1.
         21   -1    0    0  501  502  0.00000000000E+00 -0.00000000000E+00 -0.25887513074E+03  0.25887513074E+03  0.00000000000E+00 0. -1.
         23    2    1    2    0    0 -0.11963200699E+03  0.24272259459E+02  0.13884445407E+03  0.20180199657E+03  0.80903051353E+02 0.  0.
        -24    2    1    2    0    0  0.70329580697E+02 -0.44273108064E+01 -0.11962611360E+03  0.16130336516E+03  0.82112834293E+02 0.  0.
         13    1    4    4    0    0  0.55409681524E+02 -0.40560890847E+02 -0.83112758959E+02  0.10781071085E+03  0.00000000000E+00 0. -1.
        -14    1    4    4    0    0  0.14919899173E+02  0.36133580041E+02 -0.36513354645E+02  0.53492654312E+02  0.00000000000E+00 0.  1.
        -13    1    3    3    0    0 -0.62283433704E+02  0.94238850308E+01  0.15352340273E+02  0.64836178750E+02  0.00000000000E+00 0.  1.
         13    1    3    3    0    0 -0.57348573287E+02  0.14848374428E+02  0.12349211380E+03  0.13696581782E+03  0.00000000000E+00 0. -1.
          2    1    1    2  501    0  0.49302426294E+02 -0.19844948652E+02 -0.78808709182E+02  0.95054531025E+02  0.00000000000E+00 0. -1.
<scales pt_clust_5="13000.00000" pt_clust_6="13000.00000" pt_clust_7="13000.00000" pt_clust_8="13000.00000" pt_clust_9="53.14651"></scales>
<clustering>
<clus scale="   53.147">  2  9  1 -1</clus>
<clus scale="   80.903">  7  8 -1 -1</clus>
<clus scale="   82.113">  5  6 -1 -1</clus>
<clus scale="  138.582">  1  7  2 -1</clus>
<clus scale="   53.147">  2  5  1 -1</clus>
</clustering>
</event>
<event>
 9    1  0.7835476E-005  0.1070086E+03  0.7546771E-02  0.1269932E+00
         21   -1    0    0  501  502  0.00000000000E+00  0.00000000000E+00  0.32380587506E+03  0.32380587506E+03  0.00000000000E+00 0.  1.
          1   -1    0    0  502    0 -0.00000000000E+00 -0.00000000000E+00 -0.10687701492E+03  0.10687701492E+03  0.00000000000E+00 0. -1.
        -24    2    1    2    0    0 -0.30348151571E+02  0.40397575589E+02 -0.56125639565E+02  0.11383643124E+03  0.85180228004E+02 0.  0.
         23    2    1    2    0    0  0.60611893943E+02 -0.24153862713E+02  0.14687480395E+03  0.18607540717E+03  0.93779733134E+02 0.  0.
         13    1    3    3    0    0 -0.18597082158E+02  0.65948280191E+02 -0.27873190263E+02  0.73972575056E+02  0.00000000000E+00 0. -1.
        -14    1    3    3    0    0 -0.11751069413E+02 -0.25550704602E+02 -0.28252449302E+02  0.39863856181E+02  0.00000000000E+00 0.  1.
        -11    1    4    4    0    0  0.38971244739E+02  0.11682774754E+02  0.13720410073E+03  0.14310908567E+03  0.00000000000E+00 0.  1.
         11    1    4    4    0    0  0.21640649204E+02 -0.35836637467E+02  0.96707032194E+01  0.42966321505E+02  0.00000000000E+00 0. -1.
          2    1    1    2  501    0 -0.30263742372E+02 -0.16243712877E+02  0.12617969576E+03  0.13077105158E+03  0.00000000000E+00 0. -1.
<scales pt_clust_5="13000.00000" pt_clust_6="13000.00000" pt_clust_7="13000.00000" pt_clust_8="13000.00000" pt_clust_9="34.34752"></scales>
<clustering>
<clus scale="   34.348">  1  9  2 -1</clus>
<clus scale="   85.180">  5  6 -1 -1</clus>
<clus scale="   93.780">  7  8 -1 -1</clus>
<clus scale="   99.558">  2  5  1 -1</clus>
<clus scale="   34.348">  1  5  2 -1</clus>
</clustering>
</event>
<event>
 9    1  0.7835476E-005  0.1332924E+03  0.7546771E-02  0.1233214E+00
          3   -1    0    0  502    0 -0.00000000000E+00  0.00000000000E+00  0.31081924092E+02  0.31081924092E+02  0.00000000000E+00 0. -1.
         21   -1    0    0  501  502  0.00000000000E+00 -0.00000000000E+00 -0.15185453459E+04  0.15185453459E+04  0.00000000000E+00 0. -1.
         23    2    1    2    0    0 -0.31352135255E+02  0.47114626136E+02 -0.12371117091E+03  0.16362386304E+03  0.90915182270E+02 0.  0.
        -24    2    1    2    0    0 -0.86104348445E+02 -0.19370905709E+02 -0.51760042693E+03  0.53128787018E+03  0.81039547380E+02 0.  0.
         11    1    4    4    0    0 -0.86673286135E+02 -0.39990560436E+02 -0.36396469831E+03  0.37627357743E+03  0.00000000000E+00 0. -1.
        -12    1    4    4    0    0  0.56893768965E+00  0.20619654727E+02 -0.15363572862E+03  0.15501429276E+03  0.00000000000E+00 0.  1.
        -13    1    3    3    0    0  0.28135739136E+02 -0.40391414482E+01 -0.28496565754E+02  0.40249083718E+02  0.00000000000E+00 0.  1.
         13    1    3    3    0    0 -0.59487874391E+02  0.51153767584E+02 -0.95214605155E+02  0.12337477932E+03  0.00000000000E+00 0. -1.
          4    1    1    2  501    0  0.11745648370E+03 -0.27743720427E+02 -0.84615182401E+03  0.85471553681E+03  0.00000000000E+00 0. -1.
<scales pt_clust_5="13000.00000" pt_clust_6="13000.00000" pt_clust_7="13000.00000" pt_clust_8="13000.00000" pt_clust_9="105.82743"></scales>
<clustering>
<clus scale="   81.040">  5  6 -1 -1</clus>
<clus scale="   90.915">  7  8 -1 -1</clus>
<clus scale="  107.090">  1  7  2 -1</clus>
<clus scale="  105.827">  2  9  1 -1</clus>
<clus scale="  105.827">  2  5  1 -1</clus>
</clustering>
</event>
<event>
 9    1  0.7835476E-005  0.1297845E+03  0.7546771E-02  0.1231594E+00
          1   -1    0    0  502    0 -0.00000000000E+00  0.00000000000E+00  0.24832616161E+03  0.24832616161E+03  0.00000000000E+00 0. -1.
         21   -1    0    0  501  502  0.00000000000E+00 -0.00000000000E+00 -0.13779714726E+03  0.13779714726E+03  0.00000000000E+00 0. -1.
        -24    2    1    2    0    0  0.24449950643E+02  0.93070468885E+02  0.86903423165E+02  0.15121592447E+03  0.77808345243E+02 0.  0.
         23    2    1    2    0    0  0.92599656678E+01 -0.79397414708E+02 -0.65575823144E+02  0.13857357317E+03  0.92264566184E+02 0.  0.
         13    1    3    3    0    0  0.40540738503E+02  0.80896330144E+02  0.93375580075E+02  0.13002602302E+03  0.00000000000E+00 0. -1.
        -14    1    3    3    0    0 -0.16090787860E+02  0.12174138740E+02 -0.64721569102E+01  0.21189901442E+02  0.00000000000E+00 0.  1.
        -11    1    4    4    0    0  0.38084062017E+02 -0.26140476966E+02 -0.62792688576E+02  0.77952819412E+02  0.00000000000E+00 0.  1.
         11    1    4    4    0    0 -0.28824096349E+02 -0.53256937742E+02 -0.27831345684E+01  0.60620753756E+02  0.00000000000E+00 0. -1.
          2    1    1    2  501    0 -0.33709916311E+02 -0.13673054177E+02  0.89201414329E+02  0.96333811232E+02  0.00000000000E+00 0. -1.
<scales pt_clust_5="13000.00000" pt_clust_6="13000.00000" pt_clust_7="13000.00000" pt_clust_8="13000.00000" pt_clust_9="36.37736"></scales>
<clustering>
<clus scale="   36.377">  2  9  1 -1</clus>
<clus scale="   77.808">  5  6 -1 -1</clus>
<clus scale="   92.265">  7  8 -1 -1</clus>
<clus scale="  119.939">  1  5  2 -1</clus>
<clus scale="   36.377">  2  5  1 -1</clus>
</clustering>
</event>
<event>
 9    1  0.7835476E-005  0.3779190E+03  0.7546771E-02  0.1051706E+00
         21   -1    0    0  501  502  0.00000000000E+00  0.00000000000E+00  0.14298259033E+03  0.14298259033E+03  0.00000000000E+00 0. -1.
          1   -1    0    0  502    0 -0.00000000000E+00 -0.00000000000E+00 -0.12759721776E+04  0.12759721776E+04  0.00000000000E+00 0. -1.
        -24    2    1    2    0    0 -0.34881560862E+01 -0.13146626438E+03 -0.49606409784E+03  0.51952224500E+03  0.80797450314E+02 0.  0.
         23    2    1    2    0    0  0.14372184528E+03 -0.13987097714E+03 -0.53309839747E+03  0.57683455135E+03  0.91237816667E+02 0.  0.
         11    1    3    3    0    0 -0.36085923818E+02 -0.95518723103E+02 -0.38518707348E+03  0.39849103119E+03  0.00000000000E+00 0. -1.
        -12    1    3    3    0    0  0.32597767732E+02 -0.35947541277E+02 -0.11087702436E+03  0.12103121381E+03  0.00000000000E+00 0.  1.
        -13    1    4    4    0    0  0.11548136474E+03 -0.13661366369E+03 -0.50916274377E+03  0.53967206556E+03  0.00000000000E+00 0. -1.
         13    1    4    4    0    0  0.28240480534E+02 -0.32573134492E+01 -0.23935653708E+02  0.37162485790E+02  0.00000000000E+00 0.  1.
          2    1    1    2  501    0 -0.14023368919E+03  0.27133724152E+03 -0.10382709191E+03  0.32259797153E+03  0.00000000000E+00 0. -1.
<scales pt_clust_5="13000.00000" pt_clust_6="13000.00000" pt_clust_7="13000.00000" pt_clust_8="13000.00000" pt_clust_9="305.43311"></scales>
<clustering>
<clus scale="   80.797">  5  6 -1 -1</clus>
<clus scale="   91.238">  7  8 -1 -1</clus>
<clus scale="  146.155">  5  7 -1 -1</clus>
<clus scale="  305.433">  1  9  2 -1</clus>
<clus scale="  305.433">  1  5  2 -1</clus>
</clustering>
</event>
<event>
 9    1  0.1075397E-004  0.1683465E+03  0.7546771E-02  0.1206839E+00
         21   -1    0    0  501  502  0.00000000000E+00  0.00000000000E+00  0.19270269471E+03  0.19270269471E+03  0.00000000000E+00 0. -1.
          1   -1    0    0  502    0 -0.00000000000E+00 -0.00000000000E+00 -0.44001476787E+03  0.44001476787E+03  0.00000000000E+00 0. -1.
         23    2    1    2    0    0 -0.45847282980E+01 -0.49465362982E+01 -0.95456713596E+02  0.13291252698E+03  0.92240271590E+02 0.  0.
        -24    2    1    2    0    0 -0.69422144056E+02  0.13009199029E+03  0.10927481632E+03  0.20092808710E+03  0.81778668860E+02 0.  0.
         11    1    4    4    0    0 -0.48750191965E+02  0.13651963613E+03  0.83587445979E+02  0.16733515288E+03  0.00000000000E+00 0. -1.
        -12    1    4    4    0    0 -0.20671952091E+02 -0.64276458368E+01  0.25687370339E+02  0.33592934216E+02  0.00000000000E+00 0.  1.
        -13    1    3    3    0    0  0.33209036185E+02 -0.28050538457E+02 -0.26366103849E+02  0.50841363320E+02  0.00000000000E+00 0.  1.
         13    1    3    3    0    0 -0.37793764483E+02  0.23104002159E+02 -0.69090609747E+02  0.82071163661E+02  0.00000000000E+00 0. -1.
          2    1    1    2  501    0  0.74006872354E+02 -0.12514545399E+03 -0.26113017589E+03  0.29887684850E+03  0.00000000000E+00 0. -1.
<scales pt_clust_5="13000.00000" pt_clust_6="13000.00000" pt_clust_7="13000.00000" pt_clust_8="13000.00000" pt_clust_9="147.14890"></scales>
<clustering>
<clus scale="   81.779">  5  6 -1 -1</clus>
<clus scale="   92.240">  7  8 -1 -1</clus>
<clus scale="   92.487">  2  7  1 -1</clus>
<clus scale="  147.149">  1  9  2 -1</clus>
<clus scale="  147.149">  1  5  2 -1</clus>
</clustering>
</event>
<event>
 9    1  0.7835476E-005  0.9562579E+02  0.7546771E-02  0.1296355E+00
         -2   -1    0    0    0  501 -0.00000000000E+00  0.00000000000E+00  0.33951736085E+03  0.33951736085E+03  0.00000000000E+00 0.  1.
         21   -1    0    0  501  502  0.00000000000E+00 -0.00000000000E+00 -0.10908823778E+03  0.10908823778E+03  0.00000000000E+00 0.  1.
        -24    2    1    2    0    0  0.30962248891E+01  0.30040443184E+02  0.27494498949E+03  0.28789720316E+03  0.79862616436E+02 0.  0.
         23    2    1    2    0    0 -0.34623618223E+02 -0.48360358754E+01  0.34884405664E+01  0.97989561242E+02  0.91474601464E+02 0.  0.
         13    1    3    3    0    0 -0.34645899532E+02  0.50119758213E+01  0.17050209107E+03  0.17405867205E+03  0.00000000000E+00 0. -1.
        -14    1    3    3    0    0  0.37742124421E+02  0.25028467363E+02  0.10444289842E+03  0.11383853111E+03  0.00000000000E+00 0.  1.
        -11    1    4    4    0    0 -0.24616272846E+02  0.12939003128E+02 -0.40715224094E+02  0.49306269011E+02  0.00000000000E+00 0. -1.
         11    1    4    4    0    0 -0.10007345377E+02 -0.17775039003E+02  0.44203664661E+02  0.48683292231E+02  0.00000000000E+00 0.  1.
         -1    1    1    2    0  502  0.31527393334E+02 -0.25204407309E+02 -0.48004306991E+02  0.62718834236E+02  0.00000000000E+00 0.  1.
<scales pt_clust_5="13000.00000" pt_clust_6="13000.00000" pt_clust_7="13000.00000" pt_clust_8="13000.00000" pt_clust_9="40.36383"></scales>
<clustering>
<clus scale="   40.364">  2  9  1 -1</clus>
<clus scale="   79.863">  5  6 -1 -1</clus>
<clus scale="   84.586">  1  5  2 -1</clus>
<clus scale="   91.475">  7  8 -1 -1</clus>
<clus scale="   40.364">  2  5  1 -1</clus>
</clustering>
</event>
<event>
 9    1  0.7835476E-005  0.1172054E+03  0.7546771E-02  0.1254201E+00
         21   -1    0    0  501  502  0.00000000000E+00  0.00000000000E+00  0.18073331156E+03  0.18073331156E+03  0.00000000000E+00 0. -1.
         -4   -1    0    0    0  501 -0.00000000000E+00 -0.00000000000E+00 -0.12881921776E+03  0.12881921776E+03  0.00000000000E+00 0.  1.
        -24    2    1    2    0    0 -0.58763027080E+02 -0.57365689805E+02 -0.57019384273E+02  0.12468924201E+03  0.74513630772E+02 0.  0.
         23    2    1    2    0    0  0.28697962515E+02  0.34841596461E+02  0.49732324683E+02  0.11474895603E+03  0.93040361645E+02 0.  0.
         13    1    3    3    0    0  0.12898438164E+02 -0.30932990608E+02 -0.99105468812E+01  0.34949085174E+02  0.00000000000E+00 0. -1.
        -14    1    3    3    0    0 -0.71661465244E+02 -0.26432699197E+02 -0.47108837391E+02  0.89740156832E+02  0.00000000000E+00 0.  1.
        -13    1    4    4    0    0 -0.32723353154E+02  0.20832160101E+02  0.92976498165E+01  0.39890387667E+02  0.00000000000E+00 0.  1.
         13    1    4    4    0    0  0.61421315669E+02  0.14009436360E+02  0.40434674867E+02  0.74858568362E+02  0.00000000000E+00 0. -1.
         -3    1    1    2    0  502  0.30065064565E+02  0.22524093344E+02  0.59201153393E+02  0.70114331284E+02  0.00000000000E+00 0.  1.
<scales pt_clust_5="13000.00000" pt_clust_6="13000.00000" pt_clust_7="13000.00000" pt_clust_8="13000.00000" pt_clust_9="37.56651"></scales>
<clustering>
<clus scale="   37.567">  1  9  2 -1</clus>
<clus scale="   74.514">  5  6 -1 -1</clus>
<clus scale="   93.040">  7  8 -1 -1</clus>
<clus scale="  103.116">  2  5  1 -1</clus>
<clus scale="   37.567">  1  5  2 -1</clus>
</clustering>
</event>
<event>
 9    1  0.7835476E-005  0.9639610E+02  0.7546771E-02  0.1296755E+00
          1   -1    0    0  502    0 -0.00000000000E+00  0.00000000000E+00  0.61401058161E+03  0.61401058161E+03  0.00000000000E+00 0. -1.
         21   -1    0    0  501  502  0.00000000000E+00 -0.00000000000E+00 -0.74476879877E+02  0.74476879877E+02  0.00000000000E+00 0. -1.
         23    2    1    2    0    0 -0.10377869166E+02  0.28411124691E+02  0.41806631586E+03  0.42967949142E+03  0.94499358278E+02 0.  0.
        -24    2    1    2    0    0  0.19013827761E+02  0.11218088710E+02  0.17386791660E+03  0.19254433030E+03  0.79723870626E+02 0.  0.
         11    1    4    4    0    0 -0.29927022550E+02  0.14376053718E+02  0.80552694532E+02  0.87126541280E+02  0.00000000000E+00 0. -1.
        -12    1    4    4    0    0  0.48940850311E+02 -0.31579650079E+01  0.93315222064E+02  0.10541778902E+03  0.00000000000E+00 0.  1.
        -13    1    3    3    0    0  0.10891574645E+02  0.59863514374E+02  0.27594375549E+03  0.28257250918E+03  0.00000000000E+00 0.  1.
         13    1    3    3    0    0 -0.21269443811E+02 -0.31452389684E+02  0.14212256037E+03  0.14710698224E+03  0.00000000000E+00 0. -1.
          2    1    1    2  501    0 -0.86359585952E+01 -0.39629213401E+02 -0.52400530723E+02  0.66263639771E+02  0.00000000000E+00 0. -1.
<scales pt_clust_5="13000.00000" pt_clust_6="13000.00000" pt_clust_7="13000.00000" pt_clust_8="13000.00000" pt_clust_9="40.55927"></scales>
<clustering>
<clus scale="   40.559">  2  9  1 -1</clus>
<clus scale="   79.724">  5  6 -1 -1</clus>
<clus scale="   81.963">  2  5  1 -1</clus>
<clus scale="   94.499">  7  8 -1 -1</clus>
<clus scale="   40.559">  2  5  1 -1</clus>
</clustering>
</event>
<event>
 9    1  0.7835476E-005  0.1118731E+03  0.7546771E-02  0.1262930E+00
         21   -1    0    0  501  502  0.00000000000E+00  0.00000000000E+00  0.40230001305E+03  0.40230001305E+03  0.00000000000E+00 0.  1.
         -4   -1    0    0    0  501 -0.00000000000E+00 -0.00000000000E+00 -0.89920655217E+02  0.89920655217E+02  0.00000000000E+00 0.  1.
        -24    2    1    2    0    0  0.77168137431E+02 -0.26413902537E+02 -0.11059456109E+02  0.11416580067E+03  0.79113227669E+02 0.  0.
         23    2    1    2    0    0 -0.24744924346E+01  0.31793546973E+02  0.93603061614E+02  0.13632660233E+03  0.93842722779E+02 0.  0.
         11    1    3    3    0    0  0.83521454672E+01 -0.41123531788E+02  0.41582174617E+01  0.42168637316E+02  0.00000000000E+00 0. -1.
        -12    1    3    3    0    0  0.68815991963E+02  0.14709629251E+02 -0.15217673571E+02  0.71997163357E+02  0.00000000000E+00 0.  1.
        -11    1    4    4    0    0 -0.22595021579E+02  0.16162535073E+01  0.97268975953E+02  0.99871922773E+02  0.00000000000E+00 0. -1.
         11    1    4    4    0    0  0.20120529144E+02  0.30177293466E+02 -0.36659143387E+01  0.36454679561E+02  0.00000000000E+00 0.  1.
         -3    1    1    2    0  502 -0.74693644996E+02 -0.53796444362E+01  0.22983575233E+03  0.24172826526E+03  0.00000000000E+00 0.  1.
<scales pt_clust_5="13000.00000" pt_clust_6="13000.00000" pt_clust_7="13000.00000" pt_clust_8="13000.00000" pt_clust_9="74.88712"></scales>
<clustering>
<clus scale="   74.887">  1  9  2 -1</clus>
<clus scale="   79.113">  5  6 -1 -1</clus>
<clus scale="   93.843">  7  8 -1 -1</clus>
<clus scale="   99.840">  2  5  1 -1</clus>
<clus scale="   74.887">  1  5  2 -1</clus>
</clustering>
</event>
<event>
 9    1  0.7835476E-005  0.1176171E+03  0.7546771E-02  0.1254209E+00
          1   -1    0    0  502    0 -0.00000000000E+00  0.00000000000E+00  0.43454545426E+03  0.43454545426E+03  0.00000000000E+00 0. -1.
         21   -1    0    0  501  502  0.00000000000E+00 -0.00000000000E+00 -0.59109787915E+02  0.59109787915E+02  0.00000000000E+00 0. -1.
        -24    2    1    2    0    0  0.63415235600E+02  0.43342178653E+01  0.28353345604E+03  0.30175397690E+03  0.81387740649E+02 0.  0.
         23    2    1    2    0    0 -0.54920780031E+02  0.32574666156E+02  0.97352852909E+02  0.15363730051E+03  0.10024690111E+03 0.  0.
         13    1    3    3    0    0  0.79238009309E+02 -0.12400353661E+02  0.22348935579E+03  0.23744456835E+03  0.00000000000E+00 0. -1.
        -14    1    3    3    0    0 -0.15822773709E+02  0.16734571526E+02  0.60044100255E+02  0.64309408545E+02  0.00000000000E+00 0.  1.
        -11    1    4    4    0    0  0.14748213711E+02 -0.24102769199E+02  0.31189044756E+02  0.42085743471E+02  0.00000000000E+00 0.  1.
         11    1    4    4    0    0 -0.69668993742E+02  0.56677435356E+02  0.66163808153E+02  0.11155155703E+03  0.00000000000E+00 0. -1.
          2    1    1    2  501    0 -0.84944555691E+01 -0.36908884022E+02 -0.54506426074E+01  0.38263964771E+02  0.00000000000E+00 0. -1.
<scales pt_clust_5="13000.00000" pt_clust_6="13000.00000" pt_clust_7="13000.00000" pt_clust_8="13000.00000" pt_clust_9="37.87376"></scales>
<clustering>
<clus scale="   37.874">  2  9  1 -1</clus>
<clus scale="   81.388">  5  6 -1 -1</clus>
<clus scale="  100.247">  7  8 -1 -1</clus>
<clus scale="  102.021">  1  5  2 -1</clus>
<clus scale="   37.874">  2  5  1 -1</clus>
</clustering>
</event>
<event>
 9    1  0.7835476E-005  0.3061608E+03  0.7546771E-02  0.1082660E+00
         21   -1    0    0  501  502  0.00000000000E+00  0.00000000000E+00  0.34604593978E+03  0.34604593978E+03  0.00000000000E+00 0.  1.
          1   -1    0    0  502    0 -0.00000000000E+00 -0.00000000000E+00 -0.98302957024E+03  0.98302957024E+03  0.00000000000E+00 0. -1.
         23    2    1    2    0    0  0.29255880737E+03 -0.53340962861E+01 -0.86110489362E+03  0.91426521943E+03  0.93595647812E+02 0.  0.
        -24    2    1    2    0    0 -0.28008331713E+03 -0.43717737086E+02  0.21127431076E+03  0.36259186090E+03  0.80486757528E+02 0.  0.
         11    1    4    4    0    0 -0.48932994749E+02 -0.38068425970E+02  0.30503616162E+02  0.69094960959E+02  0.00000000000E+00 0. -1.
        -12    1    4    4    0    0 -0.23115032238E+03 -0.56493111159E+01  0.18077069460E+03  0.29349689994E+03  0.00000000000E+00 0.  1.
        -13    1    3    3    0    0  0.66509157792E+01  0.18930515952E+02 -0.65196206669E+02  0.68213961027E+02  0.00000000000E+00 0.  1.
         13    1    3    3    0    0  0.28590789159E+03 -0.24264612238E+02 -0.79590868695E+03  0.84605125840E+03  0.00000000000E+00 0. -1.
          2    1    1    2  501    0 -0.12475490246E+02  0.49051833372E+02  0.12846952400E+02  0.52218429697E+02  0.00000000000E+00 0. -1.
<scales pt_clust_5="13000.00000" pt_clust_6="13000.00000" pt_clust_7="13000.00000" pt_clust_8="13000.00000" pt_clust_9="50.61344"></scales>
<clustering>
<clus scale="   50.613">  1  9  2 -1</clus>
<clus scale="   80.487">  5  6 -1 -1</clus>
<clus scale="   93.596">  7  8 -1 -1</clus>
<clus scale="  302.411">  1  5  2 -1</clus>
<clus scale="   50.613">  1  5  2 -1</clus>
</clustering>
</event>
<event>
 9    1  0.7835476E-005  0.9986739E+02  0.7546771E-02  0.1287663E+00
         21   -1    0    0  501  502  0.00000000000E+00  0.00000000000E+00  0.96259369267E+02  0.96259369267E+02  0.00000000000E+00 0. -1.
          1   -1    0    0  502    0 -0.00000000000E+00 -0.00000000000E+00 -0.24599679138E+03  0.24599679138E+03  0.00000000000E+00 0. -1.
         23    2    1    2    0    0  0.12553817164E+02 -0.26097959271E+02 -0.18354773883E+03  0.20820372358E+03  0.93916538899E+02 0.  0.
        -24    2    1    2    0    0 -0.24289117259E+02  0.51159241036E+02  0.12638805117E+02  0.99209675761E+02  0.80471058208E+02 0.  0.
         11    1    4    4    0    0 -0.17457081960E+02  0.61700568674E+02 -0.17575888579E+02  0.66487756351E+02  0.00000000000E+00 0. -1.
        -12    1    4    4    0    0 -0.68320352988E+01 -0.10541327638E+02  0.30214693696E+02  0.32721919410E+02  0.00000000000E+00 0.  1.
        -11    1    3    3    0    0  0.42520317542E+02 -0.27458942707E+02 -0.49343059616E+02  0.70687399661E+02  0.00000000000E+00 0. -1.
         11    1    3    3    0    0 -0.29966500378E+02  0.13609834361E+01 -0.13420467922E+03  0.13751632392E+03  0.00000000000E+00 0.  1.
          2    1    1    2  501    0  0.11735300095E+02 -0.25061281765E+02  0.21171511601E+02  0.34842761307E+02  0.00000000000E+00 0. -1.
<scales pt_clust_5="13000.00000" pt_clust_6="13000.00000" pt_clust_7="13000.00000" pt_clust_8="13000.00000" pt_clust_9="27.67282"></scales>
<clustering>
<clus scale="   27.673">  1  9  2 -1</clus>
<clus scale="   80.471">  5  6 -1 -1</clus>
<clus scale="   87.343">  1  5  2 -1</clus>
<clus scale="   93.917">  7  8 -1 -1</clus>
<clus scale="   27.673">  1  5  2 -1</clus>
</clustering>
</event>
<event>
 9    1  0.7835476E-005  0.1631462E+03  0.7546771E-02  0.1187436E+00
         21   -1    0    0  501  502  0.00000000000E+00  0.00000000000E+00  0.12038278658E+03  0.12038278658E+03  0.00000000000E+00 0.  1.
         -2   -1    0    0    0  501 -0.00000000000E+00 -0.00000000000E+00 -0.62244281731E+03  0.62244281731E+03  0.00000000000E+00 0.  1.
         23    2    1    2    0    0 -0.12428489962E+03  0.57213123479E+02 -0.50141201774E+03  0.52756662101E+03  0.90512155509E+02 0.  0.
        -24    2    1    2    0    0  0.13925205982E+03 -0.23183497933E+01  0.17580100490E+01  0.15830952275E+03  0.75248278940E+02 0.  0.
         13    1    4    4    0    0  0.35979100074E+02 -0.88712278914E+01 -0.32516639705E+02  0.49300366978E+02  0.00000000000E+00 0. -1.
        -14    1    4    4    0    0  0.10327295974E+03  0.65528780982E+01  0.34274649754E+02  0.10900915577E+03  0.00000000000E+00 0.  1.
        -13    1    3    3    0    0 -0.10948328862E+03  0.80066016858E+02 -0.39141060658E+03  0.41424560406E+03  0.00000000000E+00 0. -1.
         13    1    3    3    0    0 -0.14801611003E+02 -0.22852893379E+02 -0.11000141116E+03  0.11332101695E+03  0.00000000000E+00 0.  1.
         -1    1    1    2    0  502 -0.14967160194E+02 -0.54894773685E+02 -0.24060230382E+01  0.56949460130E+02  0.00000000000E+00 0.  1.
<scales pt_clust_5="13000.00000" pt_clust_6="13000.00000" pt_clust_7="13000.00000" pt_clust_8="13000.00000" pt_clust_9="56.89861"></scales>
<clustering>
<clus scale="   56.899">  1  9  2 -1</clus>
<clus scale="   75.248">  5  6 -1 -1</clus>
<clus scale="   90.512">  7  8 -1 -1</clus>
<clus scale="  155.198">  1  5  2 -1</clus>
<clus scale="   56.899">  1  5  2 -1</clus>
</clustering>
</event>
<event>
 9    1  0.7835476E-005  0.1468723E+03  0.7546771E-02  0.1234547E+00
         21   -1    0    0  501  502  0.00000000000E+00  0.00000000000E+00  0.65694300863E+03  0.65694300863E+03  0.00000000000E+00 0. -1.
          3   -1    0    0  502    0 -0.00000000000E+00 -0.00000000000E+00 -0.44603018891E+02  0.44603018891E+02  0.00000000000E+00 0. -1.
        -24    2    1    2    0    0  0.10781347115E+02  0.11569038166E+02  0.11269506156E+03  0.13699102523E+03  0.76264565859E+02 0.  0.
         23    2    1    2    0    0 -0.14744781621E+02 -0.12133872062E+03  0.28082814250E+03  0.31971652962E+03  0.91726332031E+02 0.  0.
         13    1    3    3    0    0 -0.31222726524E+02  0.96501767252E+01  0.30676016227E+02  0.44821897929E+02  0.00000000000E+00 0. -1.
        -14    1    3    3    0    0  0.42004073638E+02  0.19188614408E+01  0.82019045328E+02  0.92169127304E+02  0.00000000000E+00 0.  1.
        -11    1    4    4    0    0  0.17299732689E+02 -0.23769573878E+02  0.15273428658E+03  0.15553789150E+03  0.00000000000E+00 0. -1.
         11    1    4    4    0    0 -0.32044514310E+02 -0.97569146742E+02  0.12809385592E+03  0.16417863813E+03  0.00000000000E+00 0.  1.
          4    1    1    2  501    0  0.39634345060E+01  0.10976968245E+03  0.21881678568E+03  0.24483847266E+03  0.00000000000E+00 0. -1.
<scales pt_clust_5="13000.00000" pt_clust_6="13000.00000" pt_clust_7="13000.00000" pt_clust_8="13000.00000" pt_clust_9="114.70721"></scales>
<clustering>
<clus scale="   76.265">  5  6 -1 -1</clus>
<clus scale="   77.887">  2  5  1 -1</clus>
<clus scale="   91.726">  7  8 -1 -1</clus>
<clus scale="  114.707">  1  9  2 -1</clus>
<clus scale="  114.707">  1  5  2 -1</clus>
</clustering>
</event>
<event>
 9    1  0.7835476E-005  0.1583553E+03  0.7546771E-02  0.1217307E+00
         -2   -1    0    0    0  501 -0.00000000000E+00  0.00000000000E+00  0.69459667839E+02  0.69459667839E+02  0.00000000000E+00 0.  1.
         21   -1    0    0  501  502  0.00000000000E+00 -0.00000000000E+00 -0.66726049027E+03  0.66726049027E+03  0.00000000000E+00 0.  1.
        -24    2    1    2    0    0 -0.56956603540E+01  0.30224089850E+02 -0.63804472563E+02  0.10945162028E+03  0.83442856551E+02 0.  0.
         23    2    1    2    0    0  0.11410097001E+03 -0.73200338303E+02 -0.46239160942E+03  0.49042589846E+03  0.91292061725E+02 0.  0.
         11    1    3    3    0    0  0.35851576270E+02  0.16712536158E+01 -0.39873554168E+02  0.53647263972E+02  0.00000000000E+00 0. -1.
        -12    1    3    3    0    0 -0.41547236624E+02  0.28552836234E+02 -0.23930918395E+02  0.55804356311E+02  0.00000000000E+00 0.  1.
        -13    1    4    4    0    0  0.12787727254E+03 -0.53723681211E+02 -0.41082870584E+03  0.43361164226E+03  0.00000000000E+00 0.  1.
         13    1    4    4    0    0 -0.13776302529E+02 -0.19476657092E+02 -0.51562903575E+02  0.56814256203E+02  0.00000000000E+00 0. -1.
         -1    1    1    2    0  502 -0.10840530966E+03  0.42976248453E+02 -0.71604740444E+02  0.13684263936E+03  0.00000000000E+00 0.  1.
<scales pt_clust_5="13000.00000" pt_clust_6="13000.00000" pt_clust_7="13000.00000" pt_clust_8="13000.00000" pt_clust_9="129.39160"></scales>
<clustering>
<clus scale="   83.443">  5  6 -1 -1</clus>
<clus scale="   88.931">  1  5  2 -1</clus>
<clus scale="   91.292">  7  8 -1 -1</clus>
<clus scale="  129.392">  2  9  1 -1</clus>
<clus scale="  129.392">  2  5  1 -1</clus>
</clustering>
</event>
<event>
 9    1  0.7835476E-005  0.9623070E+02  0.7546771E-02  0.1293823E+00
          3   -1    0    0  502    0 -0.00000000000E+00  0.00000000000E+00  0.15830241683E+03  0.15830241683E+03  0.00000000000E+00 0. -1.
         21   -1    0    0  501  502  0.00000000000E+00 -0.00000000000E+00 -0.13198148726E+03  0.13198148726E+03  0.00000000000E+00 0. -1.
        -24    2    1    2    0    0 -0.32705338004E+02  0.13626416020E+02  0.70810033940E+02  0.11280737323E+03  0.80350010583E+02 0.  0.
         23    2    1    2    0    0  0.29600058429E+02  0.15988791018E+02 -0.84130640304E+02  0.12789675051E+03  0.90265216196E+02 0.  0.
         13    1    3    3    0    0 -0.18522543189E+02  0.46949078638E+02  0.32184055591E+02  0.59859118147E+02  0.00000000000E+00 0. -1.
        -14    1    3    3    0    0 -0.14182794816E+02 -0.33322662618E+02  0.38625978349E+02  0.52948255081E+02  0.00000000000E+00 0.  1.
        -11    1    4    4    0    0  0.15706430940E+02  0.48863254993E+02 -0.75303765871E+02  0.91131590658E+02  0.00000000000E+00 0. -1.
         11    1    4    4    0    0  0.13893627490E+02 -0.32874463975E+02 -0.88268744327E+01  0.36765159849E+02  0.00000000000E+00 0.  1.
          4    1    1    2  501    0  0.31052795749E+01 -0.29615207038E+02  0.39641535933E+02  0.49579780357E+02  0.00000000000E+00 0. -1.
<scales pt_clust_5="13000.00000" pt_clust_6="13000.00000" pt_clust_7="13000.00000" pt_clust_8="13000.00000" pt_clust_9="29.77758"></scales>
<clustering>
<clus scale="   29.778">  2  9  1 -1</clus>
<clus scale="   80.350">  5  6 -1 -1</clus>
<clus scale="   86.998">  1  5  2 -1</clus>
<clus scale="   90.265">  7  8 -1 -1</clus>
<clus scale="   29.778">  2  5  1 -1</clus>
</clustering>
</event>
<event>
 9    1  0.7835476E-005  0.9698833E+02  0.7546771E-02  0.1292342E+00
         21   -1    0    0  501  502  0.00000000000E+00  0.00000000000E+00  0.33062691918E+03  0.33062691918E+03  0.00000000000E+00 0.  1.
          1   -1    0    0  502    0 -0.00000000000E+00 -0.00000000000E+00 -0.19154161990E+03  0.19154161990E+03  0.00000000000E+00 0. -1.
        -24    2    1    2    0    0 -0.47837783561E+01 -0.35214876685E+02 -0.15945388959E+03  0.18165119653E+03  0.79426961550E+02 0.  0.
         23    2    1    2    0    0 -0.20287676744E+02  0.48923586249E+02  0.11713903109E+03  0.15688040777E+03  0.89915530455E+02 0.  0.
         13    1    3    3    0    0 -0.30079845218E+02 -0.44961201250E+02 -0.13382730237E+03  0.14434699015E+03  0.00000000000E+00 0. -1.
        -14    1    3    3    0    0  0.25296066862E+02  0.97463245642E+01 -0.25626587221E+02  0.37304206382E+02  0.00000000000E+00 0.  1.
        -11    1    4    4    0    0  0.34727668332E+02  0.17921644016E+02  0.30006578523E+02  0.49270589876E+02  0.00000000000E+00 0. -1.
         11    1    4    4    0    0 -0.55015345076E+02  0.31001942233E+02  0.87132452568E+02  0.10760981789E+03  0.00000000000E+00 0.  1.
          2    1    1    2  501    0  0.25071455100E+02 -0.13708709563E+02  0.18140015777E+03  0.18363693479E+03  0.00000000000E+00 0. -1.
<scales pt_clust_5="13000.00000" pt_clust_6="13000.00000" pt_clust_7="13000.00000" pt_clust_8="13000.00000" pt_clust_9="28.57458"></scales>
<clustering>
<clus scale="   28.575">  1  9  2 -1</clus>
<clus scale="   79.427">  5  6 -1 -1</clus>
<clus scale="   87.353">  2  5  1 -1</clus>
<clus scale="   89.916">  7  8 -1 -1</clus>
<clus scale="   28.575">  1  5  2 -1</clus>
</clustering>
</event>
<event>
 9    1  0.7835476E-005  0.1674030E+03  0.7546771E-02  0.1182747E+00
         21   -1    0    0  501  502  0.00000000000E+00  0.00000000000E+00  0.61095520835E+03  0.61095520835E+03  0.00000000000E+00 0. -1.
         -2   -1    0    0    0  501 -0.00000000000E+00 -0.00000000000E+00 -0.15527721962E+03  0.15527721962E+03  0.00000000000E+00 0.  1.
         23    2    1    2    0    0 -0.12378793801E+03 -0.26224143273E+02 -0.49125897750E+02  0.16444519484E+03  0.92831616327E+02 0.  0.
        -24    2    1    2    0    0  0.18605843849E+03  0.67656945001E+02  0.21467139190E+03  0.30216888138E+03  0.77633894874E+02 0.  0.
         13    1    4    4    0    0  0.89954867867E+02  0.49462047502E+02  0.16004171411E+03  0.19013606352E+03  0.00000000000E+00 0. -1.
        -14    1    4    4    0    0  0.96103570626E+02  0.18194897499E+02  0.54629677790E+02  0.11203281786E+03  0.00000000000E+00 0.  1.
        -11    1    3    3    0    0 -0.55130556526E+02 -0.60424521761E+01 -0.70554991682E+02  0.89743503065E+02  0.00000000000E+00 0.  1.
         11    1    3    3    0    0 -0.68657381481E+02 -0.20181691097E+02  0.21429093932E+02  0.74701691775E+02  0.00000000000E+00 0. -1.
         -1    1    1    2    0  502 -0.62270500487E+02 -0.41432801728E+02  0.29013249458E+03  0.29961835174E+03  0.00000000000E+00 0.  1.
<scales pt_clust_5="13000.00000" pt_clust_6="13000.00000" pt_clust_7="13000.00000" pt_clust_8="13000.00000" pt_clust_9="74.79500"></scales>
<clustering>
<clus scale="   74.795">  1  9  2 -1</clus>
<clus scale="   77.634">  5  6 -1 -1</clus>
<clus scale="   92.832">  7  8 -1 -1</clus>
<clus scale="  159.478">  1  5  2 -1</clus>
<clus scale="   74.795">  1  5  2 -1</clus>
</clustering>
</event>
<event>
 9    1  0.7835476E-005  0.1030874E+03  0.7546771E-02  0.1282362E+00
         21   -1    0    0  501  502  0.00000000000E+00  0.00000000000E+00  0.14725297681E+03  0.14725297681E+03  0.00000000000E+00 0. -1.
         -4   -1    0    0    0  501 -0.00000000000E+00 -0.00000000000E+00 -0.16152243681E+03  0.16152243681E+03  0.00000000000E+00 0.  1.
        -24    2    1    2    0    0  0.48368488360E+02 -0.27651166418E+02 -0.90384603280E+02  0.12876302072E+03  0.72845324652E+02 0.  0.
         23    2    1    2    0    0 -0.16100797925E+02  0.33016685730E+02  0.77523805554E+00  0.97877784096E+02  0.90720022018E+02 0.  0.
         13    1    3    3    0    0  0.43590707999E+02  0.16060590949E+02 -0.35677033802E+02  0.58574253272E+02  0.00000000000E+00 0. -1.
        -14    1    3    3    0    0  0.47777803608E+01 -0.43711757367E+02 -0.54707569478E+02  0.70188767445E+02  0.00000000000E+00 0.  1.
        -11    1    4    4    0    0 -0.27532045019E+02  0.54351955801E+01 -0.39059714230E+02  0.48095905539E+02  0.00000000000E+00 0.  1.
         11    1    4    4    0    0  0.11431247094E+02  0.27581490150E+02  0.39834952285E+02  0.49781878557E+02  0.00000000000E+00 0. -1.
         -3    1    1    2    0  502 -0.32267690435E+02 -0.53655193122E+01  0.75339905224E+02  0.82134608800E+02  0.00000000000E+00 0.  1.
<scales pt_clust_5="13000.00000" pt_clust_6="13000.00000" pt_clust_7="13000.00000" pt_clust_8="13000.00000" pt_clust_9="32.71074"></scales>
<clustering>
<clus scale="   32.711">  1  9  2 -1</clus>
<clus scale="   72.845">  5  6 -1 -1</clus>
<clus scale="   87.769">  2  5  1 -1</clus>
<clus scale="   90.720">  7  8 -1 -1</clus>
<clus scale="   32.711">  1  5  2 -1</clus>
</clustering>
</event>
<event>
 9    1  0.7835476E-005  0.1025764E+03  0.7546771E-02  0.1280961E+00
         21   -1    0    0  501  502  0.00000000000E+00  0.00000000000E+00  0.48652457509E+03  0.48652457509E+03  0.00000000000E+00 0. -1.
          3   -1    0    0  502    0 -0.00000000000E+00 -0.00000000000E+00 -0.40889923342E+02  0.40889923342E+02  0.00000000000E+00 0. -1.
        -24    2    1    2    0    0 -0.14434914439E+02 -0.28467108758E+02  0.67298636434E+02  0.10979890745E+03  0.80671869795E+02 0.  0.
         23    2    1    2    0    0  0.53948941926E+02  0.62065044720E+02  0.28390774612E+03  0.30988037068E+03  0.93057389375E+02 0.  0.
         11    1    3    3    0    0 -0.14170834403E+02  0.15041327022E+02 -0.85443353511E+01  0.22362015403E+02  0.00000000000E+00 0. -1.
        -12    1    3    3    0    0 -0.26408003539E+00 -0.43508435780E+02  0.75842971785E+02  0.87436892051E+02  0.00000000000E+00 0.  1.
        -11    1    4    4    0    0  0.71814188562E+02  0.16072501985E+02  0.14784439202E+03  0.16514710791E+03  0.00000000000E+00 0.  1.
         11    1    4    4    0    0 -0.17865246636E+02  0.45992542735E+02  0.13606335409E+03  0.14473326277E+03  0.00000000000E+00 0. -1.
          4    1    1    2  501    0 -0.39514027487E+02 -0.33597935962E+02  0.94428269201E+02  0.10773522030E+03  0.00000000000E+00 0. -1.
<scales pt_clust_5="13000.00000" pt_clust_6="13000.00000" pt_clust_7="13000.00000" pt_clust_8="13000.00000" pt_clust_9="51.86694"></scales>
<clustering>
<clus scale="   51.867">  1  9  2 -1</clus>
<clus scale="   80.672">  5  6 -1 -1</clus>
<clus scale="   91.489">  2  5  1 -1</clus>
<clus scale="   93.057">  7  8 -1 -1</clus>
<clus scale="   51.867">  1  5  2 -1</clus>
</clustering>
</event>
<event>
 9    1  0.7835476E-005  0.1387701E+03  0.7546771E-02  0.1217981E+00
          1   -1    0    0  502    0 -0.00000000000E+00  0.00000000000E+00  0.42840066289E+03  0.42840066289E+03  0.00000000000E+00 0. -1.
         21   -1    0    0  501  502  0.00000000000E+00 -0.00000000000E+00 -0.10859295052E+03  0.10859295052E+03  0.00000000000E+00 0. -1.
        -24    2    1    2    0    0 -0.51801790150E+02 -0.86231322670E+02  0.23934940276E+03  0.27158996414E+03  0.79710134531E+02 0.  0.
         23    2    1    2    0    0 -0.14610809105E+02  0.13453413206E+03  0.24385214891E+02  0.16596529306E+03  0.92935092201E+02 0.  0.
         13    1    3    3    0    0 -0.37201539025E+02  0.91278680409E+00  0.98777689339E+02  0.10555481797E+03  0.00000000000E+00 0. -1.
        -14    1    3    3    0    0 -0.14600251125E+02 -0.87144109474E+02  0.14057171342E+03  0.16603514617E+03  0.00000000000E+00 0.  1.
        -11    1    4    4    0    0  0.16706173695E+02  0.52751423370E+02 -0.29935684248E+02  0.62912273035E+02  0.00000000000E+00 0. -1.
         11    1    4    4    0    0 -0.31316982800E+02  0.81782708691E+02  0.54320899138E+02  0.10305302002E+03  0.00000000000E+00 0.  1.
          2    1    1    2  501    0  0.66412599255E+02 -0.48302809391E+02  0.56073094718E+02  0.99438356212E+02  0.00000000000E+00 0. -1.
<scales pt_clust_5="13000.00000" pt_clust_6="13000.00000" pt_clust_7="13000.00000" pt_clust_8="13000.00000" pt_clust_9="82.12061"></scales>
<clustering>
<clus scale="   79.710">  5  6 -1 -1</clus>
<clus scale="   82.121">  2  9  1 -1</clus>
<clus scale="   92.935">  7  8 -1 -1</clus>
<clus scale="  130.284">  1  5  2 -1</clus>
<clus scale="   82.121">  2  5  1 -1</clus>
</clustering>
</event>
<event>
 9    1  0.7835476E-005  0.9528932E+02  0.7546771E-02  0.1295400E+00
          1   -1    0    0  502    0 -0.00000000000E+00  0.00000000000E+00  0.38424460111E+03  0.38424460111E+03  0.00000000000E+00 0. -1.
         21   -1    0    0  501  502  0.00000000000E+00 -0.00000000000E+00 -0.62825907966E+02  0.62825907966E+02  0.00000000000E+00 0. -1.
         23    2    1    2    0    0 -0.37369904307E+02 -0.50014364348E+01  0.24630475474E+03  0.26518819069E+03  0.90759132656E+02 0.  0.
        -24    2    1    2    0    0 -0.14170439840E+02  0.48076056726E+01 -0.83388298971E+01  0.83796594743E+02  0.82026939288E+02 0.  0.
         11    1    4    4    0    0 -0.15871886718E+02  0.27057202086E+02 -0.36330383126E+02  0.47999017811E+02  0.00000000000E+00 0. -1.
        -12    1    4    4    0    0  0.17014468788E+01 -0.22249596413E+02  0.27991553229E+02  0.35797576932E+02  0.00000000000E+00 0.  1.
        -13    1    3    3    0    0  0.21407800550E+02  0.52600454520E+00  0.14203965540E+02  0.25696755480E+02  0.00000000000E+00 0.  1.
         13    1    3    3    0    0 -0.58777704857E+02 -0.55274409800E+01  0.23210078920E+03  0.23949143521E+03  0.00000000000E+00 0. -1.
          2    1    1    2  501    0  0.51540344147E+02  0.19383076227E+00  0.83452768298E+02  0.98085723638E+02  0.00000000000E+00 0. -1.
<scales pt_clust_5="13000.00000" pt_clust_6="13000.00000" pt_clust_7="13000.00000" pt_clust_8="13000.00000" pt_clust_9="51.54073"></scales>
<clustering>
<clus scale="   51.541">  2  9  1 -1</clus>
<clus scale="   82.027">  5  6 -1 -1</clus>
<clus scale="   87.013">  2  5  1 -1</clus>
<clus scale="   90.759">  7  8 -1 -1</clus>
<clus scale="   51.541">  2  5  1 -1</clus>
</clustering>
</event>
<event>
 9    1  0.7835476E-005  0.1052540E+03  0.7546771E-02  0.1275490E+00
          3   -1    0    0  502    0 -0.00000000000E+00  0.00000000000E+00  0.19963521261E+03  0.19963521261E+03  0.00000000000E+00 0. -1.
         21   -1    0    0  501  502  0.00000000000E+00 -0.00000000000E+00 -0.30223522059E+03  0.30223522059E+03  0.00000000000E+00 0.  1.
         23    2    1    2    0    0  0.45728054679E+02 -0.19592539592E+02  0.15679122762E+03  0.18834127145E+03  0.91727983084E+02 0.  0.
        -24    2    1    2    0    0 -0.46555528224E+02  0.76524695674E+02 -0.17828544868E+03  0.21443272497E+03  0.78563643443E+02 0.  0.
         11    1    4    4    0    0 -0.38998203019E+02 -0.84527398303E+00 -0.80997786674E+02  0.89901144447E+02  0.00000000000E+00 0. -1.
        -12    1    4    4    0    0 -0.75573252051E+01  0.77369969657E+02 -0.97287662001E+02  0.12453158052E+03  0.00000000000E+00 0.  1.
        -11    1    3    3    0    0  0.55364412232E+02  0.17280485660E+02  0.12816211545E+03  0.14067466425E+03  0.00000000000E+00 0.  1.
         11    1    3    3    0    0 -0.96363575532E+01 -0.36873025253E+02  0.28629112179E+02  0.47666607204E+02  0.00000000000E+00 0. -1.
          4    1    1    2  501    0  0.82747354442E+00 -0.56932156082E+02 -0.81105786926E+02  0.99096436775E+02  0.00000000000E+00 0. -1.
<scales pt_clust_5="13000.00000" pt_clust_6="13000.00000" pt_clust_7="13000.00000" pt_clust_8="13000.00000" pt_clust_9="56.93817"></scales>
<clustering>
<clus scale="   56.938">  2  9  1 -1</clus>
<clus scale="   78.564">  5  6 -1 -1</clus>
<clus scale="   91.728">  7  8 -1 -1</clus>
<clus scale="   94.003">  2  5  1 -1</clus>
<clus scale="   56.938">  2  5  1 -1</clus>
</clustering>
</event>
<event>
 9    1  0.7835476E-005  0.1290362E+03  0.7546771E-02  0.1233139E+00
         21   -1    0    0  501  502  0.00000000000E+00  0.00000000000E+00  0.98916441992E+02  0.98916441992E+02  0.00000000000E+00 0. -1.
          1   -1    0    0  502    0 -0.00000000000E+00 -0.00000000000E+00 -0.39012518898E+03  0.39012518898E+03  0.00000000000E+00 0. -1.
         23    2    1    2    0    0  0.10277586537E+03 -0.90140099182E+01 -0.24185948062E+03  0.27959711625E+03  0.95049503817E+02 0.  0.
        -24    2    1    2    0    0 -0.29263312062E+02  0.21449902886E+02  0.37219990499E+02  0.95194861927E+02  0.79751453139E+02 0.  0.
         11    1    4    4    0    0  0.99869259016E+01 -0.21989462144E+02  0.26178757746E+02  0.35617446448E+02  0.00000000000E+00 0. -1.
        -12    1    4    4    0    0 -0.39250237964E+02  0.43439365030E+02  0.11041232753E+02  0.59577415479E+02  0.00000000000E+00 0.  1.
        -11    1    3    3    0    0  0.33643138414E+02 -0.21351497226E+02 -0.15772009007E+02  0.42854445094E+02  0.00000000000E+00 0.  1.
         11    1    3    3    0    0  0.69132726957E+02  0.12337487308E+02 -0.22608747161E+03  0.23674267116E+03  0.00000000000E+00 0. -1.
          2    1    1    2  501    0 -0.73512553309E+02 -0.12435892968E+02 -0.86569256869E+02  0.11424965279E+03  0.00000000000E+00 0. -1.
<scales pt_clust_5="13000.00000" pt_clust_6="13000.00000" pt_clust_7="13000.00000" pt_clust_8="13000.00000" pt_clust_9="74.55704"></scales>
<clustering>
<clus scale="   74.557">  1  9  2 -1</clus>
<clus scale="   79.751">  5  6 -1 -1</clus>
<clus scale="   95.050">  7  8 -1 -1</clus>
<clus scale="  118.221">  1  5  2 -1</clus>
<clus scale="   74.557">  1  5  2 -1</clus>
</clustering>
</event>
<event>
 9    1  0.7835476E-005  0.2233691E+03  0.7546771E-02  0.1132007E+00
          1   -1    0    0  502    0 -0.00000000000E+00  0.00000000000E+00  0.13553755822E+04  0.13553755822E+04  0.00000000000E+00 0. -1.
         21   -1    0    0  501  502  0.00000000000E+00 -0.00000000000E+00 -0.50763404966E+02  0.50763404966E+02  0.00000000000E+00 0. -1.
         23    2    1    2    0    0 -0.19127341674E+03  0.13211937712E+03  0.72292893697E+03  0.76462689714E+03  0.89369984621E+02 0.  0.
        -24    2    1    2    0    0  0.14604411682E+03 -0.87160208628E+02  0.31205477354E+03  0.36444436100E+03  0.80720038101E+02 0.  0.
         13    1    4    4    0    0  0.96209392324E+02 -0.65796996743E+02  0.27525179664E+03  0.29891310361E+03  0.00000000000E+00 0. -1.
        -14    1    4    4    0    0  0.49834724493E+02 -0.21363211885E+02  0.36802976898E+02  0.65531257395E+02  0.00000000000E+00 0.  1.
        -11    1    3    3    0    0 -0.78763528590E+02  0.20773559876E+02  0.35259472495E+03  0.36188157495E+03  0.00000000000E+00 0. -1.
         11    1    3    3    0    0 -0.11250988815E+03  0.11134581724E+03  0.37033421202E+03  0.40274532219E+03  0.00000000000E+00 0.  1.
          2    1    1    2  501    0  0.45229299927E+02 -0.44959168489E+02  0.26962846676E+03  0.27706772907E+03  0.00000000000E+00 0. -1.
<scales pt_clust_5="13000.00000" pt_clust_6="13000.00000" pt_clust_7="13000.00000" pt_clust_8="13000.00000" pt_clust_9="63.77320"></scales>
<clustering>
<clus scale="   63.773">  2  9  1 -1</clus>
<clus scale="   80.720">  5  6 -1 -1</clus>
<clus scale="   89.370">  7  8 -1 -1</clus>
<clus scale="  220.051">  2  5  1 -1</clus>
<clus scale="   63.773">  2  5  1 -1</clus>
</clustering>
</event>
<event>
 9    1  0.7835476E-005  0.1207409E+03  0.7546771E-02  0.1245870E+00
         21   -1    0    0  501  502  0.00000000000E+00  0.00000000000E+00  0.10617488623E+03  0.10617488623E+03  0.00000000000E+00 0. -1.
         -4   -1    0    0    0  501 -0.00000000000E+00 -0.00000000000E+00 -0.48185373862E+03  0.48185373862E+03  0.00000000000E+00 0.  1.
         23    2    1    2    0    0  0.57450535717E+02  0.58112989851E+02 -0.39599993139E+03  0.41491867069E+03  0.93079933290E+02 0.  0.
        -24    2    1    2    0    0 -0.21718128760E+02 -0.25260171979E+02  0.63713168510E+02  0.10800245858E+03  0.80594105317E+02 0.  0.
         11    1    4    4    0    0 -0.45016511543E+02 -0.39506783287E+02  0.44282513135E+02  0.74486328992E+02  0.00000000000E+00 0. -1.
        -12    1    4    4    0    0  0.23298382783E+02  0.14246611308E+02  0.19430655374E+02  0.33516129585E+02  0.00000000000E+00 0.  1.
        -11    1    3    3    0    0  0.60293448034E+02 -0.42142629409E+01 -0.22158174142E+03  0.22967700804E+03  0.00000000000E+00 0.  1.
         11    1    3    3    0    0 -0.28429123171E+01  0.62327252792E+02 -0.17441818996E+03  0.18524166265E+03  0.00000000000E+00 0. -1.
         -3    1    1    2    0  502 -0.35732406957E+02 -0.32852817873E+02 -0.43392089515E+02  0.65107495587E+02  0.00000000000E+00 0.  1.
<scales pt_clust_5="13000.00000" pt_clust_6="13000.00000" pt_clust_7="13000.00000" pt_clust_8="13000.00000" pt_clust_9="48.53983"></scales>
<clustering>
<clus scale="   48.540">  1  9  2 -1</clus>
<clus scale="   80.594">  5  6 -1 -1</clus>
<clus scale="   93.080">  7  8 -1 -1</clus>
<clus scale="  111.400">  1  5  2 -1</clus>
<clus scale="   48.540">  1  5  2 -1</clus>
</clustering>
</event>
<event>
 9    1  0.7835476E-005  0.1302847E+03  0.7546771E-02  0.1230849E+00
          1   -1    0    0  502    0 -0.00000000000E+00  0.00000000000E+00  0.77295101142E+03  0.77295101142E+03  0.00000000000E+00 0. -1.
         21   -1    0    0  501  502  0.00000000000E+00 -0.00000000000E+00 -0.47653785187E+02  0.47653785187E+02  0.00000000000E+00 0. -1.
         23    2    1    2    0    0  0.79317485301E+02 -0.84772903555E+01  0.41404032143E+03  0.43234802999E+03  0.95563085648E+02 0.  0.
        -24    2    1    2    0    0 -0.98740469124E+02  0.17530131480E+02  0.33331387159E+03  0.35750427050E+03  0.81573161527E+02 0.  0.
         11    1    4    4    0    0  0.52894904677E+01  0.23384301166E+02  0.45855669479E+02  0.51745015932E+02  0.00000000000E+00 0. -1.
        -12    1    4    4    0    0 -0.10402995959E+03 -0.58541696864E+01  0.28745820211E+03  0.30575925457E+03  0.00000000000E+00 0.  1.
        -13    1    3    3    0    0  0.83509374341E+02  0.22506715050E+02  0.23107965683E+03  0.24673503121E+03  0.00000000000E+00 0. -1.
         13    1    3    3    0    0 -0.41918890399E+01 -0.30984005406E+02  0.18296066461E+03  0.18561299879E+03  0.00000000000E+00 0.  1.
          2    1    1    2  501    0  0.19422983824E+02 -0.90528411242E+01 -0.22056966791E+02  0.30752496111E+02  0.00000000000E+00 0. -1.
<scales pt_clust_5="13000.00000" pt_clust_6="13000.00000" pt_clust_7="13000.00000" pt_clust_8="13000.00000" pt_clust_9="21.42910"></scales>
<clustering>
<clus scale="   21.429">  2  9  1 -1</clus>
<clus scale="   81.573">  5  6 -1 -1</clus>
<clus scale="   95.563">  7  8 -1 -1</clus>
<clus scale="  120.399">  2  5  1 -1</clus>
<clus scale="   21.429">  2  5  1 -1</clus>
</clustering>
</event>
<event>
 9    1  0.7835476E-005  0.2799861E+03  0.7546771E-02  0.1095697E+00
         21   -1    0    0  501  502  0.00000000000E+00  0.00000000000E+00  0.33667887700E+03  0.33667887700E+03  0.00000000000E+00 0.  1.
          1   -1    0    0  502    0 -0.00000000000E+00 -0.00000000000E+00 -0.17237123987E+03  0.17237123987E+03  0.00000000000E+00 0. -1.
        -24    2    1    2    0    0  0.10111425303E+03  0.60723604567E+02  0.55136757783E+02  0.15379957681E+03  0.81870626295E+02 0.  0.
         23    2    1    2    0    0  0.92899343819E+02 -0.36717332871E+02  0.81703439673E+02  0.15783717404E+03  0.90877229487E+02 0.  0.
         13    1    3    3    0    0  0.34631945797E+02  0.36055356791E+02  0.65218103374E+02  0.82175187440E+02  0.00000000000E+00 0. -1.
        -14    1    3    3    0    0  0.66482307233E+02  0.24668247776E+02 -0.10081345591E+02  0.71624389368E+02  0.00000000000E+00 0.  1.
        -11    1    4    4    0    0  0.75371801173E+02 -0.47151452277E+02  0.17684633318E+02  0.90647195872E+02  0.00000000000E+00 0.  1.
         11    1    4    4    0    0  0.17527542645E+02  0.10434119406E+02  0.64018806355E+02  0.67189978167E+02  0.00000000000E+00 0. -1.
          2    1    1    2  501    0 -0.19401359685E+03 -0.24006271696E+02  0.27467439674E+02  0.19741336603E+03  0.00000000000E+00 0. -1.
<scales pt_clust_5="13000.00000" pt_clust_6="13000.00000" pt_clust_7="13000.00000" pt_clust_8="13000.00000" pt_clust_9="195.49326"></scales>
<clustering>
<clus scale="   81.871">  5  6 -1 -1</clus>
<clus scale="   90.877">  7  8 -1 -1</clus>
<clus scale="  129.678">  5  7 -1 -1</clus>
<clus scale="  195.493">  1  9  2 -1</clus>
<clus scale="  195.493">  1  5  2 -1</clus>
</clustering>
</event>
<event>
 9    1  0.7835476E-005  0.1097332E+03  0.7546771E-02  0.1263833E+00
          1   -1    0    0  502    0 -0.00000000000E+00  0.00000000000E+00  0.51318009635E+03  0.51318009635E+03  0.00000000000E+00 0. -1.
         21   -1    0    0  501  502  0.00000000000E+00 -0.00000000000E+00 -0.83897725436E+02  0.83897725436E+02  0.00000000000E+00 0.  1.
        -24    2    1    2    0    0 -0.93046467470E+01 -0.60991621851E+02  0.43865244254E+03  0.45076573733E+03  0.83469936012E+02 0.  0.
         23    2    1    2    0    0  0.36506341971E+02  0.58679264692E+02  0.75730482529E+01  0.11418190347E+03  0.90576966785E+02 0.  0.
         11    1    3    3    0    0 -0.40957426722E+02 -0.76877844795E+01  0.16535657232E+03  0.17052685667E+03  0.00000000000E+00 0. -1.
        -12    1    3    3    0    0  0.31652779975E+02 -0.53303837372E+02  0.27329587022E+03  0.28023888067E+03  0.00000000000E+00 0.  1.
        -11    1    4    4    0    0 -0.96955856110E+01  0.65236065601E+02 -0.40975764688E+01  0.66079790922E+02  0.00000000000E+00 0. -1.
         11    1    4    4    0    0  0.46201927582E+02 -0.65568009084E+01  0.11670624722E+02  0.48102112551E+02  0.00000000000E+00 0.  1.
          2    1    1    2  501    0 -0.27201695224E+02  0.23123571591E+01 -0.16943119878E+02  0.32130180982E+02  0.00000000000E+00 0. -1.
<scales pt_clust_5="13000.00000" pt_clust_6="13000.00000" pt_clust_7="13000.00000" pt_clust_8="13000.00000" pt_clust_9="27.29980"></scales>
<clustering>
<clus scale="   27.300">  2  9  1 -1</clus>
<clus scale="   83.470">  5  6 -1 -1</clus>
<clus scale="   90.577">  7  8 -1 -1</clus>
<clus scale="  103.944">  1  5  2 -1</clus>
<clus scale="   27.300">  2  5  1 -1</clus>
</clustering>
</event>
<event>
 9    1  0.7835476E-005  0.1196323E+03  0.7546771E-02  0.1256724E+00
          1   -1    0    0  502    0 -0.00000000000E+00  0.00000000000E+00  0.40226181472E+03  0.40226181472E+03  0.00000000000E+00 0. -1.
         21   -1    0    0  501  502  0.00000000000E+00 -0.00000000000E+00 -0.15244430397E+03  0.15244430397E+03  0.00000000000E+00 0. -1.
        -24    2    1    2    0    0  0.31320879032E+02 -0.11233717935E+02  0.17425909830E+03  0.19716662264E+03  0.86030517040E+02 0.  0.
         23    2    1    2    0    0 -0.74635046685E+00 -0.77434195934E+02 -0.10216447564E+03  0.15658620372E+03  0.89916891491E+02 0.  0.
         11    1    3    3    0    0 -0.82773660991E+01 -0.31946648382E+02  0.13054906778E+03  0.13465571741E+03  0.00000000000E+00 0. -1.
        -12    1    3    3    0    0  0.39598245131E+02  0.20712930447E+02  0.43710030518E+02  0.62510905233E+02  0.00000000000E+00 0.  1.
        -11    1    4    4    0    0  0.14805726545E+02 -0.61901881306E+02 -0.13272401368E+02  0.65016990747E+02  0.00000000000E+00 0.  1.
         11    1    4    4    0    0 -0.15552077012E+02 -0.15532314628E+02 -0.88892074271E+02  0.91569212977E+02  0.00000000000E+00 0. -1.
          2    1    1    2  501    0 -0.30574528565E+02  0.88667913869E+02  0.17772288809E+03  0.20095329233E+03  0.00000000000E+00 0. -1.
<scales pt_clust_5="13000.00000" pt_clust_6="13000.00000" pt_clust_7="13000.00000" pt_clust_8="13000.00000" pt_clust_9="78.91031"></scales>
<clustering>
<clus scale="   86.031">  5  6 -1 -1</clus>
<clus scale="   89.917">  7  8 -1 -1</clus>
<clus scale="   92.241">  1  5  2 -1</clus>
<clus scale="   78.910">  2  9  1 -1</clus>
<clus scale="   78.910">  2  5  1 -1</clus>
</clustering>
</event>
<event>
 9    1  0.7835476E-005  0.3256286E+03  0.7546771E-02  0.1120867E+00
         21   -1    0    0  501  502  0.00000000000E+00  0.00000000000E+00  0.37994268749E+03  0.37994268749E+03  0.00000000000E+00 0. -1.
          3   -1    0    0  502    0 -0.00000000000E+00 -0.00000000000E+00 -0.36838019026E+03  0.36838019026E+03  0.00000000000E+00 0. -1.
         23    2    1    2    0    0  0.13641047277E+02 -0.85277127357E+01 -0.15255897916E+02  0.94779375203E+02  0.92149810023E+02 0.  0.
        -24    2    1    2    0    0 -0.23703533038E+03 -0.21228105761E+03 -0.45442610648E+02  0.33123437804E+03  0.80013667975E+02 0.  0.
         11    1    4    4    0    0 -0.19894141166E+03 -0.20664954532E+03 -0.53750551632E+02  0.29184043869E+03  0.00000000000E+00 0. -1.
        -12    1    4    4    0    0 -0.38093918718E+02 -0.56315122946E+01  0.83079409841E+01  0.39393939348E+02  0.00000000000E+00 0.  1.
        -13    1    3    3    0    0 -0.31662677222E+01 -0.38979004712E+02 -0.36937128901E+02  0.53793489857E+02  0.00000000000E+00 0.  1.
         13    1    3    3    0    0  0.16807314999E+02  0.30451291976E+02  0.21681230985E+02  0.40985885345E+02  0.00000000000E+00 0. -1.
          4    1    1    2  501    0  0.22339428310E+03  0.22080877035E+03  0.72261005792E+02  0.32230912451E+03  0.00000000000E+00 0. -1.
<scales pt_clust_5="13000.00000" pt_clust_6="13000.00000" pt_clust_7="13000.00000" pt_clust_8="13000.00000" pt_clust_9="315.64505"></scales>
<clustering>
<clus scale="   80.014">  5  6 -1 -1</clus>
<clus scale="   92.150">  7  8 -1 -1</clus>
<clus scale="   93.544">  2  7  1 -1</clus>
<clus scale="  315.645">  1  9  2 -1</clus>
<clus scale="  315.645">  1  5  2 -1</clus>
</clustering>
</event>
<event>
 9    1  0.1484959E-004  0.2321748E+03  0.7546771E-02  0.1155991E+00
          1   -1    0    0  502    0 -0.00000000000E+00  0.00000000000E+00  0.68292031071E+03  0.68292031071E+03  0.00000000000E+00 0. -1.
         21   -1    0    0  501  502  0.00000000000E+00 -0.00000000000E+00 -0.24762546027E+03  0.24762546027E+03  0.00000000000E+00 0.  1.
         23    2    1    2    0    0  0.52861177575E+02 -0.37115040727E+02  0.21288231100E+03  0.23977113778E+03  0.89439867122E+02 0.  0.
        -24    2    1    2    0    0 -0.17314945627E+03 -0.13583362734E+03 -0.13884707876E+03  0.27257728323E+03  0.81168685673E+02 0.  0.
         11    1    4    4    0    0 -0.61170676383E+02 -0.36606768966E+02 -0.43928342239E+01  0.71422714705E+02  0.00000000000E+00 0. -1.
        -12    1    4    4    0    0 -0.11197877988E+03 -0.99226858372E+02 -0.13445424453E+03  0.20115456853E+03  0.00000000000E+00 0.  1.
        -13    1    3    3    0    0 -0.17439327733E+02  0.14575480090E+02  0.51963884991E+02  0.56717017860E+02  0.00000000000E+00 0.  1.
         13    1    3    3    0    0  0.70300505308E+02 -0.51690520817E+02  0.16091842601E+03  0.18305411992E+03  0.00000000000E+00 0. -1.
          2    1    1    2  501    0  0.12028827869E+03  0.17294866807E+03  0.36125961820E+03  0.41819734996E+03  0.00000000000E+00 0. -1.
<scales pt_clust_5="13000.00000" pt_clust_6="13000.00000" pt_clust_7="13000.00000" pt_clust_8="13000.00000" pt_clust_9="217.52435"></scales>
<clustering>
<clus scale="   81.169">  5  6 -1 -1</clus>
<clus scale="   89.440">  7  8 -1 -1</clus>
<clus scale="  110.324">  1  7  2 -1</clus>
<clus scale="  217.524">  2  9  1 -1</clus>
<clus scale="  217.524">  2  5  1 -1</clus>
</clustering>
</event>
<event>
 9    1  0.7835476E-005  0.9885946E+02  0.7546771E-02  0.1291440E+00
         21   -1    0    0  501  502  0.00000000000E+00  0.00000000000E+00  0.96074918731E+02  0.96074918731E+02  0.00000000000E+00 0.  1.
         -2   -1    0    0    0  501 -0.00000000000E+00 -0.00000000000E+00 -0.11222633759E+03  0.11222633759E+03  0.00000000000E+00 0.  1.
         23    2    1    2    0    0  0.31556310977E+01 -0.40764966616E+02 -0.26276581366E+02  0.10548430298E+03  0.93620184450E+02 0.  0.
        -24    2    1    2    0    0 -0.92210295247E+01  0.20168490782E+02  0.98104433837E+01  0.81343646119E+02  0.77645016315E+02 0.  0.
         13    1    4    4    0    0 -0.43620311533E+02  0.86770235864E+01  0.48721396805E+01  0.44741033310E+02  0.00000000000E+00 0. -1.
        -14    1    4    4    0    0  0.34399282008E+02  0.11491467196E+02  0.49383037032E+01  0.36602612809E+02  0.00000000000E+00 0.  1.
        -11    1    3    3    0    0  0.13447382364E+02 -0.69774869009E+02 -0.22128323372E+02  0.74424640631E+02  0.00000000000E+00 0.  1.
         11    1    3    3    0    0 -0.10291751266E+02  0.29009902393E+02 -0.41482579945E+01  0.31059662351E+02  0.00000000000E+00 0. -1.
         -1    1    1    2    0  502  0.60653984271E+01  0.20596475834E+02  0.31471912299E+00  0.21473307221E+02  0.00000000000E+00 0.  1.
<scales pt_clust_5="13000.00000" pt_clust_6="13000.00000" pt_clust_7="13000.00000" pt_clust_8="13000.00000" pt_clust_9="21.47100"></scales>
<clustering>
<clus scale="   21.471">  1  9  2 -1</clus>
<clus scale="   77.645">  5  6 -1 -1</clus>
<clus scale="   83.888">  1  5  2 -1</clus>
<clus scale="   93.620">  7  8 -1 -1</clus>
<clus scale="   21.471">  1  5  2 -1</clus>
</clustering>
</event>
<event>
 9    1  0.7835476E-005  0.2265693E+03  0.7546771E-02  0.1130567E+00
         21   -1    0    0  501  502  0.00000000000E+00  0.00000000000E+00  0.12615068848E+03  0.12615068848E+03  0.00000000000E+00 0. -1.
         -2   -1    0    0    0  501 -0.00000000000E+00 -0.00000000000E+00 -0.56158801999E+03  0.56158801999E+03  0.00000000000E+00 0.  1.
         23    2    1    2    0    0  0.79497740116E+02 -0.19900194417E+03 -0.33267272359E+03  0.40811766694E+03  0.99835988407E+02 0.  0.
        -24    2    1    2    0    0 -0.31164847063E+02  0.18551749686E+03 -0.10439155205E+03  0.22941600377E+03  0.79662521381E+02 0.  0.
         11    1    4    4    0    0 -0.64864904207E+01  0.39127780823E+02  0.11260085049E+02  0.41229204520E+02  0.00000000000E+00 0. -1.
        -12    1    4    4    0    0 -0.24678356642E+02  0.14638971603E+03 -0.11565163710E+03  0.18818679925E+03  0.00000000000E+00 0.  1.
        -11    1    3    3    0    0  0.87325485477E+02 -0.85092961787E+02 -0.16147371683E+03  0.20233712903E+03  0.00000000000E+00 0. -1.
         11    1    3    3    0    0 -0.78277453608E+01 -0.11390898238E+03 -0.17119900676E+03  0.20578053790E+03  0.00000000000E+00 0.  1.
         -1    1    1    2    0  502 -0.48332893053E+02  0.13484447310E+02  0.16269441340E+01  0.50205037769E+02  0.00000000000E+00 0.  1.
<scales pt_clust_5="13000.00000" pt_clust_6="13000.00000" pt_clust_7="13000.00000" pt_clust_8="13000.00000" pt_clust_9="50.17867"></scales>
<clustering>
<clus scale="   50.179">  1  9  2 -1</clus>
<clus scale="   79.663">  5  6 -1 -1</clus>
<clus scale="   99.836">  7  8 -1 -1</clus>
<clus scale="  218.432">  1  5  2 -1</clus>
<clus scale="   50.179">  1  5  2 -1</clus>
</clustering>
</event>
<event>
 9    1  0.7835476E-005  0.9656968E+02  0.7546771E-02  0.1295426E+00
          1   -1    0    0  502    0 -0.00000000000E+00  0.00000000000E+00  0.50024364003E+02  0.50024364003E+02  0.00000000000E+00 0. -1.
         21   -1    0    0  501  502  0.00000000000E+00 -0.00000000000E+00 -0.35548063082E+03  0.35548063082E+03  0.00000000000E+00 0.  1.
         23    2    1    2    0    0 -0.21731260657E+02 -0.54419757484E+01 -0.41902674160E+02  0.10269366047E+03  0.91040051673E+02 0.  0.
        -24    2    1    2    0    0  0.51308790244E+02  0.39678537370E+02 -0.20837758891E+03  0.23145754120E+03  0.77099906190E+02 0.  0.
         11    1    4    4    0    0  0.76917168643E+01  0.31233707428E+02 -0.19922730805E+02  0.37836783568E+02  0.00000000000E+00 0. -1.
        -12    1    4    4    0    0  0.43617073380E+02  0.84448299422E+01 -0.18845485811E+03  0.19362075763E+03  0.00000000000E+00 0.  1.
        -11    1    3    3    0    0 -0.10106866844E+02 -0.47202820356E+02 -0.11147408439E+02  0.49543109732E+02  0.00000000000E+00 0.  1.
         11    1    3    3    0    0 -0.11624393813E+02  0.41760844608E+02 -0.30755265721E+02  0.53150550735E+02  0.00000000000E+00 0. -1.
          2    1    1    2  501    0 -0.29577529588E+02 -0.34236561622E+02 -0.55176003750E+02  0.71353793158E+02  0.00000000000E+00 0. -1.
<scales pt_clust_5="13000.00000" pt_clust_6="13000.00000" pt_clust_7="13000.00000" pt_clust_8="13000.00000" pt_clust_9="45.24348"></scales>
<clustering>
<clus scale="   45.243">  2  9  1 -1</clus>
<clus scale="   77.100">  5  6 -1 -1</clus>
<clus scale="   83.557">  2  5  1 -1</clus>
<clus scale="   91.040">  7  8 -1 -1</clus>
<clus scale="   45.243">  2  5  1 -1</clus>
</clustering>
</event>
<event>
 9    1  0.7835476E-005  0.1791313E+03  0.7546771E-02  0.1190060E+00
          1   -1    0    0  502    0 -0.00000000000E+00  0.00000000000E+00  0.33272426112E+03  0.33272426112E+03  0.00000000000E+00 0. -1.
         21   -1    0    0  501  502  0.00000000000E+00 -0.00000000000E+00 -0.18157056709E+03  0.18157056709E+03  0.00000000000E+00 0. -1.
         23    2    1    2    0    0 -0.35250840987E+02 -0.47337411296E+02 -0.37999633028E+02  0.11697301891E+03  0.93569560988E+02 0.  0.
        -24    2    1    2    0    0 -0.13884587761E+03  0.52807020528E+02  0.13477979108E+03  0.21484971427E+03  0.76993821113E+02 0.  0.
         13    1    4    4    0    0 -0.49485568209E+02  0.14714575288E+01  0.89509713896E+02  0.10228868720E+03  0.00000000000E+00 0. -1.
        -14    1    4    4    0    0 -0.89360309404E+02  0.51335562999E+02  0.45270077188E+02  0.11256102706E+03  0.00000000000E+00 0.  1.
        -13    1    3    3    0    0 -0.10202680758E+02 -0.72368360177E+02 -0.14597628948E+02  0.74527612469E+02  0.00000000000E+00 0. -1.
         13    1    3    3    0    0 -0.25048160229E+02  0.25030948881E+02 -0.23402004080E+02  0.42445406438E+02  0.00000000000E+00 0.  1.
          2    1    1    2  501    0  0.17409671860E+03 -0.54696092317E+01  0.54373535970E+02  0.18247209503E+03  0.00000000000E+00 0. -1.
<scales pt_clust_5="13000.00000" pt_clust_6="13000.00000" pt_clust_7="13000.00000" pt_clust_8="13000.00000" pt_clust_9="161.74047"></scales>
<clustering>
<clus scale="   76.994">  5  6 -1 -1</clus>
<clus scale="   93.570">  7  8 -1 -1</clus>
<clus scale="  110.629">  1  7  2 -1</clus>
<clus scale="  161.740">  2  9  1 -1</clus>
<clus scale="  161.740">  2  5  1 -1</clus>
</clustering>
</event>
<event>
 9    1  0.7835476E-005  0.9368857E+02  0.7546771E-02  0.1300477E+00
          1   -1    0    0  502    0 -0.00000000000E+00  0.00000000000E+00  0.16627571433E+03  0.16627571433E+03  0.00000000000E+00 0. -1.
         21   -1    0    0  501  502  0.00000000000E+00 -0.00000000000E+00 -0.20285991718E+03  0.20285991718E+03  0.00000000000E+00 0. -1.
         23    2    1    2    0    0  0.44241225691E+01 -0.11701383408E+02  0.90185671286E+02  0.12893962253E+03  0.91298826495E+02 0.  0.
        -24    2    1    2    0    0 -0.13572418365E+02  0.33849026006E+02  0.20611553943E+02  0.90879249274E+02  0.80648835644E+02 0.  0.
         13    1    4    4    0    0  0.24905006636E+02  0.18040783756E+02  0.35251245031E+02  0.46780118750E+02  0.00000000000E+00 0. -1.
        -14    1    4    4    0    0 -0.38477425001E+02  0.15808242250E+02 -0.14639691088E+02  0.44099130523E+02  0.00000000000E+00 0.  1.
        -13    1    3    3    0    0 -0.30082008985E+02 -0.21585025184E+02  0.61140428039E+01  0.37526285403E+02  0.00000000000E+00 0.  1.
         13    1    3    3    0    0  0.34506131554E+02  0.98836417754E+01  0.84071628482E+02  0.91413337130E+02  0.00000000000E+00 0. -1.
          2    1    1    2  501    0  0.91482957960E+01 -0.22147642597E+02 -0.14738142808E+03  0.14931675971E+03  0.00000000000E+00 0. -1.
<scales pt_clust_5="13000.00000" pt_clust_6="13000.00000" pt_clust_7="13000.00000" pt_clust_8="13000.00000" pt_clust_9="23.96267"></scales>
<clustering>
<clus scale="   23.963">  2  9  1 -1</clus>
<clus scale="   80.649">  5  6 -1 -1</clus>
<clus scale="   83.345">  2  5  1 -1</clus>
<clus scale="   91.299">  7  8 -1 -1</clus>
<clus scale="   23.963">  2  5  1 -1</clus>
</clustering>
</event>
<event>
 9    1  0.7835476E-005  0.1568700E+03  0.7546771E-02  0.1215749E+00
          1   -1    0    0  502    0 -0.00000000000E+00  0.00000000000E+00  0.86659808559E+03  0.86659808559E+03  0.00000000000E+00 0. -1.
         21   -1    0    0  501  502  0.00000000000E+00 -0.00000000000E+00 -0.77727769806E+02  0.77727769806E+02  0.00000000000E+00 0. -1.
         23    2    1    2    0    0  0.16476033858E+02  0.14679092902E+02  0.11805516078E+02  0.95275463533E+02  0.91929909613E+02 0.  0.
        -24    2    1    2    0    0  0.30254902028E+02  0.11528193897E+03  0.63387954580E+03  0.65011405252E+03  0.81484465744E+02 0.  0.
         11    1    4    4    0    0  0.22055482679E+02  0.12338045090E+03  0.61746800457E+03  0.63006024843E+03  0.00000000000E+00 0. -1.
        -12    1    4    4    0    0  0.81994193484E+01 -0.80985119338E+01  0.16411541225E+02  0.20053804092E+02  0.00000000000E+00 0.  1.
        -13    1    3    3    0    0  0.41687557952E+00  0.52910105048E+02  0.38443852267E+01  0.53051223353E+02  0.00000000000E+00 0. -1.
         13    1    3    3    0    0  0.16059158279E+02 -0.38231012146E+02  0.79611308511E+01  0.42224240180E+02  0.00000000000E+00 0.  1.
          2    1    1    2  501    0 -0.46730935886E+02 -0.12996103187E+03  0.14318525391E+03  0.19893633934E+03  0.00000000000E+00 0. -1.
<scales pt_clust_5="13000.00000" pt_clust_6="13000.00000" pt_clust_7="13000.00000" pt_clust_8="13000.00000" pt_clust_9="134.04660"></scales>
<clustering>
<clus scale="   81.484">  5  6 -1 -1</clus>
<clus scale="   91.930">  7  8 -1 -1</clus>
<clus scale="   94.541">  1  7  2 -1</clus>
<clus scale="  134.047">  2  9  1 -1</clus>
<clus scale="  134.047">  2  5  1 -1</clus>
</clustering>
</event>
<event>
 9    1  0.7835476E-005  0.1031026E+03  0.7546771E-02  0.1288044E+00
         -4   -1    0    0    0  501 -0.00000000000E+00  0.00000000000E+00  0.26974201433E+03  0.26974201433E+03  0.00000000000E+00 0.  1.
         21   -1    0    0  501  502  0.00000000000E+00 -0.00000000000E+00 -0.12567999430E+03  0.12567999430E+03  0.00000000000E+00 0.  1.
        -24    2    1    2    0    0  0.17964548617E+02  0.70936004390E+01  0.18194500252E+03  0.19880634851E+03  0.77762047875E+02 0.  0.
         23    2    1    2    0    0  0.27402135831E+02 -0.12743882937E+02  0.33532472986E+02  0.11182044192E+03  0.10230396320E+03 0.  0.
         13    1    3    3    0    0  0.21842562877E+02 -0.27246196978E+02  0.41819371161E+02  0.54482222854E+02  0.00000000000E+00 0. -1.
        -14    1    3    3    0    0 -0.38780142599E+01  0.34339797417E+02  0.14012563136E+03  0.14432412565E+03  0.00000000000E+00 0.  1.
        -11    1    4    4    0    0  0.44647666736E+02  0.30027896584E+02 -0.16242531741E+01  0.53830538885E+02  0.00000000000E+00 0.  1.
         11    1    4    4    0    0 -0.17245530906E+02 -0.42771779522E+02  0.35156726160E+02  0.57989903035E+02  0.00000000000E+00 0. -1.
         -3    1    1    2    0  502 -0.45366684448E+02  0.56502824985E+01 -0.71415455470E+02  0.84795218203E+02  0.00000000000E+00 0.  1.
<scales pt_clust_5="13000.00000" pt_clust_6="13000.00000" pt_clust_7="13000.00000" pt_clust_8="13000.00000" pt_clust_9="45.71719"></scales>
<clustering>
<clus scale="   45.717">  2  9  1 -1</clus>
<clus scale="   77.762">  5  6 -1 -1</clus>
<clus scale="   78.810">  1  5  2 -1</clus>
<clus scale="  102.304">  7  8 -1 -1</clus>
<clus scale="   45.717">  2  5  1 -1</clus>
</clustering>
</event>
<event>
 9    1  0.7835476E-005  0.1386206E+03  0.7546771E-02  0.1240405E+00
         -4   -1    0    0    0  501 -0.00000000000E+00  0.00000000000E+00  0.25476997724E+03  0.25476997724E+03  0.00000000000E+00 0.  1.
         21   -1    0    0  501  502  0.00000000000E+00 -0.00000000000E+00 -0.51355297040E+03  0.51355297040E+03  0.00000000000E+00 0.  1.
        -24    2    1    2    0    0 -0.44810748517E+01 -0.22347468825E+01 -0.13028084036E+02  0.83234661343E+02  0.82056101234E+02 0.  0.
         23    2    1    2    0    0  0.33599646598E+02  0.99905716270E+02  0.19050003603E+03  0.23708618066E+03  0.93858963013E+02 0.  0.
         13    1    3    3    0    0  0.80159999611E+01 -0.30668996150E+02  0.20327874227E+02  0.37657217778E+02  0.00000000000E+00 0. -1.
        -14    1    3    3    0    0 -0.12497074813E+02  0.28434249267E+02 -0.33355958263E+02  0.45577443565E+02  0.00000000000E+00 0.  1.
        -13    1    4    4    0    0  0.18610436683E+02  0.11431402746E+03  0.17934455853E+03  0.21349125486E+03  0.00000000000E+00 0.  1.
         13    1    4    4    0    0  0.14989209915E+02 -0.14408311191E+02  0.11155477501E+02  0.23594925801E+02  0.00000000000E+00 0. -1.
         -3    1    1    2    0  502 -0.29118571746E+02 -0.97670969387E+02 -0.43625494516E+03  0.44800210564E+03  0.00000000000E+00 0.  1.
<scales pt_clust_5="13000.00000" pt_clust_6="13000.00000" pt_clust_7="13000.00000" pt_clust_8="13000.00000" pt_clust_9="102.01067"></scales>
<clustering>
<clus scale="   82.056">  5  6 -1 -1</clus>
<clus scale="   82.209">  1  5  2 -1</clus>
<clus scale="   93.859">  7  8 -1 -1</clus>
<clus scale="  102.011">  2  9  1 -1</clus>
<clus scale="  102.011">  2  5  1 -1</clus>
</clustering>
</event>
<event>
 9    1  0.7835476E-005  0.2418173E+03  0.7546771E-02  0.1119266E+00
         21   -1    0    0  501  502  0.00000000000E+00  0.00000000000E+00  0.60181783657E+02  0.60181783657E+02  0.00000000000E+00 0.  1.
          3   -1    0    0  502    0 -0.00000000000E+00 -0.00000000000E+00 -0.11048826502E+04  0.11048826502E+04  0.00000000000E+00 0. -1.
        -24    2    1    2    0    0 -0.11242786239E+03  0.19384836324E+03 -0.58639486010E+03  0.63273174080E+03  0.79204240353E+02 0.  0.
         23    2    1    2    0    0  0.13085808172E+03 -0.18283329645E+03 -0.44586251503E+03  0.50751646533E+03  0.90706826806E+02 0.  0.
         13    1    3    3    0    0  0.82749744447E+01  0.40294101520E+02 -0.12841652901E+03  0.13484396442E+03  0.00000000000E+00 0. -1.
        -14    1    3    3    0    0 -0.12070283684E+03  0.15355426172E+03 -0.45797833110E+03  0.49788777638E+03  0.00000000000E+00 0.  1.
        -13    1    4    4    0    0  0.91636833763E+02 -0.16987185681E+03 -0.40856608434E+03  0.45186281360E+03  0.00000000000E+00 0. -1.
         13    1    4    4    0    0  0.39221247961E+02 -0.12961439638E+02 -0.37296430692E+02  0.55653651735E+02  0.00000000000E+00 0.  1.
          4    1    1    2  501    0 -0.18430219330E+02 -0.11015066790E+02 -0.12443491443E+02  0.24816227760E+02  0.00000000000E+00 0. -1.
<scales pt_clust_5="13000.00000" pt_clust_6="13000.00000" pt_clust_7="13000.00000" pt_clust_8="13000.00000" pt_clust_9="21.47102"></scales>
<clustering>
<clus scale="   21.471">  1  9  2 -1</clus>
<clus scale="   79.204">  5  6 -1 -1</clus>
<clus scale="   90.707">  7  8 -1 -1</clus>
<clus scale="  237.742">  2  5  1 -1</clus>
<clus scale="   21.471">  1  5  2 -1</clus>
</clustering>
</event>
<event>
 9    1  0.7835476E-005  0.1175121E+03  0.7546771E-02  0.1249828E+00
         21   -1    0    0  501  502  0.00000000000E+00  0.00000000000E+00  0.18512850534E+03  0.18512850534E+03  0.00000000000E+00 0.  1.
          1   -1    0    0  502    0 -0.00000000000E+00 -0.00000000000E+00 -0.21782999765E+03  0.21782999765E+03  0.00000000000E+00 0. -1.
         23    2    1    2    0    0 -0.32710487657E+02 -0.70214029888E+02 -0.16879493217E+03  0.20607139664E+03  0.89295606780E+02 0.  0.
        -24    2    1    2    0    0  0.50527572537E+02  0.50732762341E+02  0.13094287958E+03  0.16998921480E+03  0.81384560415E+02 0.  0.
         13    1    4    4    0    0  0.95420435774E+01  0.42918298195E+02  0.14498126567E+02  0.46294995297E+02  0.00000000000E+00 0. -1.
        -14    1    4    4    0    0  0.40985528960E+02  0.78144641463E+01  0.11644475301E+03  0.12369421950E+03  0.00000000000E+00 0.  1.
        -13    1    3    3    0    0 -0.45879000944E+02 -0.14867168031E+01 -0.87476879074E+02  0.98789156424E+02  0.00000000000E+00 0.  1.
         13    1    3    3    0    0  0.13168513287E+02 -0.68727313085E+02 -0.81318053100E+02  0.10728224022E+03  0.00000000000E+00 0. -1.
          2    1    1    2  501    0 -0.17817084880E+02  0.19481267547E+02  0.51505602793E+01  0.26897891554E+02  0.00000000000E+00 0. -1.
<scales pt_clust_5="13000.00000" pt_clust_6="13000.00000" pt_clust_7="13000.00000" pt_clust_8="13000.00000" pt_clust_9="26.40016"></scales>
<clustering>
<clus scale="   26.400">  1  9  2 -1</clus>
<clus scale="   81.385">  5  6 -1 -1</clus>
<clus scale="   89.296">  7  8 -1 -1</clus>
<clus scale="  111.619">  1  5  2 -1</clus>
<clus scale="   26.400">  1  5  2 -1</clus>
</clustering>
</event>
<event>
 9    1  0.7835476E-005  0.1028555E+03  0.7546771E-02  0.1278704E+00
          1   -1    0    0  502    0 -0.00000000000E+00  0.00000000000E+00  0.17796773899E+03  0.17796773899E+03  0.00000000000E+00 0. -1.
         21   -1    0    0  501  502  0.00000000000E+00 -0.00000000000E+00 -0.13205429583E+03  0.13205429583E+03  0.00000000000E+00 0.  1.
         23    2    1    2    0    0  0.49282599830E+01 -0.32475657145E+02  0.83593465738E+02  0.12871802874E+03  0.92203618987E+02 0.  0.
        -24    2    1    2    0    0 -0.34071486298E+02  0.80730422931E+02 -0.21186570524E+02  0.12256829274E+03  0.83041244272E+02 0.  0.
         11    1    4    4    0    0  0.20844673869E+02  0.37082841995E+02  0.13068924129E+02  0.44502071604E+02  0.00000000000E+00 0. -1.
        -12    1    4    4    0    0 -0.54916160167E+02  0.43647580936E+02 -0.34255494653E+02  0.78066221139E+02  0.00000000000E+00 0.  1.
        -11    1    3    3    0    0 -0.37634008975E+02  0.37660558839E+01  0.16168410283E+02  0.41132946643E+02  0.00000000000E+00 0.  1.
         11    1    3    3    0    0  0.42562268958E+02 -0.36241713029E+02  0.67425055455E+02  0.87585082093E+02  0.00000000000E+00 0. -1.
          2    1    1    2  501    0  0.29143226315E+02 -0.48254765786E+02 -0.16493452049E+02  0.58735713341E+02  0.00000000000E+00 0. -1.
<scales pt_clust_5="13000.00000" pt_clust_6="13000.00000" pt_clust_7="13000.00000" pt_clust_8="13000.00000" pt_clust_9="56.37242"></scales>
<clustering>
<clus scale="   56.372">  2  9  1 -1</clus>
<clus scale="   83.041">  5  6 -1 -1</clus>
<clus scale="   92.204">  7  8 -1 -1</clus>
<clus scale="   94.729">  2  5  1 -1</clus>
<clus scale="   56.372">  2  5  1 -1</clus>
</clustering>
</event>
<event>
 9    1  0.7835476E-005  0.1393210E+03  0.7546771E-02  0.1238036E+00
         -4   -1    0    0    0  501 -0.00000000000E+00  0.00000000000E+00  0.55580532948E+03  0.55580532948E+03  0.00000000000E+00 0.  1.
         21   -1    0    0  501  502  0.00000000000E+00 -0.00000000000E+00 -0.82263342080E+02  0.82263342080E+02  0.00000000000E+00 0.  1.
        -24    2    1    2    0    0  0.61186495131E+01  0.22517167561E+02  0.35290880245E+03  0.36299434620E+03  0.81705641289E+02 0.  0.
         23    2    1    2    0    0 -0.10839740698E+03 -0.19539765226E+02  0.84670124756E+02  0.16661626502E+03  0.91979070875E+02 0.  0.
         11    1    3    3    0    0  0.87611207566E+01 -0.30575128184E+02  0.13461453048E+03  0.13832088605E+03  0.00000000000E+00 0. -1.
        -12    1    3    3    0    0 -0.26424712435E+01  0.53092295744E+02  0.21829427197E+03  0.22467346015E+03  0.00000000000E+00 0.  1.
        -13    1    4    4    0    0 -0.25205091741E+01 -0.21139267602E+02 -0.10952577777E+02  0.23941189637E+02  0.00000000000E+00 0. -1.
         13    1    4    4    0    0 -0.10587689781E+03  0.15995023766E+01  0.95622702533E+02  0.14267507539E+03  0.00000000000E+00 0.  1.
         -3    1    1    2    0  502  0.10227875747E+03 -0.29774023352E+01  0.35963060193E+02  0.10845806034E+03  0.00000000000E+00 0.  1.
<scales pt_clust_5="13000.00000" pt_clust_6="13000.00000" pt_clust_7="13000.00000" pt_clust_8="13000.00000" pt_clust_9="104.64319"></scales>
<clustering>
<clus scale="   81.706">  5  6 -1 -1</clus>
<clus scale="   84.972">  1  5  2 -1</clus>
<clus scale="   91.979">  7  8 -1 -1</clus>
<clus scale="  104.643">  2  9  1 -1</clus>
<clus scale="  104.643">  2  5  1 -1</clus>
</clustering>
</event>
<event>
 9    1  0.7835476E-005  0.1402541E+03  0.7546771E-02  0.1243635E+00
          1   -1    0    0  502    0 -0.00000000000E+00  0.00000000000E+00  0.31954003358E+03  0.31954003358E+03  0.00000000000E+00 0. -1.
         21   -1    0    0  501  502  0.00000000000E+00 -0.00000000000E+00 -0.19249517518E+03  0.19249517518E+03  0.00000000000E+00 0.  1.
         23    2    1    2    0    0  0.18359139421E+02  0.88807956433E+00 -0.12917730349E+03  0.14904416853E+03  0.72038474100E+02 0.  0.
        -24    2    1    2    0    0 -0.18635112130E+02  0.11537565945E+03  0.14308432578E+03  0.20076433734E+03  0.78577252853E+02 0.  0.
         13    1    4    4    0    0  0.85259534575E+01  0.11008729203E+03  0.96807129032E+02  0.14684523820E+03  0.00000000000E+00 0. -1.
        -14    1    4    4    0    0 -0.27161065587E+02  0.52883674207E+01  0.46277196748E+02  0.53919099146E+02  0.00000000000E+00 0.  1.
        -13    1    3    3    0    0 -0.24188058415E+02  0.74931191875E+00 -0.18471387745E+02  0.30443649640E+02  0.00000000000E+00 0. -1.
         13    1    3    3    0    0  0.42547197835E+02  0.13876764559E+00 -0.11070591574E+03  0.11860051889E+03  0.00000000000E+00 0.  1.
          2    1    1    2  501    0  0.27597270873E+00 -0.11626373902E+03  0.11313783611E+03  0.16222670289E+03  0.00000000000E+00 0. -1.
<scales pt_clust_5="13000.00000" pt_clust_6="13000.00000" pt_clust_7="13000.00000" pt_clust_8="13000.00000" pt_clust_9="116.17581"></scales>
<clustering>
<clus scale="   72.038">  7  8 -1 -1</clus>
<clus scale="   74.346">  1  7  2 -1</clus>
<clus scale="   78.577">  5  6 -1 -1</clus>
<clus scale="  116.176">  2  9  1 -1</clus>
<clus scale="  116.176">  2  5  1 -1</clus>
</clustering>
</event>
<event>
 9    1  0.7835476E-005  0.1245833E+03  0.7546771E-02  0.1238972E+00
         -2   -1    0    0    0  501 -0.00000000000E+00  0.00000000000E+00  0.11893933808E+03  0.11893933808E+03  0.00000000000E+00 0.  1.
         21   -1    0    0  501  502  0.00000000000E+00 -0.00000000000E+00 -0.32938201494E+03  0.32938201494E+03  0.00000000000E+00 0.  1.
         23    2    1    2    0    0 -0.24351283292E+01 -0.82879355086E+02  0.58065970110E+02  0.13627614664E+03  0.91239322169E+02 0.  0.
        -24    2    1    2    0    0 -0.13308751462E+02  0.98419802877E+02 -0.25747856086E+03  0.28732602216E+03  0.79984081188E+02 0.  0.
         11    1    4    4    0    0  0.25555531262E+02  0.50545977089E+02 -0.70450487476E+02  0.90394978642E+02  0.00000000000E+00 0. -1.
        -12    1    4    4    0    0 -0.38864282724E+02  0.47873825787E+02 -0.18702807339E+03  0.19693104352E+03  0.00000000000E+00 0.  1.
        -11    1    3    3    0    0  0.22585541125E+02 -0.41187410807E+02  0.71754445036E+02  0.85762520131E+02  0.00000000000E+00 0.  1.
         11    1    3    3    0    0 -0.25020669454E+02 -0.41691944279E+02 -0.13688474925E+02  0.50513626513E+02  0.00000000000E+00 0. -1.
         -1    1    1    2    0  502  0.15743879792E+02 -0.15540447791E+02 -0.11030086107E+02  0.24719184209E+02  0.00000000000E+00 0.  1.
<scales pt_clust_5="13000.00000" pt_clust_6="13000.00000" pt_clust_7="13000.00000" pt_clust_8="13000.00000" pt_clust_9="22.12184"></scales>
<clustering>
<clus scale="   22.122">  2  9  1 -1</clus>
<clus scale="   79.984">  5  6 -1 -1</clus>
<clus scale="   91.239">  7  8 -1 -1</clus>
<clus scale="  116.593">  2  5  1 -1</clus>
<clus scale="   22.122">  2  5  1 -1</clus>
</clustering>
</event>
<event>
 9    1  0.7835476E-005  0.9723273E+02  0.7546771E-02  0.1291409E+00
         21   -1    0    0  501  502  0.00000000000E+00  0.00000000000E+00  0.58624080515E+03  0.58624080515E+03  0.00000000000E+00 0. -1.
          3   -1    0    0  502    0 -0.00000000000E+00 -0.00000000000E+00 -0.32163424610E+02  0.32163424610E+02  0.00000000000E+00 0. -1.
         23    2    1    2    0    0 -0.36686248043E+02 -0.34169530773E+01  0.68033303578E+02  0.11927104705E+03  0.90771669070E+02 0.  0.
        -24    2    1    2    0    0  0.22754316435E+02  0.24372538699E+02  0.39985381707E+03  0.40934456323E+03  0.81043919343E+02 0.  0.
         13    1    4    4    0    0 -0.12379289062E+02  0.42143914442E+02  0.14628545075E+03  0.15273764900E+03  0.00000000000E+00 0. -1.
        -14    1    4    4    0    0  0.35133605497E+02 -0.17771375742E+02  0.25356836632E+03  0.25660691423E+03  0.00000000000E+00 0.  1.
        -11    1    3    3    0    0  0.20770649080E+02 -0.27436915127E+02  0.15267690989E+02  0.37647132202E+02  0.00000000000E+00 0.  1.
         11    1    3    3    0    0 -0.57456897123E+02  0.24019962050E+02  0.52765612589E+02  0.81623914852E+02  0.00000000000E+00 0. -1.
          4    1    1    2  501    0  0.13931931608E+02 -0.20955585622E+02  0.86190259892E+02  0.89788619476E+02  0.00000000000E+00 0. -1.
<scales pt_clust_5="13000.00000" pt_clust_6="13000.00000" pt_clust_7="13000.00000" pt_clust_8="13000.00000" pt_clust_9="25.16417"></scales>
<clustering>
<clus scale="   25.164">  1  9  2 -1</clus>
<clus scale="   81.044">  5  6 -1 -1</clus>
<clus scale="   88.220">  1  5  2 -1</clus>
<clus scale="   90.772">  7  8 -1 -1</clus>
<clus scale="   25.164">  1  5  2 -1</clus>
</clustering>
</event>
<event>
 9    1  0.7835476E-005  0.1819474E+03  0.7546771E-02  0.1185036E+00
         21   -1    0    0  501  502  0.00000000000E+00  0.00000000000E+00  0.71239102192E+03  0.71239102192E+03  0.00000000000E+00 0.  1.
          1   -1    0    0  502    0 -0.00000000000E+00 -0.00000000000E+00 -0.78642560640E+02  0.78642560640E+02  0.00000000000E+00 0. -1.
         23    2    1    2    0    0  0.38286353299E+02  0.62060032700E+02  0.14420870186E+03  0.18634617372E+03  0.92797921640E+02 0.  0.
        -24    2    1    2    0    0  0.21762943951E+02 -0.19357177132E+03  0.30794574819E+03  0.37257183329E+03  0.77688678417E+02 0.  0.
         11    1    4    4    0    0 -0.62368197397E+00 -0.51954743148E+02  0.30445986256E+02  0.60221610688E+02  0.00000000000E+00 0. -1.
        -12    1    4    4    0    0  0.22386625925E+02 -0.14161702817E+03  0.27749976193E+03  0.31235022260E+03  0.00000000000E+00 0.  1.
        -13    1    3    3    0    0  0.67205639664E+02  0.30672522422E+02  0.76802813134E+02  0.10656488042E+03  0.00000000000E+00 0.  1.
         13    1    3    3    0    0 -0.28919286365E+02  0.31387510278E+02  0.67405888722E+02  0.79781293294E+02  0.00000000000E+00 0. -1.
          2    1    1    2  501    0 -0.60049297251E+02  0.13151173862E+03  0.18159401124E+03  0.23211557555E+03  0.00000000000E+00 0. -1.
<scales pt_clust_5="13000.00000" pt_clust_6="13000.00000" pt_clust_7="13000.00000" pt_clust_8="13000.00000" pt_clust_9="164.52754"></scales>
<clustering>
<clus scale="   77.689">  5  6 -1 -1</clus>
<clus scale="   92.798">  7  8 -1 -1</clus>
<clus scale="  118.020">  2  7  1 -1</clus>
<clus scale="  164.528">  1  9  2 -1</clus>
<clus scale="  164.528">  1  5  2 -1</clus>
</clustering>
</event>
<event>
 9    1  0.7835476E-005  0.1243414E+03  0.7546771E-02  0.1239227E+00
         21   -1    0    0  501  502  0.00000000000E+00  0.00000000000E+00  0.77568983616E+03  0.77568983616E+03  0.00000000000E+00 0. -1.
         -2   -1    0    0    0  501 -0.00000000000E+00 -0.00000000000E+00 -0.43704843547E+02  0.43704843547E+02  0.00000000000E+00 0.  1.
        -24    2    1    2    0    0 -0.46665680825E+02  0.47440281543E+02  0.12556131036E+03  0.16366269888E+03  0.81188486047E+02 0.  0.
         23    2    1    2    0    0  0.11131568068E+03 -0.44897941943E+02  0.23995515717E+03  0.28359589570E+03  0.91875723948E+02 0.  0.
         11    1    3    3    0    0 -0.50993561296E+02  0.11262266971E+02  0.27435516395E+02  0.58990588324E+02  0.00000000000E+00 0. -1.
        -12    1    3    3    0    0  0.43278804705E+01  0.36178014572E+02  0.98125793964E+02  0.10467211056E+03  0.00000000000E+00 0.  1.
        -13    1    4    4    0    0  0.11404709557E+03 -0.13376681358E+02  0.15470422060E+03  0.19266310359E+03  0.00000000000E+00 0. -1.
         13    1    4    4    0    0 -0.27314148882E+01 -0.31521260586E+02  0.85250936567E+02  0.90932792115E+02  0.00000000000E+00 0.  1.
         -1    1    1    2    0  502 -0.64649999857E+02 -0.25423395993E+01  0.36646852508E+03  0.37213608512E+03  0.00000000000E+00 0.  1.
<scales pt_clust_5="13000.00000" pt_clust_6="13000.00000" pt_clust_7="13000.00000" pt_clust_8="13000.00000" pt_clust_9="64.69997"></scales>
<clustering>
<clus scale="   64.700">  1  9  2 -1</clus>
<clus scale="   81.188">  5  6 -1 -1</clus>
<clus scale="   91.876">  7  8 -1 -1</clus>
<clus scale="  116.667">  2  5  1 -1</clus>
<clus scale="   64.700">  1  5  2 -1</clus>
</clustering>
</event>
<event>
 9    1  0.7835476E-005  0.1475495E+03  0.7546771E-02  0.1219036E+00
          1   -1    0    0  502    0 -0.00000000000E+00  0.00000000000E+00  0.33210270703E+03  0.33210270703E+03  0.00000000000E+00 0. -1.
         21   -1    0    0  501  502  0.00000000000E+00 -0.00000000000E+00 -0.14671036425E+03  0.14671036425E+03  0.00000000000E+00 0. -1.
         23    2    1    2    0    0 -0.40295431281E+02  0.30649761981E+02  0.15474058784E+03  0.18756695971E+03  0.93132084475E+02 0.  0.
        -24    2    1    2    0    0  0.10171093141E+02 -0.14222831788E+03  0.53480866581E+02  0.17343941302E+03  0.82998080433E+02 0.  0.
         13    1    4    4    0    0 -0.29100363243E+02 -0.40089977968E+02 -0.42434017724E+01  0.49719653387E+02  0.00000000000E+00 0. -1.
        -14    1    4    4    0    0  0.39271456384E+02 -0.10213833991E+03  0.57724268353E+02  0.12371975963E+03  0.00000000000E+00 0.  1.
        -11    1    3    3    0    0  0.14461294706E+02 -0.15919482744E+02  0.84018128408E+02  0.86727186491E+02  0.00000000000E+00 0. -1.
         11    1    3    3    0    0 -0.54756725987E+02  0.46569244726E+02  0.70722459436E+02  0.10083977322E+03  0.00000000000E+00 0.  1.
          2    1    1    2  501    0  0.30124338140E+02  0.11157855589E+03 -0.22829111648E+02  0.11780669855E+03  0.00000000000E+00 0. -1.
<scales pt_clust_5="13000.00000" pt_clust_6="13000.00000" pt_clust_7="13000.00000" pt_clust_8="13000.00000" pt_clust_9="121.99247"></scales>
<clustering>
<clus scale="   82.998">  5  6 -1 -1</clus>
<clus scale="   93.132">  7  8 -1 -1</clus>
<clus scale="  106.003">  1  7  2 -1</clus>
<clus scale="  121.992">  2  9  1 -1</clus>
<clus scale="  121.992">  2  5  1 -1</clus>
</clustering>
</event>
<event>
 9    1  0.7835476E-005  0.1270169E+03  0.7546771E-02  0.1253581E+00
         21   -1    0    0  501  502  0.00000000000E+00  0.00000000000E+00  0.22267617817E+03  0.22267617817E+03  0.00000000000E+00 0. -1.
         -2   -1    0    0    0  501 -0.00000000000E+00 -0.00000000000E+00 -0.11227574256E+03  0.11227574256E+03  0.00000000000E+00 0.  1.
        -24    2    1    2    0    0  0.45636416357E+02 -0.60353247242E+01  0.48259848724E+02  0.95166483695E+02  0.67886220823E+02 0.  0.
         23    2    1    2    0    0  0.48105007472E+01  0.88095222519E+02  0.67295717547E+02  0.14332148707E+03  0.90710671414E+02 0.  0.
         13    1    3    3    0    0  0.24359085777E+02 -0.36719063710E+02  0.31907702856E+02  0.54403641433E+02  0.00000000000E+00 0. -1.
        -14    1    3    3    0    0  0.21277330581E+02  0.30683738986E+02  0.16352145867E+02  0.40762842262E+02  0.00000000000E+00 0.  1.
        -13    1    4    4    0    0 -0.20219230531E+02  0.34752820146E+02  0.73798993884E+02  0.84040866783E+02  0.00000000000E+00 0.  1.
         13    1    4    4    0    0  0.25029731278E+02  0.53342402373E+02 -0.65032763368E+01  0.59280620289E+02  0.00000000000E+00 0. -1.
         -1    1    1    2    0  502 -0.50446917105E+02 -0.82059897795E+02 -0.51551306605E+01  0.96463949969E+02  0.00000000000E+00 0.  1.
<scales pt_clust_5="13000.00000" pt_clust_6="13000.00000" pt_clust_7="13000.00000" pt_clust_8="13000.00000" pt_clust_9="88.90929"></scales>
<clustering>
<clus scale="   67.886">  5  6 -1 -1</clus>
<clus scale="   82.022">  2  5  1 -1</clus>
<clus scale="   88.909">  1  9  2 -1</clus>
<clus scale="   90.711">  7  8 -1 -1</clus>
<clus scale="   88.909">  1  5  2 -1</clus>
</clustering>
</event>
<event>
 9    1  0.7835476E-005  0.9647440E+02  0.7546771E-02  0.1291520E+00
         21   -1    0    0  501  502  0.00000000000E+00  0.00000000000E+00  0.15572589082E+03  0.15572589082E+03  0.00000000000E+00 0.  1.
         -2   -1    0    0    0  501 -0.00000000000E+00 -0.00000000000E+00 -0.11024978162E+03  0.11024978162E+03  0.00000000000E+00 0.  1.
         23    2    1    2    0    0  0.38563480546E+02 -0.45608047432E+02  0.32542838204E+02  0.11221027159E+03  0.89246135544E+02 0.  0.
        -24    2    1    2    0    0 -0.11171853388E+02  0.84568304059E+01  0.47508035694E+02  0.96094537164E+02  0.82345724410E+02 0.  0.
         13    1    4    4    0    0 -0.32500966339E+02 -0.47771556879E+00 -0.10084432104E+02  0.34032878162E+02  0.00000000000E+00 0. -1.
        -14    1    4    4    0    0  0.21329112950E+02  0.89345459747E+01  0.57592467798E+02  0.62061659002E+02  0.00000000000E+00 0.  1.
        -13    1    3    3    0    0  0.32162219311E+02 -0.71605696429E+02  0.33667717739E+02  0.85412524432E+02  0.00000000000E+00 0.  1.
         13    1    3    3    0    0  0.64012612350E+01  0.25997648997E+02 -0.11248795346E+01  0.26797747158E+02  0.00000000000E+00 0. -1.
         -1    1    1    2    0  502 -0.27391627157E+02  0.37151217026E+02 -0.34574764701E+02  0.57670863692E+02  0.00000000000E+00 0.  1.
<scales pt_clust_5="13000.00000" pt_clust_6="13000.00000" pt_clust_7="13000.00000" pt_clust_8="13000.00000" pt_clust_9="46.15752"></scales>
<clustering>
<clus scale="   46.158">  1  9  2 -1</clus>
<clus scale="   82.346">  5  6 -1 -1</clus>
<clus scale="   89.246">  7  8 -1 -1</clus>
<clus scale="   90.129">  1  5  2 -1</clus>
<clus scale="   46.158">  1  5  2 -1</clus>
</clustering>
</event>
<event>
 9    1  0.7835476E-005  0.2228326E+03  0.7546771E-02  0.1165554E+00
          1   -1    0    0  502    0 -0.00000000000E+00  0.00000000000E+00  0.16969703164E+04  0.16969703164E+04  0.00000000000E+00 0. -1.
         21   -1    0    0  501  502  0.00000000000E+00 -0.00000000000E+00 -0.88730505510E+02  0.88730505510E+02  0.00000000000E+00 0.  1.
         23    2    1    2    0    0 -0.33222445498E+02 -0.28705435550E+02  0.23630514228E+03  0.25655993807E+03  0.89750479882E+02 0.  0.
        -24    2    1    2    0    0 -0.30986203783E+02  0.20739389008E+03  0.10615604798E+03  0.24920032629E+03  0.82821045831E+02 0.  0.
         13    1    4    4    0    0 -0.48782366815E+02  0.67209155008E+02  0.51315819839E+02  0.97622247437E+02  0.00000000000E+00 0. -1.
        -14    1    4    4    0    0  0.17796163032E+02  0.14018473507E+03  0.54840228140E+02  0.15157807885E+03  0.00000000000E+00 0.  1.
        -13    1    3    3    0    0 -0.52597936520E+02 -0.77472275395E+01  0.21351716736E+03  0.22003668608E+03  0.00000000000E+00 0.  1.
         13    1    3    3    0    0  0.19375491022E+02 -0.20958208011E+02  0.22787974919E+02  0.36523251995E+02  0.00000000000E+00 0. -1.
          2    1    1    2  501    0  0.64208649281E+02 -0.17868845453E+03  0.12657786207E+04  0.12799405576E+04  0.00000000000E+00 0. -1.
<scales pt_clust_5="13000.00000" pt_clust_6="13000.00000" pt_clust_7="13000.00000" pt_clust_8="13000.00000" pt_clust_9="206.86969"></scales>
<clustering>
<clus scale="   82.821">  5  6 -1 -1</clus>
<clus scale="   89.750">  7  8 -1 -1</clus>
<clus scale="   99.914">  1  7  2 -1</clus>
<clus scale="  206.870">  2  9  1 -1</clus>
<clus scale="  206.870">  2  5  1 -1</clus>
</clustering>
</event>
<event>
 9    1  0.7835476E-005  0.1579777E+03  0.7546771E-02  0.1208876E+00
         21   -1    0    0  501  502  0.00000000000E+00  0.00000000000E+00  0.10897770586E+03  0.10897770586E+03  0.00000000000E+00 0.  1.
          1   -1    0    0  502    0 -0.00000000000E+00 -0.00000000000E+00 -0.46472304665E+03  0.46472304665E+03  0.00000000000E+00 0. -1.
        -24    2    1    2    0    0 -0.76188638376E+01  0.68589197893E+02 -0.14876546185E+02  0.10816572616E+03  0.81951128950E+02 0.  0.
         23    2    1    2    0    0 -0.85157536327E+02  0.41254425078E+02 -0.28000158343E+03  0.30940079137E+03  0.91510815732E+02 0.  0.
         11    1    3    3    0    0  0.28481012056E+02  0.28681497879E+02 -0.32151542127E+02  0.51648020577E+02  0.00000000000E+00 0. -1.
        -12    1    3    3    0    0 -0.36099875894E+02  0.39907700014E+02  0.17274995942E+02  0.56517705586E+02  0.00000000000E+00 0.  1.
        -11    1    4    4    0    0 -0.70954052293E+02  0.11653963817E+02 -0.83578412664E+02  0.11025263477E+03  0.00000000000E+00 0. -1.
         11    1    4    4    0    0 -0.14203484035E+02  0.29600461261E+02 -0.19642317077E+03  0.19914815661E+03  0.00000000000E+00 0.  1.
          2    1    1    2  501    0  0.92776400165E+02 -0.10984362297E+03 -0.60867211172E+02  0.15613423497E+03  0.00000000000E+00 0. -1.
<scales pt_clust_5="13000.00000" pt_clust_6="13000.00000" pt_clust_7="13000.00000" pt_clust_8="13000.00000" pt_clust_9="128.77390"></scales>
<clustering>
<clus scale="   81.951">  5  6 -1 -1</clus>
<clus scale="   91.511">  7  8 -1 -1</clus>
<clus scale="  107.138">  2  5  1 -1</clus>
<clus scale="  128.774">  1  9  2 -1</clus>
<clus scale="  128.774">  1  5  2 -1</clus>
</clustering>
</event>
<event>
 9    1  0.7835476E-005  0.1296636E+03  0.7546771E-02  0.1230741E+00
         21   -1    0    0  501  502  0.00000000000E+00  0.00000000000E+00  0.71227817272E+02  0.71227817272E+02  0.00000000000E+00 0.  1.
          1   -1    0    0  502    0 -0.00000000000E+00 -0.00000000000E+00 -0.68869209541E+03  0.68869209541E+03  0.00000000000E+00 0. -1.
        -24    2    1    2    0    0  0.16802442197E+02 -0.90288206081E+02 -0.37117178968E+03  0.39466534245E+03  0.97764783322E+02 0.  0.
         23    2    1    2    0    0 -0.10002449056E+03  0.30608953957E+02 -0.53096965628E+02  0.14659494316E+03  0.87914633755E+02 0.  0.
         11    1    3    3    0    0 -0.28372938315E+02  0.47029493616E+01 -0.88596657275E+02  0.93147780658E+02  0.00000000000E+00 0. -1.
        -12    1    3    3    0    0  0.45175380511E+02 -0.94991155443E+02 -0.28257513241E+03  0.30151756180E+03  0.00000000000E+00 0.  1.
        -13    1    4    4    0    0 -0.79216078769E+02  0.42521074795E+01  0.50038030138E+01  0.79487770117E+02  0.00000000000E+00 0.  1.
         13    1    4    4    0    0 -0.20808411788E+02  0.26356846478E+02 -0.58100768641E+02  0.67107173045E+02  0.00000000000E+00 0. -1.
          2    1    1    2  501    0  0.83222048360E+02  0.59679252124E+02 -0.19319552283E+03  0.21865962706E+03  0.00000000000E+00 0. -1.
<scales pt_clust_5="13000.00000" pt_clust_6="13000.00000" pt_clust_7="13000.00000" pt_clust_8="13000.00000" pt_clust_9="102.40866"></scales>
<clustering>
<clus scale="   87.915">  7  8 -1 -1</clus>
<clus scale="   97.765">  5  6 -1 -1</clus>
<clus scale="  102.409">  1  9  2 -1</clus>
<clus scale="  122.408">  1  7  2 -1</clus>
<clus scale="  102.409">  1  5  2 -1</clus>
</clustering>
</event>
<event>
 9    1  0.7835476E-005  0.1390816E+03  0.7546771E-02  0.1216999E+00
         -2   -1    0    0    0  501 -0.00000000000E+00  0.00000000000E+00  0.20562492963E+03  0.20562492963E+03  0.00000000000E+00 0.  1.
         21   -1    0    0  501  502  0.00000000000E+00 -0.00000000000E+00 -0.12242707741E+03  0.12242707741E+03  0.00000000000E+00 0.  1.
        -24    2    1    2    0    0  0.99166846443E+02  0.51729382786E+02  0.88933581610E+02  0.16407870691E+03  0.80638995824E+02 0.  0.
         23    2    1    2    0    0 -0.68811042178E+02 -0.62840630338E+02 -0.11356519111E+02  0.13116281473E+03  0.91601359674E+02 0.  0.
         13    1    3    3    0    0  0.65217067537E+02  0.21621485200E+01  0.80161629127E+02  0.10336260237E+03  0.00000000000E+00 0. -1.
        -14    1    3    3    0    0  0.33949778906E+02  0.49567234266E+02  0.87719524826E+01  0.60716104544E+02  0.00000000000E+00 0.  1.
        -11    1    4    4    0    0 -0.46465237554E+02  0.97397179596E+01 -0.25537545088E+02  0.53907760258E+02  0.00000000000E+00 0. -1.
         11    1    4    4    0    0 -0.22345804624E+02 -0.72580348298E+02  0.14181025977E+02  0.77255054469E+02  0.00000000000E+00 0.  1.
         -1    1    1    2    0  502 -0.30355804265E+02  0.11111247552E+02  0.56207897215E+01  0.32810485394E+02  0.00000000000E+00 0.  1.
<scales pt_clust_5="13000.00000" pt_clust_6="13000.00000" pt_clust_7="13000.00000" pt_clust_8="13000.00000" pt_clust_9="32.32545"></scales>
<clustering>
<clus scale="   32.325">  2  9  1 -1</clus>
<clus scale="   80.639">  5  6 -1 -1</clus>
<clus scale="   91.601">  7  8 -1 -1</clus>
<clus scale="  132.119">  1  5  2 -1</clus>
<clus scale="   32.325">  2  5  1 -1</clus>
</clustering>
</event>
<event>
 9    1  0.9759663E-005  0.1281925E+03  0.7546771E-02  0.1230677E+00
          3   -1    0    0  502    0 -0.00000000000E+00  0.00000000000E+00  0.17378967442E+03  0.17378967442E+03  0.00000000000E+00 0. -1.
         21   -1    0    0  501  502  0.00000000000E+00 -0.00000000000E+00 -0.23436510469E+03  0.23436510469E+03  0.00000000000E+00 0.  1.
         23    2    1    2    0    0 -0.77329836568E+02 -0.61628120249E+02 -0.50138149630E+01  0.12986424439E+03  0.84033652784E+02 0.  0.
        -24    2    1    2    0    0  0.44622015915E+02  0.87331810383E+02 -0.13668170374E+03  0.18712612300E+03  0.81953208359E+02 0.  0.
         13    1    4    4    0    0  0.92913398749E+00  0.28956600655E+02  0.34328397659E+01  0.29174173515E+02  0.00000000000E+00 0. -1.
        -14    1    4    4    0    0  0.43692881928E+02  0.58375209729E+02 -0.14011454351E+03  0.15795194948E+03  0.00000000000E+00 0.  1.
        -13    1    3    3    0    0 -0.30082220597E+02  0.19487160397E+02  0.26502155756E+00  0.35843544089E+02  0.00000000000E+00 0.  1.
         13    1    3    3    0    0 -0.47247615971E+02 -0.81115280647E+02 -0.52788365206E+01  0.94020700297E+02  0.00000000000E+00 0. -1.
          4    1    1    2  501    0  0.32707820653E+02 -0.25703690134E+02  0.81120088431E+02  0.91164411726E+02  0.00000000000E+00 0. -1.
<scales pt_clust_5="13000.00000" pt_clust_6="13000.00000" pt_clust_7="13000.00000" pt_clust_8="13000.00000" pt_clust_9="41.59907"></scales>
<clustering>
<clus scale="   41.599">  2  9  1 -1</clus>
<clus scale="   81.953">  5  6 -1 -1</clus>
<clus scale="   84.034">  7  8 -1 -1</clus>
<clus scale="  126.838">  2  5  1 -1</clus>
<clus scale="   41.599">  2  5  1 -1</clus>
</clustering>
</event>
<event>
 9    1  0.7835476E-005  0.1439013E+03  0.7546771E-02  0.1225599E+00
         21   -1    0    0  501  502  0.00000000000E+00  0.00000000000E+00  0.32067188229E+03  0.32067188229E+03  0.00000000000E+00 0. -1.
          1   -1    0    0  502    0 -0.00000000000E+00 -0.00000000000E+00 -0.12801932157E+03  0.12801932157E+03  0.00000000000E+00 0. -1.
        -24    2    1    2    0    0  0.57161575867E+02  0.11309728119E+02 -0.21297380653E+02  0.10186741670E+03  0.80796265122E+02 0.  0.
         23    2    1    2    0    0 -0.24816606291E+02  0.10320873198E+03  0.58627531919E+02  0.15115640194E+03  0.90239481622E+02 0.  0.
         13    1    3    3    0    0  0.64234129404E+02  0.14768737242E+02  0.12569082829E+02  0.67097845145E+02  0.00000000000E+00 0. -1.
        -14    1    3    3    0    0 -0.70725535369E+01 -0.34590091229E+01 -0.33866463482E+02  0.34769571559E+02  0.00000000000E+00 0.  1.
        -13    1    4    4    0    0 -0.21763659372E+02  0.47442671204E+02  0.76417067171E+02  0.92542055711E+02  0.00000000000E+00 0.  1.
         13    1    4    4    0    0 -0.30529469191E+01  0.55766060772E+02 -0.17789535251E+02  0.58614346225E+02  0.00000000000E+00 0. -1.
          2    1    1    2  501    0 -0.32344969576E+02 -0.11451846009E+03  0.15532240945E+03  0.19566738522E+03  0.00000000000E+00 0. -1.
<scales pt_clust_5="13000.00000" pt_clust_6="13000.00000" pt_clust_7="13000.00000" pt_clust_8="13000.00000" pt_clust_9="112.09111"></scales>
<clustering>
<clus scale="   80.796">  5  6 -1 -1</clus>
<clus scale="   90.239">  7  8 -1 -1</clus>
<clus scale="   99.616">  2  5  1 -1</clus>
<clus scale="  112.091">  1  9  2 -1</clus>
<clus scale="  112.091">  1  5  2 -1</clus>
</clustering>
</event>
<event>
 9    1  0.7835476E-005  0.9493954E+02  0.7546771E-02  0.1299228E+00
          3   -1    0    0  502    0 -0.00000000000E+00  0.00000000000E+00  0.24695489333E+03  0.24695489333E+03  0.00000000000E+00 0. -1.
         21   -1    0    0  501  502  0.00000000000E+00 -0.00000000000E+00 -0.11543107734E+03  0.11543107734E+03  0.00000000000E+00 0.  1.
         23    2    1    2    0    0  0.16805834790E+01 -0.55156357485E+00  0.17112493900E+03  0.19553327969E+03  0.94585358991E+02 0.  0.
        -24    2    1    2    0    0  0.43855761397E+01 -0.58993327976E+02 -0.35660322293E+02  0.10687000754E+03  0.81548107900E+02 0.  0.
         13    1    4    4    0    0  0.16124084554E+02 -0.25241048255E+02  0.23285340451E+02  0.37938156250E+02  0.00000000000E+00 0. -1.
        -14    1    4    4    0    0 -0.11738508414E+02 -0.33752279721E+02 -0.58945662744E+02  0.68931851292E+02  0.00000000000E+00 0.  1.
        -13    1    3    3    0    0  0.39725457684E+02 -0.22299652516E+02  0.55013149084E+02  0.71427117138E+02  0.00000000000E+00 0.  1.
         13    1    3    3    0    0 -0.38044874205E+02  0.21748088941E+02  0.11611178992E+03  0.12410616255E+03  0.00000000000E+00 0. -1.
          4    1    1    2  501    0 -0.60661596187E+01  0.59544891551E+02 -0.39408007119E+01  0.59982683439E+02  0.00000000000E+00 0. -1.
<scales pt_clust_5="13000.00000" pt_clust_6="13000.00000" pt_clust_7="13000.00000" pt_clust_8="13000.00000" pt_clust_9="59.85309"></scales>
<clustering>
<clus scale="   59.853">  2  9  1 -1</clus>
<clus scale="   81.548">  5  6 -1 -1</clus>
<clus scale="   81.959">  2  5  1 -1</clus>
<clus scale="   94.585">  7  8 -1 -1</clus>
<clus scale="   59.853">  2  5  1 -1</clus>
</clustering>
</event>
<event>
 9    1  0.7835476E-005  0.1151838E+03  0.7546771E-02  0.1260611E+00
         21   -1    0    0  501  502  0.00000000000E+00  0.00000000000E+00  0.76032688188E+02  0.76032688188E+02  0.00000000000E+00 0.  1.
          1   -1    0    0  502    0 -0.00000000000E+00 -0.00000000000E+00 -0.25345082905E+03  0.25345082905E+03  0.00000000000E+00 0. -1.
        -24    2    1    2    0    0  0.16046400185E+02 -0.35616372561E+02 -0.57073748062E+02  0.10669464498E+03  0.81242363308E+02 0.  0.
         23    2    1    2    0    0 -0.64353255028E+02  0.41817566810E+02 -0.52110606995E+02  0.13895656011E+03  0.10345704379E+03 0.  0.
         11    1    3    3    0    0  0.12159476590E+02  0.25118838525E+02 -0.26918967743E+02  0.38774214939E+02  0.00000000000E+00 0. -1.
        -12    1    3    3    0    0  0.38869235955E+01 -0.60735211085E+02 -0.30154780318E+02  0.67920430039E+02  0.00000000000E+00 0.  1.
        -13    1    4    4    0    0 -0.41413286255E+02 -0.31476368135E+00  0.24828525051E+02  0.48286799551E+02  0.00000000000E+00 0.  1.
         13    1    4    4    0    0 -0.22939968773E+02  0.42132330491E+02 -0.76939132046E+02  0.90669760560E+02  0.00000000000E+00 0. -1.
          2    1    1    2  501    0  0.48306854843E+02 -0.62011942492E+01 -0.68233785802E+02  0.83832312147E+02  0.00000000000E+00 0. -1.
<scales pt_clust_5="13000.00000" pt_clust_6="13000.00000" pt_clust_7="13000.00000" pt_clust_8="13000.00000" pt_clust_9="48.70328"></scales>
<clustering>
<clus scale="   48.703">  1  9  2 -1</clus>
<clus scale="   81.242">  5  6 -1 -1</clus>
<clus scale="   95.730">  2  5  1 -1</clus>
<clus scale="  103.457">  7  8 -1 -1</clus>
<clus scale="   48.703">  1  5  2 -1</clus>
</clustering>
</event>
<event>
 9    1  0.8930479E-005  0.1058084E+03  0.7546771E-02  0.1273890E+00
          1   -1    0    0  502    0 -0.00000000000E+00  0.00000000000E+00  0.97753273037E+02  0.97753273037E+02  0.00000000000E+00 0. -1.
         21   -1    0    0  501  502  0.00000000000E+00 -0.00000000000E+00 -0.10384343952E+04  0.10384343952E+04  0.00000000000E+00 0.  1.
         23    2    1    2    0    0 -0.29254424574E+02  0.48214689024E+02  0.30426210994E+02  0.11110680949E+03  0.90766134683E+02 0.  0.
        -24    2    1    2    0    0  0.44619979400E+01 -0.39721701756E+01 -0.97118700764E+03  0.97436526704E+03  0.78407794512E+02 0.  0.
         11    1    4    4    0    0 -0.11160706406E+02  0.17582460217E+02 -0.76549271059E+02  0.79331552200E+02  0.00000000000E+00 0. -1.
        -12    1    4    4    0    0  0.15622704346E+02 -0.21554630393E+02 -0.89463773658E+03  0.89503371484E+03  0.00000000000E+00 0.  1.
        -13    1    3    3    0    0 -0.29086005539E+02  0.70600317964E+02  0.39839568938E+01  0.76460921570E+02  0.00000000000E+00 0. -1.
         13    1    3    3    0    0 -0.16841903456E+00 -0.22385628940E+02  0.26442254100E+02  0.34645887922E+02  0.00000000000E+00 0.  1.
          2    1    1    2  501    0  0.24792426633E+02 -0.44242518848E+02  0.79674499866E-01  0.50715591689E+02  0.00000000000E+00 0. -1.
<scales pt_clust_5="13000.00000" pt_clust_6="13000.00000" pt_clust_7="13000.00000" pt_clust_8="13000.00000" pt_clust_9="50.71555"></scales>
<clustering>
<clus scale="   50.716">  2  9  1 -1</clus>
<clus scale="   78.408">  5  6 -1 -1</clus>
<clus scale="   90.766">  7  8 -1 -1</clus>
<clus scale="   95.419">  2  5  1 -1</clus>
<clus scale="   50.716">  2  5  1 -1</clus>
</clustering>
</event>
<event>
 9    1  0.7835476E-005  0.1919276E+03  0.7546771E-02  0.1179839E+00
         -2   -1    0    0    0  501 -0.00000000000E+00  0.00000000000E+00  0.82923305239E+03  0.82923305239E+03  0.00000000000E+00 0.  1.
         21   -1    0    0  501  502  0.00000000000E+00 -0.00000000000E+00 -0.75180187017E+02  0.75180187017E+02  0.00000000000E+00 0.  1.
         23    2    1    2    0    0  0.63625025739E+02  0.13882426583E+02  0.27718975077E+03  0.29932054545E+03  0.92291740328E+02 0.  0.
        -24    2    1    2    0    0  0.19175688277E+02 -0.17319141135E+03  0.26818681844E+03  0.32980900855E+03  0.80540924684E+02 0.  0.
         11    1    4    4    0    0  0.50767582431E+02 -0.11047690629E+03  0.17637825585E+03  0.21422367607E+03  0.00000000000E+00 0. -1.
        -12    1    4    4    0    0 -0.31591894154E+02 -0.62714505053E+02  0.91808562592E+02  0.11558533248E+03  0.00000000000E+00 0.  1.
        -13    1    3    3    0    0  0.87685866425E+02  0.10130469108E+02  0.20731696117E+03  0.22532589723E+03  0.00000000000E+00 0.  1.
         13    1    3    3    0    0 -0.24060840686E+02  0.37519574748E+01  0.69872789598E+02  0.73994648223E+02  0.00000000000E+00 0. -1.
         -1    1    1    2    0  502 -0.82800714016E+02  0.15930898476E+03  0.20867629617E+03  0.27528368540E+03  0.00000000000E+00 0.  1.
<scales pt_clust_5="13000.00000" pt_clust_6="13000.00000" pt_clust_7="13000.00000" pt_clust_8="13000.00000" pt_clust_9="174.21071"></scales>
<clustering>
<clus scale="   80.541">  5  6 -1 -1</clus>
<clus scale="   92.292">  7  8 -1 -1</clus>
<clus scale="  112.954">  1  7  2 -1</clus>
<clus scale="  174.211">  2  9  1 -1</clus>
<clus scale="  174.211">  2  5  1 -1</clus>
</clustering>
</event>
<event>
 9    1  0.7835476E-005  0.1551645E+03  0.7546771E-02  0.1218769E+00
         -4   -1    0    0    0  501 -0.00000000000E+00  0.00000000000E+00  0.94935048125E+03  0.94935048125E+03  0.00000000000E+00 0.  1.
         21   -1    0    0  501  502  0.00000000000E+00 -0.00000000000E+00 -0.54718688982E+02  0.54718688982E+02  0.00000000000E+00 0.  1.
         23    2    1    2    0    0 -0.12730818666E+02 -0.18149186609E+01  0.12639879919E+03  0.15613776210E+03  0.90757791081E+02 0.  0.
        -24    2    1    2    0    0  0.96719228486E+02 -0.93068779719E+02  0.15022643042E+03  0.21706765051E+03  0.80833022850E+02 0.  0.
         11    1    4    4    0    0  0.14725898419E+02 -0.44608574737E+02  0.10777193608E+02  0.48196731491E+02  0.00000000000E+00 0. -1.
        -12    1    4    4    0    0  0.81993330066E+02 -0.48460204982E+02  0.13944923681E+03  0.16887091902E+03  0.00000000000E+00 0.  1.
        -13    1    3    3    0    0  0.32495857059E+02  0.20600869083E+02  0.73856080694E+02  0.83277230913E+02  0.00000000000E+00 0. -1.
         13    1    3    3    0    0 -0.45226675725E+02 -0.22415787744E+02  0.52542718499E+02  0.72860531186E+02  0.00000000000E+00 0.  1.
         -3    1    1    2    0  502 -0.83988409819E+02  0.94883698380E+02  0.61800656265E+03  0.63086375762E+03  0.00000000000E+00 0.  1.
<scales pt_clust_5="13000.00000" pt_clust_6="13000.00000" pt_clust_7="13000.00000" pt_clust_8="13000.00000" pt_clust_9="132.44650"></scales>
<clustering>
<clus scale="   80.833">  5  6 -1 -1</clus>
<clus scale="   90.758">  7  8 -1 -1</clus>
<clus scale="   91.664">  1  7  2 -1</clus>
<clus scale="  132.447">  2  9  1 -1</clus>
<clus scale="  132.447">  2  5  1 -1</clus>
</clustering>
</event>
<event>
 9    1  0.7835476E-005  0.1347302E+03  0.7546771E-02  0.1223057E+00
          3   -1    0    0  502    0 -0.00000000000E+00  0.00000000000E+00  0.16627450415E+03  0.16627450415E+03  0.00000000000E+00 0. -1.
         21   -1    0    0  501  502  0.00000000000E+00 -0.00000000000E+00 -0.14989796669E+03  0.14989796669E+03  0.00000000000E+00 0.  1.
         23    2    1    2    0    0 -0.38927723763E+02 -0.86853217044E+02  0.64344791519E+02  0.14594812265E+03  0.90009740149E+02 0.  0.
        -24    2    1    2    0    0  0.32382995233E+02  0.10603517460E+03 -0.23522273001E+02  0.13846923903E+03  0.79550714636E+02 0.  0.
         11    1    4    4    0    0  0.23095202807E+02 -0.60222958541E+01 -0.16869842565E+01  0.23927021459E+02  0.00000000000E+00 0. -1.
        -12    1    4    4    0    0  0.92877924261E+01  0.11205747045E+03 -0.21835288745E+02  0.11454221757E+03  0.00000000000E+00 0.  1.
        -11    1    3    3    0    0 -0.30563104850E+02 -0.10585317047E+03  0.52486240247E+02  0.12204016753E+03  0.00000000000E+00 0. -1.
         11    1    3    3    0    0 -0.83646189121E+01  0.18999953424E+02  0.11858551272E+02  0.23907955119E+02  0.00000000000E+00 0.  1.
          4    1    1    2  501    0  0.65447285297E+01 -0.19181957552E+02 -0.24445981059E+02  0.31755109148E+02  0.00000000000E+00 0. -1.
<scales pt_clust_5="13000.00000" pt_clust_6="13000.00000" pt_clust_7="13000.00000" pt_clust_8="13000.00000" pt_clust_9="20.26773"></scales>
<clustering>
<clus scale="   20.268">  2  9  1 -1</clus>
<clus scale="   79.551">  5  6 -1 -1</clus>
<clus scale="   90.010">  7  8 -1 -1</clus>
<clus scale="  127.980">  2  5  1 -1</clus>
<clus scale="   20.268">  2  5  1 -1</clus>
</clustering>
</event>
<event>
 9    1  0.7835476E-005  0.1473045E+03  0.7546771E-02  0.1205110E+00
          3   -1    0    0  502    0 -0.00000000000E+00  0.00000000000E+00  0.52722994607E+02  0.52722994607E+02  0.00000000000E+00 0. -1.
         21   -1    0    0  501  502  0.00000000000E+00 -0.00000000000E+00 -0.55686125309E+03  0.55686125309E+03  0.00000000000E+00 0. -1.
         23    2    1    2    0    0  0.47227701645E+02 -0.10452843854E+03 -0.15061501602E+03  0.21095370089E+03  0.93058748104E+02 0.  0.
        -24    2    1    2    0    0 -0.76135715983E+02  0.87998788858E+02 -0.32025412527E+03  0.35155893360E+03  0.86547934433E+02 0.  0.
         11    1    4    4    0    0 -0.78740542501E+02  0.40589964241E+02 -0.14439983886E+03  0.16940759042E+03  0.00000000000E+00 0. -1.
        -12    1    4    4    0    0  0.26048265184E+01  0.47408824617E+02 -0.17585428642E+03  0.18215134318E+03  0.00000000000E+00 0.  1.
        -13    1    3    3    0    0  0.86759555934E+01 -0.45631878464E+02 -0.12932333518E+03  0.13741202844E+03  0.00000000000E+00 0. -1.
         13    1    3    3    0    0  0.38551746052E+02 -0.58896560078E+02 -0.21291680839E+02  0.73541672442E+02  0.00000000000E+00 0.  1.
          4    1    1    2  501    0  0.28908014337E+02  0.16529649683E+02 -0.33269117192E+02  0.47071613211E+02  0.00000000000E+00 0. -1.
<scales pt_clust_5="13000.00000" pt_clust_6="13000.00000" pt_clust_7="13000.00000" pt_clust_8="13000.00000" pt_clust_9="33.30021"></scales>
<clustering>
<clus scale="   33.300">  2  9  1 -1</clus>
<clus scale="   86.548">  5  6 -1 -1</clus>
<clus scale="   93.059">  7  8 -1 -1</clus>
<clus scale="  143.280">  2  5  1 -1</clus>
<clus scale="   33.300">  2  5  1 -1</clus>
</clustering>
</event>
<event>
 9    1  0.7835476E-005  0.1138797E+03  0.7546771E-02  0.1257823E+00
         21   -1    0    0  501  502  0.00000000000E+00  0.00000000000E+00  0.10363253179E+04  0.10363253179E+04  0.00000000000E+00 0. -1.
          1   -1    0    0  502    0 -0.00000000000E+00 -0.00000000000E+00 -0.91423053353E+02  0.91423053353E+02  0.00000000000E+00 0. -1.
        -24    2    1    2    0    0  0.48133124439E+02 -0.44371930034E+02 -0.46866154714E+02  0.11430958324E+03  0.81145415886E+02 0.  0.
         23    2    1    2    0    0 -0.98624918138E+02  0.20248050017E+01  0.53148316285E+03  0.54846006000E+03  0.92752955305E+02 0.  0.
         13    1    3    3    0    0 -0.20401799333E+02 -0.26322244601E+02 -0.17154907774E+02  0.37461778356E+02  0.00000000000E+00 0. -1.
        -14    1    3    3    0    0  0.68534923771E+02 -0.18049685433E+02 -0.29711246940E+02  0.76847804883E+02  0.00000000000E+00 0.  1.
        -11    1    4    4    0    0 -0.38041798909E+02 -0.44765306016E+02  0.21992356016E+03  0.22763453912E+03  0.00000000000E+00 0. -1.
         11    1    4    4    0    0 -0.60583119229E+02  0.46790111018E+02  0.31155960269E+03  0.32082552089E+03  0.00000000000E+00 0.  1.
          2    1    1    2  501    0  0.50491793700E+02  0.42347125033E+02  0.46028525644E+03  0.46497872804E+03  0.00000000000E+00 0. -1.
<scales pt_clust_5="13000.00000" pt_clust_6="13000.00000" pt_clust_7="13000.00000" pt_clust_8="13000.00000" pt_clust_9="65.89917"></scales>
<clustering>
<clus scale="   65.899">  1  9  2 -1</clus>
<clus scale="   81.145">  5  6 -1 -1</clus>
<clus scale="   92.753">  7  8 -1 -1</clus>
<clus scale="  104.643">  2  5  1 -1</clus>
<clus scale="   65.899">  1  5  2 -1</clus>
</clustering>
</event>
<event>
 9    1  0.7835476E-005  0.2432742E+03  0.7546771E-02  0.1120153E+00
         -2   -1    0    0    0  501 -0.00000000000E+00  0.00000000000E+00  0.17561768064E+03  0.17561768064E+03  0.00000000000E+00 0.  1.
         21   -1    0    0  501  502  0.00000000000E+00 -0.00000000000E+00 -0.61907284409E+03  0.61907284409E+03  0.00000000000E+00 0.  1.
        -24    2    1    2    0    0 -0.43573491906E+02  0.21361322879E+03  0.31224533314E+02  0.23428617239E+03  0.79911065447E+02 0.  0.
         23    2    1    2    0    0  0.49587859753E+02 -0.18738650670E+03 -0.48221296710E+03  0.53246220257E+03  0.11581879292E+03 0.  0.
         13    1    3    3    0    0 -0.23689108299E+02  0.78320895335E+01  0.82257379737E+01  0.26271243664E+02  0.00000000000E+00 0. -1.
        -14    1    3    3    0    0 -0.19884383607E+02  0.20578113926E+03  0.22998795341E+02  0.20801492873E+03  0.00000000000E+00 0.  1.
        -13    1    4    4    0    0 -0.14129035766E+02 -0.14225891375E+03 -0.25681482154E+03  0.29392359680E+03  0.00000000000E+00 0. -1.
         13    1    4    4    0    0  0.63716895519E+02 -0.45127592956E+02 -0.22539814556E+03  0.23853860577E+03  0.00000000000E+00 0.  1.
         -1    1    1    2    0  502 -0.60143678471E+01 -0.26226722090E+02  0.75332703378E+01  0.27942149778E+02  0.00000000000E+00 0.  1.
<scales pt_clust_5="13000.00000" pt_clust_6="13000.00000" pt_clust_7="13000.00000" pt_clust_8="13000.00000" pt_clust_9="26.90751"></scales>
<clustering>
<clus scale="   26.908">  2  9  1 -1</clus>
<clus scale="   79.911">  5  6 -1 -1</clus>
<clus scale="  115.819">  7  8 -1 -1</clus>
<clus scale="  228.373">  1  5  2 -1</clus>
<clus scale="   26.908">  2  5  1 -1</clus>
</clustering>
</event>
<event>
 9    1  0.7835476E-005  0.1216323E+03  0.7546771E-02  0.1243644E+00
         21   -1    0    0  501  502  0.00000000000E+00  0.00000000000E+00  0.24590128934E+02  0.24590128934E+02  0.00000000000E+00 0.  1.
          1   -1    0    0  502    0 -0.00000000000E+00 -0.00000000000E+00 -0.11351499402E+04  0.11351499402E+04  0.00000000000E+00 0. -1.
         23    2    1    2    0    0 -0.53234102053E+02 -0.52089545972E+02 -0.40221657433E+03  0.41901134197E+03  0.90802762186E+02 0.  0.
        -24    2    1    2    0    0  0.12128557453E+02  0.10334780248E+03 -0.30549351066E+03  0.33255599825E+03  0.80245477969E+02 0.  0.
         11    1    4    4    0    0 -0.20609189071E+02  0.38347582915E+02 -0.19808441910E+03  0.20281201365E+03  0.00000000000E+00 0. -1.
        -12    1    4    4    0    0  0.32737746524E+02  0.65000219569E+02 -0.10740909156E+03  0.12974398460E+03  0.00000000000E+00 0.  1.
        -13    1    3    3    0    0  0.22271089471E+02  0.49136883212E+01 -0.74598482946E+02  0.78006919033E+02  0.00000000000E+00 0.  1.
         13    1    3    3    0    0 -0.75505191524E+02 -0.57003234293E+02 -0.32761809138E+03  0.34100442294E+03  0.00000000000E+00 0. -1.
          2    1    1    2  501    0  0.41105544600E+02 -0.51258256512E+02 -0.40284972624E+03  0.40817272886E+03  0.00000000000E+00 0. -1.
<scales pt_clust_5="13000.00000" pt_clust_6="13000.00000" pt_clust_7="13000.00000" pt_clust_8="13000.00000" pt_clust_9="65.70448"></scales>
<clustering>
<clus scale="   65.704">  1  9  2 -1</clus>
<clus scale="   80.245">  5  6 -1 -1</clus>
<clus scale="   90.803">  7  8 -1 -1</clus>
<clus scale="  113.968">  1  5  2 -1</clus>
<clus scale="   65.704">  1  5  2 -1</clus>
</clustering>
</event>
<event>
 9    1  0.7835476E-005  0.1104298E+03  0.7546771E-02  0.1263597E+00
         -2   -1    0    0    0  501 -0.00000000000E+00  0.00000000000E+00  0.44452553288E+03  0.44452553288E+03  0.00000000000E+00 0.  1.
         21   -1    0    0  501  502  0.00000000000E+00 -0.00000000000E+00 -0.63857007745E+02  0.63857007745E+02  0.00000000000E+00 0.  1.
         23    2    1    2    0    0  0.20621594649E+02  0.72026044262E+02  0.18917342958E+03  0.22250146773E+03  0.90040632288E+02 0.  0.
        -24    2    1    2    0    0 -0.49072452310E+01 -0.34150149013E+02 -0.28743975390E+01  0.87233082565E+02  0.80068937793E+02 0.  0.
         11    1    4    4    0    0  0.30386322122E+02  0.82060194983E+01  0.37742042869E+01  0.31700346151E+02  0.00000000000E+00 0. -1.
        -12    1    4    4    0    0 -0.35293567353E+02 -0.42356168511E+02 -0.66486018259E+01  0.55532736414E+02  0.00000000000E+00 0.  1.
        -11    1    3    3    0    0 -0.31531645977E+02  0.45620262279E+02  0.11812778947E+03  0.13049761558E+03  0.00000000000E+00 0. -1.
         11    1    3    3    0    0  0.52153240627E+02  0.26405781983E+02  0.71045640117E+02  0.92003852145E+02  0.00000000000E+00 0.  1.
         -1    1    1    2    0  502 -0.15714349418E+02 -0.37875895249E+02  0.19436949309E+03  0.19864799033E+03  0.00000000000E+00 0.  1.
<scales pt_clust_5="13000.00000" pt_clust_6="13000.00000" pt_clust_7="13000.00000" pt_clust_8="13000.00000" pt_clust_9="41.00641"></scales>
<clustering>
<clus scale="   41.006">  2  9  1 -1</clus>
<clus scale="   80.069">  5  6 -1 -1</clus>
<clus scale="   90.041">  7  8 -1 -1</clus>
<clus scale="  102.462">  2  5  1 -1</clus>
<clus scale="   41.006">  2  5  1 -1</clus>
</clustering>
</event>
<event>
 9    1  0.7835476E-005  0.1241970E+03  0.7546771E-02  0.1238080E+00
         21   -1    0    0  501  502  0.00000000000E+00  0.00000000000E+00  0.23871628958E+03  0.23871628958E+03  0.00000000000E+00 0. -1.
         -2   -1    0    0    0  501 -0.00000000000E+00 -0.00000000000E+00 -0.19811438135E+03  0.19811438135E+03  0.00000000000E+00 0.  1.
        -24    2    1    2    0    0 -0.92651694408E+02  0.56124625450E+01 -0.12255719420E+03  0.17416576837E+03  0.81838944345E+02 0.  0.
         23    2    1    2    0    0  0.47294661419E+02  0.43923560561E+01  0.18576332764E+03  0.21100923652E+03  0.88095438077E+02 0.  0.
         11    1    3    3    0    0 -0.11961961272E+02  0.28170596521E+02 -0.66934102376E+02  0.73599219335E+02  0.00000000000E+00 0. -1.
        -12    1    3    3    0    0 -0.80689733136E+02 -0.22558133976E+02 -0.55623091819E+02  0.10056654904E+03  0.00000000000E+00 0.  1.
        -11    1    4    4    0    0 -0.26101626323E+02  0.94755587737E+00  0.58317923694E+02  0.63899710350E+02  0.00000000000E+00 0.  1.
         11    1    4    4    0    0  0.73396287742E+02  0.34448001787E+01  0.12744540394E+03  0.14710952617E+03  0.00000000000E+00 0. -1.
         -1    1    1    2    0  502  0.45357032989E+02 -0.10004818601E+02 -0.22604225209E+02  0.51655666040E+02  0.00000000000E+00 0.  1.
<scales pt_clust_5="13000.00000" pt_clust_6="13000.00000" pt_clust_7="13000.00000" pt_clust_8="13000.00000" pt_clust_9="46.44738"></scales>
<clustering>
<clus scale="   46.447">  1  9  2 -1</clus>
<clus scale="   81.839">  5  6 -1 -1</clus>
<clus scale="   88.095">  7  8 -1 -1</clus>
<clus scale="  119.840">  2  5  1 -1</clus>
<clus scale="   46.447">  1  5  2 -1</clus>
</clustering>
</event>
<event>
 9    1  0.7835476E-005  0.1479876E+03  0.7546771E-02  0.1204947E+00
          1   -1    0    0  502    0 -0.00000000000E+00  0.00000000000E+00  0.15693941785E+03  0.15693941785E+03  0.00000000000E+00 0. -1.
         21   -1    0    0  501  502  0.00000000000E+00 -0.00000000000E+00 -0.28289399179E+03  0.28289399179E+03  0.00000000000E+00 0. -1.
         23    2    1    2    0    0  0.39044599994E+02  0.78541991982E+02 -0.48669881201E+02  0.13269380857E+03  0.86865207093E+02 0.  0.
        -24    2    1    2    0    0 -0.88787838131E+02 -0.15176773051E+03 -0.99600828492E+02  0.21584661976E+03  0.75846647923E+02 0.  0.
         11    1    4    4    0    0 -0.76176772729E+02 -0.11194667756E+03 -0.36616323955E+02  0.14027014829E+03  0.00000000000E+00 0. -1.
        -12    1    4    4    0    0 -0.12611065402E+02 -0.39821052947E+02 -0.62984504537E+02  0.75576471472E+02  0.00000000000E+00 0.  1.
        -13    1    3    3    0    0 -0.58440672526E+01  0.70790321703E+02 -0.50420519012E+02  0.87107126610E+02  0.00000000000E+00 0. -1.
         13    1    3    3    0    0  0.44888667247E+02  0.77516702787E+01  0.17506378107E+01  0.45586681959E+02  0.00000000000E+00 0.  1.
          2    1    1    2  501    0  0.49743238137E+02  0.73225738525E+02  0.22316135748E+02  0.91292981316E+02  0.00000000000E+00 0. -1.
<scales pt_clust_5="13000.00000" pt_clust_6="13000.00000" pt_clust_7="13000.00000" pt_clust_8="13000.00000" pt_clust_9="88.52348"></scales>
<clustering>
<clus scale="   75.847">  5  6 -1 -1</clus>
<clus scale="   86.865">  7  8 -1 -1</clus>
<clus scale="   88.523">  2  9  1 -1</clus>
<clus scale="  141.801">  2  5  1 -1</clus>
<clus scale="   88.523">  2  5  1 -1</clus>
</clustering>
</event>
<event>
 9    1  0.7835476E-005  0.1065023E+03  0.7546771E-02  0.1271747E+00
         21   -1    0    0  501  502  0.00000000000E+00  0.00000000000E+00  0.46655331972E+02  0.46655331972E+02  0.00000000000E+00 0. -1.
          1   -1    0    0  502    0 -0.00000000000E+00 -0.00000000000E+00 -0.57309756713E+03  0.57309756713E+03  0.00000000000E+00 0. -1.
        -24    2    1    2    0    0 -0.50867587702E+02 -0.34993075453E+02 -0.31061601403E+03  0.32700038771E+03  0.81455009552E+02 0.  0.
         23    2    1    2    0    0  0.17198238549E+02  0.64521961349E+01 -0.25326490802E+02  0.97206214782E+02  0.92033726491E+02 0.  0.
         11    1    3    3    0    0 -0.28723294801E+02 -0.60722832844E+02 -0.22777676114E+03  0.23747535243E+03  0.00000000000E+00 0. -1.
        -12    1    3    3    0    0 -0.22144292901E+02  0.25729757391E+02 -0.82839252886E+02  0.89525035282E+02  0.00000000000E+00 0.  1.
        -13    1    4    4    0    0  0.64899722009E+01 -0.26334284789E+02 -0.48559325078E+02  0.55620341122E+02  0.00000000000E+00 0.  1.
         13    1    4    4    0    0  0.10708266348E+02  0.32786480924E+02  0.23232834276E+02  0.41585873660E+02  0.00000000000E+00 0. -1.
          2    1    1    2  501    0  0.33669349154E+02  0.28540879318E+02 -0.19049973033E+03  0.19554629662E+03  0.00000000000E+00 0. -1.
<scales pt_clust_5="13000.00000" pt_clust_6="13000.00000" pt_clust_7="13000.00000" pt_clust_8="13000.00000" pt_clust_9="44.13852"></scales>
<clustering>
<clus scale="   44.139">  1  9  2 -1</clus>
<clus scale="   81.455">  5  6 -1 -1</clus>
<clus scale="   92.034">  7  8 -1 -1</clus>
<clus scale="   97.506">  2  5  1 -1</clus>
<clus scale="   44.139">  1  5  2 -1</clus>
</clustering>
</event>
<event>
 9    1  0.7835476E-005  0.1209519E+03  0.7546771E-02  0.1245730E+00
          1   -1    0    0  502    0 -0.00000000000E+00  0.00000000000E+00  0.25971594607E+03  0.25971594607E+03  0.00000000000E+00 0. -1.
         21   -1    0    0  501  502  0.00000000000E+00 -0.00000000000E+00 -0.13373412527E+03  0.13373412527E+03  0.00000000000E+00 0. -1.
        -24    2    1    2    0    0  0.31101480182E+02 -0.55246759590E+02  0.11114691155E+03  0.15016617948E+03  0.78592232428E+02 0.  0.
         23    2    1    2    0    0 -0.68338307462E+02  0.91350098379E+02  0.74372521762E+02  0.16432339743E+03  0.91956197226E+02 0.  0.
         13    1    3    3    0    0  0.16930658329E+01 -0.53058529306E+02  0.24175561509E+02  0.58331224728E+02  0.00000000000E+00 0. -1.
        -14    1    3    3    0    0  0.29408414349E+02 -0.21882302842E+01  0.86971350043E+02  0.91834954753E+02  0.00000000000E+00 0.  1.
        -13    1    4    4    0    0 -0.17134797727E+02  0.11073232410E+02  0.65605201179E+02  0.68704149735E+02  0.00000000000E+00 0.  1.
         13    1    4    4    0    0 -0.51203509735E+02  0.80276865969E+02  0.87673205830E+01  0.95619247692E+02  0.00000000000E+00 0. -1.
          2    1    1    2  501    0  0.37236827280E+02 -0.36103338788E+02 -0.59537612507E+02  0.78960494429E+02  0.00000000000E+00 0. -1.
<scales pt_clust_5="13000.00000" pt_clust_6="13000.00000" pt_clust_7="13000.00000" pt_clust_8="13000.00000" pt_clust_9="51.86552"></scales>
<clustering>
<clus scale="   51.866">  2  9  1 -1</clus>
<clus scale="   78.592">  5  6 -1 -1</clus>
<clus scale="   91.956">  7  8 -1 -1</clus>
<clus scale="  111.131">  1  5  2 -1</clus>
<clus scale="   51.866">  2  5  1 -1</clus>
</clustering>
</event>
<event>
 9    1  0.7835476E-005  0.1683350E+03  0.7546771E-02  0.1186849E+00
         21   -1    0    0  501  502  0.00000000000E+00  0.00000000000E+00  0.12855565689E+03  0.12855565689E+03  0.00000000000E+00 0. -1.
          1   -1    0    0  502    0 -0.00000000000E+00 -0.00000000000E+00 -0.59881669163E+03  0.59881669163E+03  0.00000000000E+00 0. -1.
         23    2    1    2    0    0 -0.65074710529E+02 -0.87233075649E+02 -0.30553797917E+03  0.33740412235E+03  0.92971810915E+02 0.  0.
        -24    2    1    2    0    0 -0.77280239355E+02  0.14421733737E+03 -0.15019810478E+03  0.23594513688E+03  0.79622617049E+02 0.  0.
         11    1    4    4    0    0 -0.79373197356E+02  0.15273246862E+03 -0.14774751473E+03  0.22684055973E+03  0.00000000000E+00 0. -1.
        -12    1    4    4    0    0  0.20929580008E+01 -0.85151312554E+01 -0.24505900521E+01  0.91045771507E+01  0.00000000000E+00 0.  1.
        -13    1    3    3    0    0 -0.21092089845E+02  0.14817328784E+02 -0.26108571776E+02  0.36689058403E+02  0.00000000000E+00 0.  1.
         13    1    3    3    0    0 -0.43982620684E+02 -0.10205040443E+03 -0.27942940740E+03  0.30071506395E+03  0.00000000000E+00 0. -1.
          2    1    1    2  501    0  0.14235494988E+03 -0.56984261716E+02 -0.14524950778E+02  0.15402308929E+03  0.00000000000E+00 0. -1.
<scales pt_clust_5="13000.00000" pt_clust_6="13000.00000" pt_clust_7="13000.00000" pt_clust_8="13000.00000" pt_clust_9="148.31358"></scales>
<clustering>
<clus scale="   79.623">  5  6 -1 -1</clus>
<clus scale="   92.972">  7  8 -1 -1</clus>
<clus scale="  143.137">  2  7  1 -1</clus>
<clus scale="  148.314">  1  9  2 -1</clus>
<clus scale="  148.314">  1  5  2 -1</clus>
</clustering>
</event>
<event>
 9    1  0.7835476E-005  0.9849031E+02  0.7546771E-02  0.1292634E+00
          1   -1    0    0  502    0 -0.00000000000E+00  0.00000000000E+00  0.48511186147E+03  0.48511186147E+03  0.00000000000E+00 0. -1.
         21   -1    0    0  501  502  0.00000000000E+00 -0.00000000000E+00 -0.28386387340E+02  0.28386387340E+02  0.00000000000E+00 0. -1.
        -24    2    1    2    0    0 -0.12438318938E+02  0.57473718047E+01  0.27792723066E+03  0.28988865297E+03  0.81265869325E+02 0.  0.
         23    2    1    2    0    0  0.59398882476E+01 -0.30242992102E+02  0.16712144818E+03  0.19570596591E+03  0.97063514285E+02 0.  0.
         11    1    3    3    0    0 -0.24890838884E+02  0.36643966111E+02  0.10808569951E+03  0.11681118333E+03  0.00000000000E+00 0. -1.
        -12    1    3    3    0    0  0.12452519947E+02 -0.30896594306E+02  0.16984153115E+03  0.17307746964E+03  0.00000000000E+00 0.  1.
        -13    1    4    4    0    0 -0.24616001689E+02 -0.12160365888E+00  0.15495831643E+01  0.24665026547E+02  0.00000000000E+00 0.  1.
         13    1    4    4    0    0  0.30555889937E+02 -0.30121388444E+02  0.16557186502E+03  0.17104093936E+03  0.00000000000E+00 0. -1.
          2    1    1    2  501    0  0.64984306902E+01  0.24495620298E+02  0.11676795283E+02  0.27903629931E+02  0.00000000000E+00 0. -1.
<scales pt_clust_5="13000.00000" pt_clust_6="13000.00000" pt_clust_7="13000.00000" pt_clust_8="13000.00000" pt_clust_9="25.34295"></scales>
<clustering>
<clus scale="   25.343">  2  9  1 -1</clus>
<clus scale="   81.266">  5  6 -1 -1</clus>
<clus scale="   82.965">  1  5  2 -1</clus>
<clus scale="   97.064">  7  8 -1 -1</clus>
<clus scale="   25.343">  2  5  1 -1</clus>
</clustering>
</event>
<event>
 9    1  0.7835476E-005  0.1096361E+03  0.7546771E-02  0.1265029E+00
          1   -1    0    0  502    0 -0.00000000000E+00  0.00000000000E+00  0.76509156731E+03  0.76509156731E+03  0.00000000000E+00 0. -1.
         21   -1    0    0  501  502  0.00000000000E+00 -0.00000000000E+00 -0.31610111894E+02  0.31610111894E+02  0.00000000000E+00 0.  1.
         23    2    1    2    0    0 -0.44279711338E+02  0.40783179540E+02  0.25991285772E+03  0.28216526070E+03  0.91861744865E+02 0.  0.
        -24    2    1    2    0    0  0.78165645470E+02  0.29376808360E+02  0.22065362688E+03  0.24989201010E+03  0.82371892391E+02 0.  0.
         11    1    4    4    0    0  0.66410224171E+02  0.60561096777E+01  0.21221587031E+03  0.22244678004E+03  0.00000000000E+00 0. -1.
        -12    1    4    4    0    0  0.11755421298E+02  0.23320698682E+02  0.84377565630E+01  0.27445230055E+02  0.00000000000E+00 0.  1.
        -13    1    3    3    0    0  0.82809423341E+01  0.46517732851E+02  0.65973319233E+02  0.81147719168E+02  0.00000000000E+00 0.  1.
         13    1    3    3    0    0 -0.52560653672E+02 -0.57345533109E+01  0.19393953849E+03  0.20101754153E+03  0.00000000000E+00 0. -1.
          2    1    1    2  501    0 -0.33885934132E+02 -0.70159987900E+02  0.25291497082E+03  0.26464440840E+03  0.00000000000E+00 0. -1.
<scales pt_clust_5="13000.00000" pt_clust_6="13000.00000" pt_clust_7="13000.00000" pt_clust_8="13000.00000" pt_clust_9="77.91461"></scales>
<clustering>
<clus scale="   77.915">  2  9  1 -1</clus>
<clus scale="   82.372">  5  6 -1 -1</clus>
<clus scale="   91.862">  7  8 -1 -1</clus>
<clus scale="  101.817">  2  5  1 -1</clus>
<clus scale="   77.915">  2  5  1 -1</clus>
</clustering>
</event>
<event>
 9    1  0.7835476E-005  0.1406088E+03  0.7546771E-02  0.1214197E+00
         21   -1    0    0  501  502  0.00000000000E+00  0.00000000000E+00  0.95331734759E+02  0.95331734759E+02  0.00000000000E+00 0. -1.
          1   -1    0    0  502    0 -0.00000000000E+00 -0.00000000000E+00 -0.51626234042E+03  0.51626234042E+03  0.00000000000E+00 0. -1.
         23    2    1    2    0    0  0.97759552196E+02 -0.10073767201E+02 -0.15074320288E+03  0.20066743177E+03  0.88800304778E+02 0.  0.
        -24    2    1    2    0    0 -0.13944362177E+03 -0.12025504720E+02 -0.27760672215E+02  0.16395162611E+03  0.80748649311E+02 0.  0.
         11    1    4    4    0    0 -0.10791628549E+03 -0.44106546722E+02 -0.21266872632E+02  0.11850566235E+03  0.00000000000E+00 0. -1.
        -12    1    4    4    0    0 -0.31527336283E+02  0.32081042002E+02 -0.64937995836E+01  0.45445963759E+02  0.00000000000E+00 0.  1.
        -11    1    3    3    0    0  0.44418657083E+02 -0.34188316018E+02 -0.12445902505E+03  0.13649874345E+03  0.00000000000E+00 0.  1.
         11    1    3    3    0    0  0.53340895112E+02  0.24114548817E+02 -0.26284177832E+02  0.64168688317E+02  0.00000000000E+00 0. -1.
          2    1    1    2  501    0  0.41684069575E+02  0.22099271921E+02 -0.24242673057E+03  0.24697501730E+03  0.00000000000E+00 0. -1.
<scales pt_clust_5="13000.00000" pt_clust_6="13000.00000" pt_clust_7="13000.00000" pt_clust_8="13000.00000" pt_clust_9="47.17989"></scales>
<clustering>
<clus scale="   47.180">  1  9  2 -1</clus>
<clus scale="   80.749">  5  6 -1 -1</clus>
<clus scale="   88.800">  7  8 -1 -1</clus>
<clus scale="  135.668">  1  5  2 -1</clus>
<clus scale="   47.180">  1  5  2 -1</clus>
</clustering>
</event>
<event>
 9    1  0.7835476E-005  0.1383994E+03  0.7546771E-02  0.1217850E+00
         21   -1    0    0  501  502  0.00000000000E+00  0.00000000000E+00  0.68737367891E+03  0.68737367891E+03  0.00000000000E+00 0. -1.
         -2   -1    0    0    0  501 -0.00000000000E+00 -0.00000000000E+00 -0.10491903138E+03  0.10491903138E+03  0.00000000000E+00 0.  1.
        -24    2    1    2    0    0  0.62012617692E+02  0.70372987244E+02  0.47369858561E+02  0.13267128690E+03  0.80992868711E+02 0.  0.
         23    2    1    2    0    0 -0.81944790494E+02 -0.14858777959E+03  0.54519671689E+03  0.57827588669E+03  0.91489147383E+02 0.  0.
         13    1    3    3    0    0  0.42460984689E+02  0.51134026420E+01 -0.96377781050E+01  0.43840265444E+02  0.00000000000E+00 0. -1.
        -14    1    3    3    0    0  0.19551633003E+02  0.65259584602E+02  0.57007636666E+02  0.88831021461E+02  0.00000000000E+00 0.  1.
        -11    1    4    4    0    0 -0.18132064429E+02 -0.36988033969E+02  0.41657395085E+02  0.58585194227E+02  0.00000000000E+00 0.  1.
         11    1    4    4    0    0 -0.63812726065E+02 -0.11159974562E+03  0.50353932180E+03  0.51969069246E+03  0.00000000000E+00 0. -1.
         -1    1    1    2    0  502  0.19932172802E+02  0.78214792347E+02 -0.10111927918E+02  0.81345536698E+02  0.00000000000E+00 0.  1.
<scales pt_clust_5="13000.00000" pt_clust_6="13000.00000" pt_clust_7="13000.00000" pt_clust_8="13000.00000" pt_clust_9="80.71463"></scales>
<clustering>
<clus scale="   80.715">  1  9  2 -1</clus>
<clus scale="   80.993">  5  6 -1 -1</clus>
<clus scale="   91.489">  7  8 -1 -1</clus>
<clus scale="  131.697">  2  5  1 -1</clus>
<clus scale="   80.715">  1  5  2 -1</clus>
</clustering>
</event>
<event>
 9    1  0.7835476E-005  0.1026913E+03  0.7546771E-02  0.1279103E+00
         21   -1    0    0  501  502  0.00000000000E+00  0.00000000000E+00  0.13236275891E+03  0.13236275891E+03  0.00000000000E+00 0. -1.
          1   -1    0    0  502    0 -0.00000000000E+00 -0.00000000000E+00 -0.41478787973E+03  0.41478787973E+03  0.00000000000E+00 0. -1.
         23    2    1    2    0    0 -0.40817045464E+02 -0.34553280587E+02 -0.35953766966E+03  0.37429962326E+03  0.89291162332E+02 0.  0.
        -24    2    1    2    0    0  0.46059416312E+02 -0.80408460136E+01  0.96545899836E+01  0.92899040505E+02  0.79692506445E+02 0.  0.
         13    1    4    4    0    0  0.38144831749E+02 -0.39768077265E+02 -0.80896419811E+01  0.55695336124E+02  0.00000000000E+00 0. -1.
        -14    1    4    4    0    0  0.79145845626E+01  0.31727231252E+02  0.17744231965E+02  0.37203704382E+02  0.00000000000E+00 0.  1.
        -11    1    3    3    0    0 -0.66522327191E+02 -0.15512643824E+02 -0.19334968437E+03  0.20506087530E+03  0.00000000000E+00 0. -1.
         11    1    3    3    0    0  0.25705281726E+02 -0.19040636763E+02 -0.16618798529E+03  0.16923874796E+03  0.00000000000E+00 0.  1.
          2    1    1    2  501    0 -0.52423708475E+01  0.42594126601E+02  0.67457958854E+02  0.79951974871E+02  0.00000000000E+00 0. -1.
<scales pt_clust_5="13000.00000" pt_clust_6="13000.00000" pt_clust_7="13000.00000" pt_clust_8="13000.00000" pt_clust_9="42.91552"></scales>
<clustering>
<clus scale="   42.916">  1  9  2 -1</clus>
<clus scale="   79.693">  5  6 -1 -1</clus>
<clus scale="   89.291">  7  8 -1 -1</clus>
<clus scale="   94.464">  1  5  2 -1</clus>
<clus scale="   42.916">  1  5  2 -1</clus>
</clustering>
</event>
<event>
 9    1  0.7835476E-005  0.1610448E+03  0.7546771E-02  0.1192794E+00
         -4   -1    0    0    0  501 -0.00000000000E+00  0.00000000000E+00  0.60202201955E+02  0.60202201955E+02  0.00000000000E+00 0.  1.
         21   -1    0    0  501  502  0.00000000000E+00 -0.00000000000E+00 -0.12725065626E+04  0.12725065626E+04  0.00000000000E+00 0.  1.
        -24    2    1    2    0    0 -0.21753668848E+01 -0.12412115820E+03 -0.17697092769E+03  0.23029814237E+03  0.79421225111E+02 0.  0.
         23    2    1    2    0    0  0.13964627843E+03  0.77915952323E+02 -0.32998338414E+03  0.38230516884E+03  0.10814910822E+03 0.  0.
         11    1    3    3    0    0 -0.23265327326E+02 -0.25022024067E+01 -0.35864317168E+02  0.42822724322E+02  0.00000000000E+00 0. -1.
        -12    1    3    3    0    0  0.21089960441E+02 -0.12161895579E+03 -0.14110661052E+03  0.18747541805E+03  0.00000000000E+00 0.  1.
        -11    1    4    4    0    0  0.98330200508E+01  0.56493117519E+02 -0.66572884636E+02  0.87864154120E+02  0.00000000000E+00 0. -1.
         11    1    4    4    0    0  0.12981325838E+03  0.21422834804E+02 -0.26341049950E+03  0.29444101472E+03  0.00000000000E+00 0.  1.
         -3    1    1    2    0  502 -0.13747091155E+03  0.46205205874E+02 -0.70535004881E+03  0.72010545334E+03  0.00000000000E+00 0.  1.
<scales pt_clust_5="13000.00000" pt_clust_6="13000.00000" pt_clust_7="13000.00000" pt_clust_8="13000.00000" pt_clust_9="145.02818"></scales>
<clustering>
<clus scale="   79.421">  5  6 -1 -1</clus>
<clus scale="  108.149">  7  8 -1 -1</clus>
<clus scale="  145.028">  2  9  1 -1</clus>
<clus scale="  143.342">  1  5  2 -1</clus>
<clus scale="  145.028">  2  5  1 -1</clus>
</clustering>
</event>
<event>
 9    1  0.7835476E-005  0.1032371E+03  0.7546771E-02  0.1280382E+00
          1   -1    0    0  502    0 -0.00000000000E+00  0.00000000000E+00  0.74522626112E+03  0.74522626112E+03  0.00000000000E+00 0. -1.
         21   -1    0    0  501  502  0.00000000000E+00 -0.00000000000E+00 -0.25516230224E+02  0.25516230224E+02  0.00000000000E+00 0. -1.
         23    2    1    2    0    0  0.12656152678E+02  0.37087675775E+02  0.47015807840E+03  0.48067643163E+03  0.92008365632E+02 0.  0.
        -24    2    1    2    0    0 -0.10389913416E+02 -0.60099712185E+02  0.24792610713E+03  0.26688561465E+03  0.77721625074E+02 0.  0.
         11    1    4    4    0    0  0.60065041459E+01 -0.69328391338E+02  0.23207460319E+03  0.24228315126E+03  0.00000000000E+00 0. -1.
        -12    1    4    4    0    0 -0.16396417562E+02  0.92286791532E+01  0.15851503945E+02  0.24602463395E+02  0.00000000000E+00 0.  1.
        -11    1    3    3    0    0 -0.38481016748E+02  0.27857542724E+02  0.19982202298E+03  0.20539150958E+03  0.00000000000E+00 0.  1.
         11    1    3    3    0    0  0.51137169426E+02  0.92301330511E+01  0.27033605541E+03  0.27528492205E+03  0.00000000000E+00 0. -1.
          2    1    1    2  501    0 -0.22662392613E+01  0.23012036410E+02  0.16258453636E+01  0.23180445062E+02  0.00000000000E+00 0. -1.
<scales pt_clust_5="13000.00000" pt_clust_6="13000.00000" pt_clust_7="13000.00000" pt_clust_8="13000.00000" pt_clust_9="23.12336"></scales>
<clustering>
<clus scale="   23.123">  2  9  1 -1</clus>
<clus scale="   77.722">  5  6 -1 -1</clus>
<clus scale="   90.736">  2  5  1 -1</clus>
<clus scale="   92.008">  7  8 -1 -1</clus>
<clus scale="   23.123">  2  5  1 -1</clus>
</clustering>
</event>
<event>
 9    1  0.7835476E-005  0.2507775E+03  0.7546771E-02  0.1155721E+00
          1   -1    0    0  502    0 -0.00000000000E+00  0.00000000000E+00  0.65736279782E+03  0.65736279782E+03  0.00000000000E+00 0. -1.
         21   -1    0    0  501  502  0.00000000000E+00 -0.00000000000E+00 -0.13959755105E+03  0.13959755105E+03  0.00000000000E+00 0. -1.
        -24    2    1    2    0    0 -0.23348610392E+02  0.41482345356E+01  0.11522610495E+03  0.14505004538E+03  0.84853373221E+02 0.  0.
         23    2    1    2    0    0  0.22526822187E+03  0.84794104164E+02  0.97205464402E+02  0.27519964040E+03  0.91379034153E+02 0.  0.
         11    1    3    3    0    0  0.23183133926E+01 -0.38309156108E+02  0.46636682756E+02  0.60398230083E+02  0.00000000000E+00 0. -1.
        -12    1    3    3    0    0 -0.25666923785E+02  0.42457390644E+02  0.68589422190E+02  0.84651815298E+02  0.00000000000E+00 0.  1.
        -11    1    4    4    0    0  0.10718773873E+03  0.80426922720E+02  0.79237597840E+02  0.15568011480E+03  0.00000000000E+00 0.  1.
         11    1    4    4    0    0  0.11808048313E+03  0.43671814440E+01  0.17967866562E+02  0.11951952560E+03  0.00000000000E+00 0. -1.
          2    1    1    2  501    0 -0.20191961147E+03 -0.88942338699E+02  0.30533367743E+03  0.37671066309E+03  0.00000000000E+00 0. -1.
<scales pt_clust_5="13000.00000" pt_clust_6="13000.00000" pt_clust_7="13000.00000" pt_clust_8="13000.00000" pt_clust_9="233.53646"></scales>
<clustering>
<clus scale="   84.853">  5  6 -1 -1</clus>
<clus scale="   88.105">  1  5  2 -1</clus>
<clus scale="   91.379">  7  8 -1 -1</clus>
<clus scale="  233.536">  2  9  1 -1</clus>
<clus scale="  233.536">  2  5  1 -1</clus>
</clustering>
</event>
<event>
 9    1  0.7835476E-005  0.1001494E+03  0.7546771E-02  0.1285025E+00
         21   -1    0    0  501  502  0.00000000000E+00  0.00000000000E+00  0.10109613672E+03  0.10109613672E+03  0.00000000000E+00 0.  1.
          1   -1    0    0  502    0 -0.00000000000E+00 -0.00000000000E+00 -0.22454269700E+03  0.22454269700E+03  0.00000000000E+00 0. -1.
         23    2    1    2    0    0  0.30671662514E+02  0.30054484388E+02 -0.14316276292E+03  0.17565241573E+03  0.92272268603E+02 0.  0.
        -24    2    1    2    0    0 -0.46232184104E+02  0.19564786187E+02  0.82233003782E+01  0.96729600138E+02  0.82272700018E+02 0.  0.
         13    1    4    4    0    0 -0.65277350640E+02  0.24320252275E+02 -0.94714960187E+01  0.70301610324E+02  0.00000000000E+00 0. -1.
        -14    1    4    4    0    0  0.19045166536E+02 -0.47554660877E+01  0.17694796397E+02  0.26427989814E+02  0.00000000000E+00 0.  1.
        -13    1    3    3    0    0  0.50833645658E+02  0.48377138687E+02 -0.12353338488E+03  0.14207358748E+03  0.00000000000E+00 0.  1.
         13    1    3    3    0    0 -0.20161983143E+02 -0.18322654299E+02 -0.19629378034E+02  0.33578828253E+02  0.00000000000E+00 0. -1.
          2    1    1    2  501    0  0.15560521590E+02 -0.49619270576E+02  0.11492902264E+02  0.53256817846E+02  0.00000000000E+00 0. -1.
<scales pt_clust_5="13000.00000" pt_clust_6="13000.00000" pt_clust_7="13000.00000" pt_clust_8="13000.00000" pt_clust_9="52.00194"></scales>
<clustering>
<clus scale="   52.002">  1  9  2 -1</clus>
<clus scale="   82.273">  5  6 -1 -1</clus>
<clus scale="   91.019">  1  5  2 -1</clus>
<clus scale="   92.272">  7  8 -1 -1</clus>
<clus scale="   52.002">  1  5  2 -1</clus>
</clustering>
</event>
<event>
 9    1  0.7835476E-005  0.9213770E+02  0.7546771E-02  0.1303297E+00
         -2   -1    0    0    0  501 -0.00000000000E+00  0.00000000000E+00  0.32787396106E+03  0.32787396106E+03  0.00000000000E+00 0.  1.
         21   -1    0    0  501  502  0.00000000000E+00 -0.00000000000E+00 -0.37689604948E+02  0.37689604948E+02  0.00000000000E+00 0. -1.
         23    2    1    2    0    0 -0.80245552030E+01  0.33779153153E+02  0.16474831217E+03  0.19045283532E+03  0.89021634700E+02 0.  0.
        -24    2    1    2    0    0  0.90644761833E+01 -0.27413369087E+01  0.52757288428E+02  0.96075112289E+02  0.79733406189E+02 0.  0.
         11    1    4    4    0    0  0.39941656723E+02 -0.74438719108E+01  0.50422515792E+02  0.64754747081E+02  0.00000000000E+00 0. -1.
        -12    1    4    4    0    0 -0.30877180539E+02  0.47025350021E+01  0.23347726368E+01  0.31320365208E+02  0.00000000000E+00 0.  1.
        -11    1    3    3    0    0  0.40431012634E+02  0.16595910383E+02  0.84814502413E+02  0.95412739420E+02  0.00000000000E+00 0.  1.
         11    1    3    3    0    0 -0.48455567837E+02  0.17183242769E+02  0.79933809758E+02  0.95040095901E+02  0.00000000000E+00 0. -1.
         -1    1    1    2    0  502 -0.10399209803E+01 -0.31037816244E+02  0.72678755516E+02  0.79035618402E+02  0.00000000000E+00 0.  1.
<scales pt_clust_5="13000.00000" pt_clust_6="13000.00000" pt_clust_7="13000.00000" pt_clust_8="13000.00000" pt_clust_9="31.05525"></scales>
<clustering>
<clus scale="   31.055">  2  9  1 -1</clus>
<clus scale="   79.733">  5  6 -1 -1</clus>
<clus scale="   83.198">  2  5  1 -1</clus>
<clus scale="   89.022">  7  8 -1 -1</clus>
<clus scale="   31.055">  2  5  1 -1</clus>
</clustering>
</event>
<event>
 9    1  0.7835476E-005  0.1881516E+03  0.7546771E-02  0.1174420E+00
         21   -1    0    0  501  502  0.00000000000E+00  0.00000000000E+00  0.15275195230E+04  0.15275195230E+04  0.00000000000E+00 0. -1.
          1   -1    0    0  502    0 -0.00000000000E+00 -0.00000000000E+00 -0.26035147306E+03  0.26035147306E+03  0.00000000000E+00 0. -1.
        -24    2    1    2    0    0  0.59526722758E+02  0.90080882466E+02  0.34522604693E+03  0.37086786898E+03  0.81877693302E+02 0.  0.
         23    2    1    2    0    0 -0.66903107177E+02 -0.25052678887E+03 -0.16285128066E+03  0.32038388219E+03  0.94263432254E+02 0.  0.
         11    1    3    3    0    0  0.25963358279E+02  0.73942446848E+01  0.19936023596E+02  0.33559139805E+02  0.00000000000E+00 0. -1.
        -12    1    3    3    0    0  0.33563364478E+02  0.82686637781E+02  0.32529002333E+03  0.33730872918E+03  0.00000000000E+00 0.  1.
        -13    1    4    4    0    0 -0.37368421693E+02 -0.14620545610E+03 -0.39166165090E+02  0.15590517252E+03  0.00000000000E+00 0. -1.
         13    1    4    4    0    0 -0.29534685484E+02 -0.10432133278E+03 -0.12368511557E+03  0.16447870966E+03  0.00000000000E+00 0.  1.
          2    1    1    2  501    0  0.73763844197E+01  0.16044590641E+03  0.10847932837E+04  0.10966192449E+04  0.00000000000E+00 0. -1.
<scales pt_clust_5="13000.00000" pt_clust_6="13000.00000" pt_clust_7="13000.00000" pt_clust_8="13000.00000" pt_clust_9="162.83562"></scales>
<clustering>
<clus scale="   81.878">  5  6 -1 -1</clus>
<clus scale="   94.263">  7  8 -1 -1</clus>
<clus scale="  135.506">  2  5  1 -1</clus>
<clus scale="  162.836">  1  9  2 -1</clus>
<clus scale="  162.836">  1  5  2 -1</clus>
</clustering>
</event>
<event>
 9    1  0.7835476E-005  0.1340420E+03  0.7546771E-02  0.1226726E+00
         21   -1    0    0  501  502  0.00000000000E+00  0.00000000000E+00  0.36351328948E+03  0.36351328948E+03  0.00000000000E+00 0. -1.
          1   -1    0    0  502    0 -0.00000000000E+00 -0.00000000000E+00 -0.14017512401E+03  0.14017512401E+03  0.00000000000E+00 0. -1.
        -24    2    1    2    0    0  0.86159122586E+02  0.42766793923E+02 -0.76627777539E+02  0.14625645993E+03  0.79162760897E+02 0.  0.
         23    2    1    2    0    0 -0.71931216978E+02 -0.84051959539E+01  0.11229396953E+03  0.16611043793E+03  0.98681278382E+02 0.  0.
         13    1    3    3    0    0  0.63524885399E+02  0.51097201574E+01 -0.79894733049E+02  0.10219925965E+03  0.00000000000E+00 0. -1.
        -14    1    3    3    0    0  0.22634237187E+02  0.37657073765E+02  0.32669555098E+01  0.44057200273E+02  0.00000000000E+00 0.  1.
        -13    1    4    4    0    0  0.95187110013E+01 -0.35344683252E+02  0.32587369700E+02  0.49008051964E+02  0.00000000000E+00 0. -1.
         13    1    4    4    0    0 -0.81449927980E+02  0.26939487298E+02  0.79706599825E+02  0.11710238597E+03  0.00000000000E+00 0.  1.
          2    1    1    2  501    0 -0.14227905608E+02 -0.34361597969E+02  0.18767197348E+03  0.19132151563E+03  0.00000000000E+00 0. -1.
<scales pt_clust_5="13000.00000" pt_clust_6="13000.00000" pt_clust_7="13000.00000" pt_clust_8="13000.00000" pt_clust_9="37.19076"></scales>
<clustering>
<clus scale="   37.191">  1  9  2 -1</clus>
<clus scale="   79.163">  5  6 -1 -1</clus>
<clus scale="   98.681">  7  8 -1 -1</clus>
<clus scale="  120.399">  2  5  1 -1</clus>
<clus scale="   37.191">  1  5  2 -1</clus>
</clustering>
</event>
<event>
 9    1  0.7835476E-005  0.1037749E+03  0.7546771E-02  0.1278981E+00
         21   -1    0    0  501  502  0.00000000000E+00  0.00000000000E+00  0.49938438944E+03  0.49938438944E+03  0.00000000000E+00 0.  1.
         -2   -1    0    0    0  501 -0.00000000000E+00 -0.00000000000E+00 -0.46539264631E+02  0.46539264631E+02  0.00000000000E+00 0.  1.
        -24    2    1    2    0    0 -0.25549252720E+02  0.49485432170E+02  0.46594414635E+02  0.10670878551E+03  0.78193050326E+02 0.  0.
         23    2    1    2    0    0 -0.68510127180E+00 -0.12040907952E+02  0.36825709356E+03  0.37976868595E+03  0.92008233553E+02 0.  0.
         13    1    3    3    0    0  0.10079868623E+02  0.43098461227E+02  0.53938475805E+02  0.69774209302E+02  0.00000000000E+00 0. -1.
        -14    1    3    3    0    0 -0.35629121343E+02  0.63869709429E+01 -0.73440611701E+01  0.36934576212E+02  0.00000000000E+00 0.  1.
        -13    1    4    4    0    0  0.20235372909E+02  0.35247438823E+02  0.18067474819E+03  0.18518967815E+03  0.00000000000E+00 0.  1.
         13    1    4    4    0    0 -0.20920474181E+02 -0.47288346775E+02  0.18758234537E+03  0.19457900779E+03  0.00000000000E+00 0. -1.
         -1    1    1    2    0  502  0.26234353992E+02 -0.37444524218E+02  0.37993616614E+02  0.59446182608E+02  0.00000000000E+00 0.  1.
<scales pt_clust_5="13000.00000" pt_clust_6="13000.00000" pt_clust_7="13000.00000" pt_clust_8="13000.00000" pt_clust_9="45.72019"></scales>
<clustering>
<clus scale="   45.720">  1  9  2 -1</clus>
<clus scale="   78.193">  5  6 -1 -1</clus>
<clus scale="   91.749">  2  5  1 -1</clus>
<clus scale="   92.008">  7  8 -1 -1</clus>
<clus scale="   45.720">  1  5  2 -1</clus>
</clustering>
</event>
<event>
 9    1  0.7835476E-005  0.1186825E+03  0.7546771E-02  0.1255888E+00
         21   -1    0    0  501  502  0.00000000000E+00  0.00000000000E+00  0.10282000071E+03  0.10282000071E+03  0.00000000000E+00 0. -1.
          1   -1    0    0  502    0 -0.00000000000E+00 -0.00000000000E+00 -0.48391269490E+03  0.48391269490E+03  0.00000000000E+00 0. -1.
         23    2    1    2    0    0  0.52043393615E+02  0.26415439106E+02 -0.35832943456E+03  0.37097884535E+03  0.76282565381E+02 0.  0.
        -24    2    1    2    0    0 -0.37873575601E+02  0.69060276900E+02 -0.34319568601E+02  0.11854302594E+03  0.81675495928E+02 0.  0.
         11    1    4    4    0    0  0.58096669831E+01  0.62429617774E+02 -0.16845250942E+00  0.62699583588E+02  0.00000000000E+00 0. -1.
        -12    1    4    4    0    0 -0.43683242584E+02  0.66306591260E+01 -0.34151116091E+02  0.55843442349E+02  0.00000000000E+00 0.  1.
        -11    1    3    3    0    0  0.48442057002E+02 -0.17380702412E+02 -0.21439456758E+03  0.22048526552E+03  0.00000000000E+00 0.  1.
         11    1    3    3    0    0  0.36013366134E+01  0.43796141518E+02 -0.14393486698E+03  0.15049357983E+03  0.00000000000E+00 0. -1.
          2    1    1    2  501    0 -0.14169818014E+02 -0.95475716006E+02  0.11556308966E+02  0.97210824327E+02  0.00000000000E+00 0. -1.
<scales pt_clust_5="13000.00000" pt_clust_6="13000.00000" pt_clust_7="13000.00000" pt_clust_8="13000.00000" pt_clust_9="86.10829"></scales>
<clustering>
<clus scale="   76.283">  7  8 -1 -1</clus>
<clus scale="   81.675">  5  6 -1 -1</clus>
<clus scale="   96.049">  2  7  1 -1</clus>
<clus scale="   86.108">  1  9  2 -1</clus>
<clus scale="   86.108">  1  5  2 -1</clus>
</clustering>
</event>
<event>
 9    1  0.7835476E-005  0.9830184E+02  0.7546771E-02  0.1286365E+00
         -2   -1    0    0    0  501 -0.00000000000E+00  0.00000000000E+00  0.70213429348E+03  0.70213429348E+03  0.00000000000E+00 0.  1.
         21   -1    0    0  501  502  0.00000000000E+00 -0.00000000000E+00 -0.33997298444E+02  0.33997298444E+02  0.00000000000E+00 0.  1.
        -24    2    1    2    0    0  0.46288487551E+02  0.10392429385E+02  0.22817384214E+03  0.24670426101E+03  0.80926284335E+02 0.  0.
         23    2    1    2    0    0  0.59269694154E+01 -0.86279171817E+02  0.23792020836E+03  0.26737642896E+03  0.86051756276E+02 0.  0.
         11    1    3    3    0    0  0.66738227749E+02  0.20429223584E+02  0.18775558370E+03  0.20030852061E+03  0.00000000000E+00 0. -1.
        -12    1    3    3    0    0 -0.20449740198E+02 -0.10036794200E+02  0.40418258447E+02  0.46395740407E+02  0.00000000000E+00 0.  1.
        -13    1    4    4    0    0  0.33881768607E+02 -0.68385087794E+02  0.10158492192E+03  0.12705900534E+03  0.00000000000E+00 0.  1.
         13    1    4    4    0    0 -0.27954799192E+02 -0.17894084023E+02  0.13633528644E+03  0.14031742362E+03  0.00000000000E+00 0. -1.
         -1    1    1    2    0  502 -0.52215456967E+02  0.75886742432E+02  0.20204294453E+03  0.22205090195E+03  0.00000000000E+00 0.  1.
<scales pt_clust_5="13000.00000" pt_clust_6="13000.00000" pt_clust_7="13000.00000" pt_clust_8="13000.00000" pt_clust_9="92.11547"></scales>
<clustering>
<clus scale="   80.926">  5  6 -1 -1</clus>
<clus scale="   86.052">  7  8 -1 -1</clus>
<clus scale="   92.115">  2  9  1 -1</clus>
<clus scale="   93.848">  1  5  2 -1</clus>
<clus scale="   92.115">  2  5  1 -1</clus>
</clustering>
</event>
<event>
 9    1  0.7835476E-005  0.1615453E+03  0.7546771E-02  0.1211370E+00
          1   -1    0    0  502    0 -0.00000000000E+00  0.00000000000E+00  0.26659546192E+03  0.26659546192E+03  0.00000000000E+00 0. -1.
         21   -1    0    0  501  502  0.00000000000E+00 -0.00000000000E+00 -0.39324926522E+03  0.39324926522E+03  0.00000000000E+00 0. -1.
        -24    2    1    2    0    0  0.44632114525E+02 -0.22360265973E+02 -0.31391003555E+02  0.10005234961E+03  0.80827411295E+02 0.  0.
         23    2    1    2    0    0  0.79585165329E+02 -0.35705698564E+02  0.19888632252E+03  0.23525378971E+03  0.90442693642E+02 0.  0.
         13    1    3    3    0    0 -0.16563845691E+02 -0.27366696435E+02 -0.19641728985E+02  0.37537908511E+02  0.00000000000E+00 0. -1.
        -14    1    3    3    0    0  0.61195960217E+02  0.50064304627E+01 -0.11749274570E+02  0.62514441098E+02  0.00000000000E+00 0.  1.
        -13    1    4    4    0    0  0.93547808461E+02 -0.17277497979E+02  0.18567181131E+03  0.20862340693E+03  0.00000000000E+00 0.  1.
         13    1    4    4    0    0 -0.13962643132E+02 -0.18428200584E+02  0.13214511211E+02  0.26630382772E+02  0.00000000000E+00 0. -1.
          2    1    1    2  501    0 -0.12421727985E+03  0.58065964536E+02 -0.29414912227E+03  0.32453858782E+03  0.00000000000E+00 0. -1.
<scales pt_clust_5="13000.00000" pt_clust_6="13000.00000" pt_clust_7="13000.00000" pt_clust_8="13000.00000" pt_clust_9="133.85436"></scales>
<clustering>
<clus scale="   80.827">  5  6 -1 -1</clus>
<clus scale="   90.443">  7  8 -1 -1</clus>
<clus scale="   95.000">  1  5  2 -1</clus>
<clus scale="  133.854">  2  9  1 -1</clus>
<clus scale="  133.854">  2  5  1 -1</clus>
</clustering>
</event>
<event>
 9    1  0.7835476E-005  0.1698856E+03  0.7546771E-02  0.1179334E+00
         21   -1    0    0  501  502  0.00000000000E+00  0.00000000000E+00  0.14495524462E+04  0.14495524462E+04  0.00000000000E+00 0. -1.
          3   -1    0    0  502    0 -0.00000000000E+00 -0.00000000000E+00 -0.33243471112E+02  0.33243471112E+02  0.00000000000E+00 0. -1.
         23    2    1    2    0    0  0.40393632087E+02  0.13024566091E+03  0.27702672645E+03  0.32213125587E+03  0.91810463110E+02 0.  0.
        -24    2    1    2    0    0 -0.25304399978E+02 -0.16374538057E+03  0.96809171329E+03  0.98557578249E+03  0.81885257375E+02 0.  0.
         13    1    4    4    0    0 -0.11782820648E-01 -0.15674036014E+03  0.87146330804E+03  0.88544668834E+03  0.00000000000E+00 0. -1.
        -14    1    4    4    0    0 -0.25292617157E+02 -0.70050204293E+01  0.96628405246E+02  0.10012909414E+03  0.00000000000E+00 0.  1.
        -13    1    3    3    0    0  0.41067938724E+02  0.87860780635E+02  0.96951197619E+02  0.13713361034E+03  0.00000000000E+00 0. -1.
         13    1    3    3    0    0 -0.67430663763E+00  0.42384880279E+02  0.18007552883E+03  0.18499764553E+03  0.00000000000E+00 0.  1.
          4    1    1    2  501    0 -0.15089232109E+02  0.33499719652E+02  0.17119053536E+03  0.17508887897E+03  0.00000000000E+00 0. -1.
<scales pt_clust_5="13000.00000" pt_clust_6="13000.00000" pt_clust_7="13000.00000" pt_clust_8="13000.00000" pt_clust_9="36.74120"></scales>
<clustering>
<clus scale="   36.741">  1  9  2 -1</clus>
<clus scale="   81.885">  5  6 -1 -1</clus>
<clus scale="   91.810">  7  8 -1 -1</clus>
<clus scale="  164.734">  1  5  2 -1</clus>
<clus scale="   36.741">  1  5  2 -1</clus>
</clustering>
</event>
<event>
 9    1  0.7835476E-005  0.8894419E+02  0.7546771E-02  0.1310484E+00
         21   -1    0    0  501  502  0.00000000000E+00  0.00000000000E+00  0.10303987906E+03  0.10303987906E+03  0.00000000000E+00 0. -1.
          3   -1    0    0  502    0 -0.00000000000E+00 -0.00000000000E+00 -0.35556543583E+03  0.35556543583E+03  0.00000000000E+00 0. -1.
         23    2    1    2    0    0  0.18676962553E+02  0.52938896444E+01 -0.27870771281E+03  0.29246054984E+03  0.86477337142E+02 0.  0.
        -24    2    1    2    0    0 -0.12093971414E+02 -0.37040436632E+02 -0.37058209163E+02  0.95077734643E+02  0.78410501006E+02 0.  0.
         11    1    4    4    0    0 -0.16335028083E+02 -0.14824103175E+02  0.22415200797E+02  0.31448821984E+02  0.00000000000E+00 0. -1.
        -12    1    4    4    0    0  0.42410566690E+01 -0.22216333458E+02 -0.59473409960E+02  0.63628912660E+02  0.00000000000E+00 0.  1.
        -11    1    3    3    0    0 -0.14910387808E+02  0.33156193859E+02 -0.66269565622E+02  0.75586428567E+02  0.00000000000E+00 0.  1.
         11    1    3    3    0    0  0.33587350360E+02 -0.27862304214E+02 -0.21243814719E+03  0.21687412128E+03  0.00000000000E+00 0. -1.
          4    1    1    2  501    0 -0.65829911386E+01  0.31746546988E+02  0.63240365206E+02  0.71067030397E+02  0.00000000000E+00 0. -1.
<scales pt_clust_5="13000.00000" pt_clust_6="13000.00000" pt_clust_7="13000.00000" pt_clust_8="13000.00000" pt_clust_9="32.42189"></scales>
<clustering>
<clus scale="   32.422">  1  9  2 -1</clus>
<clus scale="   78.411">  5  6 -1 -1</clus>
<clus scale="   81.123">  1  5  2 -1</clus>
<clus scale="   86.477">  7  8 -1 -1</clus>
<clus scale="   32.422">  1  5  2 -1</clus>
</clustering>
</event>
<event>
 9    1  0.7835476E-005  0.9474944E+02  0.7546771E-02  0.1295634E+00
          3   -1    0    0  502    0 -0.00000000000E+00  0.00000000000E+00  0.30652341809E+03  0.30652341809E+03  0.00000000000E+00 0. -1.
         21   -1    0    0  501  502  0.00000000000E+00 -0.00000000000E+00 -0.76309541039E+02  0.76309541039E+02  0.00000000000E+00 0. -1.
         23    2    1    2    0    0 -0.54609381575E+00  0.25645507827E+02  0.88124459322E+02  0.12924975263E+03  0.91003230347E+02 0.  0.
        -24    2    1    2    0    0 -0.73332788023E+02  0.22393811112E+02  0.38228014350E+02  0.11737360163E+03  0.80224688869E+02 0.  0.
         11    1    4    4    0    0 -0.80486563312E+02  0.40113245618E+02  0.22695911720E+02  0.92748389509E+02  0.00000000000E+00 0. -1.
        -12    1    4    4    0    0  0.71537752882E+01 -0.17719434506E+02  0.15532102630E+02  0.24625212125E+02  0.00000000000E+00 0.  1.
        -13    1    3    3    0    0 -0.31480490309E+02 -0.11826963512E+02  0.64918287294E+01  0.34249703302E+02  0.00000000000E+00 0.  1.
         13    1    3    3    0    0  0.30934396494E+02  0.37472471338E+02  0.81632630592E+02  0.95000049327E+02  0.00000000000E+00 0. -1.
          4    1    1    2  501    0  0.73878881839E+02 -0.48039318939E+02  0.10386140338E+03  0.13620960487E+03  0.00000000000E+00 0. -1.
<scales pt_clust_5="13000.00000" pt_clust_6="13000.00000" pt_clust_7="13000.00000" pt_clust_8="13000.00000" pt_clust_9="88.12419"></scales>
<clustering>
<clus scale="   80.225">  5  6 -1 -1</clus>
<clus scale="   88.124">  2  9  1 -1</clus>
<clus scale="   88.124">  2  5  1 -1</clus>
<clus scale="   91.003">  7  8 -1 -1</clus>
<clus scale="   88.124">  2  5  1 -1</clus>
</clustering>
</event>
<event>
 9    1  0.7835476E-005  0.9976345E+02  0.7546771E-02  0.1285243E+00
         21   -1    0    0  501  502  0.00000000000E+00  0.00000000000E+00  0.11110963797E+03  0.11110963797E+03  0.00000000000E+00 0. -1.
         -2   -1    0    0    0  501 -0.00000000000E+00 -0.00000000000E+00 -0.18621061835E+03  0.18621061835E+03  0.00000000000E+00 0.  1.
        -24    2    1    2    0    0 -0.12932575389E+02  0.36397888795E+02 -0.11740086776E+03  0.14756644798E+03  0.80627755784E+02 0.  0.
         23    2    1    2    0    0  0.30050377481E+02 -0.61665386408E+02  0.29868312401E+02  0.11679914797E+03  0.89689909199E+02 0.  0.
         11    1    3    3    0    0 -0.41586638645E+02  0.25868313451E+02 -0.36450716082E+02  0.61051395213E+02  0.00000000000E+00 0. -1.
        -12    1    3    3    0    0  0.28654063257E+02  0.10529575344E+02 -0.80950151676E+02  0.86515052762E+02  0.00000000000E+00 0.  1.
        -11    1    4    4    0    0 -0.12107098064E+01 -0.66264091866E+02 -0.88065538426E+01  0.66857692748E+02  0.00000000000E+00 0.  1.
         11    1    4    4    0    0  0.31261087287E+02  0.45987054574E+01  0.38674866244E+02  0.49941455218E+02  0.00000000000E+00 0. -1.
         -1    1    1    2    0  502 -0.17117802092E+02  0.25267497613E+02  0.12431574977E+02  0.32954660376E+02  0.00000000000E+00 0.  1.
<scales pt_clust_5="13000.00000" pt_clust_6="13000.00000" pt_clust_7="13000.00000" pt_clust_8="13000.00000" pt_clust_9="30.51992"></scales>
<clustering>
<clus scale="   30.520">  1  9  2 -1</clus>
<clus scale="   80.628">  5  6 -1 -1</clus>
<clus scale="   89.690">  7  8 -1 -1</clus>
<clus scale="   91.702">  2  5  1 -1</clus>
<clus scale="   30.520">  1  5  2 -1</clus>
</clustering>
</event>
<event>
 9    1  0.7835476E-005  0.1007303E+03  0.7546771E-02  0.1283756E+00
          3   -1    0    0  502    0 -0.00000000000E+00  0.00000000000E+00  0.38014253980E+02  0.38014253980E+02  0.00000000000E+00 0. -1.
         21   -1    0    0  501  502  0.00000000000E+00 -0.00000000000E+00 -0.59414940795E+03  0.59414940795E+03  0.00000000000E+00 0. -1.
        -24    2    1    2    0    0  0.27690948686E+02  0.14503597781E+02 -0.53991423166E+02  0.10573134284E+03  0.85363341643E+02 0.  0.
         23    2    1    2    0    0 -0.54040602554E+02  0.23418822343E+02 -0.36110253742E+03  0.37802398900E+03  0.95069794184E+02 0.  0.
         13    1    3    3    0    0  0.51045211999E+02  0.53127261503E+01 -0.60957617031E+02  0.79684815375E+02  0.00000000000E+00 0. -1.
        -14    1    3    3    0    0 -0.23354263313E+02  0.91908716302E+01  0.69661938657E+01  0.26046527469E+02  0.00000000000E+00 0.  1.
        -13    1    4    4    0    0 -0.20898227206E+02 -0.36955502951E+02 -0.15556354345E+03  0.16125278648E+03  0.00000000000E+00 0.  1.
         13    1    4    4    0    0 -0.33142375348E+02  0.60374325295E+02 -0.20553899397E+03  0.21677120252E+03  0.00000000000E+00 0. -1.
          4    1    1    2  501    0  0.26349653868E+02 -0.37922420124E+02 -0.14104119339E+03  0.14840833009E+03  0.00000000000E+00 0. -1.
<scales pt_clust_5="13000.00000" pt_clust_6="13000.00000" pt_clust_7="13000.00000" pt_clust_8="13000.00000" pt_clust_9="46.17807"></scales>
<clustering>
<clus scale="   46.178">  2  9  1 -1</clus>
<clus scale="   85.363">  5  6 -1 -1</clus>
<clus scale="   91.625">  1  5  2 -1</clus>
<clus scale="   95.070">  7  8 -1 -1</clus>
<clus scale="   46.178">  2  5  1 -1</clus>
</clustering>
</event>
<event>
 9    1  0.7835476E-005  0.9810825E+02  0.7546771E-02  0.1289067E+00
         21   -1    0    0  501  502  0.00000000000E+00  0.00000000000E+00  0.57693596902E+02  0.57693596902E+02  0.00000000000E+00 0. -1.
         -2   -1    0    0    0  501 -0.00000000000E+00 -0.00000000000E+00 -0.36896222102E+03  0.36896222102E+03  0.00000000000E+00 0.  1.
         23    2    1    2    0    0  0.29126863117E+02 -0.23905605276E+02 -0.26846858035E+03  0.28538282619E+03  0.89152267103E+02 0.  0.
        -24    2    1    2    0    0 -0.60253421854E+02  0.99753639509E+01 -0.32830893934E+02  0.10574415513E+03  0.79837184418E+02 0.  0.
         11    1    4    4    0    0 -0.68660792437E+02  0.21792221460E+02 -0.24482315312E+01  0.72077730068E+02  0.00000000000E+00 0. -1.
        -12    1    4    4    0    0  0.84073705824E+01 -0.11816857509E+02 -0.30382662403E+02  0.33666425058E+02  0.00000000000E+00 0.  1.
        -13    1    3    3    0    0  0.46526748860E+02  0.34661401272E+01 -0.23171127041E+03  0.23636172559E+03  0.00000000000E+00 0.  1.
         13    1    3    3    0    0 -0.17399885743E+02 -0.27371745403E+02 -0.36757309940E+02  0.49021100603E+02  0.00000000000E+00 0. -1.
         -1    1    1    2    0  502  0.31126558737E+02  0.13930241325E+02 -0.99691498318E+01  0.35528836606E+02  0.00000000000E+00 0.  1.
<scales pt_clust_5="13000.00000" pt_clust_6="13000.00000" pt_clust_7="13000.00000" pt_clust_8="13000.00000" pt_clust_9="34.10153"></scales>
<clustering>
<clus scale="   34.102">  1  9  2 -1</clus>
<clus scale="   79.837">  5  6 -1 -1</clus>
<clus scale="   89.152">  7  8 -1 -1</clus>
<clus scale="   89.728">  1  5  2 -1</clus>
<clus scale="   34.102">  1  5  2 -1</clus>
</clustering>
</event>
<event>
 9    1  0.7835476E-005  0.2102708E+03  0.7546771E-02  0.1181384E+00
         21   -1    0    0  501  502  0.00000000000E+00  0.00000000000E+00  0.12540678965E+03  0.12540678965E+03  0.00000000000E+00 0. -1.
          1   -1    0    0  502    0 -0.00000000000E+00 -0.00000000000E+00 -0.61848922397E+03  0.61848922397E+03  0.00000000000E+00 0. -1.
        -24    2    1    2    0    0  0.17022291368E+02  0.68046591788E+01 -0.16382813621E+02  0.84570337001E+02  0.80917757806E+02 0.  0.
         23    2    1    2    0    0 -0.69503163569E+02  0.17564342300E+03 -0.90221335106E+02  0.22873653385E+03  0.92191164532E+02 0.  0.
         13    1    3    3    0    0  0.49747359826E+02  0.35221695969E+01 -0.69408137524E+01  0.50352560847E+02  0.00000000000E+00 0. -1.
        -14    1    3    3    0    0 -0.32725068457E+02  0.32824895820E+01 -0.94419998687E+01  0.34217776154E+02  0.00000000000E+00 0.  1.
        -11    1    4    4    0    0  0.12547549009E+02  0.60911601656E+02 -0.55778980446E+02  0.83540163167E+02  0.00000000000E+00 0.  1.
         11    1    4    4    0    0 -0.82050712578E+02  0.11473182135E+03 -0.34442354660E+02  0.14519637068E+03  0.00000000000E+00 0. -1.
          2    1    1    2  501    0  0.52480872201E+02 -0.18244808218E+03 -0.38647828559E+03  0.43058914277E+03  0.00000000000E+00 0. -1.
<scales pt_clust_5="13000.00000" pt_clust_6="13000.00000" pt_clust_7="13000.00000" pt_clust_8="13000.00000" pt_clust_9="188.98312"></scales>
<clustering>
<clus scale="   80.918">  5  6 -1 -1</clus>
<clus scale="   82.968">  2  5  1 -1</clus>
<clus scale="   92.191">  7  8 -1 -1</clus>
<clus scale="  188.983">  1  9  2 -1</clus>
<clus scale="  188.983">  1  5  2 -1</clus>
</clustering>
</event>
<event>
 9    1  0.7835476E-005  0.1808048E+03  0.7546771E-02  0.1168251E+00
         21   -1    0    0  501  502  0.00000000000E+00  0.00000000000E+00  0.24562119562E+03  0.24562119562E+03  0.00000000000E+00 0. -1.
          1   -1    0    0  502    0 -0.00000000000E+00 -0.00000000000E+00 -0.82346636463E+03  0.82346636463E+03  0.00000000000E+00 0. -1.
         23    2    1    2    0    0  0.14874540399E+03  0.67699439850E+02 -0.76596038607E+03  0.78840034362E+03  0.90395682527E+02 0.  0.
        -24    2    1    2    0    0 -0.59263307600E+02 -0.63780544397E+02  0.96486964341E+02  0.15255392660E+03  0.79892858024E+02 0.  0.
         11    1    4    4    0    0 -0.63965765133E+02 -0.76990671248E+02  0.68621661746E+02  0.12135944557E+03  0.00000000000E+00 0. -1.
        -12    1    4    4    0    0  0.47024575328E+01  0.13210126851E+02  0.27865302595E+02  0.31194481034E+02  0.00000000000E+00 0.  1.
        -11    1    3    3    0    0  0.10418430204E+03  0.81568180474E+02 -0.65132401944E+03  0.66462825335E+03  0.00000000000E+00 0. -1.
         11    1    3    3    0    0  0.44561101948E+02 -0.13868740624E+02 -0.11463636663E+03  0.12377209026E+03  0.00000000000E+00 0.  1.
          2    1    1    2  501    0 -0.89482096389E+02 -0.39188954524E+01  0.91628252727E+02  0.12813329003E+03  0.00000000000E+00 0. -1.
<scales pt_clust_5="13000.00000" pt_clust_6="13000.00000" pt_clust_7="13000.00000" pt_clust_8="13000.00000" pt_clust_9="89.56787"></scales>
<clustering>
<clus scale="   79.893">  5  6 -1 -1</clus>
<clus scale="   89.568">  1  9  2 -1</clus>
<clus scale="   90.396">  7  8 -1 -1</clus>
<clus scale="  175.789">  1  5  2 -1</clus>
<clus scale="   89.568">  1  5  2 -1</clus>
</clustering>
</event>
<event>
 9    1  0.7835476E-005  0.1312670E+03  0.7546771E-02  0.1241194E+00
         21   -1    0    0  501  502  0.00000000000E+00  0.00000000000E+00  0.23172100841E+03  0.23172100841E+03  0.00000000000E+00 0. -1.
          1   -1    0    0  502    0 -0.00000000000E+00 -0.00000000000E+00 -0.14427353748E+03  0.14427353748E+03  0.00000000000E+00 0. -1.
        -24    2    1    2    0    0 -0.26127276212E+02  0.41148989961E+02 -0.26238692563E+02  0.98823556063E+02  0.81864230946E+02 0.  0.
         23    2    1    2    0    0 -0.80086309019E+02  0.14093703494E+02  0.97203736238E+02  0.15632087077E+03  0.91516112952E+02 0.  0.
         13    1    3    3    0    0 -0.25500514127E+02 -0.81176582037E+01 -0.39580452515E+02  0.47778497431E+02  0.00000000000E+00 0. -1.
        -14    1    3    3    0    0 -0.62676208482E+00  0.49266648165E+02  0.13341759952E+02  0.51045058632E+02  0.00000000000E+00 0.  1.
        -13    1    4    4    0    0  0.35653725066E+01 -0.27878547586E+02  0.29947356533E+02  0.41070299000E+02  0.00000000000E+00 0.  1.
         13    1    4    4    0    0 -0.83651681526E+02  0.41972251080E+02  0.67256379705E+02  0.11525057177E+03  0.00000000000E+00 0. -1.
          2    1    1    2  501    0  0.10621358523E+03 -0.55242693455E+02  0.16482427251E+02  0.12085011906E+03  0.00000000000E+00 0. -1.
<scales pt_clust_5="13000.00000" pt_clust_6="13000.00000" pt_clust_7="13000.00000" pt_clust_8="13000.00000" pt_clust_9="94.10538"></scales>
<clustering>
<clus scale="   81.864">  5  6 -1 -1</clus>
<clus scale="   91.516">  7  8 -1 -1</clus>
<clus scale="   95.277">  2  5  1 -1</clus>
<clus scale="   94.105">  1  9  2 -1</clus>
<clus scale="   94.105">  1  5  2 -1</clus>
</clustering>
</event>
<event>
 9    1  0.7835476E-005  0.1286103E+03  0.7546771E-02  0.1232095E+00
          1   -1    0    0  502    0 -0.00000000000E+00  0.00000000000E+00  0.38432595873E+03  0.38432595873E+03  0.00000000000E+00 0. -1.
         21   -1    0    0  501  502  0.00000000000E+00 -0.00000000000E+00 -0.72810245651E+02  0.72810245651E+02  0.00000000000E+00 0.  1.
         23    2    1    2    0    0  0.17100361818E+02  0.93011502412E+02  0.27347216131E+03  0.30259268499E+03  0.88497164036E+02 0.  0.
        -24    2    1    2    0    0  0.48091919638E+01 -0.90529505816E+02  0.12216205654E+02  0.12058412214E+03  0.78565737327E+02 0.  0.
         13    1    4    4    0    0  0.29802716956E+02 -0.43981305479E+01  0.42984787317E+00  0.30128562187E+02  0.00000000000E+00 0. -1.
        -14    1    4    4    0    0 -0.24993524992E+02 -0.86131375268E+02  0.11786357781E+02  0.90455559956E+02  0.00000000000E+00 0.  1.
        -13    1    3    3    0    0  0.47821066220E+02  0.53682192694E+02  0.20927450011E+03  0.22127911918E+03  0.00000000000E+00 0.  1.
         13    1    3    3    0    0 -0.30720704402E+02  0.39329309718E+02  0.64197661200E+02  0.81313565814E+02  0.00000000000E+00 0. -1.
          2    1    1    2  501    0 -0.21909553782E+02 -0.24819965953E+01  0.25827346111E+02  0.33959397244E+02  0.00000000000E+00 0. -1.
<scales pt_clust_5="13000.00000" pt_clust_6="13000.00000" pt_clust_7="13000.00000" pt_clust_8="13000.00000" pt_clust_9="22.04970"></scales>
<clustering>
<clus scale="   22.050">  2  9  1 -1</clus>
<clus scale="   78.566">  5  6 -1 -1</clus>
<clus scale="   88.497">  7  8 -1 -1</clus>
<clus scale="  121.990">  2  5  1 -1</clus>
<clus scale="   22.050">  2  5  1 -1</clus>
</clustering>
</event>
<event>
 9    1  0.7835476E-005  0.1177480E+03  0.7546771E-02  0.1249924E+00
         21   -1    0    0  501  502  0.00000000000E+00  0.00000000000E+00  0.13996814787E+03  0.13996814787E+03  0.00000000000E+00 0. -1.
          1   -1    0    0  502    0 -0.00000000000E+00 -0.00000000000E+00 -0.48754441189E+03  0.48754441189E+03  0.00000000000E+00 0. -1.
         23    2    1    2    0    0 -0.90349415671E+02 -0.35045581995E+02 -0.36161208957E+03  0.38558173664E+03  0.92297142824E+02 0.  0.
        -24    2    1    2    0    0  0.37432761833E+02 -0.14468624794E+02 -0.80712691670E+02  0.12264498807E+03  0.83166710529E+02 0.  0.
         11    1    4    4    0    0  0.15088944898E+02 -0.26734285079E+02  0.68452309195E+01  0.31452431435E+02  0.00000000000E+00 0. -1.
        -12    1    4    4    0    0  0.22343816934E+02  0.12265660286E+02 -0.87557922589E+02  0.91192556635E+02  0.00000000000E+00 0.  1.
        -11    1    3    3    0    0 -0.35584077507E+02 -0.16496713224E+02 -0.31115804100E+02  0.50065570844E+02  0.00000000000E+00 0.  1.
         11    1    3    3    0    0 -0.54765338164E+02 -0.18548868772E+02 -0.33049628547E+03  0.33551616579E+03  0.00000000000E+00 0. -1.
          2    1    1    2  501    0  0.52916653838E+02  0.49514206789E+02  0.94748517228E+02  0.11928583505E+03  0.00000000000E+00 0. -1.
<scales pt_clust_5="13000.00000" pt_clust_6="13000.00000" pt_clust_7="13000.00000" pt_clust_8="13000.00000" pt_clust_9="72.46950"></scales>
<clustering>
<clus scale="   72.470">  1  9  2 -1</clus>
<clus scale="   83.167">  5  6 -1 -1</clus>
<clus scale="   92.297">  7  8 -1 -1</clus>
<clus scale="  110.736">  1  5  2 -1</clus>
<clus scale="   72.470">  1  5  2 -1</clus>
</clustering>
</event>
<event>
 9    1  0.7835476E-005  0.1735205E+03  0.7546771E-02  0.1194945E+00
          1   -1    0    0  502    0 -0.00000000000E+00  0.00000000000E+00  0.45356674628E+02  0.45356674628E+02  0.00000000000E+00 0. -1.
         21   -1    0    0  501  502  0.00000000000E+00 -0.00000000000E+00 -0.12038979826E+04  0.12038979826E+04  0.00000000000E+00 0. -1.
         23    2    1    2    0    0 -0.44916165707E+02 -0.39329153888E+02 -0.31172156103E+03  0.33033141023E+03  0.91565630461E+02 0.  0.
        -24    2    1    2    0    0  0.60360881531E+02  0.16036434689E+03 -0.71343841280E+03  0.73815091093E+03  0.80698442823E+02 0.  0.
         13    1    4    4    0    0  0.61082430135E+02  0.14551332167E+03 -0.50271865660E+03  0.52690723828E+03  0.00000000000E+00 0. -1.
        -14    1    4    4    0    0 -0.72154860426E+00  0.14851025217E+02 -0.21071975620E+03  0.21124367265E+03  0.00000000000E+00 0.  1.
        -11    1    3    3    0    0 -0.66537090202E+02 -0.36413868719E+02 -0.28917743603E+03  0.29895943490E+03  0.00000000000E+00 0. -1.
         11    1    3    3    0    0  0.21620924495E+02 -0.29152851688E+01 -0.22544125004E+02  0.31371975325E+02  0.00000000000E+00 0.  1.
          2    1    1    2  501    0 -0.15444715824E+02 -0.12103519300E+03 -0.13338133413E+03  0.18077233606E+03  0.00000000000E+00 0. -1.
<scales pt_clust_5="13000.00000" pt_clust_6="13000.00000" pt_clust_7="13000.00000" pt_clust_8="13000.00000" pt_clust_9="153.61366"></scales>
<clustering>
<clus scale="   80.698">  5  6 -1 -1</clus>
<clus scale="   91.566">  7  8 -1 -1</clus>
<clus scale="  109.309">  1  7  2 -1</clus>
<clus scale="  153.614">  2  9  1 -1</clus>
<clus scale="  153.614">  2  5  1 -1</clus>
</clustering>
</event>
<event>
 9    1  0.7835476E-005  0.1928046E+03  0.7546771E-02  0.1186629E+00
         21   -1    0    0  501  502  0.00000000000E+00  0.00000000000E+00  0.55116074725E+02  0.55116074725E+02  0.00000000000E+00 0. -1.
          1   -1    0    0  502    0 -0.00000000000E+00 -0.00000000000E+00 -0.11729029964E+04  0.11729029964E+04  0.00000000000E+00 0. -1.
        -24    2    1    2    0    0  0.52140753783E+02  0.36867364711E+01 -0.12066596504E+03  0.15402723336E+03  0.80198898156E+02 0.  0.
         23    2    1    2    0    0  0.13108972240E+03 -0.81040954544E+02 -0.31153887852E+03  0.36014320656E+03  0.94310682124E+02 0.  0.
         13    1    3    3    0    0  0.62206952418E+02  0.94782558332E+01 -0.44717114330E+02  0.77195612420E+02  0.00000000000E+00 0. -1.
        -14    1    3    3    0    0 -0.10066198636E+02 -0.57915193621E+01 -0.75948850712E+02  0.76831620938E+02  0.00000000000E+00 0.  1.
        -13    1    4    4    0    0  0.91453896316E+02 -0.14745876831E+02 -0.10712382603E+03  0.14162192675E+03  0.00000000000E+00 0.  1.
         13    1    4    4    0    0  0.39635826088E+02 -0.66295077714E+02 -0.20441505250E+03  0.21852127980E+03  0.00000000000E+00 0. -1.
          2    1    1    2  501    0 -0.18323047619E+03  0.77354218073E+02 -0.68558207806E+03  0.71384863117E+03  0.00000000000E+00 0. -1.
<scales pt_clust_5="13000.00000" pt_clust_6="13000.00000" pt_clust_7="13000.00000" pt_clust_8="13000.00000" pt_clust_9="168.16405"></scales>
<clustering>
<clus scale="   80.199">  5  6 -1 -1</clus>
<clus scale="   94.311">  7  8 -1 -1</clus>
<clus scale="   95.729">  2  5  1 -1</clus>
<clus scale="  168.164">  1  9  2 -1</clus>
<clus scale="  168.164">  1  5  2 -1</clus>
</clustering>
</event>
<event>
 9    1  0.7835476E-005  0.9672599E+02  0.7546771E-02  0.1295018E+00
         -2   -1    0    0    0  501 -0.00000000000E+00  0.00000000000E+00  0.17913653301E+03  0.17913653301E+03  0.00000000000E+00 0.  1.
         21   -1    0    0  501  502  0.00000000000E+00 -0.00000000000E+00 -0.28448526183E+03  0.28448526183E+03  0.00000000000E+00 0.  1.
        -24    2    1    2    0    0 -0.21201388434E+02  0.98055427326E+01  0.14176354096E+03  0.16436585228E+03  0.79834731221E+02 0.  0.
         23    2    1    2    0    0  0.29473152826E+02 -0.57333882618E+02 -0.12959425153E+03  0.17222110563E+03  0.93325228957E+02 0.  0.
         13    1    3    3    0    0  0.92092145108E+01 -0.26780780528E+02  0.23186798220E+02  0.36601194643E+02  0.00000000000E+00 0. -1.
        -14    1    3    3    0    0 -0.30410602945E+02  0.36586323261E+02  0.11857674274E+03  0.12776465764E+03  0.00000000000E+00 0.  1.
        -13    1    4    4    0    0  0.55967699219E+02 -0.63473509088E+02 -0.84691738325E+02  0.11972451818E+03  0.00000000000E+00 0.  1.
         13    1    4    4    0    0 -0.26494546393E+02  0.61396264703E+01 -0.44902513207E+02  0.52496587452E+02  0.00000000000E+00 0. -1.
         -1    1    1    2    0  502 -0.82717643921E+01  0.47528339885E+02 -0.11751801826E+03  0.12703483693E+03  0.00000000000E+00 0.  1.
<scales pt_clust_5="13000.00000" pt_clust_6="13000.00000" pt_clust_7="13000.00000" pt_clust_8="13000.00000" pt_clust_9="48.24277"></scales>
<clustering>
<clus scale="   48.243">  2  9  1 -1</clus>
<clus scale="   79.835">  5  6 -1 -1</clus>
<clus scale="   83.785">  1  5  2 -1</clus>
<clus scale="   93.325">  7  8 -1 -1</clus>
<clus scale="   48.243">  2  5  1 -1</clus>
</clustering>
</event>
<event>
 9    1  0.7835476E-005  0.1510981E+03  0.7546771E-02  0.1214659E+00
          1   -1    0    0  502    0 -0.00000000000E+00  0.00000000000E+00  0.38164589754E+03  0.38164589754E+03  0.00000000000E+00 0. -1.
         21   -1    0    0  501  502  0.00000000000E+00 -0.00000000000E+00 -0.10597422602E+03  0.10597422602E+03  0.00000000000E+00 0. -1.
        -24    2    1    2    0    0 -0.31213399638E+02  0.65918669619E+02  0.39450262552E+02  0.11522841577E+03  0.80010732187E+02 0.  0.
         23    2    1    2    0    0 -0.64218913859E+02 -0.12872503124E+03  0.16733253029E+03  0.23898390019E+03  0.91754707201E+02 0.  0.
         11    1    3    3    0    0 -0.53750272775E+02  0.20437082697E+02  0.20682318036E+02  0.61110755615E+02  0.00000000000E+00 0. -1.
        -12    1    3    3    0    0  0.22536873137E+02  0.45481586922E+02  0.18767944517E+02  0.54117660159E+02  0.00000000000E+00 0.  1.
        -11    1    4    4    0    0 -0.14358364733E+02 -0.11593507986E+03  0.13345068771E+03  0.17735893389E+03  0.00000000000E+00 0. -1.
         11    1    4    4    0    0 -0.49860549126E+02 -0.12789951380E+02  0.33881842580E+02  0.61624966305E+02  0.00000000000E+00 0.  1.
          2    1    1    2  501    0  0.95432313497E+02  0.62806361624E+02  0.68888878682E+02  0.13340780759E+03  0.00000000000E+00 0. -1.
<scales pt_clust_5="13000.00000" pt_clust_6="13000.00000" pt_clust_7="13000.00000" pt_clust_8="13000.00000" pt_clust_9="120.04883"></scales>
<clustering>
<clus scale="   80.011">  5  6 -1 -1</clus>
<clus scale="   91.755">  7  8 -1 -1</clus>
<clus scale="  108.265">  1  5  2 -1</clus>
<clus scale="  120.049">  2  9  1 -1</clus>
<clus scale="  120.049">  2  5  1 -1</clus>
</clustering>
</event>
<event>
 9    1  0.7835476E-005  0.1522051E+03  0.7546771E-02  0.1199646E+00
         -2   -1    0    0    0  501 -0.00000000000E+00  0.00000000000E+00  0.13511611709E+03  0.13511611709E+03  0.00000000000E+00 0.  1.
         21   -1    0    0  501  502  0.00000000000E+00 -0.00000000000E+00 -0.21099746830E+03  0.21099746830E+03  0.00000000000E+00 0.  1.
        -24    2    1    2    0    0 -0.11695472364E+03 -0.37304330457E+02 -0.40281275462E+02  0.15409319450E+03  0.83976847904E+02 0.  0.
         23    2    1    2    0    0  0.10058725627E+03  0.61967002532E+02 -0.50022445691E+02  0.15909401641E+03  0.94079516674E+02 0.  0.
         11    1    3    3    0    0 -0.27299452213E+02  0.16511947811E+02  0.15618430870E+02  0.35522385822E+02  0.00000000000E+00 0. -1.
        -12    1    3    3    0    0 -0.89655271429E+02 -0.53816278267E+02 -0.55899706332E+02  0.11857080867E+03  0.00000000000E+00 0.  1.
        -11    1    4    4    0    0  0.33928464838E+02  0.60783017751E+02  0.88246924883E+01  0.70168306027E+02  0.00000000000E+00 0. -1.
         11    1    4    4    0    0  0.66658791433E+02  0.11839847810E+01 -0.58847138180E+02  0.88925710383E+02  0.00000000000E+00 0.  1.
         -1    1    1    2    0  502  0.16367467371E+02 -0.24662672075E+02  0.14422369946E+02  0.32926374487E+02  0.00000000000E+00 0.  1.
<scales pt_clust_5="13000.00000" pt_clust_6="13000.00000" pt_clust_7="13000.00000" pt_clust_8="13000.00000" pt_clust_9="29.59970"></scales>
<clustering>
<clus scale="   29.600">  2  9  1 -1</clus>
<clus scale="   83.977">  5  6 -1 -1</clus>
<clus scale="   94.080">  7  8 -1 -1</clus>
<clus scale="  146.176">  1  5  2 -1</clus>
<clus scale="   29.600">  2  5  1 -1</clus>
</clustering>
</event>
<event>
 9    1  0.7835476E-005  0.1880421E+03  0.7546771E-02  0.1182343E+00
         21   -1    0    0  501  502  0.00000000000E+00  0.00000000000E+00  0.14513509384E+03  0.14513509384E+03  0.00000000000E+00 0.  1.
          3   -1    0    0  502    0 -0.00000000000E+00 -0.00000000000E+00 -0.41646761612E+03  0.41646761612E+03  0.00000000000E+00 0. -1.
        -24    2    1    2    0    0 -0.74659098838E+02  0.34324872737E+02 -0.79167517930E+02  0.13841603794E+03  0.78353849538E+02 0.  0.
         23    2    1    2    0    0  0.12659872017E+03  0.12207654524E+03 -0.42742743628E+02  0.20073186806E+03  0.86812567504E+02 0.  0.
         11    1    3    3    0    0 -0.24446965839E+02 -0.25423503760E+02 -0.28730731541E+02  0.45491357609E+02  0.00000000000E+00 0. -1.
        -12    1    3    3    0    0 -0.50212132999E+02  0.59748376497E+02 -0.50436786389E+02  0.92924680336E+02  0.00000000000E+00 0.  1.
        -13    1    4    4    0    0  0.73139889005E+01  0.62203893294E+02 -0.15247588905E+02  0.64461676537E+02  0.00000000000E+00 0. -1.
         13    1    4    4    0    0  0.11928473127E+03  0.59872651942E+02 -0.27495154723E+02  0.13627019152E+03  0.00000000000E+00 0.  1.
          4    1    1    2  501    0 -0.51939621330E+02 -0.15640141797E+03 -0.14942226072E+03  0.22245480396E+03  0.00000000000E+00 0. -1.
<scales pt_clust_5="13000.00000" pt_clust_6="13000.00000" pt_clust_7="13000.00000" pt_clust_8="13000.00000" pt_clust_9="166.80354"></scales>
<clustering>
<clus scale="   78.354">  5  6 -1 -1</clus>
<clus scale="   86.813">  7  8 -1 -1</clus>
<clus scale="  113.541">  2  5  1 -1</clus>
<clus scale="  166.804">  1  9  2 -1</clus>
<clus scale="  166.804">  1  5  2 -1</clus>
</clustering>
</event>
<event>
 9    1  0.7835476E-005  0.1255293E+03  0.7546771E-02  0.1255561E+00
         21   -1    0    0  501  502  0.00000000000E+00  0.00000000000E+00  0.76488495817E+03  0.76488495817E+03  0.00000000000E+00 0. -1.
          1   -1    0    0  502    0 -0.00000000000E+00 -0.00000000000E+00 -0.75496476204E+02  0.75496476204E+02  0.00000000000E+00 0. -1.
        -24    2    1    2    0    0 -0.34527130744E+01 -0.36392858106E+02  0.20600657800E+03  0.22161595306E+03  0.73065444109E+02 0.  0.
         23    2    1    2    0    0  0.70098929664E+02  0.88441404173E+02  0.18701390004E+02  0.14645335000E+03  0.91449985374E+02 0.  0.
         13    1    3    3    0    0  0.70179822052E+01 -0.51716135748E+02  0.89216852096E+02  0.10336081206E+03  0.00000000000E+00 0. -1.
        -14    1    3    3    0    0 -0.10470695280E+02  0.15323277641E+02  0.11678972590E+03  0.11825514100E+03  0.00000000000E+00 0.  1.
        -11    1    4    4    0    0  0.36063199568E+02 -0.51084898092E+01 -0.17650665683E+02  0.40474646759E+02  0.00000000000E+00 0.  1.
         11    1    4    4    0    0  0.34035730096E+02  0.93549893982E+02  0.36352055687E+02  0.10597870324E+03  0.00000000000E+00 0. -1.
          2    1    1    2  501    0 -0.66646216590E+02 -0.52048546067E+02  0.46468051396E+03  0.47231213132E+03  0.00000000000E+00 0. -1.
<scales pt_clust_5="13000.00000" pt_clust_6="13000.00000" pt_clust_7="13000.00000" pt_clust_8="13000.00000" pt_clust_9="85.99134"></scales>
<clustering>
<clus scale="   73.065">  5  6 -1 -1</clus>
<clus scale="   81.700">  2  5  1 -1</clus>
<clus scale="   85.991">  1  9  2 -1</clus>
<clus scale="   91.450">  7  8 -1 -1</clus>
<clus scale="   85.991">  1  5  2 -1</clus>
</clustering>
</event>
<event>
 9    1  0.7835476E-005  0.1114027E+03  0.7546771E-02  0.1261359E+00
         -4   -1    0    0    0  501 -0.00000000000E+00  0.00000000000E+00  0.96267644789E+02  0.96267644789E+02  0.00000000000E+00 0.  1.
         21   -1    0    0  501  502  0.00000000000E+00 -0.00000000000E+00 -0.23224652781E+03  0.23224652781E+03  0.00000000000E+00 0. -1.
        -24    2    1    2    0    0 -0.64955392736E+01 -0.69705691200E+02 -0.43310937699E+02  0.11530040245E+03  0.80729610823E+02 0.  0.
         23    2    1    2    0    0 -0.33047866107E+02  0.58093612093E+02 -0.11974976825E+03  0.16389900133E+03  0.89754367144E+02 0.  0.
         13    1    3    3    0    0 -0.12510596027E+02  0.16184260476E+02 -0.49808805243E+01  0.21053609451E+02  0.00000000000E+00 0. -1.
        -14    1    3    3    0    0  0.60150567535E+01 -0.85889951677E+02 -0.38330057175E+02  0.94246792995E+02  0.00000000000E+00 0.  1.
        -11    1    4    4    0    0 -0.57478646192E+02  0.64463602308E+02 -0.97435633330E+02  0.13020389177E+03  0.00000000000E+00 0. -1.
         11    1    4    4    0    0  0.24430780085E+02 -0.63699902152E+01 -0.22314134919E+02  0.33695109557E+02  0.00000000000E+00 0.  1.
         -3    1    1    2    0  502  0.39543405381E+02  0.11612079107E+02  0.27081822931E+02  0.49314768818E+02  0.00000000000E+00 0.  1.
<scales pt_clust_5="13000.00000" pt_clust_6="13000.00000" pt_clust_7="13000.00000" pt_clust_8="13000.00000" pt_clust_9="41.21314"></scales>
<clustering>
<clus scale="   41.213">  2  9  1 -1</clus>
<clus scale="   80.730">  5  6 -1 -1</clus>
<clus scale="   89.754">  7  8 -1 -1</clus>
<clus scale="  104.269">  1  5  2 -1</clus>
<clus scale="   41.213">  2  5  1 -1</clus>
</clustering>
</event>
<event>
 9    1  0.7835476E-005  0.1109309E+03  0.7546771E-02  0.1262813E+00
         -2   -1    0    0    0  501 -0.00000000000E+00  0.00000000000E+00  0.37871357775E+03  0.37871357775E+03  0.00000000000E+00 0.  1.
         21   -1    0    0  501  502  0.00000000000E+00 -0.00000000000E+00 -0.55911760149E+02  0.55911760149E+02  0.00000000000E+00 0. -1.
        -24    2    1    2    0    0  0.37874895871E+02 -0.64069689595E+02  0.13034942465E+03  0.17020106906E+03  0.80237139391E+02 0.  0.
         23    2    1    2    0    0  0.20418882580E+02  0.60020610992E+02  0.76138501963E+02  0.13425714212E+03  0.90600795912E+02 0.  0.
         11    1    3    3    0    0  0.52894473723E+02 -0.63462849517E+02  0.70859120302E+02  0.10884104717E+03  0.00000000000E+00 0. -1.
        -12    1    3    3    0    0 -0.15019577852E+02 -0.60684007885E+00  0.59490304353E+02  0.61360021885E+02  0.00000000000E+00 0.  1.
        -11    1    4    4    0    0 -0.34754386531E+02  0.23432286156E+02  0.43634678495E+02  0.60505574825E+02  0.00000000000E+00 0.  1.
         11    1    4    4    0    0  0.55173269110E+02  0.36588324836E+02  0.32503823469E+02  0.73751567297E+02  0.00000000000E+00 0. -1.
         -1    1    1    2    0  502 -0.58293778451E+02  0.40490786038E+01  0.11631389099E+03  0.13016712673E+03  0.00000000000E+00 0.  1.
<scales pt_clust_5="13000.00000" pt_clust_6="13000.00000" pt_clust_7="13000.00000" pt_clust_8="13000.00000" pt_clust_9="58.43426"></scales>
<clustering>
<clus scale="   58.434">  2  9  1 -1</clus>
<clus scale="   80.237">  5  6 -1 -1</clus>
<clus scale="   90.601">  7  8 -1 -1</clus>
<clus scale="  102.641">  1  5  2 -1</clus>
<clus scale="   58.434">  2  5  1 -1</clus>
</clustering>
</event>
<event>
 9    1  0.7835476E-005  0.1717738E+03  0.7546771E-02  0.1177396E+00
         21   -1    0    0  501  502  0.00000000000E+00  0.00000000000E+00  0.51650055738E+03  0.51650055738E+03  0.00000000000E+00 0. -1.
          3   -1    0    0  502    0 -0.00000000000E+00 -0.00000000000E+00 -0.87665406664E+02  0.87665406664E+02  0.00000000000E+00 0. -1.
        -24    2    1    2    0    0 -0.56078323089E+02  0.12775118753E+03  0.92503546058E+02  0.18575447516E+03  0.80515059283E+02 0.  0.
         23    2    1    2    0    0  0.68461189223E+02 -0.14706118016E+03  0.34654966738E+03  0.39329934054E+03  0.90960288973E+02 0.  0.
         11    1    3    3    0    0 -0.55513565205E+02  0.13498012365E+03  0.69533686836E+02  0.16166732295E+03  0.00000000000E+00 0. -1.
        -12    1    3    3    0    0 -0.56475788421E+00 -0.72289361234E+01  0.22969859222E+02  0.24087152211E+02  0.00000000000E+00 0.  1.
        -11    1    4    4    0    0  0.87906115532E+02 -0.91766266036E+02  0.22681730325E+03  0.25998965707E+03  0.00000000000E+00 0. -1.
         11    1    4    4    0    0 -0.19444926309E+02 -0.55294914124E+02  0.11973236413E+03  0.13330968347E+03  0.00000000000E+00 0.  1.
          4    1    1    2  501    0 -0.12382866134E+02  0.19309992629E+02 -0.10218062718E+02  0.25112148349E+02  0.00000000000E+00 0. -1.
<scales pt_clust_5="13000.00000" pt_clust_6="13000.00000" pt_clust_7="13000.00000" pt_clust_8="13000.00000" pt_clust_9="22.93931"></scales>
<clustering>
<clus scale="   22.939">  1  9  2 -1</clus>
<clus scale="   80.515">  5  6 -1 -1</clus>
<clus scale="   90.960">  7  8 -1 -1</clus>
<clus scale="  166.479">  2  5  1 -1</clus>
<clus scale="   22.939">  1  5  2 -1</clus>
</clustering>
</event>
<event>
 9    1  0.7835476E-005  0.1056778E+03  0.7546771E-02  0.1273537E+00
         21   -1    0    0  501  502  0.00000000000E+00  0.00000000000E+00  0.90493873730E+02  0.90493873730E+02  0.00000000000E+00 0.  1.
         -2   -1    0    0    0  501 -0.00000000000E+00 -0.00000000000E+00 -0.28132005510E+03  0.28132005510E+03  0.00000000000E+00 0.  1.
         23    2    1    2    0    0  0.62887933204E+02 -0.30515560647E+01 -0.22466437505E+03  0.24929557967E+03  0.87806608456E+02 0.  0.
        -24    2    1    2    0    0 -0.41585150259E+02  0.12781723844E+02  0.90228872914E+01  0.88396740797E+02  0.76419068968E+02 0.  0.
         11    1    4    4    0    0 -0.47261598056E+02 -0.20441089848E+02 -0.53216130366E+01  0.51766942833E+02  0.00000000000E+00 0. -1.
        -12    1    4    4    0    0  0.56764477974E+01  0.33222813691E+02  0.14344500328E+02  0.36629797963E+02  0.00000000000E+00 0.  1.
        -11    1    3    3    0    0  0.74091523593E+02  0.15637019828E+02 -0.20945508390E+03  0.22272292749E+03  0.00000000000E+00 0.  1.
         11    1    3    3    0    0 -0.11203590389E+02 -0.18688575893E+02 -0.15209291147E+02  0.26572652177E+02  0.00000000000E+00 0. -1.
         -1    1    1    2    0  502 -0.21302782945E+02 -0.97301677791E+01  0.24815306389E+02  0.34121608364E+02  0.00000000000E+00 0.  1.
<scales pt_clust_5="13000.00000" pt_clust_6="13000.00000" pt_clust_7="13000.00000" pt_clust_8="13000.00000" pt_clust_9="23.41975"></scales>
<clustering>
<clus scale="   23.420">  1  9  2 -1</clus>
<clus scale="   76.419">  5  6 -1 -1</clus>
<clus scale="   87.807">  7  8 -1 -1</clus>
<clus scale="   96.424">  1  5  2 -1</clus>
<clus scale="   23.420">  1  5  2 -1</clus>
</clustering>
</event>
<event>
 9    1  0.7835476E-005  0.9795027E+02  0.7546771E-02  0.1296304E+00
         21   -1    0    0  501  502  0.00000000000E+00  0.00000000000E+00  0.91282826708E+02  0.91282826708E+02  0.00000000000E+00 0.  1.
         -4   -1    0    0    0  501 -0.00000000000E+00 -0.00000000000E+00 -0.21015111230E+03  0.21015111230E+03  0.00000000000E+00 0.  1.
        -24    2    1    2    0    0  0.36408868309E+02  0.24345486078E+02 -0.37274419151E+02  0.92081854012E+02  0.71912287763E+02 0.  0.
         23    2    1    2    0    0 -0.12118068406E+02  0.77013495367E+01  0.23753624273E+02  0.96590671237E+02  0.92516834886E+02 0.  0.
         11    1    3    3    0    0 -0.10477984529E+02  0.29440062895E+02  0.11165690489E+01  0.31269029238E+02  0.00000000000E+00 0. -1.
        -12    1    3    3    0    0  0.46886852839E+02 -0.50945768168E+01 -0.38390988199E+02  0.60812824774E+02  0.00000000000E+00 0.  1.
        -11    1    4    4    0    0 -0.71424531189E+01 -0.42050813787E+02  0.40384762178E+01  0.42843842812E+02  0.00000000000E+00 0. -1.
         11    1    4    4    0    0 -0.49756152867E+01  0.49752163324E+02  0.19715148055E+02  0.53746828425E+02  0.00000000000E+00 0.  1.
         -3    1    1    2    0  502 -0.24290799904E+02 -0.32046835615E+02 -0.10534749071E+03  0.11276141375E+03  0.00000000000E+00 0.  1.
<scales pt_clust_5="13000.00000" pt_clust_6="13000.00000" pt_clust_7="13000.00000" pt_clust_8="13000.00000" pt_clust_9="40.21249"></scales>
<clustering>
<clus scale="   40.212">  1  9  2 -1</clus>
<clus scale="   71.912">  5  6 -1 -1</clus>
<clus scale="   78.780">  2  5  1 -1</clus>
<clus scale="   92.517">  7  8 -1 -1</clus>
<clus scale="   40.212">  1  5  2 -1</clus>
</clustering>
</event>
<event>
 9    1  0.7835476E-005  0.1426589E+03  0.7546771E-02  0.1212541E+00
         21   -1    0    0  501  502  0.00000000000E+00  0.00000000000E+00  0.48589591940E+03  0.48589591940E+03  0.00000000000E+00 0.  1.
          1   -1    0    0  502    0 -0.00000000000E+00 -0.00000000000E+00 -0.80948918407E+02  0.80948918407E+02  0.00000000000E+00 0. -1.
        -24    2    1    2    0    0 -0.70103831741E+02 -0.78723026863E+02  0.18488150218E+02  0.13330543180E+03  0.79477445009E+02 0.  0.
         23    2    1    2    0    0  0.65742275741E+02  0.10043590206E+03  0.22955634627E+03  0.27508162601E+03  0.92543868601E+02 0.  0.
         13    1    3    3    0    0 -0.56801968838E+02 -0.91846865382E+02  0.14262194840E+01  0.10800159465E+03  0.00000000000E+00 0. -1.
        -14    1    3    3    0    0 -0.13301862903E+02  0.13123838519E+02  0.17061930734E+02  0.25303837151E+02  0.00000000000E+00 0.  1.
        -13    1    4    4    0    0  0.36860144848E+02  0.78619980043E+02  0.22162387139E+03  0.23802712431E+03  0.00000000000E+00 0.  1.
         13    1    4    4    0    0  0.28882130894E+02  0.21815922021E+02  0.79324748809E+01  0.37054501701E+02  0.00000000000E+00 0. -1.
          2    1    1    2  501    0  0.43615559997E+01 -0.21712875200E+02  0.15690250450E+03  0.15845777999E+03  0.00000000000E+00 0. -1.
<scales pt_clust_5="13000.00000" pt_clust_6="13000.00000" pt_clust_7="13000.00000" pt_clust_8="13000.00000" pt_clust_9="22.14661"></scales>
<clustering>
<clus scale="   22.147">  1  9  2 -1</clus>
<clus scale="   79.477">  5  6 -1 -1</clus>
<clus scale="   92.544">  7  8 -1 -1</clus>
<clus scale="  134.551">  2  5  1 -1</clus>
<clus scale="   22.147">  1  5  2 -1</clus>
</clustering>
</event>
<event>
 9    1  0.9622542E-005  0.1086532E+03  0.7546771E-02  0.1263561E+00
         21   -1    0    0  501  502  0.00000000000E+00  0.00000000000E+00  0.59640080623E+03  0.59640080623E+03  0.00000000000E+00 0.  1.
          1   -1    0    0  502    0 -0.00000000000E+00 -0.00000000000E+00 -0.11789055402E+03  0.11789055402E+03  0.00000000000E+00 0. -1.
        -24    2    1    2    0    0  0.51240675395E+02 -0.31619794104E+02 -0.84468784104E+02  0.13819174591E+03  0.91304791528E+02 0.  0.
         23    2    1    2    0    0 -0.35840454128E+02  0.13805877679E+02  0.42635851619E+03  0.43746459369E+03  0.90102974398E+02 0.  0.
         11    1    3    3    0    0  0.31543240243E+02  0.12654202537E+02 -0.83025215914E+02  0.89712269643E+02  0.00000000000E+00 0. -1.
        -12    1    3    3    0    0  0.19697435152E+02 -0.44273996641E+02 -0.14435681895E+01  0.48479476269E+02  0.00000000000E+00 0.  1.
        -11    1    4    4    0    0 -0.64017428315E+02  0.23411724229E+02  0.30012823017E+03  0.30777149722E+03  0.00000000000E+00 0.  1.
         11    1    4    4    0    0  0.28176974187E+02 -0.96058465503E+01  0.12623028602E+03  0.12969309647E+03  0.00000000000E+00 0. -1.
          2    1    1    2  501    0 -0.15400221267E+02  0.17813916426E+02  0.13662052012E+03  0.13863502065E+03  0.00000000000E+00 0. -1.
<scales pt_clust_5="13000.00000" pt_clust_6="13000.00000" pt_clust_7="13000.00000" pt_clust_8="13000.00000" pt_clust_9="23.54788"></scales>
<clustering>
<clus scale="   23.548">  1  9  2 -1</clus>
<clus scale="   90.103">  7  8 -1 -1</clus>
<clus scale="   91.305">  5  6 -1 -1</clus>
<clus scale="  107.645">  1  7  2 -1</clus>
<clus scale="   23.548">  1  5  2 -1</clus>
</clustering>
</event>
<event>
 9    1  0.7835476E-005  0.2061814E+03  0.7546771E-02  0.1172619E+00
         21   -1    0    0  501  502  0.00000000000E+00  0.00000000000E+00  0.29091275325E+03  0.29091275325E+03  0.00000000000E+00 0.  1.
         -2   -1    0    0    0  501 -0.00000000000E+00 -0.00000000000E+00 -0.23836689382E+03  0.23836689382E+03  0.00000000000E+00 0.  1.
        -24    2    1    2    0    0  0.37741064915E+02  0.59687576300E+02 -0.31221047383E+02  0.11173166312E+03  0.80760237735E+02 0.  0.
         23    2    1    2    0    0 -0.13882738045E+03  0.99185790138E+02 -0.25355269822E+02  0.19990874303E+03  0.10104332391E+03 0.  0.
         13    1    3    3    0    0 -0.16574686930E+02  0.26568309913E+02 -0.36266628324E+02  0.47915171590E+02  0.00000000000E+00 0. -1.
        -14    1    3    3    0    0  0.54315751846E+02  0.33119266387E+02  0.50455809414E+01  0.63816491533E+02  0.00000000000E+00 0.  1.
        -11    1    4    4    0    0 -0.10306281601E+03  0.40986361322E+02 -0.56910895761E+02  0.12466224735E+03  0.00000000000E+00 0.  1.
         11    1    4    4    0    0 -0.35764564435E+02  0.58199428816E+02  0.31555625939E+02  0.75246495680E+02  0.00000000000E+00 0. -1.
         -1    1    1    2    0  502  0.10108631553E+03 -0.15887336644E+03  0.10912217664E+03  0.21763924091E+03  0.00000000000E+00 0.  1.
<scales pt_clust_5="13000.00000" pt_clust_6="13000.00000" pt_clust_7="13000.00000" pt_clust_8="13000.00000" pt_clust_9="179.72489"></scales>
<clustering>
<clus scale="   80.760">  5  6 -1 -1</clus>
<clus scale="  101.043">  7  8 -1 -1</clus>
<clus scale="  107.281">  2  5  1 -1</clus>
<clus scale="  179.725">  1  9  2 -1</clus>
<clus scale="  179.725">  1  5  2 -1</clus>
</clustering>
</event>
<event>
 9    1  0.7835476E-005  0.1520672E+03  0.7546771E-02  0.1199623E+00
          1   -1    0    0  502    0 -0.00000000000E+00  0.00000000000E+00  0.11767017462E+04  0.11767017462E+04  0.00000000000E+00 0. -1.
         21   -1    0    0  501  502  0.00000000000E+00 -0.00000000000E+00 -0.44940883777E+02  0.44940883777E+02  0.00000000000E+00 0.  1.
        -24    2    1    2    0    0  0.10806711749E+03 -0.18893244579E+02  0.43838844445E+03  0.45965385117E+03  0.84034386384E+02 0.  0.
         23    2    1    2    0    0 -0.12706650073E+03  0.10280586575E+03  0.26458233221E+03  0.32465224683E+03  0.93168284368E+02 0.  0.
         13    1    3    3    0    0  0.11105993004E+03 -0.11392363937E+02  0.43751068607E+03  0.45153039149E+03  0.00000000000E+00 0. -1.
        -14    1    3    3    0    0 -0.29928125495E+01 -0.75008806419E+01  0.87775838066E+00  0.81234596777E+01  0.00000000000E+00 0.  1.
        -11    1    4    4    0    0 -0.73108848045E+02  0.78542958056E+02  0.89124507879E+02  0.13948862974E+03  0.00000000000E+00 0.  1.
         11    1    4    4    0    0 -0.53957652684E+02  0.24262907696E+02  0.17545782433E+03  0.18516361709E+03  0.00000000000E+00 0. -1.
          2    1    1    2  501    0  0.18999383236E+02 -0.83912621173E+02  0.42879008577E+03  0.43733653199E+03  0.00000000000E+00 0. -1.
<scales pt_clust_5="13000.00000" pt_clust_6="13000.00000" pt_clust_7="13000.00000" pt_clust_8="13000.00000" pt_clust_9="86.03669"></scales>
<clustering>
<clus scale="   84.034">  5  6 -1 -1</clus>
<clus scale="   86.037">  2  9  1 -1</clus>
<clus scale="   93.168">  7  8 -1 -1</clus>
<clus scale="  146.649">  1  5  2 -1</clus>
<clus scale="   86.037">  2  5  1 -1</clus>
</clustering>
</event>
<event>
 9    1  0.7835476E-005  0.1324064E+03  0.7546771E-02  0.1227685E+00
          1   -1    0    0  502    0 -0.00000000000E+00  0.00000000000E+00  0.97503397938E+03  0.97503397938E+03  0.00000000000E+00 0. -1.
         21   -1    0    0  501  502  0.00000000000E+00 -0.00000000000E+00 -0.24628030421E+02  0.24628030421E+02  0.00000000000E+00 0. -1.
        -24    2    1    2    0    0  0.85969346385E+02 -0.40873295783E+02  0.55837154142E+03  0.57183906307E+03  0.78484272051E+02 0.  0.
         23    2    1    2    0    0 -0.93672743710E+02  0.12046909109E+02  0.25383897724E+03  0.28644303354E+03  0.93250598725E+02 0.  0.
         11    1    3    3    0    0  0.93187652232E+02 -0.44340989673E+02  0.55211428821E+03  0.56167628501E+03  0.00000000000E+00 0. -1.
        -12    1    3    3    0    0 -0.72183058471E+01  0.34676938901E+01  0.62572532087E+01  0.10162778062E+02  0.00000000000E+00 0.  1.
        -13    1    4    4    0    0 -0.17509773241E+02 -0.24140197904E+02  0.15462757836E+02  0.33592234128E+02  0.00000000000E+00 0. -1.
         13    1    4    4    0    0 -0.76162970469E+02  0.36187107014E+02  0.23837621941E+03  0.25285079941E+03  0.00000000000E+00 0.  1.
          2    1    1    2  501    0  0.77033973251E+01  0.28826386674E+02  0.13819543030E+03  0.14137991319E+03  0.00000000000E+00 0. -1.
<scales pt_clust_5="13000.00000" pt_clust_6="13000.00000" pt_clust_7="13000.00000" pt_clust_8="13000.00000" pt_clust_9="29.83796"></scales>
<clustering>
<clus scale="   29.838">  2  9  1 -1</clus>
<clus scale="   78.484">  5  6 -1 -1</clus>
<clus scale="   93.251">  7  8 -1 -1</clus>
<clus scale="  122.456">  1  5  2 -1</clus>
<clus scale="   29.838">  2  5  1 -1</clus>
</clustering>
</event>
<event>
 9    1  0.7835476E-005  0.1184348E+03  0.7546771E-02  0.1249881E+00
          3   -1    0    0  502    0 -0.00000000000E+00  0.00000000000E+00  0.74427450785E+02  0.74427450785E+02  0.00000000000E+00 0. -1.
         21   -1    0    0  501  502  0.00000000000E+00 -0.00000000000E+00 -0.30949381819E+03  0.30949381819E+03  0.00000000000E+00 0.  1.
        -24    2    1    2    0    0  0.64010987074E+02  0.39786717564E+02 -0.37783051060E+02  0.11528038575E+03  0.78623272831E+02 0.  0.
         23    2    1    2    0    0 -0.76944288084E+02 -0.16774314775E+02 -0.20776576180E+03  0.24023802034E+03  0.91355862084E+02 0.  0.
         11    1    3    3    0    0  0.20423994401E+02  0.54217516881E+02 -0.38142548637E+02  0.69365212466E+02  0.00000000000E+00 0. -1.
        -12    1    3    3    0    0  0.43586992673E+02 -0.14430799317E+02  0.35949757678E+00  0.45915173284E+02  0.00000000000E+00 0.  1.
        -11    1    4    4    0    0 -0.31091281214E+02 -0.11099473655E+02 -0.63847973835E+01  0.33624867591E+02  0.00000000000E+00 0. -1.
         11    1    4    4    0    0 -0.45853006871E+02 -0.56748411204E+01 -0.20138096441E+03  0.20661315275E+03  0.00000000000E+00 0.  1.
          4    1    1    2  501    0  0.12933301010E+02 -0.23012402788E+02  0.10482445456E+02  0.28402862881E+02  0.00000000000E+00 0. -1.
<scales pt_clust_5="13000.00000" pt_clust_6="13000.00000" pt_clust_7="13000.00000" pt_clust_8="13000.00000" pt_clust_9="26.39776"></scales>
<clustering>
<clus scale="   26.398">  2  9  1 -1</clus>
<clus scale="   78.623">  5  6 -1 -1</clus>
<clus scale="   91.356">  7  8 -1 -1</clus>
<clus scale="  108.915">  1  5  2 -1</clus>
<clus scale="   26.398">  2  5  1 -1</clus>
</clustering>
</event>
<event>
 9    1  0.7835476E-005  0.1742939E+03  0.7546771E-02  0.1176384E+00
         21   -1    0    0  501  502  0.00000000000E+00  0.00000000000E+00  0.29816747802E+03  0.29816747802E+03  0.00000000000E+00 0.  1.
         -4   -1    0    0    0  501 -0.00000000000E+00 -0.00000000000E+00 -0.16866344649E+03  0.16866344649E+03  0.00000000000E+00 0.  1.
        -24    2    1    2    0    0 -0.12558909194E+03 -0.77640831132E+02 -0.21156613366E+02  0.17002567270E+03  0.81611325283E+02 0.  0.
         23    2    1    2    0    0  0.13939423269E+03  0.12906118012E+02  0.57736833772E+02  0.18271756769E+03  0.10224894903E+03 0.  0.
         11    1    3    3    0    0 -0.12251009420E+03 -0.37588967658E+02 -0.11170209922E+02  0.12863291671E+03  0.00000000000E+00 0. -1.
        -12    1    3    3    0    0 -0.30789977376E+01 -0.40051863474E+02 -0.99864034439E+01  0.41392755991E+02  0.00000000000E+00 0.  1.
        -11    1    4    4    0    0  0.15661275977E+02  0.24877936988E+02 -0.20497314450E+02  0.35837511265E+02  0.00000000000E+00 0.  1.
         11    1    4    4    0    0  0.12373295671E+03 -0.11971818976E+02  0.78234148222E+02  0.14688005642E+03  0.00000000000E+00 0. -1.
         -3    1    1    2    0  502 -0.13805140748E+02  0.64734713120E+02  0.92923811130E+02  0.11408768412E+03  0.00000000000E+00 0.  1.
<scales pt_clust_5="13000.00000" pt_clust_6="13000.00000" pt_clust_7="13000.00000" pt_clust_8="13000.00000" pt_clust_9="66.19037"></scales>
<clustering>
<clus scale="   66.190">  1  9  2 -1</clus>
<clus scale="   81.611">  5  6 -1 -1</clus>
<clus scale="  102.249">  7  8 -1 -1</clus>
<clus scale="  163.046">  2  5  1 -1</clus>
<clus scale="   66.190">  1  5  2 -1</clus>
</clustering>
</event>
<event>
 9    1  0.7835476E-005  0.1019783E+03  0.7546771E-02  0.1281013E+00
         -2   -1    0    0    0  501 -0.00000000000E+00  0.00000000000E+00  0.49434946634E+03  0.49434946634E+03  0.00000000000E+00 0.  1.
         21   -1    0    0  501  502  0.00000000000E+00 -0.00000000000E+00 -0.56042934378E+02  0.56042934378E+02  0.00000000000E+00 0. -1.
        -24    2    1    2    0    0 -0.50352710030E+02 -0.14379969879E+02  0.35602381653E+03  0.36863419711E+03  0.79975211162E+02 0.  0.
         23    2    1    2    0    0  0.13123111524E+02  0.11880938715E+00  0.96783438486E+00  0.91195884829E+02  0.90241467932E+02 0.  0.
         13    1    3    3    0    0  0.11587361528E+02 -0.27663532999E+02  0.15464374777E+03  0.15752532092E+03  0.00000000000E+00 0. -1.
        -14    1    3    3    0    0 -0.61940071558E+02  0.13283563121E+02  0.20138006876E+03  0.21110887620E+03  0.00000000000E+00 0.  1.
        -11    1    4    4    0    0 -0.13350085549E+02  0.40593374313E+02 -0.16234130544E+01  0.42763094980E+02  0.00000000000E+00 0.  1.
         11    1    4    4    0    0  0.26473197073E+02 -0.40474564926E+02  0.25912474393E+01  0.48432789849E+02  0.00000000000E+00 0. -1.
         -1    1    1    2    0  502  0.37229598505E+02  0.14261160492E+02  0.81314881049E+02  0.90562318784E+02  0.00000000000E+00 0.  1.
<scales pt_clust_5="13000.00000" pt_clust_6="13000.00000" pt_clust_7="13000.00000" pt_clust_8="13000.00000" pt_clust_9="39.86760"></scales>
<clustering>
<clus scale="   39.868">  2  9  1 -1</clus>
<clus scale="   79.975">  5  6 -1 -1</clus>
<clus scale="   90.241">  7  8 -1 -1</clus>
<clus scale="   93.017">  1  5  2 -1</clus>
<clus scale="   39.868">  2  5  1 -1</clus>
</clustering>
</event>
<event>
 9    1  0.7835476E-005  0.1935057E+03  0.7546771E-02  0.1156387E+00
         21   -1    0    0  501  502  0.00000000000E+00  0.00000000000E+00  0.54695148266E+03  0.54695148266E+03  0.00000000000E+00 0.  1.
          1   -1    0    0  502    0 -0.00000000000E+00 -0.00000000000E+00 -0.23545727307E+03  0.23545727307E+03  0.00000000000E+00 0. -1.
         23    2    1    2    0    0  0.24811180496E+02  0.16208083590E+03 -0.13630739636E+03  0.23194955478E+03  0.91296755790E+02 0.  0.
        -24    2    1    2    0    0 -0.60368340162E+02 -0.19889550515E+03  0.20701988935E+03  0.30429773661E+03  0.80846270537E+02 0.  0.
         11    1    4    4    0    0 -0.21356966105E+02 -0.10969931467E+02  0.30153408390E+01  0.24198175096E+02  0.00000000000E+00 0. -1.
        -12    1    4    4    0    0 -0.39011374056E+02 -0.18792557368E+03  0.20400454851E+03  0.28009956152E+03  0.00000000000E+00 0.  1.
        -11    1    3    3    0    0 -0.29021085219E+02  0.25820843388E+02 -0.14651895175E+02  0.41516471103E+02  0.00000000000E+00 0.  1.
         11    1    3    3    0    0  0.53832265716E+02  0.13625999251E+03 -0.12165550119E+03  0.19043308368E+03  0.00000000000E+00 0. -1.
          2    1    1    2  501    0  0.35557159666E+02  0.36814669247E+02  0.24078171660E+03  0.24616146434E+03  0.00000000000E+00 0. -1.
<scales pt_clust_5="13000.00000" pt_clust_6="13000.00000" pt_clust_7="13000.00000" pt_clust_8="13000.00000" pt_clust_9="51.18234"></scales>
<clustering>
<clus scale="   51.182">  1  9  2 -1</clus>
<clus scale="   80.846">  5  6 -1 -1</clus>
<clus scale="   91.297">  7  8 -1 -1</clus>
<clus scale="  188.800">  1  5  2 -1</clus>
<clus scale="   51.182">  1  5  2 -1</clus>
</clustering>
</event>
<event>
 9    1  0.7835476E-005  0.1857156E+03  0.7546771E-02  0.1163450E+00
         -2   -1    0    0    0  501 -0.00000000000E+00  0.00000000000E+00  0.21716313482E+03  0.21716313482E+03  0.00000000000E+00 0.  1.
         21   -1    0    0  501  502  0.00000000000E+00 -0.00000000000E+00 -0.28100994430E+03  0.28100994430E+03  0.00000000000E+00 0.  1.
        -24    2    1    2    0    0 -0.12753708534E+03  0.11248846373E+03  0.60029839250E+02  0.19829160253E+03  0.82441587967E+02 0.  0.
         23    2    1    2    0    0  0.14665719302E+03 -0.51415420112E+02 -0.25293792872E+02  0.18234818495E+03  0.91973946890E+02 0.  0.
         11    1    3    3    0    0 -0.38208477651E+02  0.28992858873E+02 -0.20202184945E+02  0.52044230291E+02  0.00000000000E+00 0. -1.
        -12    1    3    3    0    0 -0.89328607687E+02  0.83495604854E+02  0.80232024195E+02  0.14624737224E+03  0.00000000000E+00 0.  1.
        -13    1    4    4    0    0  0.90739997090E+02  0.37661960733E+01  0.18093555318E+02  0.92602959180E+02  0.00000000000E+00 0.  1.
         13    1    4    4    0    0  0.55917195930E+02 -0.55181616185E+02 -0.43387348190E+02  0.89745225769E+02  0.00000000000E+00 0. -1.
         -1    1    1    2    0  502 -0.19120107682E+02 -0.61073043616E+02 -0.98582855857E+02  0.11753329164E+03  0.00000000000E+00 0.  1.
<scales pt_clust_5="13000.00000" pt_clust_6="13000.00000" pt_clust_7="13000.00000" pt_clust_8="13000.00000" pt_clust_9="63.99606"></scales>
<clustering>
<clus scale="   63.996">  2  9  1 -1</clus>
<clus scale="   82.442">  5  6 -1 -1</clus>
<clus scale="   91.974">  7  8 -1 -1</clus>
<clus scale="  181.184">  1  5  2 -1</clus>
<clus scale="   63.996">  2  5  1 -1</clus>
</clustering>
</event>
<event>
 9    1  0.7835476E-005  0.9851740E+02  0.7546771E-02  0.1288652E+00
         21   -1    0    0  501  502  0.00000000000E+00  0.00000000000E+00  0.25421861358E+03  0.25421861358E+03  0.00000000000E+00 0. -1.
          3   -1    0    0  502    0 -0.00000000000E+00 -0.00000000000E+00 -0.75760871139E+02  0.75760871139E+02  0.00000000000E+00 0. -1.
        -24    2    1    2    0    0 -0.27596460887E+02  0.54208804411E+02  0.52249741841E+02  0.11339977952E+03  0.80183011561E+02 0.  0.
         23    2    1    2    0    0 -0.38940701872E+02 -0.20134355862E+02  0.82762103641E+02  0.13011695002E+03  0.90327649886E+02 0.  0.
         11    1    3    3    0    0  0.77610468377E+00  0.65453204696E+02  0.50779452889E+02  0.82844898329E+02  0.00000000000E+00 0. -1.
        -12    1    3    3    0    0 -0.28372565571E+02 -0.11244400285E+02  0.14702889527E+01  0.30554881188E+02  0.00000000000E+00 0.  1.
        -11    1    4    4    0    0 -0.59490425700E+02 -0.30541703162E+02  0.31505537977E+02  0.73922292343E+02  0.00000000000E+00 0. -1.
         11    1    4    4    0    0  0.20549723828E+02  0.10407347300E+02  0.51256565664E+02  0.56194657672E+02  0.00000000000E+00 0.  1.
          4    1    1    2  501    0  0.66537162759E+02 -0.34074448549E+02  0.43445896958E+02  0.86462755186E+02  0.00000000000E+00 0. -1.
<scales pt_clust_5="13000.00000" pt_clust_6="13000.00000" pt_clust_7="13000.00000" pt_clust_8="13000.00000" pt_clust_9="74.75472"></scales>
<clustering>
<clus scale="   74.755">  1  9  2 -1</clus>
<clus scale="   80.183">  5  6 -1 -1</clus>
<clus scale="   89.308">  2  5  1 -1</clus>
<clus scale="   90.328">  7  8 -1 -1</clus>
<clus scale="   74.755">  1  5  2 -1</clus>
</clustering>
</event>
<event>
 9    1  0.7835476E-005  0.1674070E+03  0.7546771E-02  0.1182043E+00
         21   -1    0    0  501  502  0.00000000000E+00  0.00000000000E+00  0.15391964566E+03  0.15391964566E+03  0.00000000000E+00 0. -1.
          1   -1    0    0  502    0 -0.00000000000E+00 -0.00000000000E+00 -0.60847335596E+03  0.60847335596E+03  0.00000000000E+00 0. -1.
        -24    2    1    2    0    0  0.10235046553E+03 -0.12987202621E+03 -0.37631219386E+03  0.41888367367E+03  0.80686453864E+02 0.  0.
         23    2    1    2    0    0 -0.81143771048E+02  0.76419152315E+02 -0.17766760804E+03  0.22865080057E+03  0.91056088413E+02 0.  0.
         13    1    3    3    0    0  0.99767048187E+02 -0.13472697059E+03 -0.37768102367E+03  0.41321637933E+03  0.00000000000E+00 0. -1.
        -14    1    3    3    0    0  0.25834173418E+01  0.48549443811E+01  0.13688298096E+01  0.56672943416E+01  0.00000000000E+00 0.  1.
        -13    1    4    4    0    0 -0.38112730155E+02 -0.95136009467E+01 -0.91490628377E+02  0.99567182765E+02  0.00000000000E+00 0. -1.
         13    1    4    4    0    0 -0.43031040893E+02  0.85932753262E+02 -0.86176979661E+02  0.12908361781E+03  0.00000000000E+00 0.  1.
          2    1    1    2  501    0 -0.21206694480E+02  0.53452873897E+02  0.99426091602E+02  0.11485852737E+03  0.00000000000E+00 0. -1.
<scales pt_clust_5="13000.00000" pt_clust_6="13000.00000" pt_clust_7="13000.00000" pt_clust_8="13000.00000" pt_clust_9="57.50594"></scales>
<clustering>
<clus scale="   57.506">  1  9  2 -1</clus>
<clus scale="   80.686">  5  6 -1 -1</clus>
<clus scale="   91.056">  7  8 -1 -1</clus>
<clus scale="  162.001">  2  5  1 -1</clus>
<clus scale="   57.506">  1  5  2 -1</clus>
</clustering>
</event>
<event>
 9    1  0.7835476E-005  0.1504496E+03  0.7546771E-02  0.1211932E+00
         21   -1    0    0  501  502  0.00000000000E+00  0.00000000000E+00  0.21488538571E+03  0.21488538571E+03  0.00000000000E+00 0.  1.
          1   -1    0    0  502    0 -0.00000000000E+00 -0.00000000000E+00 -0.25196491730E+03  0.25196491730E+03  0.00000000000E+00 0. -1.
         23    2    1    2    0    0 -0.74244611739E+02  0.10350844208E+01  0.13580446908E+02  0.11699936428E+03  0.89392890836E+02 0.  0.
        -24    2    1    2    0    0  0.30025054777E+02  0.12662215028E+03  0.70640302535E+02  0.16828690879E+03  0.79973486065E+02 0.  0.
         11    1    4    4    0    0 -0.11683836656E+02  0.35744495695E+02 -0.11020001082E+02  0.39187005950E+02  0.00000000000E+00 0. -1.
        -12    1    4    4    0    0  0.41708891432E+02  0.90877654585E+02  0.81660303617E+02  0.12909990284E+03  0.00000000000E+00 0.  1.
        -13    1    3    3    0    0 -0.53364522164E+01 -0.34984704929E+02  0.16807822609E+02  0.39177930039E+02  0.00000000000E+00 0.  1.
         13    1    3    3    0    0 -0.68908159523E+02  0.36019789350E+02 -0.32273757014E+01  0.77821434243E+02  0.00000000000E+00 0. -1.
          2    1    1    2  501    0  0.44219556963E+02 -0.12765723470E+03 -0.12130028102E+03  0.18156402993E+03  0.00000000000E+00 0. -1.
<scales pt_clust_5="13000.00000" pt_clust_6="13000.00000" pt_clust_7="13000.00000" pt_clust_8="13000.00000" pt_clust_9="127.43365"></scales>
<clustering>
<clus scale="   79.973">  5  6 -1 -1</clus>
<clus scale="   89.393">  7  8 -1 -1</clus>
<clus scale="  116.209">  2  7  1 -1</clus>
<clus scale="  127.434">  1  9  2 -1</clus>
<clus scale="  127.434">  1  5  2 -1</clus>
</clustering>
</event>
<event>
 9    1  0.7835476E-005  0.1753263E+03  0.7546771E-02  0.1193089E+00
          1   -1    0    0  502    0 -0.00000000000E+00  0.00000000000E+00  0.12258456261E+04  0.12258456261E+04  0.00000000000E+00 0. -1.
         21   -1    0    0  501  502  0.00000000000E+00 -0.00000000000E+00 -0.43682564313E+02  0.43682564313E+02  0.00000000000E+00 0.  1.
        -24    2    1    2    0    0  0.22316217265E+02 -0.72650404245E+02  0.43296807611E+03  0.44681439220E+03  0.80035313148E+02 0.  0.
         23    2    1    2    0    0  0.10691184072E+03  0.12585424634E+03  0.32131762997E+03  0.37259206878E+03  0.91161380980E+02 0.  0.
         13    1    3    3    0    0  0.29840431852E+02  0.65608046503E+01  0.13402913936E+03  0.13746747152E+03  0.00000000000E+00 0. -1.
        -14    1    3    3    0    0 -0.75242145868E+01 -0.79211208895E+02  0.29893893676E+03  0.30934692067E+03  0.00000000000E+00 0.  1.
        -11    1    4    4    0    0  0.65085023776E+02  0.94351890844E+02  0.12581793719E+03  0.17020133062E+03  0.00000000000E+00 0.  1.
         11    1    4    4    0    0  0.41826816941E+02  0.31502355499E+02  0.19549969278E+03  0.20239073816E+03  0.00000000000E+00 0. -1.
          2    1    1    2  501    0 -0.12922805798E+03 -0.53203842098E+02  0.42787735568E+03  0.45012172941E+03  0.00000000000E+00 0. -1.
<scales pt_clust_5="13000.00000" pt_clust_6="13000.00000" pt_clust_7="13000.00000" pt_clust_8="13000.00000" pt_clust_9="149.76298"></scales>
<clustering>
<clus scale="   80.035">  5  6 -1 -1</clus>
<clus scale="   91.161">  7  8 -1 -1</clus>
<clus scale="  110.371">  1  5  2 -1</clus>
<clus scale="  149.763">  2  9  1 -1</clus>
<clus scale="  149.763">  2  5  1 -1</clus>
</clustering>
</event>
<event>
 9    1  0.7835476E-005  0.1011970E+03  0.7546771E-02  0.1285721E+00
          1   -1    0    0  502    0 -0.00000000000E+00  0.00000000000E+00  0.42914647358E+02  0.42914647358E+02  0.00000000000E+00 0. -1.
         21   -1    0    0  501  502  0.00000000000E+00 -0.00000000000E+00 -0.28683685546E+03  0.28683685546E+03  0.00000000000E+00 0.  1.
        -24    2    1    2    0    0 -0.24394345715E+02  0.31277338626E+02 -0.53827019284E+02  0.10030392837E+03  0.74767466373E+02 0.  0.
         23    2    1    2    0    0  0.22211606762E+02 -0.52415333255E+02 -0.15628017745E+03  0.18950969568E+03  0.90827904622E+02 0.  0.
         13    1    3    3    0    0 -0.36516388493E+02  0.21042377071E+01  0.14837296156E+01  0.36607047115E+02  0.00000000000E+00 0. -1.
        -14    1    3    3    0    0  0.12122042778E+02  0.29173100918E+02 -0.55310748900E+02  0.63696881259E+02  0.00000000000E+00 0.  1.
        -11    1    4    4    0    0  0.56397290710E+02 -0.29170961611E+02 -0.74592692694E+02  0.97957486718E+02  0.00000000000E+00 0. -1.
         11    1    4    4    0    0 -0.34185683949E+02 -0.23244371644E+02 -0.81687484757E+02  0.91552208963E+02  0.00000000000E+00 0.  1.
          2    1    1    2  501    0  0.21827389539E+01  0.21137994630E+02 -0.33815011372E+02  0.39937878767E+02  0.00000000000E+00 0. -1.
<scales pt_clust_5="13000.00000" pt_clust_6="13000.00000" pt_clust_7="13000.00000" pt_clust_8="13000.00000" pt_clust_9="21.25039"></scales>
<clustering>
<clus scale="   21.250">  2  9  1 -1</clus>
<clus scale="   74.767">  5  6 -1 -1</clus>
<clus scale="   87.071">  1  5  2 -1</clus>
<clus scale="   90.828">  7  8 -1 -1</clus>
<clus scale="   21.250">  2  5  1 -1</clus>
</clustering>
</event>
<event>
 9    1  0.7835476E-005  0.9298532E+02  0.7546771E-02  0.1300084E+00
         21   -1    0    0  501  502  0.00000000000E+00  0.00000000000E+00  0.15616912313E+02  0.15616912313E+02  0.00000000000E+00 0.  1.
          1   -1    0    0  502    0 -0.00000000000E+00 -0.00000000000E+00 -0.14974158201E+04  0.14974158201E+04  0.00000000000E+00 0. -1.
        -24    2    1    2    0    0  0.24032631967E+02 -0.21094289288E+02 -0.93934709997E+03  0.94327182453E+03  0.79788622572E+02 0.  0.
         23    2    1    2    0    0 -0.48654580613E+02 -0.16102480731E+02 -0.19785110686E+03  0.22228503368E+03  0.87401473735E+02 0.  0.
         13    1    3    3    0    0  0.29581910281E+02 -0.18004653246E+02 -0.15183633497E+03  0.15573544738E+03  0.00000000000E+00 0. -1.
        -14    1    3    3    0    0 -0.55492783134E+01 -0.30896360417E+01 -0.78751076500E+03  0.78753637715E+03  0.00000000000E+00 0.  1.
        -13    1    4    4    0    0 -0.72924866464E+02 -0.14788754583E+01 -0.14539425560E+03  0.16266441769E+03  0.00000000000E+00 0.  1.
         13    1    4    4    0    0  0.24270285851E+02 -0.14623605273E+02 -0.52456851263E+02  0.59620615989E+02  0.00000000000E+00 0. -1.
          2    1    1    2  501    0  0.24621948646E+02  0.37196770019E+02 -0.34460070097E+03  0.34747587422E+03  0.00000000000E+00 0. -1.
<scales pt_clust_5="13000.00000" pt_clust_6="13000.00000" pt_clust_7="13000.00000" pt_clust_8="13000.00000" pt_clust_9="44.60765"></scales>
<clustering>
<clus scale="   44.608">  1  9  2 -1</clus>
<clus scale="   79.789">  5  6 -1 -1</clus>
<clus scale="   85.869">  2  5  1 -1</clus>
<clus scale="   87.401">  7  8 -1 -1</clus>
<clus scale="   44.608">  1  5  2 -1</clus>
</clustering>
</event>
<event>
 9    1  0.7835476E-005  0.1041692E+03  0.7546771E-02  0.1275822E+00
         21   -1    0    0  501  502  0.00000000000E+00  0.00000000000E+00  0.32667033701E+03  0.32667033701E+03  0.00000000000E+00 0.  1.
          3   -1    0    0  502    0 -0.00000000000E+00 -0.00000000000E+00 -0.67849917938E+02  0.67849917938E+02  0.00000000000E+00 0. -1.
        -24    2    1    2    0    0  0.52321649102E+01 -0.66507703520E+02  0.44115304626E+02  0.11511329754E+03  0.82790464371E+02 0.  0.
         23    2    1    2    0    0 -0.19315440203E+01  0.46520154198E+01  0.19300918339E+03  0.21377362995E+03  0.91767357382E+02 0.  0.
         13    1    3    3    0    0  0.31135904022E+02 -0.72978986987E+02  0.29314769141E+02  0.84585653339E+02  0.00000000000E+00 0. -1.
        -14    1    3    3    0    0 -0.25903739112E+02  0.64712834675E+01  0.14800535485E+02  0.30527644199E+02  0.00000000000E+00 0.  1.
        -11    1    4    4    0    0 -0.26970657123E+02 -0.14494197920E+02  0.17114674975E+02  0.35077203687E+02  0.00000000000E+00 0. -1.
         11    1    4    4    0    0  0.25039113102E+02  0.19146213340E+02  0.17589450841E+03  0.17869642626E+03  0.00000000000E+00 0.  1.
          4    1    1    2  501    0 -0.33006208899E+01  0.61855688100E+02  0.21695931056E+02  0.65633327456E+02  0.00000000000E+00 0. -1.
<scales pt_clust_5="13000.00000" pt_clust_6="13000.00000" pt_clust_7="13000.00000" pt_clust_8="13000.00000" pt_clust_9="61.94372"></scales>
<clustering>
<clus scale="   61.944">  1  9  2 -1</clus>
<clus scale="   82.790">  5  6 -1 -1</clus>
<clus scale="   91.767">  7  8 -1 -1</clus>
<clus scale="   96.355">  2  5  1 -1</clus>
<clus scale="   61.944">  1  5  2 -1</clus>
</clustering>
</event>
<event>
 9    1  0.7835476E-005  0.1034294E+03  0.7546771E-02  0.1278684E+00
         21   -1    0    0  501  502  0.00000000000E+00  0.00000000000E+00  0.17070035186E+03  0.17070035186E+03  0.00000000000E+00 0.  1.
         -4   -1    0    0    0  501 -0.00000000000E+00 -0.00000000000E+00 -0.11289139971E+03  0.11289139971E+03  0.00000000000E+00 0.  1.
        -24    2    1    2    0    0 -0.41098341890E+01  0.53960902277E+02 -0.60464541028E+02  0.11321659515E+03  0.78951674992E+02 0.  0.
         23    2    1    2    0    0 -0.13188790732E+01 -0.28514759474E+02  0.10281332860E+03  0.14010976695E+03  0.90803828698E+02 0.  0.
         11    1    3    3    0    0 -0.63406533922E+01  0.24452025207E+02  0.16895045793E+02  0.30389932454E+02  0.00000000000E+00 0. -1.
        -12    1    3    3    0    0  0.22308192032E+01  0.29508877070E+02 -0.77359586822E+02  0.82826662697E+02  0.00000000000E+00 0.  1.
        -13    1    4    4    0    0 -0.20736367664E+02  0.23023827886E+02  0.68599288618E+02  0.75272544751E+02  0.00000000000E+00 0.  1.
         13    1    4    4    0    0  0.19417488591E+02 -0.51538587360E+02  0.34214039985E+02  0.64837222198E+02  0.00000000000E+00 0. -1.
         -3    1    1    2    0  502  0.54287132622E+01 -0.25446142804E+02  0.15460164572E+02  0.30265389471E+02  0.00000000000E+00 0.  1.
<scales pt_clust_5="13000.00000" pt_clust_6="13000.00000" pt_clust_7="13000.00000" pt_clust_8="13000.00000" pt_clust_9="26.01878"></scales>
<clustering>
<clus scale="   26.019">  1  9  2 -1</clus>
<clus scale="   78.952">  5  6 -1 -1</clus>
<clus scale="   90.804">  7  8 -1 -1</clus>
<clus scale="   93.197">  2  5  1 -1</clus>
<clus scale="   26.019">  1  5  2 -1</clus>
</clustering>
</event>
<event>
 9    1  0.7835476E-005  0.1062770E+03  0.7546771E-02  0.1272056E+00
         -2   -1    0    0    0  501 -0.00000000000E+00  0.00000000000E+00  0.44845158112E+02  0.44845158112E+02  0.00000000000E+00 0.  1.
         21   -1    0    0  501  502  0.00000000000E+00 -0.00000000000E+00 -0.52141873114E+03  0.52141873114E+03  0.00000000000E+00 0.  1.
        -24    2    1    2    0    0  0.46979007351E+02  0.31222128520E+02 -0.36788731620E+02  0.10367835895E+03  0.78828566512E+02 0.  0.
         23    2    1    2    0    0 -0.67710303842E+02 -0.86769636472E+01 -0.33236756358E+03  0.35088708497E+03  0.89406790223E+02 0.  0.
         13    1    3    3    0    0  0.21182914576E+02 -0.25357701476E+02 -0.22201172781E+02  0.39807297910E+02  0.00000000000E+00 0. -1.
        -14    1    3    3    0    0  0.25796092775E+02  0.56579829996E+02 -0.14587558839E+02  0.63871061035E+02  0.00000000000E+00 0.  1.
        -13    1    4    4    0    0 -0.17588902788E+02  0.38093057857E+02 -0.15940033372E+03  0.16482996374E+03  0.00000000000E+00 0.  1.
         13    1    4    4    0    0 -0.50121401054E+02 -0.46770021504E+02 -0.17296722986E+03  0.18605712123E+03  0.00000000000E+00 0. -1.
         -1    1    1    2    0  502  0.20731296491E+02 -0.22545164873E+02 -0.10741727783E+03  0.11169844534E+03  0.00000000000E+00 0.  1.
<scales pt_clust_5="13000.00000" pt_clust_6="13000.00000" pt_clust_7="13000.00000" pt_clust_8="13000.00000" pt_clust_9="30.62795"></scales>
<clustering>
<clus scale="   30.628">  2  9  1 -1</clus>
<clus scale="   78.829">  5  6 -1 -1</clus>
<clus scale="   89.407">  7  8 -1 -1</clus>
<clus scale="   97.546">  1  5  2 -1</clus>
<clus scale="   30.628">  2  5  1 -1</clus>
</clustering>
</event>
<event>
 9    1  0.8974706E-005  0.2603954E+03  0.7546771E-02  0.1142300E+00
         21   -1    0    0  501  502  0.00000000000E+00  0.00000000000E+00  0.49119927106E+03  0.49119927106E+03  0.00000000000E+00 0. -1.
          1   -1    0    0  502    0 -0.00000000000E+00 -0.00000000000E+00 -0.28301461604E+03  0.28301461604E+03  0.00000000000E+00 0. -1.
        -24    2    1    2    0    0  0.20529929997E+02  0.67132122638E+02 -0.82876658762E+02  0.13631048555E+03  0.82363875497E+02 0.  0.
         23    2    1    2    0    0 -0.20867354002E+03 -0.15310100652E+03  0.32748731808E+03  0.42786645057E+03  0.94006337663E+02 0.  0.
         11    1    3    3    0    0  0.20593491540E+02  0.82734767492E+02 -0.47388629302E+02  0.97543917457E+02  0.00000000000E+00 0. -1.
        -12    1    3    3    0    0 -0.63561542428E-01 -0.15602644854E+02 -0.35488029460E+02  0.38766568090E+02  0.00000000000E+00 0.  1.
        -13    1    4    4    0    0 -0.19977706571E+03 -0.13498474278E+03  0.24810790359E+03  0.34596139754E+03  0.00000000000E+00 0. -1.
         13    1    4    4    0    0 -0.88964743130E+01 -0.18116263738E+02  0.79379414490E+02  0.81905053029E+02  0.00000000000E+00 0.  1.
          2    1    1    2  501    0  0.18814361002E+03  0.85968883881E+02 -0.36426004298E+02  0.21003695098E+03  0.00000000000E+00 0. -1.
<scales pt_clust_5="13000.00000" pt_clust_6="13000.00000" pt_clust_7="13000.00000" pt_clust_8="13000.00000" pt_clust_9="242.83457"></scales>
<clustering>
<clus scale="   82.364">  5  6 -1 -1</clus>
<clus scale="   94.006">  7  8 -1 -1</clus>
<clus scale="  108.222">  2  5  1 -1</clus>
<clus scale="  242.835">  1  9  2 -1</clus>
<clus scale="  242.835">  1  5  2 -1</clus>
</clustering>
</event>
<event>
 9    1  0.7835476E-005  0.1053442E+03  0.7546771E-02  0.1276057E+00
         -2   -1    0    0    0  501 -0.00000000000E+00  0.00000000000E+00  0.96885092271E+02  0.96885092271E+02  0.00000000000E+00 0.  1.
         21   -1    0    0  501  502  0.00000000000E+00 -0.00000000000E+00 -0.41010840905E+03  0.41010840905E+03  0.00000000000E+00 0.  1.
        -24    2    1    2    0    0 -0.43300311182E+02 -0.23657777863E+02  0.48042665095E+02  0.10241800205E+03  0.75807269266E+02 0.  0.
         23    2    1    2    0    0  0.73849765023E+02  0.33173661493E+02 -0.16108355608E+03  0.20185198122E+03  0.90785630319E+02 0.  0.
         11    1    3    3    0    0 -0.49874295583E+02  0.83744831028E+01  0.87923434598E+01  0.51331107826E+02  0.00000000000E+00 0. -1.
        -12    1    3    3    0    0  0.65739844003E+01 -0.32032260966E+02  0.39250321636E+02  0.51086894229E+02  0.00000000000E+00 0.  1.
        -11    1    4    4    0    0  0.83077680886E+02  0.53287144460E+02 -0.12185537082E+03  0.15681247471E+03  0.00000000000E+00 0.  1.
         11    1    4    4    0    0 -0.92279158627E+01 -0.20113482966E+02 -0.39228185256E+02  0.45039506510E+02  0.00000000000E+00 0. -1.
         -1    1    1    2    0  502 -0.30549453841E+02 -0.95158836300E+01 -0.20018242580E+03  0.20272351805E+03  0.00000000000E+00 0.  1.
<scales pt_clust_5="13000.00000" pt_clust_6="13000.00000" pt_clust_7="13000.00000" pt_clust_8="13000.00000" pt_clust_9="31.99721"></scales>
<clustering>
<clus scale="   31.997">  2  9  1 -1</clus>
<clus scale="   75.807">  5  6 -1 -1</clus>
<clus scale="   90.786">  7  8 -1 -1</clus>
<clus scale="   92.748">  1  5  2 -1</clus>
<clus scale="   31.997">  2  5  1 -1</clus>
</clustering>
</event>
<event>
 9    1  0.7835476E-005  0.1786444E+03  0.7546771E-02  0.1171207E+00
         21   -1    0    0  501  502  0.00000000000E+00  0.00000000000E+00  0.85631716831E+02  0.85631716831E+02  0.00000000000E+00 0. -1.
          1   -1    0    0  502    0 -0.00000000000E+00 -0.00000000000E+00 -0.85975059795E+03  0.85975059795E+03  0.00000000000E+00 0. -1.
        -24    2    1    2    0    0  0.76830611950E+02  0.12870327045E+03 -0.23105397620E+03  0.28704691538E+03  0.80885826656E+02 0.  0.
         23    2    1    2    0    0  0.94257493940E+02 -0.13843545310E+03 -0.36227146711E+03  0.40923276490E+03  0.90454353973E+02 0.  0.
         11    1    3    3    0    0  0.84167650143E+02  0.13568482658E+03 -0.21125531700E+03  0.26480818427E+03  0.00000000000E+00 0. -1.
        -12    1    3    3    0    0 -0.73370381928E+01 -0.69815561260E+01 -0.19798659203E+02  0.22238731115E+02  0.00000000000E+00 0.  1.
        -11    1    4    4    0    0  0.26705213214E+02 -0.10835869411E+03 -0.26081474349E+03  0.28368839494E+03  0.00000000000E+00 0.  1.
         11    1    4    4    0    0  0.67552280726E+02 -0.30076758992E+02 -0.10145672361E+03  0.12554436996E+03  0.00000000000E+00 0. -1.
          2    1    1    2  501    0 -0.17108810589E+03  0.97321826453E+01 -0.18079343781E+03  0.24910263449E+03  0.00000000000E+00 0. -1.
<scales pt_clust_5="13000.00000" pt_clust_6="13000.00000" pt_clust_7="13000.00000" pt_clust_8="13000.00000" pt_clust_9="154.05145"></scales>
<clustering>
<clus scale="   80.886">  5  6 -1 -1</clus>
<clus scale="   90.454">  7  8 -1 -1</clus>
<clus scale="  170.323">  2  5  1 -1</clus>
<clus scale="  154.051">  1  9  2 -1</clus>
<clus scale="  154.051">  1  5  2 -1</clus>
</clustering>
</event>
<event>
 9    1  0.7835476E-005  0.1426212E+03  0.7546771E-02  0.1210022E+00
          1   -1    0    0  502    0 -0.00000000000E+00  0.00000000000E+00  0.24299408107E+03  0.24299408107E+03  0.00000000000E+00 0. -1.
         21   -1    0    0  501  502  0.00000000000E+00 -0.00000000000E+00 -0.16914659438E+03  0.16914659438E+03  0.00000000000E+00 0. -1.
         23    2    1    2    0    0  0.65751320958E+02  0.94748502103E+02  0.98719636701E+02  0.17691960363E+03  0.90854084225E+02 0.  0.
        -24    2    1    2    0    0 -0.92471813475E+02 -0.56518008892E+02  0.47888589540E+02  0.14879375813E+03  0.90005243371E+02 0.  0.
         13    1    4    4    0    0 -0.24897830775E+02  0.23375808324E+02  0.10961563850E+01  0.34169166669E+02  0.00000000000E+00 0. -1.
        -14    1    4    4    0    0 -0.67573982700E+02 -0.79893817216E+02  0.46792433155E+02  0.11462459146E+03  0.00000000000E+00 0.  1.
        -13    1    3    3    0    0 -0.19669230032E+01  0.39710864554E+02  0.77514514735E+02  0.87116712199E+02  0.00000000000E+00 0. -1.
         13    1    3    3    0    0  0.67718243961E+02  0.55037637549E+02  0.21205121966E+02  0.89802891433E+02  0.00000000000E+00 0.  1.
          2    1    1    2  501    0  0.26720492517E+02 -0.38230493211E+02 -0.72760739545E+02  0.86427313684E+02  0.00000000000E+00 0. -1.
<scales pt_clust_5="13000.00000" pt_clust_6="13000.00000" pt_clust_7="13000.00000" pt_clust_8="13000.00000" pt_clust_9="46.64285"></scales>
<clustering>
<clus scale="   46.643">  2  9  1 -1</clus>
<clus scale="   90.005">  5  6 -1 -1</clus>
<clus scale="   90.854">  7  8 -1 -1</clus>
<clus scale="  142.082">  2  5  1 -1</clus>
<clus scale="   46.643">  2  5  1 -1</clus>
</clustering>
</event>
<event>
 9    1  0.7835476E-005  0.1264573E+03  0.7546771E-02  0.1234516E+00
         21   -1    0    0  501  502  0.00000000000E+00  0.00000000000E+00  0.83545508416E+03  0.83545508416E+03  0.00000000000E+00 0. -1.
         -2   -1    0    0    0  501 -0.00000000000E+00 -0.00000000000E+00 -0.24467610377E+02  0.24467610377E+02  0.00000000000E+00 0.  1.
         23    2    1    2    0    0  0.57409304452E+02 -0.61193711161E+02  0.35674382295E+03  0.37667432578E+03  0.87045355799E+02 0.  0.
        -24    2    1    2    0    0 -0.45314824161E+02  0.91754922653E+02  0.38834009601E+03  0.40960366331E+03  0.80589898314E+02 0.  0.
         11    1    4    4    0    0 -0.17468948260E+02  0.81916906356E+02  0.35636889265E+03  0.36607967897E+03  0.00000000000E+00 0. -1.
        -12    1    4    4    0    0 -0.27845875901E+02  0.98380162970E+01  0.31971203355E+02  0.43523984345E+02  0.00000000000E+00 0.  1.
        -13    1    3    3    0    0 -0.16587434868E+02 -0.39978888607E+02  0.11032187543E+03  0.11850894788E+03  0.00000000000E+00 0. -1.
         13    1    3    3    0    0  0.73996739320E+02 -0.21214822554E+02  0.24642194751E+03  0.25816537789E+03  0.00000000000E+00 0.  1.
         -1    1    1    2    0  502 -0.12094480291E+02 -0.30561211493E+02  0.65903554824E+02  0.73644705444E+02  0.00000000000E+00 0.  1.
<scales pt_clust_5="13000.00000" pt_clust_6="13000.00000" pt_clust_7="13000.00000" pt_clust_8="13000.00000" pt_clust_9="32.86739"></scales>
<clustering>
<clus scale="   32.867">  1  9  2 -1</clus>
<clus scale="   80.590">  5  6 -1 -1</clus>
<clus scale="   87.045">  7  8 -1 -1</clus>
<clus scale="  122.104">  1  5  2 -1</clus>
<clus scale="   32.867">  1  5  2 -1</clus>
</clustering>
</event>
<event>
 9    1  0.7835476E-005  0.1437248E+03  0.7546771E-02  0.1224473E+00
          3   -1    0    0  502    0 -0.00000000000E+00  0.00000000000E+00  0.16768720295E+03  0.16768720295E+03  0.00000000000E+00 0. -1.
         21   -1    0    0  501  502  0.00000000000E+00 -0.00000000000E+00 -0.22624666075E+03  0.22624666075E+03  0.00000000000E+00 0. -1.
         23    2    1    2    0    0 -0.91648896206E+01 -0.70497974273E+02 -0.48530722007E+02  0.11327645757E+03  0.73636711520E+02 0.  0.
        -24    2    1    2    0    0 -0.11314298498E+03  0.45491018443E+02 -0.39994573382E+02  0.15227315688E+03  0.81955967427E+02 0.  0.
         13    1    4    4    0    0 -0.10025248164E+03  0.58453667512E+02 -0.91386444577E+01  0.11640835942E+03  0.00000000000E+00 0. -1.
        -14    1    4    4    0    0 -0.12890503349E+02 -0.12962649069E+02 -0.30855928924E+02  0.35864797466E+02  0.00000000000E+00 0.  1.
        -13    1    3    3    0    0  0.30670611802E+02 -0.16422748778E+02 -0.11879281086E+02  0.36762894674E+02  0.00000000000E+00 0.  1.
         13    1    3    3    0    0 -0.39835501423E+02 -0.54075225496E+02 -0.36651440921E+02  0.76513562899E+02  0.00000000000E+00 0. -1.
          4    1    1    2  501    0  0.12230787461E+03  0.25006955830E+02  0.29965837591E+02  0.12838424924E+03  0.00000000000E+00 0. -1.
<scales pt_clust_5="13000.00000" pt_clust_6="13000.00000" pt_clust_7="13000.00000" pt_clust_8="13000.00000" pt_clust_9="118.06799"></scales>
<clustering>
<clus scale="   73.637">  7  8 -1 -1</clus>
<clus scale="   81.956">  5  6 -1 -1</clus>
<clus scale="  102.354">  1  7  2 -1</clus>
<clus scale="  118.068">  2  9  1 -1</clus>
<clus scale="  118.068">  2  5  1 -1</clus>
</clustering>
</event>
<event>
 9    1  0.7835476E-005  0.1325328E+03  0.7546771E-02  0.1225614E+00
         -2   -1    0    0    0  501 -0.00000000000E+00  0.00000000000E+00  0.93262196700E+02  0.93262196700E+02  0.00000000000E+00 0.  1.
         21   -1    0    0  501  502  0.00000000000E+00 -0.00000000000E+00 -0.51209518798E+03  0.51209518798E+03  0.00000000000E+00 0. -1.
        -24    2    1    2    0    0  0.61177289406E+01 -0.11057794589E+03 -0.10722170799E+02  0.13686607669E+03  0.79702253904E+02 0.  0.
         23    2    1    2    0    0 -0.56752300522E+02  0.40355363631E+02 -0.34119564042E+03  0.35907141848E+03  0.87569626823E+02 0.  0.
         13    1    3    3    0    0  0.23842390661E+01 -0.12313066485E+03 -0.75144662665E+01  0.12338278820E+03  0.00000000000E+00 0. -1.
        -14    1    3    3    0    0  0.37334898745E+01  0.12552718961E+02 -0.32077045324E+01  0.13483288484E+02  0.00000000000E+00 0.  1.
        -11    1    4    4    0    0 -0.62274102187E+02 -0.79761682716E+01 -0.17603297044E+03  0.18689379269E+03  0.00000000000E+00 0. -1.
         11    1    4    4    0    0  0.55218016647E+01  0.48331531902E+02 -0.16516266997E+03  0.17217762579E+03  0.00000000000E+00 0.  1.
         -1    1    1    2    0  502  0.50634571581E+02  0.70222582255E+02 -0.66915180060E+02  0.10941988951E+03  0.00000000000E+00 0.  1.
<scales pt_clust_5="13000.00000" pt_clust_6="13000.00000" pt_clust_7="13000.00000" pt_clust_8="13000.00000" pt_clust_9="86.57412"></scales>
<clustering>
<clus scale="   79.702">  5  6 -1 -1</clus>
<clus scale="   86.574">  2  9  1 -1</clus>
<clus scale="   87.570">  7  8 -1 -1</clus>
<clus scale="  127.471">  1  5  2 -1</clus>
<clus scale="   86.574">  2  5  1 -1</clus>
</clustering>
</event>
<event>
 9    1  0.7835476E-005  0.9178231E+02  0.7546771E-02  0.1305916E+00
         21   -1    0    0  501  502  0.00000000000E+00  0.00000000000E+00  0.50285069858E+03  0.50285069858E+03  0.00000000000E+00 0. -1.
          1   -1    0    0  502    0 -0.00000000000E+00 -0.00000000000E+00 -0.35284362985E+02  0.35284362985E+02  0.00000000000E+00 0. -1.
        -24    2    1    2    0    0 -0.10801052428E+02  0.10271825237E+02  0.54465320551E+02  0.97997856016E+02  0.80093292564E+02 0.  0.
         23    2    1    2    0    0 -0.11850545681E+02  0.27172374790E+02  0.19277844143E+03  0.21551040515E+03  0.91664790754E+02 0.  0.
         13    1    3    3    0    0  0.18013319329E+01  0.42512731136E+02  0.45380735007E+02  0.62209229341E+02  0.00000000000E+00 0. -1.
        -14    1    3    3    0    0 -0.12602384361E+02 -0.32240905899E+02  0.90845855437E+01  0.35788626675E+02  0.00000000000E+00 0.  1.
        -11    1    4    4    0    0  0.38767892260E+02  0.23828900257E+02  0.86156223045E+02  0.97435418238E+02  0.00000000000E+00 0.  1.
         11    1    4    4    0    0 -0.50618437941E+02  0.33434745329E+01  0.10662221838E+03  0.11807498691E+03  0.00000000000E+00 0. -1.
          2    1    1    2  501    0  0.22651598110E+02 -0.37444200027E+02  0.22032257362E+03  0.22462680040E+03  0.00000000000E+00 0. -1.
<scales pt_clust_5="13000.00000" pt_clust_6="13000.00000" pt_clust_7="13000.00000" pt_clust_8="13000.00000" pt_clust_9="43.76258"></scales>
<clustering>
<clus scale="   43.763">  1  9  2 -1</clus>
<clus scale="   80.093">  5  6 -1 -1</clus>
<clus scale="   80.228">  2  5  1 -1</clus>
<clus scale="   91.665">  7  8 -1 -1</clus>
<clus scale="   43.763">  1  5  2 -1</clus>
</clustering>
</event>
<event>
 9    1  0.7835476E-005  0.9376779E+02  0.7546771E-02  0.1294300E+00
          1   -1    0    0  502    0 -0.00000000000E+00  0.00000000000E+00  0.23140122904E+03  0.23140122904E+03  0.00000000000E+00 0. -1.
         21   -1    0    0  501  502  0.00000000000E+00 -0.00000000000E+00 -0.15073573794E+03  0.15073573794E+03  0.00000000000E+00 0.  1.
        -24    2    1    2    0    0  0.13245358739E+02  0.56245666664E+01  0.13478871762E+03  0.16334107096E+03  0.91133044434E+02 0.  0.
         23    2    1    2    0    0 -0.59261822639E+02  0.62999005842E+02 -0.11293533854E+02  0.12573090675E+03  0.90553181310E+02 0.  0.
         11    1    3    3    0    0 -0.13460388844E+01 -0.34449195696E+02  0.17754654946E+02  0.38778688439E+02  0.00000000000E+00 0. -1.
        -12    1    3    3    0    0  0.14591397623E+02  0.40073762362E+02  0.11703406267E+03  0.12456238252E+03  0.00000000000E+00 0.  1.
        -11    1    4    4    0    0 -0.34764767357E+00  0.53401374776E+02 -0.32347943406E+02  0.62435703964E+02  0.00000000000E+00 0.  1.
         11    1    4    4    0    0 -0.58914174966E+02  0.95976310662E+01  0.21054409552E+02  0.63295202785E+02  0.00000000000E+00 0. -1.
          2    1    1    2  501    0  0.46016463901E+02 -0.68623572509E+02 -0.42829692669E+02  0.93064989271E+02  0.00000000000E+00 0. -1.
<scales pt_clust_5="13000.00000" pt_clust_6="13000.00000" pt_clust_7="13000.00000" pt_clust_8="13000.00000" pt_clust_9="82.62390"></scales>
<clustering>
<clus scale="   82.624">  2  9  1 -1</clus>
<clus scale="   90.553">  7  8 -1 -1</clus>
<clus scale="   91.133">  5  6 -1 -1</clus>
<clus scale="   93.204">  2  7  1 -1</clus>
<clus scale="   82.624">  2  5  1 -1</clus>
</clustering>
</event>
<event>
 9    1  0.7835476E-005  0.1405810E+03  0.7546771E-02  0.1233446E+00
         21   -1    0    0  501  502  0.00000000000E+00  0.00000000000E+00  0.22227460648E+03  0.22227460648E+03  0.00000000000E+00 0. -1.
          1   -1    0    0  502    0 -0.00000000000E+00 -0.00000000000E+00 -0.24120767527E+03  0.24120767527E+03  0.00000000000E+00 0. -1.
        -24    2    1    2    0    0 -0.79586863330E+01  0.43667958062E+02 -0.38500585753E+02  0.98669205622E+02  0.79265918183E+02 0.  0.
         23    2    1    2    0    0  0.94004245215E+02  0.13436837908E+02 -0.12672456065E+03  0.18574278854E+03  0.97076889568E+02 0.  0.
         13    1    3    3    0    0  0.16029751414E+02  0.29998094826E+02  0.15989567628E+02  0.37583306088E+02  0.00000000000E+00 0. -1.
        -14    1    3    3    0    0 -0.23988437747E+02  0.13669863236E+02 -0.54490153381E+02  0.61085899534E+02  0.00000000000E+00 0.  1.
        -11    1    4    4    0    0  0.65993222384E+02 -0.12184443391E+02 -0.13135016553E+03  0.14750061710E+03  0.00000000000E+00 0. -1.
         11    1    4    4    0    0  0.28011022831E+02  0.25621281299E+02  0.46256048731E+01  0.38242171433E+02  0.00000000000E+00 0.  1.
          2    1    1    2  501    0 -0.86045558882E+02 -0.57104795970E+02  0.14629207762E+03  0.17907028760E+03  0.00000000000E+00 0. -1.
<scales pt_clust_5="13000.00000" pt_clust_6="13000.00000" pt_clust_7="13000.00000" pt_clust_8="13000.00000" pt_clust_9="101.68130"></scales>
<clustering>
<clus scale="   79.266">  5  6 -1 -1</clus>
<clus scale="   90.848">  2  5  1 -1</clus>
<clus scale="   97.077">  7  8 -1 -1</clus>
<clus scale="  101.681">  1  9  2 -1</clus>
<clus scale="  101.681">  1  5  2 -1</clus>
</clustering>
</event>
<event>
 9    1  0.7835476E-005  0.1731917E+03  0.7546771E-02  0.1191909E+00
          1   -1    0    0  502    0 -0.00000000000E+00  0.00000000000E+00  0.99106937499E+03  0.99106937499E+03  0.00000000000E+00 0. -1.
         21   -1    0    0  501  502  0.00000000000E+00 -0.00000000000E+00 -0.63797707703E+02  0.63797707703E+02  0.00000000000E+00 0.  1.
        -24    2    1    2    0    0  0.35242680601E+02 -0.79035106184E+02  0.17883568426E+03  0.21398963264E+03  0.79503247519E+02 0.  0.
         23    2    1    2    0    0  0.70267674534E+02 -0.46277309404E+02  0.62058596637E+03  0.63307643153E+03  0.92626621733E+02 0.  0.
         11    1    3    3    0    0  0.11411993540E+02 -0.49927602962E+02  0.16681086759E+03  0.17449603055E+03  0.00000000000E+00 0. -1.
        -12    1    3    3    0    0  0.23830687061E+02 -0.29107503222E+02  0.12024816676E+02  0.39493602086E+02  0.00000000000E+00 0.  1.
        -13    1    4    4    0    0  0.82729943011E+02 -0.62999960469E+02  0.53212663978E+03  0.54219184727E+03  0.00000000000E+00 0.  1.
         13    1    4    4    0    0 -0.12462268477E+02  0.16722651065E+02  0.88459326591E+02  0.90884584255E+02  0.00000000000E+00 0. -1.
          2    1    1    2  501    0 -0.10551035513E+03  0.12531241559E+03  0.12785001666E+03  0.20780101852E+03  0.00000000000E+00 0. -1.
<scales pt_clust_5="13000.00000" pt_clust_6="13000.00000" pt_clust_7="13000.00000" pt_clust_8="13000.00000" pt_clust_9="146.34099"></scales>
<clustering>
<clus scale="   79.503">  5  6 -1 -1</clus>
<clus scale="   92.627">  7  8 -1 -1</clus>
<clus scale="  117.513">  1  5  2 -1</clus>
<clus scale="  146.341">  2  9  1 -1</clus>
<clus scale="  146.341">  2  5  1 -1</clus>
</clustering>
</event>
<event>
 9    1  0.7835476E-005  0.1020666E+03  0.7546771E-02  0.1281844E+00
         21   -1    0    0  501  502  0.00000000000E+00  0.00000000000E+00  0.97402909464E+02  0.97402909464E+02  0.00000000000E+00 0. -1.
         -4   -1    0    0    0  501 -0.00000000000E+00 -0.00000000000E+00 -0.33983431481E+03  0.33983431481E+03  0.00000000000E+00 0.  1.
        -24    2    1    2    0    0  0.16378139008E+02  0.39939444459E+02 -0.27913030621E+03  0.29373260850E+03  0.80633211477E+02 0.  0.
         23    2    1    2    0    0 -0.37007115143E+02 -0.26923477647E+02  0.51012378896E+02  0.11522307229E+03  0.92626634220E+02 0.  0.
         11    1    3    3    0    0  0.38886240069E+02  0.25533453735E+01 -0.70178334709E+02  0.80272398132E+02  0.00000000000E+00 0. -1.
        -12    1    3    3    0    0 -0.22508101062E+02  0.37386099086E+02 -0.20895197150E+03  0.21346021037E+03  0.00000000000E+00 0.  1.
        -13    1    4    4    0    0  0.10718599104E+02 -0.48374203798E+02  0.15237416845E+02  0.51837542688E+02  0.00000000000E+00 0. -1.
         13    1    4    4    0    0 -0.47725714247E+02  0.21450726151E+02  0.35774962051E+02  0.63385529599E+02  0.00000000000E+00 0.  1.
         -3    1    1    2    0  502  0.20628976135E+02 -0.13015966812E+02 -0.14313478034E+02  0.28281543484E+02  0.00000000000E+00 0.  1.
<scales pt_clust_5="13000.00000" pt_clust_6="13000.00000" pt_clust_7="13000.00000" pt_clust_8="13000.00000" pt_clust_9="24.39201"></scales>
<clustering>
<clus scale="   24.392">  1  9  2 -1</clus>
<clus scale="   80.633">  5  6 -1 -1</clus>
<clus scale="   91.321">  2  5  1 -1</clus>
<clus scale="   92.627">  7  8 -1 -1</clus>
<clus scale="   24.392">  1  5  2 -1</clus>
</clustering>
</event>
<event>
 9    1  0.7835476E-005  0.1186174E+03  0.7546771E-02  0.1248801E+00
         -4   -1    0    0    0  501 -0.00000000000E+00  0.00000000000E+00  0.31079237846E+03  0.31079237846E+03  0.00000000000E+00 0.  1.
         21   -1    0    0  501  502  0.00000000000E+00 -0.00000000000E+00 -0.72350332549E+02  0.72350332549E+02  0.00000000000E+00 0.  1.
        -24    2    1    2    0    0 -0.24210041262E+02 -0.61214556910E+02  0.16888795691E+03  0.19904756585E+03  0.82240156889E+02 0.  0.
         23    2    1    2    0    0  0.36405116446E+02  0.88480519696E+02  0.76377554480E+02  0.15345673353E+03  0.92527311477E+02 0.  0.
         13    1    3    3    0    0 -0.48504989669E+02 -0.16629990511E+02  0.60154095470E+02  0.79043063004E+02  0.00000000000E+00 0. -1.
        -14    1    3    3    0    0  0.24294948408E+02 -0.44584566399E+02  0.10873386144E+03  0.12000450285E+03  0.00000000000E+00 0.  1.
        -11    1    4    4    0    0 -0.23473746591E+02  0.93963937613E+01  0.40944986110E+02  0.48122768855E+02  0.00000000000E+00 0. -1.
         11    1    4    4    0    0  0.59878863037E+02  0.79084125935E+02  0.35432568369E+02  0.10533396468E+03  0.00000000000E+00 0.  1.
         -3    1    1    2    0  502 -0.12195075185E+02 -0.27265962786E+02 -0.68234654863E+01  0.30638411621E+02  0.00000000000E+00 0.  1.
<scales pt_clust_5="13000.00000" pt_clust_6="13000.00000" pt_clust_7="13000.00000" pt_clust_8="13000.00000" pt_clust_9="29.86892"></scales>
<clustering>
<clus scale="   29.869">  2  9  1 -1</clus>
<clus scale="   82.240">  5  6 -1 -1</clus>
<clus scale="   92.527">  7  8 -1 -1</clus>
<clus scale="  110.780">  1  5  2 -1</clus>
<clus scale="   29.869">  2  5  1 -1</clus>
</clustering>
</event>
<event>
 9    1  0.7835476E-005  0.1331866E+03  0.7546771E-02  0.1232852E+00
         21   -1    0    0  501  502  0.00000000000E+00  0.00000000000E+00  0.10752018165E+03  0.10752018165E+03  0.00000000000E+00 0.  1.
         -2   -1    0    0    0  501 -0.00000000000E+00 -0.00000000000E+00 -0.44117743397E+03  0.44117743397E+03  0.00000000000E+00 0.  1.
        -24    2    1    2    0    0  0.68279278544E+02 -0.23389738690E+02 -0.24361885150E+03  0.26654399770E+03  0.80538302374E+02 0.  0.
         23    2    1    2    0    0  0.40902250205E+02  0.80437041338E+02  0.17700262039E+01  0.12851837381E+03  0.91491681163E+02 0.  0.
         11    1    3    3    0    0  0.63966492267E+02  0.82064480615E+01 -0.96894102632E+02  0.11639383595E+03  0.00000000000E+00 0. -1.
        -12    1    3    3    0    0  0.43127862773E+01 -0.31596186752E+02 -0.14672474886E+03  0.15015016175E+03  0.00000000000E+00 0.  1.
        -13    1    4    4    0    0 -0.68187445629E+01  0.41242899175E+02  0.38362491502E+02  0.56737578059E+02  0.00000000000E+00 0. -1.
         13    1    4    4    0    0  0.47720994768E+02  0.39194142163E+02 -0.36592465298E+02  0.71780795747E+02  0.00000000000E+00 0.  1.
         -1    1    1    2    0  502 -0.10918152875E+03 -0.57047302648E+02 -0.91808427033E+02  0.15363524411E+03  0.00000000000E+00 0.  1.
<scales pt_clust_5="13000.00000" pt_clust_6="13000.00000" pt_clust_7="13000.00000" pt_clust_8="13000.00000" pt_clust_9="96.78823"></scales>
<clustering>
<clus scale="   80.538">  5  6 -1 -1</clus>
<clus scale="   91.492">  7  8 -1 -1</clus>
<clus scale="  108.146">  2  5  1 -1</clus>
<clus scale="   96.788">  1  9  2 -1</clus>
<clus scale="   96.788">  1  5  2 -1</clus>
</clustering>
</event>
<event>
 9    1  0.7835476E-005  0.1200520E+03  0.7546771E-02  0.1247060E+00
         21   -1    0    0  501  502  0.00000000000E+00  0.00000000000E+00  0.15110868703E+04  0.15110868703E+04  0.00000000000E+00 0. -1.
         -2   -1    0    0    0  501 -0.00000000000E+00 -0.00000000000E+00 -0.50367618676E+02  0.50367618676E+02  0.00000000000E+00 0.  1.
        -24    2    1    2    0    0  0.48551713701E+02 -0.44640448297E+02  0.42437671459E+02  0.11340647195E+03  0.81914793502E+02 0.  0.
         23    2    1    2    0    0 -0.11933899470E+03  0.11377757879E+03  0.82538562114E+03  0.84695201788E+03  0.94229315532E+02 0.  0.
         11    1    3    3    0    0 -0.22928714281E+02 -0.51375908909E+01  0.94931553395E+01  0.25342469829E+02  0.00000000000E+00 0. -1.
        -12    1    3    3    0    0  0.71480427982E+02 -0.39502857406E+02  0.32944516120E+02  0.88064002124E+02  0.00000000000E+00 0.  1.
        -13    1    4    4    0    0 -0.34916071251E+02  0.97989654395E+02  0.45140641284E+03  0.46323736243E+03  0.00000000000E+00 0. -1.
         13    1    4    4    0    0 -0.84422923451E+02  0.15787924396E+02  0.37397920831E+03  0.38371465545E+03  0.00000000000E+00 0.  1.
         -1    1    1    2    0  502  0.70787281002E+02 -0.69137130495E+02  0.59289595900E+03  0.60109599912E+03  0.00000000000E+00 0.  1.
<scales pt_clust_5="13000.00000" pt_clust_6="13000.00000" pt_clust_7="13000.00000" pt_clust_8="13000.00000" pt_clust_9="98.94838"></scales>
<clustering>
<clus scale="   81.915">  5  6 -1 -1</clus>
<clus scale="   94.229">  7  8 -1 -1</clus>
<clus scale="   98.948">  1  9  2 -1</clus>
<clus scale="  110.650">  2  5  1 -1</clus>
<clus scale="   98.948">  1  5  2 -1</clus>
</clustering>
</event>
<event>
 9    1  0.7835476E-005  0.1803058E+03  0.7546771E-02  0.1180177E+00
         21   -1    0    0  501  502  0.00000000000E+00  0.00000000000E+00  0.63163750242E+02  0.63163750242E+02  0.00000000000E+00 0.  1.
          1   -1    0    0  502    0 -0.00000000000E+00 -0.00000000000E+00 -0.12160049773E+04  0.12160049773E+04  0.00000000000E+00 0. -1.
         23    2    1    2    0    0 -0.92838319219E+02  0.38743127895E+02 -0.28975480553E+03  0.31974688343E+03  0.90334039342E+02 0.  0.
        -24    2    1    2    0    0  0.31118963063E+02 -0.17165082634E+03 -0.18684523941E+03  0.26748552361E+03  0.78771605316E+02 0.  0.
         11    1    4    4    0    0  0.20630792504E+02 -0.35542478223E+01 -0.34652719368E+02  0.40485469449E+02  0.00000000000E+00 0. -1.
        -12    1    4    4    0    0  0.10488170559E+02 -0.16809657852E+03 -0.15219252004E+03  0.22700005416E+03  0.00000000000E+00 0.  1.
        -13    1    3    3    0    0 -0.38564255710E+02  0.32813246809E+02 -0.41236618882E+02  0.65302141783E+02  0.00000000000E+00 0. -1.
         13    1    3    3    0    0 -0.54274063509E+02  0.59298810857E+01 -0.24851818664E+03  0.25444474165E+03  0.00000000000E+00 0.  1.
          2    1    1    2  501    0  0.61719356156E+02  0.13290769845E+03 -0.67624118215E+03  0.69193632053E+03  0.00000000000E+00 0. -1.
<scales pt_clust_5="13000.00000" pt_clust_6="13000.00000" pt_clust_7="13000.00000" pt_clust_8="13000.00000" pt_clust_9="162.18889"></scales>
<clustering>
<clus scale="   78.772">  5  6 -1 -1</clus>
<clus scale="   90.334">  7  8 -1 -1</clus>
<clus scale="  135.204">  2  7  1 -1</clus>
<clus scale="  162.189">  1  9  2 -1</clus>
<clus scale="  162.189">  1  5  2 -1</clus>
</clustering>
</event>
<event>
 9    1  0.7835476E-005  0.1128310E+03  0.7546771E-02  0.1259177E+00
         21   -1    0    0  501  502  0.00000000000E+00  0.00000000000E+00  0.89574665127E+02  0.89574665127E+02  0.00000000000E+00 0. -1.
          3   -1    0    0  502    0 -0.00000000000E+00 -0.00000000000E+00 -0.30213889881E+03  0.30213889881E+03  0.00000000000E+00 0. -1.
         23    2    1    2    0    0 -0.57668473065E+02  0.57937438969E+02 -0.17431926639E+03  0.21225949964E+03  0.89355967532E+02 0.  0.
        -24    2    1    2    0    0 -0.15341238646E+02 -0.59949181938E+02 -0.86764075150E+01  0.10065834842E+03  0.78914922802E+02 0.  0.
         13    1    4    4    0    0  0.83963518460E+01 -0.29325444487E+02  0.32187508325E+02  0.44345418149E+02  0.00000000000E+00 0. -1.
        -14    1    4    4    0    0 -0.23737590492E+02 -0.30623737451E+02 -0.40863915840E+02  0.56312930270E+02  0.00000000000E+00 0.  1.
        -13    1    3    3    0    0 -0.13418918559E+02  0.51681856353E+02 -0.15432476063E+03  0.16330099018E+03  0.00000000000E+00 0. -1.
         13    1    3    3    0    0 -0.44249554505E+02  0.62555826160E+01 -0.19994505758E+02  0.48958509457E+02  0.00000000000E+00 0.  1.
          4    1    1    2  501    0  0.73009711710E+02  0.20117429683E+01 -0.29568559788E+02  0.78795715884E+02  0.00000000000E+00 0. -1.
<scales pt_clust_5="13000.00000" pt_clust_6="13000.00000" pt_clust_7="13000.00000" pt_clust_8="13000.00000" pt_clust_9="73.03742"></scales>
<clustering>
<clus scale="   73.037">  1  9  2 -1</clus>
<clus scale="   78.915">  5  6 -1 -1</clus>
<clus scale="   89.356">  7  8 -1 -1</clus>
<clus scale="  104.756">  1  5  2 -1</clus>
<clus scale="   73.037">  1  5  2 -1</clus>
</clustering>
</event>
<event>
 9    1  0.7835476E-005  0.9977688E+02  0.7546771E-02  0.1286382E+00
         21   -1    0    0  501  502  0.00000000000E+00  0.00000000000E+00  0.98979169182E+02  0.98979169182E+02  0.00000000000E+00 0. -1.
          1   -1    0    0  502    0 -0.00000000000E+00 -0.00000000000E+00 -0.25898524158E+03  0.25898524158E+03  0.00000000000E+00 0. -1.
         23    2    1    2    0    0  0.37601514006E+02  0.40517605149E+01 -0.20285245805E+03  0.22576898309E+03  0.91609079092E+02 0.  0.
        -24    2    1    2    0    0 -0.51396325948E+02  0.19519728233E+02  0.36781640268E+02  0.10421877571E+03  0.80536091521E+02 0.  0.
         11    1    4    4    0    0 -0.64806962225E+02  0.23176250653E+02  0.49973338451E+02  0.85055367280E+02  0.00000000000E+00 0. -1.
        -12    1    4    4    0    0  0.13410636277E+02 -0.36565224209E+01 -0.13191698182E+02  0.19163408426E+02  0.00000000000E+00 0.  1.
        -13    1    3    3    0    0  0.53865075450E+02  0.32728742627E+02 -0.15796835633E+03  0.17007827183E+03  0.00000000000E+00 0. -1.
         13    1    3    3    0    0 -0.16263561444E+02 -0.28676982112E+02 -0.44884101713E+02  0.55690711258E+02  0.00000000000E+00 0.  1.
          2    1    1    2  501    0  0.13794811942E+02 -0.23571488748E+02  0.60647453845E+01  0.27976651960E+02  0.00000000000E+00 0. -1.
<scales pt_clust_5="13000.00000" pt_clust_6="13000.00000" pt_clust_7="13000.00000" pt_clust_8="13000.00000" pt_clust_9="27.31139"></scales>
<clustering>
<clus scale="   27.311">  1  9  2 -1</clus>
<clus scale="   80.536">  5  6 -1 -1</clus>
<clus scale="   89.718">  1  5  2 -1</clus>
<clus scale="   91.609">  7  8 -1 -1</clus>
<clus scale="   27.311">  1  5  2 -1</clus>
</clustering>
</event>
<event>
 9    1  0.7835476E-005  0.1583915E+03  0.7546771E-02  0.1192230E+00
          1   -1    0    0  502    0 -0.00000000000E+00  0.00000000000E+00  0.39436938973E+03  0.39436938973E+03  0.00000000000E+00 0. -1.
         21   -1    0    0  501  502  0.00000000000E+00 -0.00000000000E+00 -0.14034207921E+03  0.14034207921E+03  0.00000000000E+00 0. -1.
        -24    2    1    2    0    0 -0.11167173773E+03  0.62619545896E+02  0.19221552105E+03  0.24457357960E+03  0.80483816837E+02 0.  0.
         23    2    1    2    0    0  0.15338756678E+03  0.84407480252E+01 -0.12709115895E+02  0.17903819941E+03  0.91072297392E+02 0.  0.
         11    1    3    3    0    0 -0.11937153834E+03  0.68370513309E+02  0.16026175256E+03  0.21120587253E+03  0.00000000000E+00 0. -1.
        -12    1    3    3    0    0  0.76998006002E+01 -0.57509674132E+01  0.31953768482E+02  0.33367707078E+02  0.00000000000E+00 0.  1.
        -11    1    4    4    0    0  0.10271185265E+03 -0.37845099310E+02 -0.13394233761E+01  0.10947040820E+03  0.00000000000E+00 0.  1.
         11    1    4    4    0    0  0.50675714128E+02  0.46285847335E+02 -0.11369692519E+02  0.69567791211E+02  0.00000000000E+00 0. -1.
          2    1    1    2  501    0 -0.41715829044E+02 -0.71060293921E+02  0.74520905361E+02  0.11109968992E+03  0.00000000000E+00 0. -1.
<scales pt_clust_5="13000.00000" pt_clust_6="13000.00000" pt_clust_7="13000.00000" pt_clust_8="13000.00000" pt_clust_9="82.40014"></scales>
<clustering>
<clus scale="   80.484">  5  6 -1 -1</clus>
<clus scale="   82.400">  2  9  1 -1</clus>
<clus scale="   91.072">  7  8 -1 -1</clus>
<clus scale="  152.549">  1  5  2 -1</clus>
<clus scale="   82.400">  2  5  1 -1</clus>
</clustering>
</event>
<event>
 9    1  0.7835476E-005  0.1482321E+03  0.7546771E-02  0.1224503E+00
         -2   -1    0    0    0  501 -0.00000000000E+00  0.00000000000E+00  0.93986070435E+02  0.93986070435E+02  0.00000000000E+00 0.  1.
         21   -1    0    0  501  502  0.00000000000E+00 -0.00000000000E+00 -0.46850519454E+03  0.46850519454E+03  0.00000000000E+00 0.  1.
        -24    2    1    2    0    0 -0.83939847997E+01  0.47093190504E+02 -0.20097941335E+03  0.22155439364E+03  0.80033725269E+02 0.  0.
         23    2    1    2    0    0  0.39878514035E+02  0.75633488573E+02  0.40784026659E+00  0.12573728061E+03  0.92189896013E+02 0.  0.
         11    1    3    3    0    0 -0.16901806562E+02  0.64791100687E+02 -0.11247392544E+03  0.13089668329E+03  0.00000000000E+00 0. -1.
        -12    1    3    3    0    0  0.85078217624E+01 -0.17697910184E+02 -0.88505487909E+02  0.90657710351E+02  0.00000000000E+00 0.  1.
        -13    1    4    4    0    0 -0.34022838424E+01  0.63877565648E+02  0.31362835334E+02  0.71242868897E+02  0.00000000000E+00 0.  1.
         13    1    4    4    0    0  0.43280797877E+02  0.11755922926E+02 -0.30954995068E+02  0.54494411717E+02  0.00000000000E+00 0. -1.
         -1    1    1    2    0  502 -0.31484529235E+02 -0.12272667908E+03 -0.17394755103E+03  0.21519959072E+03  0.00000000000E+00 0.  1.
<scales pt_clust_5="13000.00000" pt_clust_6="13000.00000" pt_clust_7="13000.00000" pt_clust_8="13000.00000" pt_clust_9="116.07659"></scales>
<clustering>
<clus scale="   80.034">  5  6 -1 -1</clus>
<clus scale="   92.190">  7  8 -1 -1</clus>
<clus scale="   93.240">  1  5  2 -1</clus>
<clus scale="  116.077">  2  9  1 -1</clus>
<clus scale="  116.077">  2  5  1 -1</clus>
</clustering>
</event>
<event>
 9    1  0.7835476E-005  0.2337767E+03  0.7546771E-02  0.1124009E+00
          3   -1    0    0  502    0 -0.00000000000E+00  0.00000000000E+00  0.67398321121E+02  0.67398321121E+02  0.00000000000E+00 0. -1.
         21   -1    0    0  501  502  0.00000000000E+00 -0.00000000000E+00 -0.55403399845E+03  0.55403399845E+03  0.00000000000E+00 0.  1.
        -24    2    1    2    0    0  0.10831258603E+03 -0.85422465406E+01 -0.19997564008E+03  0.23950380909E+03  0.74613883914E+02 0.  0.
         23    2    1    2    0    0  0.38594381933E+02  0.17712834764E+02 -0.14801283381E+03  0.17971870868E+03  0.92670083881E+02 0.  0.
         11    1    3    3    0    0  0.43354284105E+02 -0.20459725343E+02 -0.28550891268E+02  0.55797380795E+02  0.00000000000E+00 0. -1.
        -12    1    3    3    0    0  0.64958301921E+02  0.11917478803E+02 -0.17142474882E+03  0.18370642829E+03  0.00000000000E+00 0.  1.
        -11    1    4    4    0    0 -0.29130514816E+02  0.15879510643E+02 -0.61020473682E+02  0.69456777640E+02  0.00000000000E+00 0. -1.
         11    1    4    4    0    0  0.67724896749E+02  0.18333241212E+01 -0.86992360124E+02  0.11026193104E+03  0.00000000000E+00 0.  1.
          4    1    1    2  501    0 -0.14690696796E+03 -0.91705882237E+01 -0.13864720344E+03  0.20220980180E+03  0.00000000000E+00 0. -1.
<scales pt_clust_5="13000.00000" pt_clust_6="13000.00000" pt_clust_7="13000.00000" pt_clust_8="13000.00000" pt_clust_9="147.19300"></scales>
<clustering>
<clus scale="   74.614">  5  6 -1 -1</clus>
<clus scale="   92.670">  7  8 -1 -1</clus>
<clus scale="   95.180">  5  7 -1 -1</clus>
<clus scale="  147.193">  2  9  1 -1</clus>
<clus scale="  147.193">  2  5  1 -1</clus>
</clustering>
</event>
<event>
 9    1  0.7835476E-005  0.1752585E+03  0.7546771E-02  0.1197766E+00
         -4   -1    0    0    0  501 -0.00000000000E+00  0.00000000000E+00  0.33860471918E+03  0.33860471918E+03  0.00000000000E+00 0.  1.
         21   -1    0    0  501  502  0.00000000000E+00 -0.00000000000E+00 -0.53280503871E+03  0.53280503871E+03  0.00000000000E+00 0.  1.
        -24    2    1    2    0    0 -0.75329870968E+02  0.14893662362E+02 -0.11402640094E+03  0.15149694696E+03  0.63662345130E+02 0.  0.
         23    2    1    2    0    0  0.21924922987E+03  0.18622095690E+02  0.25822075379E+03  0.35066080728E+03  0.88701955046E+02 0.  0.
         11    1    3    3    0    0 -0.41403101138E+02 -0.22097522222E+02 -0.72441576273E+02  0.86315115972E+02  0.00000000000E+00 0. -1.
        -12    1    3    3    0    0 -0.33926769830E+02  0.36991184585E+02 -0.41584824666E+02  0.65181830985E+02  0.00000000000E+00 0.  1.
        -13    1    4    4    0    0  0.13746525235E+03 -0.83933955534E+01  0.21228754805E+03  0.25304771832E+03  0.00000000000E+00 0.  1.
         13    1    4    4    0    0  0.81783977521E+02  0.27015491243E+02  0.45933205742E+02  0.97613088958E+02  0.00000000000E+00 0. -1.
         -3    1    1    2    0  502 -0.14391935890E+03 -0.33515758052E+02 -0.33839467238E+03  0.36925200365E+03  0.00000000000E+00 0.  1.
<scales pt_clust_5="13000.00000" pt_clust_6="13000.00000" pt_clust_7="13000.00000" pt_clust_8="13000.00000" pt_clust_9="151.15392"></scales>
<clustering>
<clus scale="   63.662">  5  6 -1 -1</clus>
<clus scale="   88.702">  7  8 -1 -1</clus>
<clus scale="   99.746">  1  5  2 -1</clus>
<clus scale="  151.154">  2  9  1 -1</clus>
<clus scale="  151.154">  2  5  1 -1</clus>
</clustering>
</event>
<event>
 9    1  0.7835476E-005  0.1443906E+03  0.7546771E-02  0.1230198E+00
         21   -1    0    0  501  502  0.00000000000E+00  0.00000000000E+00  0.87468554610E+02  0.87468554610E+02  0.00000000000E+00 0. -1.
          1   -1    0    0  502    0 -0.00000000000E+00 -0.00000000000E+00 -0.63371659491E+03  0.63371659491E+03  0.00000000000E+00 0. -1.
        -24    2    1    2    0    0 -0.15729184119E+02 -0.41138156694E+02 -0.30734977344E+03  0.32015590988E+03  0.78077962531E+02 0.  0.
         23    2    1    2    0    0 -0.38673459311E+02 -0.94850197326E+02 -0.19822003449E+02  0.13750146267E+03  0.89563072903E+02 0.  0.
         13    1    3    3    0    0 -0.32623064842E+02  0.10610881506E+02 -0.14157343503E+03  0.14567049349E+03  0.00000000000E+00 0. -1.
        -14    1    3    3    0    0  0.16893880723E+02 -0.51749038200E+02 -0.16577633841E+03  0.17448541640E+03  0.00000000000E+00 0.  1.
        -11    1    4    4    0    0 -0.41966040259E+02 -0.50345295317E+01 -0.21895487576E+02  0.47601548282E+02  0.00000000000E+00 0.  1.
         11    1    4    4    0    0  0.32925809482E+01 -0.89815667794E+02  0.20734841272E+01  0.89899914388E+02  0.00000000000E+00 0. -1.
          2    1    1    2  501    0  0.54402643429E+02  0.13598835402E+03 -0.21907626341E+03  0.26352777696E+03  0.00000000000E+00 0. -1.
<scales pt_clust_5="13000.00000" pt_clust_6="13000.00000" pt_clust_7="13000.00000" pt_clust_8="13000.00000" pt_clust_9="113.25682"></scales>
<clustering>
<clus scale="   78.078">  5  6 -1 -1</clus>
<clus scale="   89.563">  7  8 -1 -1</clus>
<clus scale="   89.643">  2  5  1 -1</clus>
<clus scale="  113.257">  1  9  2 -1</clus>
<clus scale="  113.257">  1  5  2 -1</clus>
</clustering>
</event>
<event>
 9    1  0.7835476E-005  0.9021218E+02  0.7546771E-02  0.1312466E+00
         -2   -1    0    0    0  501 -0.00000000000E+00  0.00000000000E+00  0.24911383911E+03  0.24911383911E+03  0.00000000000E+00 0.  1.
         21   -1    0    0  501  502  0.00000000000E+00 -0.00000000000E+00 -0.85039911295E+02  0.85039911295E+02  0.00000000000E+00 0. -1.
        -24    2    1    2    0    0 -0.52822681542E+01 -0.23293540133E+00  0.19849868190E+03  0.21224013376E+03  0.74941250638E+02 0.  0.
         23    2    1    2    0    0 -0.17733463182E+02  0.74887287219E+01 -0.32325264186E+02  0.97690109807E+02  0.90154745162E+02 0.  0.
         11    1    3    3    0    0  0.18190267495E+02  0.30002496446E+02  0.11797489544E+03  0.12308172723E+03  0.00000000000E+00 0. -1.
        -12    1    3    3    0    0 -0.23472535650E+02 -0.30235431848E+02  0.80523786462E+02  0.89158406530E+02  0.00000000000E+00 0.  1.
        -13    1    4    4    0    0 -0.27366363135E+02 -0.28981976591E+02  0.98979299234E+01  0.41071179860E+02  0.00000000000E+00 0.  1.
         13    1    4    4    0    0  0.96328999523E+01  0.36470705313E+02 -0.42223194109E+02  0.56618929947E+02  0.00000000000E+00 0. -1.
         -1    1    1    2    0  502  0.23015731337E+02 -0.72557933205E+01 -0.20994898987E+01  0.24223506837E+02  0.00000000000E+00 0.  1.
<scales pt_clust_5="13000.00000" pt_clust_6="13000.00000" pt_clust_7="13000.00000" pt_clust_8="13000.00000" pt_clust_9="24.13235"></scales>
<clustering>
<clus scale="   24.132">  2  9  1 -1</clus>
<clus scale="   74.941">  5  6 -1 -1</clus>
<clus scale="   75.010">  1  5  2 -1</clus>
<clus scale="   90.155">  7  8 -1 -1</clus>
<clus scale="   24.132">  2  5  1 -1</clus>
</clustering>
</event>
<event>
 9    1  0.7835476E-005  0.1234972E+03  0.7546771E-02  0.1239197E+00
         21   -1    0    0  501  502  0.00000000000E+00  0.00000000000E+00  0.53099233878E+03  0.53099233878E+03  0.00000000000E+00 0. -1.
          3   -1    0    0  502    0 -0.00000000000E+00 -0.00000000000E+00 -0.55546064964E+02  0.55546064964E+02  0.00000000000E+00 0. -1.
         23    2    1    2    0    0 -0.42423436277E+02 -0.49212017483E+02  0.12814350710E+03  0.17015479580E+03  0.91160986786E+02 0.  0.
        -24    2    1    2    0    0  0.10755330124E+03  0.30181807276E+02  0.14028331971E+03  0.19852792257E+03  0.85177885355E+02 0.  0.
         13    1    4    4    0    0  0.28661282923E+02  0.45123489016E+02  0.27593481332E+02  0.60158113433E+02  0.00000000000E+00 0. -1.
        -14    1    4    4    0    0  0.78892018315E+02 -0.14941681741E+02  0.11268983838E+03  0.13836980914E+03  0.00000000000E+00 0.  1.
        -13    1    3    3    0    0 -0.43012727476E+02  0.12502240878E+02  0.80744154699E+02  0.92336446055E+02  0.00000000000E+00 0. -1.
         13    1    3    3    0    0  0.58929119933E+00 -0.61714258361E+02  0.47399352399E+02  0.77818349745E+02  0.00000000000E+00 0.  1.
          4    1    1    2  501    0 -0.65129864961E+02  0.19030210207E+02  0.20701944701E+03  0.21785568538E+03  0.00000000000E+00 0. -1.
<scales pt_clust_5="13000.00000" pt_clust_6="13000.00000" pt_clust_7="13000.00000" pt_clust_8="13000.00000" pt_clust_9="67.85314"></scales>
<clustering>
<clus scale="   67.853">  1  9  2 -1</clus>
<clus scale="   85.178">  5  6 -1 -1</clus>
<clus scale="   91.161">  7  8 -1 -1</clus>
<clus scale="  119.149">  1  5  2 -1</clus>
<clus scale="   67.853">  1  5  2 -1</clus>
</clustering>
</event>
<event>
 9    1  0.7835476E-005  0.1206571E+03  0.7546771E-02  0.1246041E+00
         21   -1    0    0  501  502  0.00000000000E+00  0.00000000000E+00  0.10058675534E+03  0.10058675534E+03  0.00000000000E+00 0. -1.
          1   -1    0    0  502    0 -0.00000000000E+00 -0.00000000000E+00 -0.42940381677E+03  0.42940381677E+03  0.00000000000E+00 0. -1.
        -24    2    1    2    0    0  0.59390608188E+02  0.40669424281E+02 -0.23542882120E+03  0.25861722740E+03  0.79214228811E+02 0.  0.
         23    2    1    2    0    0 -0.78176693369E+02 -0.97653280918E+02  0.58947897378E+01  0.15536818555E+03  0.91960675696E+02 0.  0.
         13    1    3    3    0    0  0.23513327549E+02 -0.20143735148E+02 -0.38452933356E+02  0.49368762612E+02  0.00000000000E+00 0. -1.
        -14    1    3    3    0    0  0.35877280639E+02  0.60813159429E+02 -0.19697588784E+03  0.20924846479E+03  0.00000000000E+00 0.  1.
        -13    1    4    4    0    0 -0.25384226753E+02  0.20918546700E+01  0.30628444345E+02  0.39835115499E+02  0.00000000000E+00 0.  1.
         13    1    4    4    0    0 -0.52792466616E+02 -0.99745135588E+02 -0.24733654607E+02  0.11553307005E+03  0.00000000000E+00 0. -1.
          2    1    1    2  501    0  0.18786085181E+02  0.56983856637E+02 -0.99283029972E+02  0.11600515917E+03  0.00000000000E+00 0. -1.
<scales pt_clust_5="13000.00000" pt_clust_6="13000.00000" pt_clust_7="13000.00000" pt_clust_8="13000.00000" pt_clust_9="60.00067"></scales>
<clustering>
<clus scale="   60.001">  1  9  2 -1</clus>
<clus scale="   79.214">  5  6 -1 -1</clus>
<clus scale="   91.961">  7  8 -1 -1</clus>
<clus scale="  111.249">  2  5  1 -1</clus>
<clus scale="   60.001">  1  5  2 -1</clus>
</clustering>
</event>
<event>
 9    1  0.7835476E-005  0.9691413E+02  0.7546771E-02  0.1292851E+00
         21   -1    0    0  501  502  0.00000000000E+00  0.00000000000E+00  0.10394617671E+03  0.10394617671E+03  0.00000000000E+00 0.  1.
         -4   -1    0    0    0  501 -0.00000000000E+00 -0.00000000000E+00 -0.23920685425E+03  0.23920685425E+03  0.00000000000E+00 0.  1.
         23    2    1    2    0    0  0.72718108399E+01 -0.17142076969E+02 -0.13858289419E+03  0.16700889531E+03  0.91323723731E+02 0.  0.
        -24    2    1    2    0    0 -0.29647993206E+02  0.63874572551E+02 -0.34123173544E+02  0.11221623151E+03  0.80430884125E+02 0.  0.
         11    1    4    4    0    0  0.21628561752E+02 -0.15584501781E+01  0.15809746327E+01  0.21742192419E+02  0.00000000000E+00 0. -1.
        -12    1    4    4    0    0 -0.51276554958E+02  0.65433022729E+02 -0.35704148177E+02  0.90474039088E+02  0.00000000000E+00 0.  1.
        -13    1    3    3    0    0  0.48984608972E+02 -0.15709965984E+02 -0.78358513920E+02  0.93735541025E+02  0.00000000000E+00 0. -1.
         13    1    3    3    0    0 -0.41712798132E+02 -0.14321109856E+01 -0.60224380270E+02  0.73273354289E+02  0.00000000000E+00 0.  1.
         -3    1    1    2    0  502  0.22376182366E+02 -0.46732495582E+02  0.37445390194E+02  0.63927904137E+02  0.00000000000E+00 0.  1.
<scales pt_clust_5="13000.00000" pt_clust_6="13000.00000" pt_clust_7="13000.00000" pt_clust_8="13000.00000" pt_clust_9="51.81332"></scales>
<clustering>
<clus scale="   51.813">  1  9  2 -1</clus>
<clus scale="   80.431">  5  6 -1 -1</clus>
<clus scale="   86.726">  1  5  2 -1</clus>
<clus scale="   91.324">  7  8 -1 -1</clus>
<clus scale="   51.813">  1  5  2 -1</clus>
</clustering>
</event>
<event>
 9    1  0.7835476E-005  0.1106231E+03  0.7546771E-02  0.1260917E+00
         21   -1    0    0  501  502  0.00000000000E+00  0.00000000000E+00  0.12891957646E+03  0.12891957646E+03  0.00000000000E+00 0. -1.
          1   -1    0    0  502    0 -0.00000000000E+00 -0.00000000000E+00 -0.47714072097E+03  0.47714072097E+03  0.00000000000E+00 0. -1.
        -24    2    1    2    0    0  0.55817405193E+02 -0.24020008433E+02 -0.34446655130E+03  0.36201126677E+03  0.93286702014E+02 0.  0.
         23    2    1    2    0    0 -0.14978043481E+02  0.68748236419E+02  0.81129128032E+02  0.13977192880E+03  0.89462812758E+02 0.  0.
         11    1    3    3    0    0 -0.98372885870E+01 -0.20960918369E+02 -0.18935371049E+02  0.29911212319E+02  0.00000000000E+00 0. -1.
        -12    1    3    3    0    0  0.65654693780E+02 -0.30590900631E+01 -0.32553118025E+03  0.33210005445E+03  0.00000000000E+00 0.  1.
        -13    1    4    4    0    0 -0.30293705323E+02  0.87162152432E+01 -0.67615118309E+01  0.32239712043E+02  0.00000000000E+00 0.  1.
         13    1    4    4    0    0  0.15315661842E+02  0.60032021176E+02  0.87890639863E+02  0.10753221675E+03  0.00000000000E+00 0. -1.
          2    1    1    2  501    0 -0.40839361712E+02 -0.44728227987E+02 -0.84883721233E+02  0.10427710187E+03  0.00000000000E+00 0. -1.
<scales pt_clust_5="13000.00000" pt_clust_6="13000.00000" pt_clust_7="13000.00000" pt_clust_8="13000.00000" pt_clust_9="60.56791"></scales>
<clustering>
<clus scale="   60.568">  1  9  2 -1</clus>
<clus scale="   89.463">  7  8 -1 -1</clus>
<clus scale="   93.287">  5  6 -1 -1</clus>
<clus scale="  107.418">  1  7  2 -1</clus>
<clus scale="   60.568">  1  5  2 -1</clus>
</clustering>
</event>
<event>
 9    1  0.7835476E-005  0.4941013E+03  0.7546771E-02  0.1051526E+00
         21   -1    0    0  501  502  0.00000000000E+00  0.00000000000E+00  0.41268745048E+03  0.41268745048E+03  0.00000000000E+00 0. -1.
          1   -1    0    0  502    0 -0.00000000000E+00 -0.00000000000E+00 -0.12653732478E+04  0.12653732478E+04  0.00000000000E+00 0. -1.
         23    2    1    2    0    0 -0.14433223184E+03  0.19297296968E+02 -0.12044948999E+03  0.20832043388E+03  0.87664957173E+02 0.  0.
        -24    2    1    2    0    0 -0.27957237730E+03  0.37529488743E+03  0.70129700674E+02  0.48020031046E+03  0.81652903025E+02 0.  0.
         13    1    4    4    0    0 -0.13084633318E+03  0.24207970701E+03  0.33605989183E+02  0.27722321324E+03  0.00000000000E+00 0. -1.
        -14    1    4    4    0    0 -0.14872604412E+03  0.13321518042E+03  0.36523711491E+02  0.20297709722E+03  0.00000000000E+00 0.  1.
        -11    1    3    3    0    0 -0.44789520433E+02 -0.20979907215E+02 -0.35507530193E+01  0.49586948831E+02  0.00000000000E+00 0.  1.
         11    1    3    3    0    0 -0.99542711403E+02  0.40277204183E+02 -0.11689873697E+03  0.15873348505E+03  0.00000000000E+00 0. -1.
          2    1    1    2  501    0  0.42390460914E+03 -0.39459218440E+03 -0.80236600799E+03  0.98953995393E+03  0.00000000000E+00 0. -1.
<scales pt_clust_5="13000.00000" pt_clust_6="13000.00000" pt_clust_7="13000.00000" pt_clust_8="13000.00000" pt_clust_9="487.30802"></scales>
<clustering>
<clus scale="   81.653">  5  6 -1 -1</clus>
<clus scale="   87.665">  7  8 -1 -1</clus>
<clus scale="  169.969">  2  7  1 -1</clus>
<clus scale="  487.308">  1  9  2 -1</clus>
<clus scale="  487.308">  1  5  2 -1</clus>
</clustering>
</event>
<event>
 9    1  0.7835476E-005  0.9202809E+02  0.7546771E-02  0.1304438E+00
          1   -1    0    0  502    0 -0.00000000000E+00  0.00000000000E+00  0.22670667512E+03  0.22670667512E+03  0.00000000000E+00 0. -1.
         21   -1    0    0  501  502  0.00000000000E+00 -0.00000000000E+00 -0.12994603465E+03  0.12994603465E+03  0.00000000000E+00 0.  1.
         23    2    1    2    0    0 -0.32826904081E+01 -0.78342218460E+01  0.15542065670E+03  0.18078297825E+03  0.91949734130E+02 0.  0.
        -24    2    1    2    0    0 -0.39604847958E+02 -0.29930805639E+02 -0.68883581638E+02  0.11781751763E+03  0.81680000812E+02 0.  0.
         13    1    4    4    0    0  0.15094936323E+02  0.17541538960E+02 -0.17522836430E+02  0.29027788208E+02  0.00000000000E+00 0. -1.
        -14    1    4    4    0    0 -0.54699784282E+02 -0.47472344598E+02 -0.51360745208E+02  0.88789729420E+02  0.00000000000E+00 0.  1.
        -13    1    3    3    0    0 -0.33450340852E+02 -0.37337000786E+02  0.86043993761E+02  0.99581854739E+02  0.00000000000E+00 0. -1.
         13    1    3    3    0    0  0.30167650444E+02  0.29502778940E+02  0.69376662938E+02  0.81201123508E+02  0.00000000000E+00 0.  1.
          2    1    1    2  501    0  0.42887538366E+02  0.37765027485E+02  0.10223565416E+02  0.58052213893E+02  0.00000000000E+00 0. -1.
<scales pt_clust_5="13000.00000" pt_clust_6="13000.00000" pt_clust_7="13000.00000" pt_clust_8="13000.00000" pt_clust_9="57.14489"></scales>
<clustering>
<clus scale="   57.145">  2  9  1 -1</clus>
<clus scale="   81.680">  5  6 -1 -1</clus>
<clus scale="   81.768">  2  5  1 -1</clus>
<clus scale="   91.950">  7  8 -1 -1</clus>
<clus scale="   57.145">  2  5  1 -1</clus>
</clustering>
</event>
<event>
 9    1  0.7835476E-005  0.2046515E+03  0.7546771E-02  0.1146660E+00
          1   -1    0    0  502    0 -0.00000000000E+00  0.00000000000E+00  0.10831642623E+04  0.10831642623E+04  0.00000000000E+00 0. -1.
         21   -1    0    0  501  502  0.00000000000E+00 -0.00000000000E+00 -0.18882022035E+03  0.18882022035E+03  0.00000000000E+00 0. -1.
         23    2    1    2    0    0 -0.28879176453E+02 -0.18549294896E+03  0.88401042634E+03  0.90811777262E+03  0.89228998200E+02 0.  0.
        -24    2    1    2    0    0 -0.16703561342E+02  0.17304713719E+03  0.13255012902E+03  0.23283404100E+03  0.80111380541E+02 0.  0.
         13    1    4    4    0    0 -0.38698302375E+02  0.11431146310E+03  0.53727457653E+02  0.13210340233E+03  0.00000000000E+00 0. -1.
        -14    1    4    4    0    0  0.21994741033E+02  0.58735674095E+02  0.78822671365E+02  0.10073063866E+03  0.00000000000E+00 0.  1.
        -13    1    3    3    0    0 -0.53563287495E+02 -0.70744346906E+02  0.43979296845E+03  0.44865537274E+03  0.00000000000E+00 0.  1.
         13    1    3    3    0    0  0.24684111042E+02 -0.11474860205E+03  0.44421745789E+03  0.45946239988E+03  0.00000000000E+00 0. -1.
          2    1    1    2  501    0  0.45582737794E+02  0.12445811767E+02 -0.12221651339E+03  0.13103266906E+03  0.00000000000E+00 0. -1.
<scales pt_clust_5="13000.00000" pt_clust_6="13000.00000" pt_clust_7="13000.00000" pt_clust_8="13000.00000" pt_clust_9="47.25129"></scales>
<clustering>
<clus scale="   47.251">  2  9  1 -1</clus>
<clus scale="   80.111">  5  6 -1 -1</clus>
<clus scale="   89.229">  7  8 -1 -1</clus>
<clus scale="  200.844">  2  5  1 -1</clus>
<clus scale="   47.251">  2  5  1 -1</clus>
</clustering>
</event>
<event>
 9    1  0.7835476E-005  0.1529344E+03  0.7546771E-02  0.1205350E+00
          1   -1    0    0  502    0 -0.00000000000E+00  0.00000000000E+00  0.10829763362E+04  0.10829763362E+04  0.00000000000E+00 0. -1.
         21   -1    0    0  501  502  0.00000000000E+00 -0.00000000000E+00 -0.51097584069E+02  0.51097584069E+02  0.00000000000E+00 0. -1.
        -24    2    1    2    0    0 -0.46521842712E+02 -0.86403837489E+02  0.15954781533E+03  0.20415467108E+03  0.81201720226E+02 0.  0.
         23    2    1    2    0    0  0.85356470150E+02 -0.72378680255E+02  0.27541168513E+03  0.31102296607E+03  0.91429146162E+02 0.  0.
         13    1    3    3    0    0 -0.61482335202E+02 -0.33942542748E+02  0.10971655474E+03  0.13026855390E+03  0.00000000000E+00 0. -1.
        -14    1    3    3    0    0  0.14960492490E+02 -0.52461294741E+02  0.49831260586E+02  0.73886117188E+02  0.00000000000E+00 0.  1.
        -11    1    4    4    0    0  0.68330971596E+01 -0.35379403135E+02  0.17327875606E+03  0.17698565107E+03  0.00000000000E+00 0.  1.
         11    1    4    4    0    0  0.78523372990E+02 -0.36999277120E+02  0.10213292907E+03  0.13403731500E+03  0.00000000000E+00 0. -1.
          2    1    1    2  501    0 -0.38834627437E+02  0.15878251774E+03  0.59691925170E+03  0.61889628313E+03  0.00000000000E+00 0. -1.
<scales pt_clust_5="13000.00000" pt_clust_6="13000.00000" pt_clust_7="13000.00000" pt_clust_8="13000.00000" pt_clust_9="122.59550"></scales>
<clustering>
<clus scale="   81.202">  5  6 -1 -1</clus>
<clus scale="   91.429">  7  8 -1 -1</clus>
<clus scale="  127.372">  1  5  2 -1</clus>
<clus scale="  122.595">  2  9  1 -1</clus>
<clus scale="  122.595">  2  5  1 -1</clus>
</clustering>
</event>
<event>
 9    1  0.7835476E-005  0.1096608E+03  0.7546771E-02  0.1265260E+00
         21   -1    0    0  501  502  0.00000000000E+00  0.00000000000E+00  0.10200462994E+03  0.10200462994E+03  0.00000000000E+00 0. -1.
         -2   -1    0    0    0  501 -0.00000000000E+00 -0.00000000000E+00 -0.16426568785E+03  0.16426568785E+03  0.00000000000E+00 0.  1.
         23    2    1    2    0    0 -0.65576970413E+02  0.21107838297E+02 -0.52943894241E+02  0.12606007008E+03  0.91335674541E+02 0.  0.
        -24    2    1    2    0    0  0.35894008225E+02 -0.38200823775E+02  0.15651373628E+02  0.97823029703E+02  0.81096836438E+02 0.  0.
         13    1    4    4    0    0  0.10072997604E+02  0.24912219313E+02  0.12291976322E+02  0.29549562327E+02  0.00000000000E+00 0. -1.
        -14    1    4    4    0    0  0.25821010621E+02 -0.63113043088E+02  0.33593973057E+01  0.68273467376E+02  0.00000000000E+00 0.  1.
        -11    1    3    3    0    0 -0.36046161445E+02  0.31968959616E+02 -0.73926333741E+02  0.88240823626E+02  0.00000000000E+00 0.  1.
         11    1    3    3    0    0 -0.29530808968E+02 -0.10861121318E+02  0.20982439500E+02  0.37819246449E+02  0.00000000000E+00 0. -1.
         -1    1    1    2    0  502  0.29682962188E+02  0.17092985477E+02 -0.24968537294E+02  0.42387218019E+02  0.00000000000E+00 0.  1.
<scales pt_clust_5="13000.00000" pt_clust_6="13000.00000" pt_clust_7="13000.00000" pt_clust_8="13000.00000" pt_clust_9="34.25273"></scales>
<clustering>
<clus scale="   34.253">  1  9  2 -1</clus>
<clus scale="   81.097">  5  6 -1 -1</clus>
<clus scale="   91.336">  7  8 -1 -1</clus>
<clus scale="  101.292">  1  5  2 -1</clus>
<clus scale="   34.253">  1  5  2 -1</clus>
</clustering>
</event>
<event>
 9    1  0.7835476E-005  0.1968527E+03  0.7546771E-02  0.1153477E+00
         -2   -1    0    0    0  501 -0.00000000000E+00  0.00000000000E+00  0.98986088470E+03  0.98986088470E+03  0.00000000000E+00 0.  1.
         21   -1    0    0  501  502  0.00000000000E+00 -0.00000000000E+00 -0.78466005013E+02  0.78466005013E+02  0.00000000000E+00 0.  1.
         23    2    1    2    0    0  0.12959703841E+03  0.12131075352E+03  0.75856553013E+03  0.78442618821E+03  0.91602892789E+02 0.  0.
        -24    2    1    2    0    0 -0.15023590030E+03 -0.72670764191E+02  0.10753429661E+03  0.21430578068E+03  0.80693723296E+02 0.  0.
         13    1    4    4    0    0 -0.12146602014E+02 -0.39980882996E+02  0.12869103542E+02  0.43722131371E+02  0.00000000000E+00 0. -1.
        -14    1    4    4    0    0 -0.13808929829E+03 -0.32689881194E+02  0.94665193072E+02  0.17058364931E+03  0.00000000000E+00 0.  1.
        -13    1    3    3    0    0  0.50587031896E+02  0.25347845811E+00  0.13105003640E+03  0.14047499453E+03  0.00000000000E+00 0. -1.
         13    1    3    3    0    0  0.79010006510E+02  0.12105727507E+03  0.62751549372E+03  0.64395119368E+03  0.00000000000E+00 0.  1.
         -1    1    1    2    0  502  0.20638861893E+02 -0.48639989333E+02  0.45295052948E+02  0.69594920821E+02  0.00000000000E+00 0.  1.
<scales pt_clust_5="13000.00000" pt_clust_6="13000.00000" pt_clust_7="13000.00000" pt_clust_8="13000.00000" pt_clust_9="52.83759"></scales>
<clustering>
<clus scale="   52.838">  2  9  1 -1</clus>
<clus scale="   80.694">  5  6 -1 -1</clus>
<clus scale="   91.603">  7  8 -1 -1</clus>
<clus scale="  192.019">  2  5  1 -1</clus>
<clus scale="   52.838">  2  5  1 -1</clus>
</clustering>
</event>
<event>
 9    1  0.7835476E-005  0.2160332E+03  0.7546771E-02  0.1137752E+00
         21   -1    0    0  501  502  0.00000000000E+00  0.00000000000E+00  0.17375582373E+03  0.17375582373E+03  0.00000000000E+00 0. -1.
         -2   -1    0    0    0  501 -0.00000000000E+00 -0.00000000000E+00 -0.39235283402E+03  0.39235283402E+03  0.00000000000E+00 0.  1.
        -24    2    1    2    0    0  0.20193927892E+03 -0.22345633761E+02 -0.18989416310E+03  0.28953031206E+03  0.80555624914E+02 0.  0.
         23    2    1    2    0    0 -0.18146502369E+03  0.36436725689E+02 -0.78423799455E+02  0.22099123303E+03  0.91813087054E+02 0.  0.
         13    1    3    3    0    0  0.40616697413E+02 -0.34181717855E+02 -0.25475408488E+02  0.58882105786E+02  0.00000000000E+00 0. -1.
        -14    1    3    3    0    0  0.16132258151E+03  0.11836084094E+02 -0.16441875461E+03  0.23064820628E+03  0.00000000000E+00 0.  1.
        -11    1    4    4    0    0 -0.14785826889E+03  0.99111355376E+01 -0.93935344375E+02  0.17545411710E+03  0.00000000000E+00 0.  1.
         11    1    4    4    0    0 -0.33606754802E+02  0.26525590151E+02  0.15511544920E+02  0.45537115928E+02  0.00000000000E+00 0. -1.
         -1    1    1    2    0  502 -0.20474255230E+02 -0.14091091928E+02  0.49720952262E+02  0.55587112650E+02  0.00000000000E+00 0.  1.
<scales pt_clust_5="13000.00000" pt_clust_6="13000.00000" pt_clust_7="13000.00000" pt_clust_8="13000.00000" pt_clust_9="24.85466"></scales>
<clustering>
<clus scale="   24.855">  1  9  2 -1</clus>
<clus scale="   80.556">  5  6 -1 -1</clus>
<clus scale="   91.813">  7  8 -1 -1</clus>
<clus scale="  211.494">  2  5  1 -1</clus>
<clus scale="   24.855">  1  5  2 -1</clus>
</clustering>
</event>
<event>
 9    1  0.7835476E-005  0.1212640E+03  0.7546771E-02  0.1244939E+00
          1   -1    0    0  502    0 -0.00000000000E+00  0.00000000000E+00  0.32536809149E+03  0.32536809149E+03  0.00000000000E+00 0. -1.
         21   -1    0    0  501  502  0.00000000000E+00 -0.00000000000E+00 -0.13102517086E+03  0.13102517086E+03  0.00000000000E+00 0. -1.
         23    2    1    2    0    0  0.60930965070E+02  0.55127665901E+02  0.26627205154E+03  0.29370957290E+03  0.92805526402E+02 0.  0.
        -24    2    1    2    0    0 -0.46365196528E+02 -0.38965145578E+02 -0.15026141971E+02  0.10176293086E+03  0.80385913794E+02 0.  0.
         13    1    4    4    0    0 -0.37011882514E+02 -0.63994901814E+02 -0.11033709476E+02  0.74746034345E+02  0.00000000000E+00 0. -1.
        -14    1    4    4    0    0 -0.93533140139E+01  0.25029756237E+02 -0.39924324954E+01  0.27016896519E+02  0.00000000000E+00 0.  1.
        -13    1    3    3    0    0  0.48228421761E+02  0.35210948222E+02  0.26319889729E+03  0.26988784907E+03  0.00000000000E+00 0. -1.
         13    1    3    3    0    0  0.12702543309E+02  0.19916717679E+02  0.30731542574E+01  0.23821723840E+02  0.00000000000E+00 0.  1.
          2    1    1    2  501    0 -0.14565768542E+02 -0.16162520323E+02 -0.56902988935E+02  0.60920758582E+02  0.00000000000E+00 0. -1.
<scales pt_clust_5="13000.00000" pt_clust_6="13000.00000" pt_clust_7="13000.00000" pt_clust_8="13000.00000" pt_clust_9="21.75750"></scales>
<clustering>
<clus scale="   21.757">  2  9  1 -1</clus>
<clus scale="   80.386">  5  6 -1 -1</clus>
<clus scale="   92.806">  7  8 -1 -1</clus>
<clus scale="  112.045">  2  5  1 -1</clus>
<clus scale="   21.757">  2  5  1 -1</clus>
</clustering>
</event>
<event>
 9    1  0.7835476E-005  0.9733931E+02  0.7546771E-02  0.1296426E+00
          3   -1    0    0  502    0 -0.00000000000E+00  0.00000000000E+00  0.82033160420E+02  0.82033160420E+02  0.00000000000E+00 0. -1.
         21   -1    0    0  501  502  0.00000000000E+00 -0.00000000000E+00 -0.20333707105E+03  0.20333707105E+03  0.00000000000E+00 0.  1.
        -24    2    1    2    0    0 -0.13392724996E+02 -0.12787059181E+01  0.15191471630E+02  0.80998169772E+02  0.78415065673E+02 0.  0.
         23    2    1    2    0    0  0.16383498186E+02 -0.43872488904E+02 -0.98796051912E+02  0.14547541810E+03  0.95964697171E+02 0.  0.
         13    1    3    3    0    0 -0.50523112916E+00  0.33331512269E+02  0.26267973628E+02  0.42441152283E+02  0.00000000000E+00 0. -1.
        -14    1    3    3    0    0 -0.12887493867E+02 -0.34610218187E+02 -0.11076501999E+02  0.38557017489E+02  0.00000000000E+00 0.  1.
        -11    1    4    4    0    0  0.34480066304E+02 -0.63196515289E+02 -0.94272841165E+02  0.11861721249E+03  0.00000000000E+00 0.  1.
         11    1    4    4    0    0 -0.18096568118E+02  0.19324026385E+02 -0.45232107467E+01  0.26858205614E+02  0.00000000000E+00 0. -1.
          4    1    1    2  501    0 -0.29907731901E+01  0.45151194822E+02 -0.37699330344E+02  0.58896643593E+02  0.00000000000E+00 0. -1.
<scales pt_clust_5="13000.00000" pt_clust_6="13000.00000" pt_clust_7="13000.00000" pt_clust_8="13000.00000" pt_clust_9="45.25014"></scales>
<clustering>
<clus scale="   45.250">  2  9  1 -1</clus>
<clus scale="   78.415">  5  6 -1 -1</clus>
<clus scale="   80.091">  1  5  2 -1</clus>
<clus scale="   95.965">  7  8 -1 -1</clus>
<clus scale="   45.250">  2  5  1 -1</clus>
</clustering>
</event>
<event>
 9    1  0.7835476E-005  0.1486218E+03  0.7546771E-02  0.1205162E+00
         21   -1    0    0  501  502  0.00000000000E+00  0.00000000000E+00  0.54899161439E+03  0.54899161439E+03  0.00000000000E+00 0. -1.
          3   -1    0    0  502    0 -0.00000000000E+00 -0.00000000000E+00 -0.39169083096E+03  0.39169083096E+03  0.00000000000E+00 0. -1.
        -24    2    1    2    0    0 -0.75992902063E+02 -0.85185276633E+02 -0.34921924010E+03  0.37554176028E+03  0.77756565902E+02 0.  0.
         23    2    1    2    0    0  0.10879204312E+03  0.98308695242E+02  0.24027514480E+03  0.29656231063E+03  0.93363540375E+02 0.  0.
         11    1    3    3    0    0 -0.72080396851E+02 -0.99734528124E+02 -0.31092175791E+03  0.33438734912E+03  0.00000000000E+00 0. -1.
        -12    1    3    3    0    0 -0.39125052124E+01  0.14549251490E+02 -0.38297482183E+02  0.41154411155E+02  0.00000000000E+00 0.  1.
        -11    1    4    4    0    0  0.11070677066E+03  0.77704469003E+02  0.14190114544E+03  0.19603547804E+03  0.00000000000E+00 0.  1.
         11    1    4    4    0    0 -0.19147275402E+01  0.20604226240E+02  0.98373999362E+02  0.10052683259E+03  0.00000000000E+00 0. -1.
          4    1    1    2  501    0 -0.32799141059E+02 -0.13123418609E+02  0.26624487872E+03  0.26857837444E+03  0.00000000000E+00 0. -1.
<scales pt_clust_5="13000.00000" pt_clust_6="13000.00000" pt_clust_7="13000.00000" pt_clust_8="13000.00000" pt_clust_9="35.32715"></scales>
<clustering>
<clus scale="   35.327">  1  9  2 -1</clus>
<clus scale="   77.757">  5  6 -1 -1</clus>
<clus scale="   93.364">  7  8 -1 -1</clus>
<clus scale="  139.348">  2  5  1 -1</clus>
<clus scale="   35.327">  1  5  2 -1</clus>
</clustering>
</event>
<event>
 9    1  0.8531887E-005  0.2599270E+03  0.7546771E-02  0.1107843E+00
          1   -1    0    0  502    0 -0.00000000000E+00  0.00000000000E+00  0.80735644570E+03  0.80735644570E+03  0.00000000000E+00 0. -1.
         21   -1    0    0  501  502  0.00000000000E+00 -0.00000000000E+00 -0.24207688855E+03  0.24207688855E+03  0.00000000000E+00 0. -1.
         23    2    1    2    0    0 -0.24538921315E+03 -0.55044515672E+02  0.69796705931E+03  0.74780987897E+03  0.93892675787E+02 0.  0.
        -24    2    1    2    0    0  0.17589274940E+03  0.38812719782E+02 -0.11298009928E+03  0.22758555013E+03  0.81154132892E+02 0.  0.
         11    1    4    4    0    0  0.11368665983E+03  0.63570682770E+02 -0.68082118771E+02  0.14697300169E+03  0.00000000000E+00 0. -1.
        -12    1    4    4    0    0  0.62206089577E+02 -0.24757962988E+02 -0.44897980509E+02  0.80612548437E+02  0.00000000000E+00 0.  1.
        -11    1    3    3    0    0 -0.61609023815E+02 -0.55500213771E+02  0.17931521587E+03  0.19755984457E+03  0.00000000000E+00 0.  1.
         11    1    3    3    0    0 -0.18378018933E+03  0.45569809901E+00  0.51865184344E+03  0.55025003440E+03  0.00000000000E+00 0. -1.
          2    1    1    2  501    0  0.69496463743E+02  0.16231795890E+02 -0.19707402881E+02  0.74037905149E+02  0.00000000000E+00 0. -1.
<scales pt_clust_5="13000.00000" pt_clust_6="13000.00000" pt_clust_7="13000.00000" pt_clust_8="13000.00000" pt_clust_9="71.36687"></scales>
<clustering>
<clus scale="   71.367">  2  9  1 -1</clus>
<clus scale="   81.154">  5  6 -1 -1</clus>
<clus scale="   93.893">  7  8 -1 -1</clus>
<clus scale="  255.602">  2  5  1 -1</clus>
<clus scale="   71.367">  2  5  1 -1</clus>
</clustering>
</event>
<event>
 9    1  0.7835476E-005  0.9703276E+02  0.7546771E-02  0.1292540E+00
         21   -1    0    0  501  502  0.00000000000E+00  0.00000000000E+00  0.19957644873E+03  0.19957644873E+03  0.00000000000E+00 0. -1.
          1   -1    0    0  502    0 -0.00000000000E+00 -0.00000000000E+00 -0.33272605015E+03  0.33272605015E+03  0.00000000000E+00 0. -1.
         23    2    1    2    0    0 -0.38729265886E+02  0.61221021491E+01 -0.26904056295E+03  0.28664988012E+03  0.90817911730E+02 0.  0.
        -24    2    1    2    0    0  0.17081375174E+02  0.17690785660E+02 -0.20415021878E+02  0.86068016601E+02  0.79913660211E+02 0.  0.
         13    1    4    4    0    0  0.35863598944E+02  0.11161540904E+02 -0.42252516976E+02  0.56533644102E+02  0.00000000000E+00 0. -1.
        -14    1    4    4    0    0 -0.18782223770E+02  0.65292447561E+01  0.21837495098E+02  0.29534372500E+02  0.00000000000E+00 0.  1.
        -11    1    3    3    0    0  0.34609866963E+01 -0.36476610063E+02 -0.13357978241E+03  0.13851382523E+03  0.00000000000E+00 0.  1.
         11    1    3    3    0    0 -0.42190252582E+02  0.42598712212E+02 -0.13546078054E+03  0.14813605489E+03  0.00000000000E+00 0. -1.
          2    1    1    2  501    0  0.21647890712E+02 -0.23812887809E+02  0.15630598340E+03  0.15958460216E+03  0.00000000000E+00 0. -1.
<scales pt_clust_5="13000.00000" pt_clust_6="13000.00000" pt_clust_7="13000.00000" pt_clust_8="13000.00000" pt_clust_9="32.18206"></scales>
<clustering>
<clus scale="   32.182">  1  9  2 -1</clus>
<clus scale="   79.914">  5  6 -1 -1</clus>
<clus scale="   86.912">  1  5  2 -1</clus>
<clus scale="   90.818">  7  8 -1 -1</clus>
<clus scale="   32.182">  1  5  2 -1</clus>
</clustering>
</event>
<event>
 9    1  0.7835476E-005  0.1802537E+03  0.7546771E-02  0.1192255E+00
         21   -1    0    0  501  502  0.00000000000E+00  0.00000000000E+00  0.13506118384E+04  0.13506118384E+04  0.00000000000E+00 0.  1.
         -2   -1    0    0    0  501 -0.00000000000E+00 -0.00000000000E+00 -0.72623229720E+02  0.72623229720E+02  0.00000000000E+00 0.  1.
         23    2    1    2    0    0 -0.22252358821E+02 -0.43227150433E+02  0.24882234673E+03  0.26946909144E+03  0.91308690715E+02 0.  0.
        -24    2    1    2    0    0  0.36697828421E+01  0.19910775999E+03  0.15280302170E+03  0.26345333192E+03  0.80009544831E+02 0.  0.
         13    1    4    4    0    0  0.28409243440E+02  0.86734050028E+02  0.10427086420E+03  0.13857234092E+03  0.00000000000E+00 0. -1.
        -14    1    4    4    0    0 -0.24739460598E+02  0.11237370996E+03  0.48532157502E+02  0.12488099100E+03  0.00000000000E+00 0.  1.
        -11    1    3    3    0    0 -0.43104584081E+02 -0.44536655672E+02  0.23800239149E+03  0.24594035297E+03  0.00000000000E+00 0.  1.
         11    1    3    3    0    0  0.20852225259E+02  0.13095052391E+01  0.10819955243E+02  0.23528738464E+02  0.00000000000E+00 0. -1.
         -1    1    1    2    0  502  0.18582575979E+02 -0.15588060956E+03  0.87636324025E+03  0.89031264477E+03  0.00000000000E+00 0.  1.
<scales pt_clust_5="13000.00000" pt_clust_6="13000.00000" pt_clust_7="13000.00000" pt_clust_8="13000.00000" pt_clust_9="161.52358"></scales>
<clustering>
<clus scale="   80.010">  5  6 -1 -1</clus>
<clus scale="   91.309">  7  8 -1 -1</clus>
<clus scale="  103.446">  2  7  1 -1</clus>
<clus scale="  161.524">  1  9  2 -1</clus>
<clus scale="  161.524">  1  5  2 -1</clus>
</clustering>
</event>
<event>
 9    1  0.7835476E-005  0.1472386E+03  0.7546771E-02  0.1204451E+00
         21   -1    0    0  501  502  0.00000000000E+00  0.00000000000E+00  0.19045601868E+03  0.19045601868E+03  0.00000000000E+00 0. -1.
          1   -1    0    0  502    0 -0.00000000000E+00 -0.00000000000E+00 -0.38557797275E+03  0.38557797275E+03  0.00000000000E+00 0. -1.
         23    2    1    2    0    0  0.46211436790E+02  0.12329641438E+03 -0.30477976124E+03  0.34444671546E+03  0.91735130918E+02 0.  0.
        -24    2    1    2    0    0 -0.31740888753E+02 -0.42904294269E+02  0.19996155333E+02  0.11029629714E+03  0.94430738895E+02 0.  0.
         11    1    4    4    0    0 -0.11618324359E+01 -0.37232122672E+02 -0.32397150815E+02  0.49367562166E+02  0.00000000000E+00 0. -1.
        -12    1    4    4    0    0 -0.30579056317E+02 -0.56721715971E+01  0.52393306148E+02  0.60928734970E+02  0.00000000000E+00 0.  1.
        -11    1    3    3    0    0  0.43755158638E+02  0.84202998523E+02 -0.10782487432E+03  0.14363447494E+03  0.00000000000E+00 0.  1.
         11    1    3    3    0    0  0.24562781521E+01  0.39093415855E+02 -0.19695488692E+03  0.20081224053E+03  0.00000000000E+00 0. -1.
          2    1    1    2  501    0 -0.14470548036E+02 -0.80392120109E+02  0.89661651837E+02  0.12129097883E+03  0.00000000000E+00 0. -1.
<scales pt_clust_5="13000.00000" pt_clust_6="13000.00000" pt_clust_7="13000.00000" pt_clust_8="13000.00000" pt_clust_9="81.68408"></scales>
<clustering>
<clus scale="   81.684">  1  9  2 -1</clus>
<clus scale="   91.735">  7  8 -1 -1</clus>
<clus scale="   94.431">  5  6 -1 -1</clus>
<clus scale="  145.524">  2  7  1 -1</clus>
<clus scale="   81.684">  1  5  2 -1</clus>
</clustering>
</event>
<event>
 9    1  0.7835476E-005  0.1224404E+03  0.7546771E-02  0.1242357E+00
          1   -1    0    0  502    0 -0.00000000000E+00  0.00000000000E+00  0.85774140091E+02  0.85774140091E+02  0.00000000000E+00 0. -1.
         21   -1    0    0  501  502  0.00000000000E+00 -0.00000000000E+00 -0.33630777005E+03  0.33630777005E+03  0.00000000000E+00 0.  1.
         23    2    1    2    0    0 -0.77971160318E+02 -0.60585181287E+02 -0.21802246218E+02  0.13617079897E+03  0.91198040102E+02 0.  0.
        -24    2    1    2    0    0  0.10318562415E+02  0.51265017348E+02 -0.17271388601E+03  0.19758388145E+03  0.80465701103E+02 0.  0.
         11    1    4    4    0    0 -0.34013763948E+02  0.10490260040E+02 -0.59097770596E+02  0.68989333836E+02  0.00000000000E+00 0. -1.
        -12    1    4    4    0    0  0.44332326363E+02  0.40774757309E+02 -0.11361611541E+03  0.12859454761E+03  0.00000000000E+00 0.  1.
        -13    1    3    3    0    0 -0.92922928661E+02 -0.45704530505E+02 -0.37222025323E+02  0.11004114662E+03  0.00000000000E+00 0. -1.
         13    1    3    3    0    0  0.14951768344E+02 -0.14880650782E+02  0.15419779105E+02  0.26129652351E+02  0.00000000000E+00 0.  1.
          2    1    1    2  501    0  0.67652597903E+02  0.93201639388E+01 -0.56017497739E+02  0.88327229730E+02  0.00000000000E+00 0. -1.
<scales pt_clust_5="13000.00000" pt_clust_6="13000.00000" pt_clust_7="13000.00000" pt_clust_8="13000.00000" pt_clust_9="68.29158"></scales>
<clustering>
<clus scale="   68.292">  2  9  1 -1</clus>
<clus scale="   80.466">  5  6 -1 -1</clus>
<clus scale="   91.198">  7  8 -1 -1</clus>
<clus scale="  114.670">  2  5  1 -1</clus>
<clus scale="   68.292">  2  5  1 -1</clus>
</clustering>
</event>
<event>
 9    1  0.7835476E-005  0.1464215E+03  0.7546771E-02  0.1207484E+00
         21   -1    0    0  501  502  0.00000000000E+00  0.00000000000E+00  0.78911972025E+02  0.78911972025E+02  0.00000000000E+00 0. -1.
          1   -1    0    0  502    0 -0.00000000000E+00 -0.00000000000E+00 -0.58384922080E+03  0.58384922080E+03  0.00000000000E+00 0. -1.
         23    2    1    2    0    0 -0.56736033924E+02  0.10999728641E+03 -0.45854063827E+03  0.48395864158E+03  0.92941213923E+02 0.  0.
        -24    2    1    2    0    0  0.59684534993E+02 -0.51074867393E+02 -0.19169353313E+02  0.11382664298E+03  0.80113386833E+02 0.  0.
         13    1    4    4    0    0  0.28592601391E+02  0.17790575533E+02 -0.18162040918E+02  0.38260961337E+02  0.00000000000E+00 0. -1.
        -14    1    4    4    0    0  0.31091933602E+02 -0.68865442926E+02 -0.10073123952E+01  0.75565681647E+02  0.00000000000E+00 0.  1.
        -11    1    3    3    0    0 -0.82064306935E+02  0.93274098996E+02 -0.37773644511E+03  0.39764233927E+03  0.00000000000E+00 0. -1.
         11    1    3    3    0    0  0.25328273011E+02  0.16723187411E+02 -0.80804193165E+02  0.86316302307E+02  0.00000000000E+00 0.  1.
          2    1    1    2  501    0 -0.29485010691E+01 -0.58922419014E+02 -0.27227257192E+02  0.64975908268E+02  0.00000000000E+00 0. -1.
<scales pt_clust_5="13000.00000" pt_clust_6="13000.00000" pt_clust_7="13000.00000" pt_clust_8="13000.00000" pt_clust_9="58.99614"></scales>
<clustering>
<clus scale="   58.996">  1  9  2 -1</clus>
<clus scale="   80.113">  5  6 -1 -1</clus>
<clus scale="   92.941">  7  8 -1 -1</clus>
<clus scale="  138.634">  1  5  2 -1</clus>
<clus scale="   58.996">  1  5  2 -1</clus>
</clustering>
</event>
<event>
 9    1  0.7835476E-005  0.2366498E+03  0.7546771E-02  0.1160306E+00
          1   -1    0    0  502    0 -0.00000000000E+00  0.00000000000E+00  0.16201657813E+04  0.16201657813E+04  0.00000000000E+00 0. -1.
         21   -1    0    0  501  502  0.00000000000E+00 -0.00000000000E+00 -0.30301417314E+03  0.30301417314E+03  0.00000000000E+00 0. -1.
         23    2    1    2    0    0  0.11147095171E+02  0.18866584641E+02 -0.25960840797E+03  0.27616880068E+03  0.91610453757E+02 0.  0.
        -24    2    1    2    0    0 -0.18974989026E+03 -0.12966858649E+03  0.59509077236E+03  0.64309355445E+03  0.81346968329E+02 0.  0.
         13    1    4    4    0    0 -0.77843890598E+02 -0.92808530785E+02  0.23774212878E+03  0.26682281478E+03  0.00000000000E+00 0. -1.
        -14    1    4    4    0    0 -0.11190599966E+03 -0.36860055706E+02  0.35734864358E+03  0.37627073967E+03  0.00000000000E+00 0.  1.
        -13    1    3    3    0    0 -0.38191621383E+02  0.13768546116E+02 -0.78313515607E+02  0.88210994399E+02  0.00000000000E+00 0.  1.
         13    1    3    3    0    0  0.49338716554E+02  0.50980385243E+01 -0.18129489236E+03  0.18795780628E+03  0.00000000000E+00 0. -1.
          2    1    1    2  501    0  0.17860279509E+03  0.11080200185E+03  0.98166924374E+03  0.10039175993E+04  0.00000000000E+00 0. -1.
<scales pt_clust_5="13000.00000" pt_clust_6="13000.00000" pt_clust_7="13000.00000" pt_clust_8="13000.00000" pt_clust_9="222.22926"></scales>
<clustering>
<clus scale="   81.347">  5  6 -1 -1</clus>
<clus scale="   91.610">  7  8 -1 -1</clus>
<clus scale="   94.195">  1  7  2 -1</clus>
<clus scale="  222.229">  2  9  1 -1</clus>
<clus scale="  222.229">  2  5  1 -1</clus>
</clustering>
</event>
<event>
 9    1  0.7835476E-005  0.1457132E+03  0.7546771E-02  0.1207378E+00
         21   -1    0    0  501  502  0.00000000000E+00  0.00000000000E+00  0.66012076500E+02  0.66012076500E+02  0.00000000000E+00 0.  1.
          1   -1    0    0  502    0 -0.00000000000E+00 -0.00000000000E+00 -0.63030186354E+03  0.63030186354E+03  0.00000000000E+00 0. -1.
         23    2    1    2    0    0  0.64986321241E+00 -0.12313356609E+03 -0.46425723053E+03  0.48837879753E+03  0.88412535034E+02 0.  0.
        -24    2    1    2    0    0  0.62922686301E+01  0.99096649333E+02 -0.12049595457E+03  0.17561305685E+03  0.80379923579E+02 0.  0.
         13    1    4    4    0    0 -0.17025155581E+01  0.66099979594E+02 -0.12495377301E+03  0.14137026296E+03  0.00000000000E+00 0. -1.
        -14    1    4    4    0    0  0.79947841882E+01  0.32996669739E+02  0.44578184340E+01  0.34242793888E+02  0.00000000000E+00 0.  1.
        -13    1    3    3    0    0  0.39916117954E+02 -0.91936654725E+02 -0.27913856245E+03  0.29658722494E+03  0.00000000000E+00 0.  1.
         13    1    3    3    0    0 -0.39266254742E+02 -0.31196911367E+02 -0.18511866808E+03  0.19179157258E+03  0.00000000000E+00 0. -1.
          2    1    1    2  501    0 -0.69421318425E+01  0.24036916760E+02  0.20463398059E+02  0.32322085669E+02  0.00000000000E+00 0. -1.
<scales pt_clust_5="13000.00000" pt_clust_6="13000.00000" pt_clust_7="13000.00000" pt_clust_8="13000.00000" pt_clust_9="25.01932"></scales>
<clustering>
<clus scale="   25.019">  1  9  2 -1</clus>
<clus scale="   80.380">  5  6 -1 -1</clus>
<clus scale="   88.413">  7  8 -1 -1</clus>
<clus scale="  140.984">  1  5  2 -1</clus>
<clus scale="   25.019">  1  5  2 -1</clus>
</clustering>
</event>
<event>
 9    1  0.7835476E-005  0.1235207E+03  0.7546771E-02  0.1241809E+00
         21   -1    0    0  501  502  0.00000000000E+00  0.00000000000E+00  0.46113662060E+02  0.46113662060E+02  0.00000000000E+00 0. -1.
          1   -1    0    0  502    0 -0.00000000000E+00 -0.00000000000E+00 -0.62552390199E+03  0.62552390199E+03  0.00000000000E+00 0. -1.
         23    2    1    2    0    0  0.57539336011E+02 -0.86825768516E+02 -0.22510298476E+03  0.26403054492E+03  0.90505721571E+02 0.  0.
        -24    2    1    2    0    0  0.58893959617E+01  0.70363018500E+02 -0.95698381658E+02  0.14082475653E+03  0.75417454497E+02 0.  0.
         11    1    4    4    0    0 -0.15373542616E+02  0.78340905123E+02 -0.81245354476E+02  0.11390544698E+03  0.00000000000E+00 0. -1.
        -12    1    4    4    0    0  0.21262938578E+02 -0.79778866224E+01 -0.14453027182E+02  0.26919309550E+02  0.00000000000E+00 0.  1.
        -13    1    3    3    0    0  0.20063713714E+02 -0.63506090435E+02 -0.49541859594E+02  0.83005855109E+02  0.00000000000E+00 0.  1.
         13    1    3    3    0    0  0.37475622297E+02 -0.23319678080E+02 -0.17556112516E+03  0.18102468981E+03  0.00000000000E+00 0. -1.
          2    1    1    2  501    0 -0.63428731973E+02  0.16462750015E+02 -0.25860887352E+03  0.26678226260E+03  0.00000000000E+00 0. -1.
<scales pt_clust_5="13000.00000" pt_clust_6="13000.00000" pt_clust_7="13000.00000" pt_clust_8="13000.00000" pt_clust_9="65.53038"></scales>
<clustering>
<clus scale="   65.530">  1  9  2 -1</clus>
<clus scale="   75.417">  5  6 -1 -1</clus>
<clus scale="   90.506">  7  8 -1 -1</clus>
<clus scale="  112.933">  1  5  2 -1</clus>
<clus scale="   65.530">  1  5  2 -1</clus>
</clustering>
</event>
<event>
 9    1  0.7835476E-005  0.1622844E+03  0.7546771E-02  0.1187585E+00
          3   -1    0    0  502    0 -0.00000000000E+00  0.00000000000E+00  0.12182313832E+04  0.12182313832E+04  0.00000000000E+00 0. -1.
         21   -1    0    0  501  502  0.00000000000E+00 -0.00000000000E+00 -0.27065455962E+02  0.27065455962E+02  0.00000000000E+00 0. -1.
         23    2    1    2    0    0  0.13747249868E+03 -0.31775950688E+02  0.81000935023E+03  0.82718718601E+03  0.90637157467E+02 0.  0.
        -24    2    1    2    0    0 -0.12105766207E+03  0.16500357606E+02  0.30019741452E+03  0.33410264989E+03  0.81110256037E+02 0.  0.
         13    1    4    4    0    0 -0.52250374865E+02  0.30075543641E+02  0.64925975238E+02  0.88600351351E+02  0.00000000000E+00 0. -1.
        -14    1    4    4    0    0 -0.68807287209E+02 -0.13575186035E+02  0.23527143928E+03  0.24550229854E+03  0.00000000000E+00 0.  1.
        -13    1    3    3    0    0  0.12946886493E+02 -0.26932844342E+02  0.61512206802E+02  0.68386779131E+02  0.00000000000E+00 0.  1.
         13    1    3    3    0    0  0.12452561218E+03 -0.48431063458E+01  0.74849714343E+03  0.75880040688E+03  0.00000000000E+00 0. -1.
          4    1    1    2  501    0 -0.16414836601E+02  0.15275593082E+02  0.80959162530E+02  0.84007003293E+02  0.00000000000E+00 0. -1.
<scales pt_clust_5="13000.00000" pt_clust_6="13000.00000" pt_clust_7="13000.00000" pt_clust_8="13000.00000" pt_clust_9="22.42300"></scales>
<clustering>
<clus scale="   22.423">  2  9  1 -1</clus>
<clus scale="   81.110">  5  6 -1 -1</clus>
<clus scale="   90.637">  7  8 -1 -1</clus>
<clus scale="  157.162">  2  5  1 -1</clus>
<clus scale="   22.423">  2  5  1 -1</clus>
</clustering>
</event>
<event>
 9    1  0.7835476E-005  0.9809888E+02  0.7546771E-02  0.1294116E+00
          1   -1    0    0  502    0 -0.00000000000E+00  0.00000000000E+00  0.17592887572E+03  0.17592887572E+03  0.00000000000E+00 0. -1.
         21   -1    0    0  501  502  0.00000000000E+00 -0.00000000000E+00 -0.10996406192E+03  0.10996406192E+03  0.00000000000E+00 0.  1.
         23    2    1    2    0    0  0.12763416386E+02 -0.45031479382E+02  0.12066920880E+02  0.10354397909E+03  0.91569678891E+02 0.  0.
        -24    2    1    2    0    0  0.88485382487E+00  0.20183257299E+02 -0.38590291565E+02  0.85613372089E+02  0.73704084255E+02 0.  0.
         11    1    4    4    0    0  0.27822643900E+02  0.82754897882E+01  0.83445689043E+01  0.30202898454E+02  0.00000000000E+00 0. -1.
        -12    1    4    4    0    0 -0.26937790075E+02  0.11907767511E+02 -0.46934860469E+02  0.55410473635E+02  0.00000000000E+00 0.  1.
        -13    1    3    3    0    0  0.43710677908E+02 -0.20219456079E+01  0.23011271127E+02  0.49439156810E+02  0.00000000000E+00 0.  1.
         13    1    3    3    0    0 -0.30947261522E+02 -0.43009533774E+02 -0.10944350247E+02  0.54104822275E+02  0.00000000000E+00 0. -1.
          2    1    1    2  501    0 -0.13648270211E+02  0.24848222082E+02  0.92488184482E+02  0.96735586468E+02  0.00000000000E+00 0. -1.
<scales pt_clust_5="13000.00000" pt_clust_6="13000.00000" pt_clust_7="13000.00000" pt_clust_8="13000.00000" pt_clust_9="28.34978"></scales>
<clustering>
<clus scale="   28.350">  2  9  1 -1</clus>
<clus scale="   73.704">  5  6 -1 -1</clus>
<clus scale="   81.674">  2  5  1 -1</clus>
<clus scale="   91.570">  7  8 -1 -1</clus>
<clus scale="   28.350">  2  5  1 -1</clus>
</clustering>
</event>
<event>
 9    1  0.7835476E-005  0.9897311E+02  0.7546771E-02  0.1290545E+00
         21   -1    0    0  501  502  0.00000000000E+00  0.00000000000E+00  0.29610353505E+02  0.29610353505E+02  0.00000000000E+00 0. -1.
          1   -1    0    0  502    0 -0.00000000000E+00 -0.00000000000E+00 -0.51934222110E+03  0.51934222110E+03  0.00000000000E+00 0. -1.
        -24    2    1    2    0    0 -0.26799718202E+02  0.14722320986E+02 -0.17573567787E+03  0.19291948216E+03  0.73484192111E+02 0.  0.
         23    2    1    2    0    0  0.52884219866E+02 -0.45368280126E+02 -0.15461776539E+03  0.19165225967E+03  0.89268772318E+02 0.  0.
         13    1    3    3    0    0  0.18408251082E+02 -0.10408498493E+02 -0.21143585792E+02  0.29904042685E+02  0.00000000000E+00 0. -1.
        -14    1    3    3    0    0 -0.45207969284E+02  0.25130819479E+02 -0.15459209208E+03  0.16301543948E+03  0.00000000000E+00 0.  1.
        -13    1    4    4    0    0  0.38248842753E+02 -0.72727897923E+02 -0.11454532877E+03  0.14097146325E+03  0.00000000000E+00 0.  1.
         13    1    4    4    0    0  0.14635377114E+02  0.27359617797E+02 -0.40072436620E+02  0.50680796422E+02  0.00000000000E+00 0. -1.
          2    1    1    2  501    0 -0.26084501665E+02  0.30645959139E+02 -0.15937842433E+03  0.16438083277E+03  0.00000000000E+00 0. -1.
<scales pt_clust_5="13000.00000" pt_clust_6="13000.00000" pt_clust_7="13000.00000" pt_clust_8="13000.00000" pt_clust_9="40.24398"></scales>
<clustering>
<clus scale="   40.244">  1  9  2 -1</clus>
<clus scale="   73.484">  5  6 -1 -1</clus>
<clus scale="   85.010">  2  5  1 -1</clus>
<clus scale="   89.269">  7  8 -1 -1</clus>
<clus scale="   40.244">  1  5  2 -1</clus>
</clustering>
</event>
<event>
 9    1  0.7835476E-005  0.1474146E+03  0.7546771E-02  0.1210647E+00
         21   -1    0    0  501  502  0.00000000000E+00  0.00000000000E+00  0.84776589224E+02  0.84776589224E+02  0.00000000000E+00 0.  1.
          3   -1    0    0  502    0 -0.00000000000E+00 -0.00000000000E+00 -0.87724979699E+03  0.87724979699E+03  0.00000000000E+00 0. -1.
         23    2    1    2    0    0  0.94189971350E+02  0.42673163324E+02 -0.54162973121E+03  0.56222141032E+03  0.10971508066E+03 0.  0.
        -24    2    1    2    0    0 -0.54117512239E+02 -0.33950351031E+02  0.37058147305E+02  0.10899707631E+03  0.80160619368E+02 0.  0.
         11    1    4    4    0    0 -0.38088096311E+00  0.22606282481E+02  0.17438396448E+02  0.28553226588E+02  0.00000000000E+00 0. -1.
        -12    1    4    4    0    0 -0.53736631276E+02 -0.56556633512E+02  0.19619750857E+02  0.80443849726E+02  0.00000000000E+00 0.  1.
        -11    1    3    3    0    0  0.53814175511E+02  0.69454753839E+02 -0.45074544205E+03  0.45922911694E+03  0.00000000000E+00 0. -1.
         11    1    3    3    0    0  0.40375795839E+02 -0.26781590515E+02 -0.90884289158E+02  0.10299229338E+03  0.00000000000E+00 0.  1.
          4    1    1    2  501    0 -0.40072459111E+02 -0.87228122927E+01 -0.28790162386E+03  0.29080789957E+03  0.00000000000E+00 0. -1.
<scales pt_clust_5="13000.00000" pt_clust_6="13000.00000" pt_clust_7="13000.00000" pt_clust_8="13000.00000" pt_clust_9="41.01087"></scales>
<clustering>
<clus scale="   41.011">  1  9  2 -1</clus>
<clus scale="   80.161">  5  6 -1 -1</clus>
<clus scale="  109.715">  7  8 -1 -1</clus>
<clus scale="  126.962">  1  5  2 -1</clus>
<clus scale="   41.011">  1  5  2 -1</clus>
</clustering>
</event>
<event>
 9    1  0.7835476E-005  0.9994721E+02  0.7546771E-02  0.1285866E+00
         21   -1    0    0  501  502  0.00000000000E+00  0.00000000000E+00  0.18730653605E+02  0.18730653605E+02  0.00000000000E+00 0.  1.
          1   -1    0    0  502    0 -0.00000000000E+00 -0.00000000000E+00 -0.10712755961E+04  0.10712755961E+04  0.00000000000E+00 0. -1.
        -24    2    1    2    0    0 -0.34841235709E+02 -0.11890687697E+02 -0.59152450213E+03  0.59818429080E+03  0.81042636794E+02 0.  0.
         23    2    1    2    0    0  0.52784494275E+02 -0.42140373056E+02 -0.32264873328E+03  0.34219560636E+03  0.91834710479E+02 0.  0.
         13    1    3    3    0    0 -0.55536656184E+02 -0.18138942879E+02 -0.28659146495E+03  0.29248591285E+03  0.00000000000E+00 0. -1.
        -14    1    3    3    0    0  0.20695420475E+02  0.62482551825E+01 -0.30493303718E+03  0.30569837795E+03  0.00000000000E+00 0.  1.
        -11    1    4    4    0    0  0.16522633021E+02 -0.67509757359E+02 -0.18613717889E+03  0.19868974333E+03  0.00000000000E+00 0.  1.
         11    1    4    4    0    0  0.36261861254E+02  0.25369384303E+02 -0.13651155439E+03  0.14350586303E+03  0.00000000000E+00 0. -1.
          2    1    1    2  501    0 -0.17943258567E+02  0.54031060753E+02 -0.13837170708E+03  0.14962635254E+03  0.00000000000E+00 0. -1.
<scales pt_clust_5="13000.00000" pt_clust_6="13000.00000" pt_clust_7="13000.00000" pt_clust_8="13000.00000" pt_clust_9="56.93256"></scales>
<clustering>
<clus scale="   56.933">  1  9  2 -1</clus>
<clus scale="   81.043">  5  6 -1 -1</clus>
<clus scale="   90.132">  2  5  1 -1</clus>
<clus scale="   91.835">  7  8 -1 -1</clus>
<clus scale="   56.933">  1  5  2 -1</clus>
</clustering>
</event>
<event>
 9    1  0.7835476E-005  0.1685937E+03  0.7546771E-02  0.1181094E+00
          3   -1    0    0  502    0 -0.00000000000E+00  0.00000000000E+00  0.16997920532E+03  0.16997920532E+03  0.00000000000E+00 0. -1.
         21   -1    0    0  501  502  0.00000000000E+00 -0.00000000000E+00 -0.19170363408E+03  0.19170363408E+03  0.00000000000E+00 0. -1.
        -24    2    1    2    0    0 -0.10587259443E+03  0.11034879827E+03  0.12418857262E+02  0.17302532784E+03  0.79985451982E+02 0.  0.
         23    2    1    2    0    0  0.84646017391E+02 -0.93280422406E+02 -0.38680726762E+02  0.16104437347E+03  0.92589989405E+02 0.  0.
         11    1    3    3    0    0 -0.81805128168E+02  0.11760357251E+03 -0.34489068681E+01  0.14329889819E+03  0.00000000000E+00 0. -1.
        -12    1    3    3    0    0 -0.24067466259E+02 -0.72547742473E+01  0.15867764130E+02  0.29726429654E+02  0.00000000000E+00 0.  1.
        -13    1    4    4    0    0  0.33524188092E+02 -0.94908982599E+02 -0.43534250247E+02  0.10966684599E+03  0.00000000000E+00 0. -1.
         13    1    4    4    0    0  0.51121829298E+02  0.16285601938E+01  0.48535234849E+01  0.51377527474E+02  0.00000000000E+00 0.  1.
          4    1    1    2  501    0  0.21226577037E+02 -0.17068375861E+02  0.45374407373E+01  0.27613138099E+02  0.00000000000E+00 0. -1.
<scales pt_clust_5="13000.00000" pt_clust_6="13000.00000" pt_clust_7="13000.00000" pt_clust_8="13000.00000" pt_clust_9="27.23780"></scales>
<clustering>
<clus scale="   27.238">  2  9  1 -1</clus>
<clus scale="   79.985">  5  6 -1 -1</clus>
<clus scale="   92.590">  7  8 -1 -1</clus>
<clus scale="  162.014">  1  5  2 -1</clus>
<clus scale="   27.238">  2  5  1 -1</clus>
</clustering>
</event>
<event>
 9    1  0.7835476E-005  0.1021959E+03  0.7546771E-02  0.1278154E+00
         21   -1    0    0  501  502  0.00000000000E+00  0.00000000000E+00  0.13063138723E+03  0.13063138723E+03  0.00000000000E+00 0.  1.
          1   -1    0    0  502    0 -0.00000000000E+00 -0.00000000000E+00 -0.24841347957E+03  0.24841347957E+03  0.00000000000E+00 0. -1.
         23    2    1    2    0    0  0.33257577587E+02  0.29009969550E+02 -0.18666046473E+03  0.21222963653E+03  0.90838564112E+02 0.  0.
        -24    2    1    2    0    0 -0.23770666434E+02 -0.64694962539E+02  0.31664628741E+02  0.11439116210E+03  0.85628304267E+02 0.  0.
         11    1    4    4    0    0 -0.11933163333E+02  0.18779404757E+02  0.18752722449E+02  0.29098643085E+02  0.00000000000E+00 0. -1.
        -12    1    4    4    0    0 -0.11837503101E+02 -0.83474367296E+02  0.12911906293E+02  0.85292519011E+02  0.00000000000E+00 0.  1.
        -11    1    3    3    0    0  0.11065485245E+02  0.43039121641E+02 -0.17963663478E+03  0.18505169956E+03  0.00000000000E+00 0. -1.
         11    1    3    3    0    0  0.22192092342E+02 -0.14029152091E+02 -0.70238299487E+01  0.27177936972E+02  0.00000000000E+00 0.  1.
          2    1    1    2  501    0 -0.94869111537E+01  0.35684992989E+02  0.37213743650E+02  0.52424068178E+02  0.00000000000E+00 0. -1.
<scales pt_clust_5="13000.00000" pt_clust_6="13000.00000" pt_clust_7="13000.00000" pt_clust_8="13000.00000" pt_clust_9="36.92452"></scales>
<clustering>
<clus scale="   36.925">  1  9  2 -1</clus>
<clus scale="   85.628">  5  6 -1 -1</clus>
<clus scale="   90.839">  7  8 -1 -1</clus>
<clus scale="   97.594">  1  5  2 -1</clus>
<clus scale="   36.925">  1  5  2 -1</clus>
</clustering>
</event>
<event>
 9    1  0.7835476E-005  0.1043700E+03  0.7546771E-02  0.1276549E+00
         -2   -1    0    0    0  501 -0.00000000000E+00  0.00000000000E+00  0.18989984518E+03  0.18989984518E+03  0.00000000000E+00 0.  1.
         21   -1    0    0  501  502  0.00000000000E+00 -0.00000000000E+00 -0.77238427259E+02  0.77238427259E+02  0.00000000000E+00 0.  1.
        -24    2    1    2    0    0  0.16039424471E+02 -0.51232946305E+02  0.10796210409E+03  0.14511927646E+03  0.80757108397E+02 0.  0.
         23    2    1    2    0    0 -0.23205469841E+02  0.31668644054E+02  0.96110555054E+01  0.10061247045E+03  0.92136311929E+02 0.  0.
         11    1    3    3    0    0 -0.15264721662E+02 -0.33836575073E+02  0.10234427809E+03  0.10886816246E+03  0.00000000000E+00 0. -1.
        -12    1    3    3    0    0  0.31304146134E+02 -0.17396371232E+02  0.56178259988E+01  0.36251113999E+02  0.00000000000E+00 0.  1.
        -13    1    4    4    0    0  0.13961132407E+02  0.41843711668E+02 -0.23344678689E+02  0.49907749372E+02  0.00000000000E+00 0. -1.
         13    1    4    4    0    0 -0.37166602248E+02 -0.10175067614E+02  0.32955734195E+02  0.50704721081E+02  0.00000000000E+00 0.  1.
         -1    1    1    2    0  502  0.71660453698E+01  0.19564302251E+02 -0.49117416734E+01  0.21406525526E+02  0.00000000000E+00 0.  1.
<scales pt_clust_5="13000.00000" pt_clust_6="13000.00000" pt_clust_7="13000.00000" pt_clust_8="13000.00000" pt_clust_9="20.83541"></scales>
<clustering>
<clus scale="   20.835">  2  9  1 -1</clus>
<clus scale="   80.757">  5  6 -1 -1</clus>
<clus scale="   92.136">  7  8 -1 -1</clus>
<clus scale="   94.476">  1  5  2 -1</clus>
<clus scale="   20.835">  2  5  1 -1</clus>
</clustering>
</event>
<event>
 9    1  0.7835476E-005  0.9660622E+02  0.7546771E-02  0.1288245E+00
          1   -1    0    0  502    0 -0.00000000000E+00  0.00000000000E+00  0.18187308371E+03  0.18187308371E+03  0.00000000000E+00 0. -1.
         21   -1    0    0  501  502  0.00000000000E+00 -0.00000000000E+00 -0.79607768366E+02  0.79607768366E+02  0.00000000000E+00 0.  1.
         23    2    1    2    0    0  0.10197949606E+02 -0.53518147513E+02  0.92723054649E+02  0.13456676561E+03  0.80885469976E+02 0.  0.
        -24    2    1    2    0    0  0.86870443068E+01  0.45628546130E+02  0.28855040694E+02  0.98773861231E+02  0.82257117189E+02 0.  0.
         11    1    4    4    0    0 -0.26264525170E+02  0.51891807867E+02  0.11643542353E+02  0.59314054697E+02  0.00000000000E+00 0. -1.
        -12    1    4    4    0    0  0.34951569477E+02 -0.62632617368E+01  0.17211498341E+02  0.39459806533E+02  0.00000000000E+00 0.  1.
        -11    1    3    3    0    0  0.28625183294E+02 -0.64589624230E+02  0.49410366767E+02  0.86212557211E+02  0.00000000000E+00 0.  1.
         11    1    3    3    0    0 -0.18427233689E+02  0.11071476717E+02  0.43312687882E+02  0.48354208397E+02  0.00000000000E+00 0. -1.
          2    1    1    2  501    0 -0.18884993912E+02  0.78896013830E+01 -0.19312780000E+02  0.28140225237E+02  0.00000000000E+00 0. -1.
<scales pt_clust_5="13000.00000" pt_clust_6="13000.00000" pt_clust_7="13000.00000" pt_clust_8="13000.00000" pt_clust_9="20.46677"></scales>
<clustering>
<clus scale="   20.467">  2  9  1 -1</clus>
<clus scale="   80.885">  7  8 -1 -1</clus>
<clus scale="   82.257">  5  6 -1 -1</clus>
<clus scale="   95.441">  1  7  2 -1</clus>
<clus scale="   20.467">  2  5  1 -1</clus>
</clustering>
</event>
<event>
 9    1  0.7835476E-005  0.1033155E+03  0.7546771E-02  0.1280659E+00
         21   -1    0    0  501  502  0.00000000000E+00  0.00000000000E+00  0.37931984944E+03  0.37931984944E+03  0.00000000000E+00 0.  1.
         -2   -1    0    0    0  501 -0.00000000000E+00 -0.00000000000E+00 -0.66479409067E+02  0.66479409067E+02  0.00000000000E+00 0.  1.
         23    2    1    2    0    0  0.42527863014E+02 -0.21737191189E+02  0.13161704518E+03  0.16585726280E+03  0.88907032498E+02 0.  0.
        -24    2    1    2    0    0 -0.39190645493E+01  0.77724208959E+02  0.18305371592E+03  0.21190865424E+03  0.73076693317E+02 0.  0.
         11    1    4    4    0    0 -0.23543450462E+02  0.76116238063E+02  0.17143825543E+03  0.18904774842E+03  0.00000000000E+00 0. -1.
        -12    1    4    4    0    0  0.19624385912E+02  0.16079708954E+01  0.11615460489E+02  0.22860905827E+02  0.00000000000E+00 0.  1.
        -13    1    3    3    0    0  0.69032743520E+02 -0.63658176696E+01  0.10132518759E+03  0.12277148265E+03  0.00000000000E+00 0. -1.
         13    1    3    3    0    0 -0.26504880506E+02 -0.15371373520E+02  0.30291857591E+02  0.43085780146E+02  0.00000000000E+00 0.  1.
         -1    1    1    2    0  502 -0.38608798465E+02 -0.55987017769E+02 -0.18303207218E+01  0.68033341470E+02  0.00000000000E+00 0.  1.
<scales pt_clust_5="13000.00000" pt_clust_6="13000.00000" pt_clust_7="13000.00000" pt_clust_8="13000.00000" pt_clust_9="68.00875"></scales>
<clustering>
<clus scale="   68.009">  1  9  2 -1</clus>
<clus scale="   73.077">  5  6 -1 -1</clus>
<clus scale="   88.907">  7  8 -1 -1</clus>
<clus scale="   90.055">  1  5  2 -1</clus>
<clus scale="   68.009">  1  5  2 -1</clus>
</clustering>
</event>
<event>
 9    1  0.7835476E-005  0.1706587E+03  0.7546771E-02  0.1178570E+00
         -2   -1    0    0    0  501 -0.00000000000E+00  0.00000000000E+00  0.55292074125E+03  0.55292074125E+03  0.00000000000E+00 0.  1.
         21   -1    0    0  501  502  0.00000000000E+00 -0.00000000000E+00 -0.18270397436E+03  0.18270397436E+03  0.00000000000E+00 0. -1.
        -24    2    1    2    0    0  0.14563182104E+03  0.22775868386E+02  0.48370367066E+03  0.51202671789E+03  0.80465839565E+02 0.  0.
         23    2    1    2    0    0 -0.11401768715E+03 -0.41630900921E+02 -0.71218533202E+02  0.16754819073E+03  0.90923879440E+02 0.  0.
         13    1    3    3    0    0  0.45760642661E+02 -0.29186663695E+02  0.18558738306E+03  0.19336125388E+03  0.00000000000E+00 0. -1.
        -14    1    3    3    0    0  0.99871178375E+02  0.51962532081E+02  0.29811628761E+03  0.31866546400E+03  0.00000000000E+00 0.  1.
        -11    1    4    4    0    0 -0.26909080571E+02  0.28511819927E+02 -0.12008349938E+02  0.41002718946E+02  0.00000000000E+00 0. -1.
         11    1    4    4    0    0 -0.87108606576E+02 -0.70142720848E+02 -0.59210183264E+02  0.12654547179E+03  0.00000000000E+00 0.  1.
         -1    1    1    2    0  502 -0.31614133888E+02  0.18855032535E+02 -0.42268370570E+02  0.56049806994E+02  0.00000000000E+00 0.  1.
<scales pt_clust_5="13000.00000" pt_clust_6="13000.00000" pt_clust_7="13000.00000" pt_clust_8="13000.00000" pt_clust_9="36.80986"></scales>
<clustering>
<clus scale="   36.810">  2  9  1 -1</clus>
<clus scale="   80.466">  5  6 -1 -1</clus>
<clus scale="   90.924">  7  8 -1 -1</clus>
<clus scale="  165.324">  1  5  2 -1</clus>
<clus scale="   36.810">  2  5  1 -1</clus>
</clustering>
</event>
<event>
 9    1  0.7835476E-005  0.1112881E+03  0.7546771E-02  0.1258900E+00
          3   -1    0    0  502    0 -0.00000000000E+00  0.00000000000E+00  0.19225285541E+03  0.19225285541E+03  0.00000000000E+00 0. -1.
         21   -1    0    0  501  502  0.00000000000E+00 -0.00000000000E+00 -0.23849777340E+03  0.23849777340E+03  0.00000000000E+00 0.  1.
        -24    2    1    2    0    0 -0.63303201394E+02 -0.15629679655E+02  0.11138514657E+03  0.15887311472E+03  0.92641424391E+02 0.  0.
         23    2    1    2    0    0  0.25644601915E+02  0.23910676708E+02 -0.19514692894E+03  0.21807918567E+03  0.90812120769E+02 0.  0.
         13    1    3    3    0    0 -0.20605939466E+02  0.36317099058E+02  0.64734232877E+02  0.77032832814E+02  0.00000000000E+00 0. -1.
        -14    1    3    3    0    0 -0.42697261928E+02 -0.51946778713E+02  0.46650913689E+02  0.81840281909E+02  0.00000000000E+00 0.  1.
        -13    1    4    4    0    0 -0.24453383008E+02 -0.13335357396E+02 -0.10356086774E+03  0.10724109765E+03  0.00000000000E+00 0.  1.
         13    1    4    4    0    0  0.50097984924E+02  0.37246034104E+02 -0.91586061199E+02  0.11083808802E+03  0.00000000000E+00 0. -1.
          4    1    1    2  501    0  0.37658599479E+02 -0.82809970524E+01  0.37516864387E+02  0.53798328416E+02  0.00000000000E+00 0. -1.
<scales pt_clust_5="13000.00000" pt_clust_6="13000.00000" pt_clust_7="13000.00000" pt_clust_8="13000.00000" pt_clust_9="38.55835"></scales>
<clustering>
<clus scale="   38.558">  2  9  1 -1</clus>
<clus scale="   90.812">  7  8 -1 -1</clus>
<clus scale="   92.641">  5  6 -1 -1</clus>
<clus scale="  109.770">  2  7  1 -1</clus>
<clus scale="   38.558">  2  5  1 -1</clus>
</clustering>
</event>
<event>
 9    1  0.7835476E-005  0.9421457E+02  0.7546771E-02  0.1299594E+00
         21   -1    0    0  501  502  0.00000000000E+00  0.00000000000E+00  0.72487797128E+02  0.72487797128E+02  0.00000000000E+00 0. -1.
          1   -1    0    0  502    0 -0.00000000000E+00 -0.00000000000E+00 -0.30826395344E+03  0.30826395344E+03  0.00000000000E+00 0. -1.
        -24    2    1    2    0    0  0.10394515896E+02 -0.15242564230E+02 -0.22964238503E+03  0.24422846312E+03  0.81065007667E+02 0.  0.
         23    2    1    2    0    0 -0.39624857787E+02 -0.18790986570E+01  0.58693800524E+01  0.10058389584E+03  0.92244295838E+02 0.  0.
         13    1    3    3    0    0  0.67912892730E+01  0.28291850397E+02 -0.39070039668E+02  0.48713636782E+02  0.00000000000E+00 0. -1.
        -14    1    3    3    0    0  0.36032266232E+01 -0.43534414627E+02 -0.19057234536E+03  0.19551482633E+03  0.00000000000E+00 0.  1.
        -11    1    4    4    0    0 -0.58006757999E+02 -0.13067448561E+02  0.31360906531E+02  0.67223869599E+02  0.00000000000E+00 0. -1.
         11    1    4    4    0    0  0.18381900211E+02  0.11188349904E+02 -0.25491526478E+02  0.33360026246E+02  0.00000000000E+00 0.  1.
          2    1    1    2  501    0  0.29230341891E+02  0.17121662887E+02 -0.12003151330E+02  0.35939391605E+02  0.00000000000E+00 0. -1.
<scales pt_clust_5="13000.00000" pt_clust_6="13000.00000" pt_clust_7="13000.00000" pt_clust_8="13000.00000" pt_clust_9="33.87572"></scales>
<clustering>
<clus scale="   33.876">  1  9  2 -1</clus>
<clus scale="   81.065">  5  6 -1 -1</clus>
<clus scale="   83.300">  2  5  1 -1</clus>
<clus scale="   92.244">  7  8 -1 -1</clus>
<clus scale="   33.876">  1  5  2 -1</clus>
</clustering>
</event>
<event>
 9    1  0.7835476E-005  0.1461904E+03  0.7546771E-02  0.1234067E+00
          1   -1    0    0  502    0 -0.00000000000E+00  0.00000000000E+00  0.95516835432E+02  0.95516835432E+02  0.00000000000E+00 0. -1.
         21   -1    0    0  501  502  0.00000000000E+00 -0.00000000000E+00 -0.53564833835E+03  0.53564833835E+03  0.00000000000E+00 0. -1.
        -24    2    1    2    0    0  0.64238788321E+01  0.80742380508E+01 -0.26659010077E+02  0.84100611753E+02  0.79093302748E+02 0.  0.
         23    2    1    2    0    0 -0.11845404736E+03 -0.19324220576E+02 -0.39324065438E+02  0.15634168518E+03  0.92149625959E+02 0.  0.
         11    1    3    3    0    0 -0.33419576296E+02 -0.87284197968E+01 -0.26529559054E+01  0.34642337782E+02  0.00000000000E+00 0. -1.
        -12    1    3    3    0    0  0.39843455128E+02  0.16802657848E+02 -0.24006054172E+02  0.49458273971E+02  0.00000000000E+00 0.  1.
        -13    1    4    4    0    0 -0.68067839915E+02 -0.53597830012E+02 -0.39941114686E+02  0.95400476178E+02  0.00000000000E+00 0.  1.
         13    1    4    4    0    0 -0.50386207446E+02  0.34273609435E+02  0.61704924775E+00  0.60941208999E+02  0.00000000000E+00 0. -1.
          2    1    1    2  501    0  0.11203016853E+03  0.11249982525E+02 -0.37414842741E+03  0.39072287686E+03  0.00000000000E+00 0. -1.
<scales pt_clust_5="13000.00000" pt_clust_6="13000.00000" pt_clust_7="13000.00000" pt_clust_8="13000.00000" pt_clust_9="113.49041"></scales>
<clustering>
<clus scale="   79.093">  5  6 -1 -1</clus>
<clus scale="   79.763">  1  5  2 -1</clus>
<clus scale="   92.150">  7  8 -1 -1</clus>
<clus scale="  113.490">  2  9  1 -1</clus>
<clus scale="  113.490">  2  5  1 -1</clus>
</clustering>
</event>
<event>
 9    1  0.7835476E-005  0.9863063E+02  0.7546771E-02  0.1289406E+00
         -2   -1    0    0    0  501 -0.00000000000E+00  0.00000000000E+00  0.19377950824E+03  0.19377950824E+03  0.00000000000E+00 0.  1.
         21   -1    0    0  501  502  0.00000000000E+00 -0.00000000000E+00 -0.75543982541E+02  0.75543982541E+02  0.00000000000E+00 0.  1.
         23    2    1    2    0    0 -0.12431922740E+02  0.61538772760E+01  0.45783229858E+02  0.10386396685E+03  0.92191087235E+02 0.  0.
        -24    2    1    2    0    0  0.54889966778E+02  0.12233060626E+02  0.67070505071E+02  0.11887917764E+03  0.80444079958E+02 0.  0.
         13    1    4    4    0    0 -0.99024828275E+01  0.19173167834E+02  0.45297131800E+02  0.50174691631E+02  0.00000000000E+00 0. -1.
        -14    1    4    4    0    0  0.64792449606E+02 -0.69401072087E+01  0.21773373271E+02  0.68704486008E+02  0.00000000000E+00 0.  1.
        -11    1    3    3    0    0 -0.29629125226E+02  0.36974688358E+02  0.17259166557E+01  0.47412987980E+02  0.00000000000E+00 0. -1.
         11    1    3    3    0    0  0.17197202486E+02 -0.30820811082E+02  0.44057313202E+02  0.56450978873E+02  0.00000000000E+00 0.  1.
         -1    1    1    2    0  502 -0.42458044039E+02 -0.18386937902E+02  0.53817907746E+01  0.46580346295E+02  0.00000000000E+00 0.  1.
<scales pt_clust_5="13000.00000" pt_clust_6="13000.00000" pt_clust_7="13000.00000" pt_clust_8="13000.00000" pt_clust_9="46.26840"></scales>
<clustering>
<clus scale="   46.268">  2  9  1 -1</clus>
<clus scale="   80.444">  5  6 -1 -1</clus>
<clus scale="   87.750">  2  5  1 -1</clus>
<clus scale="   92.191">  7  8 -1 -1</clus>
<clus scale="   46.268">  2  5  1 -1</clus>
</clustering>
</event>
<event>
 9    1  0.7835476E-005  0.3059321E+03  0.7546771E-02  0.1114781E+00
          1   -1    0    0  502    0 -0.00000000000E+00  0.00000000000E+00  0.62385280460E+03  0.62385280460E+03  0.00000000000E+00 0. -1.
         21   -1    0    0  501  502  0.00000000000E+00 -0.00000000000E+00 -0.28971120626E+03  0.28971120626E+03  0.00000000000E+00 0.  1.
         23    2    1    2    0    0  0.91801370679E+02 -0.22034850771E+02  0.93618776029E+02  0.16136015441E+03  0.91430836689E+02 0.  0.
        -24    2    1    2    0    0 -0.11302943119E+02 -0.27205692684E+03  0.32905123011E+03  0.43470228246E+03  0.80923632921E+02 0.  0.
         11    1    4    4    0    0 -0.40558844430E+02 -0.81061469388E+02  0.11270182561E+03  0.14462946856E+03  0.00000000000E+00 0. -1.
        -12    1    4    4    0    0  0.29255901310E+02 -0.19099545746E+03  0.21634940450E+03  0.29007281389E+03  0.00000000000E+00 0.  1.
        -13    1    3    3    0    0  0.10037738272E+03  0.49986844606E+01  0.85254431981E+02  0.13179121359E+03  0.00000000000E+00 0. -1.
         13    1    3    3    0    0 -0.85760120372E+01 -0.27033535231E+02  0.83643440475E+01  0.29568940815E+02  0.00000000000E+00 0.  1.
          2    1    1    2  501    0 -0.80498427560E+02  0.29409177761E+03 -0.88528407800E+02  0.31750157399E+03  0.00000000000E+00 0. -1.
<scales pt_clust_5="13000.00000" pt_clust_6="13000.00000" pt_clust_7="13000.00000" pt_clust_8="13000.00000" pt_clust_9="295.03530"></scales>
<clustering>
<clus scale="   80.924">  5  6 -1 -1</clus>
<clus scale="   91.431">  7  8 -1 -1</clus>
<clus scale="  131.425">  1  7  2 -1</clus>
<clus scale="  295.035">  2  9  1 -1</clus>
<clus scale="  295.035">  2  5  1 -1</clus>
</clustering>
</event>
<event>
 9    1  0.9094121E-005  0.1540617E+03  0.7546771E-02  0.1226374E+00
         21   -1    0    0  501  502  0.00000000000E+00  0.00000000000E+00  0.84458835671E+02  0.84458835671E+02  0.00000000000E+00 0. -1.
          3   -1    0    0  502    0 -0.00000000000E+00 -0.00000000000E+00 -0.52796424309E+03  0.52796424309E+03  0.00000000000E+00 0. -1.
        -24    2    1    2    0    0 -0.18649840353E+01 -0.77501464152E+01 -0.13602709810E+03  0.15774770503E+03  0.79482224989E+02 0.  0.
         23    2    1    2    0    0 -0.11831931159E+03  0.31935431124E+02 -0.38130536343E+02  0.15874055706E+03  0.93409289678E+02 0.  0.
         11    1    3    3    0    0 -0.12164521786E+02  0.29410023994E+02 -0.10012170835E+03  0.10505846746E+03  0.00000000000E+00 0. -1.
        -12    1    3    3    0    0  0.10299537751E+02 -0.37160170410E+02 -0.35905389756E+02  0.52689237576E+02  0.00000000000E+00 0.  1.
        -11    1    4    4    0    0 -0.98151260401E+02 -0.13729475653E+02 -0.58227907475E+01  0.99277758396E+02  0.00000000000E+00 0. -1.
         11    1    4    4    0    0 -0.20168051188E+02  0.45664906776E+02 -0.32307745596E+02  0.59462798665E+02  0.00000000000E+00 0.  1.
          4    1    1    2  501    0  0.12018429562E+03 -0.24185284709E+02 -0.26934777297E+03  0.29593481667E+03  0.00000000000E+00 0. -1.
<scales pt_clust_5="13000.00000" pt_clust_6="13000.00000" pt_clust_7="13000.00000" pt_clust_8="13000.00000" pt_clust_9="122.51416"></scales>
<clustering>
<clus scale="   79.482">  5  6 -1 -1</clus>
<clus scale="   79.881">  2  5  1 -1</clus>
<clus scale="   93.409">  7  8 -1 -1</clus>
<clus scale="  122.514">  1  9  2 -1</clus>
<clus scale="  122.514">  1  5  2 -1</clus>
</clustering>
</event>
<event>
 9    1  0.7835476E-005  0.1146433E+03  0.7546771E-02  0.1255189E+00
         21   -1    0    0  501  502  0.00000000000E+00  0.00000000000E+00  0.23378984033E+03  0.23378984033E+03  0.00000000000E+00 0. -1.
         -4   -1    0    0    0  501 -0.00000000000E+00 -0.00000000000E+00 -0.11002834292E+03  0.11002834292E+03  0.00000000000E+00 0.  1.
         23    2    1    2    0    0 -0.45668442997E+02 -0.25947503164E+02  0.39798528620E+02  0.11132672571E+03  0.89726458586E+02 0.  0.
        -24    2    1    2    0    0  0.65372013611E+02  0.86628827067E+02  0.97926840866E+02  0.16718109475E+03  0.81128283830E+02 0.  0.
         11    1    4    4    0    0  0.62567139614E+02  0.16854408431E+02  0.37704222307E+02  0.74968836344E+02  0.00000000000E+00 0. -1.
        -12    1    4    4    0    0  0.28048739968E+01  0.69774418636E+02  0.60222618559E+02  0.92212258406E+02  0.00000000000E+00 0.  1.
        -13    1    3    3    0    0  0.23356693674E+02 -0.25147432330E+02  0.19013011448E+02  0.39235482621E+02  0.00000000000E+00 0.  1.
         13    1    3    3    0    0 -0.69025136671E+02 -0.80007083349E+00  0.20785517172E+02  0.72091243087E+02  0.00000000000E+00 0. -1.
         -3    1    1    2    0  502 -0.19703570614E+02 -0.60681323904E+02 -0.13963872075E+02  0.65310362799E+02  0.00000000000E+00 0.  1.
<scales pt_clust_5="13000.00000" pt_clust_6="13000.00000" pt_clust_7="13000.00000" pt_clust_8="13000.00000" pt_clust_9="63.80014"></scales>
<clustering>
<clus scale="   63.800">  1  9  2 -1</clus>
<clus scale="   81.128">  5  6 -1 -1</clus>
<clus scale="   89.726">  7  8 -1 -1</clus>
<clus scale="  108.046">  1  5  2 -1</clus>
<clus scale="   63.800">  1  5  2 -1</clus>
</clustering>
</event>
<event>
 9    1  0.7835476E-005  0.1409131E+03  0.7546771E-02  0.1213742E+00
          1   -1    0    0  502    0 -0.00000000000E+00  0.00000000000E+00  0.47455840516E+03  0.47455840516E+03  0.00000000000E+00 0. -1.
         21   -1    0    0  501  502  0.00000000000E+00 -0.00000000000E+00 -0.88312040425E+02  0.88312040425E+02  0.00000000000E+00 0. -1.
        -24    2    1    2    0    0 -0.75817252190E+02 -0.94781687979E+02  0.34629064740E+03  0.37582614257E+03  0.81217318682E+02 0.  0.
         23    2    1    2    0    0  0.68522925746E+02  0.43303453902E+02  0.55759917522E+02  0.13270289592E+03  0.89052286387E+02 0.  0.
         11    1    3    3    0    0 -0.59592375332E+02 -0.31968120640E+02  0.25511138237E+03  0.26392239266E+03  0.00000000000E+00 0. -1.
        -12    1    3    3    0    0 -0.16224876858E+02 -0.62813567339E+02  0.91179265035E+02  0.11190374991E+03  0.00000000000E+00 0.  1.
        -13    1    4    4    0    0  0.67104397114E+02  0.19825806052E+02 -0.23521486178E+01  0.70011394078E+02  0.00000000000E+00 0. -1.
         13    1    4    4    0    0  0.14185286315E+01  0.23477647850E+02  0.58112066140E+02  0.62691501841E+02  0.00000000000E+00 0.  1.
          2    1    1    2  501    0  0.72943264444E+01  0.51478234077E+02 -0.15804200188E+02  0.54341407100E+02  0.00000000000E+00 0. -1.
<scales pt_clust_5="13000.00000" pt_clust_6="13000.00000" pt_clust_7="13000.00000" pt_clust_8="13000.00000" pt_clust_9="51.99246"></scales>
<clustering>
<clus scale="   51.992">  2  9  1 -1</clus>
<clus scale="   81.217">  5  6 -1 -1</clus>
<clus scale="   89.052">  7  8 -1 -1</clus>
<clus scale="  136.097">  1  5  2 -1</clus>
<clus scale="   51.992">  2  5  1 -1</clus>
</clustering>
</event>
<event>
 9    1  0.7835476E-005  0.1275922E+03  0.7546771E-02  0.1231154E+00
         21   -1    0    0  501  502  0.00000000000E+00  0.00000000000E+00  0.76628152438E+02  0.76628152438E+02  0.00000000000E+00 0.  1.
          1   -1    0    0  502    0 -0.00000000000E+00 -0.00000000000E+00 -0.47504621658E+03  0.47504621658E+03  0.00000000000E+00 0. -1.
        -24    2    1    2    0    0  0.48677215422E+02 -0.68933739076E+02 -0.32981572132E+03  0.35224445974E+03  0.90423546189E+02 0.  0.
         23    2    1    2    0    0 -0.82802363648E+02  0.75687355993E+02 -0.77148701261E+02  0.16360844469E+03  0.90724824523E+02 0.  0.
         13    1    3    3    0    0  0.37585728376E+02  0.12480941814E+02 -0.80060933046E+02  0.89320847994E+02  0.00000000000E+00 0. -1.
        -14    1    3    3    0    0  0.11091487046E+02 -0.81414680890E+02 -0.24975478827E+03  0.26292361175E+03  0.00000000000E+00 0.  1.
        -11    1    4    4    0    0 -0.83183908063E+02  0.31734166658E+02 -0.79818454667E+02  0.11957259552E+03  0.00000000000E+00 0. -1.
         11    1    4    4    0    0  0.38154441526E+00  0.43953189335E+02  0.26697534054E+01  0.44035849170E+02  0.00000000000E+00 0.  1.
          2    1    1    2  501    0  0.34125148225E+02 -0.67536169172E+01  0.85463584349E+01  0.35821464590E+02  0.00000000000E+00 0. -1.
<scales pt_clust_5="13000.00000" pt_clust_6="13000.00000" pt_clust_7="13000.00000" pt_clust_8="13000.00000" pt_clust_9="34.78702"></scales>
<clustering>
<clus scale="   34.787">  1  9  2 -1</clus>
<clus scale="   90.424">  5  6 -1 -1</clus>
<clus scale="   90.725">  7  8 -1 -1</clus>
<clus scale="  127.378">  2  5  1 -1</clus>
<clus scale="   34.787">  1  5  2 -1</clus>
</clustering>
</event>
<event>
 9    1  0.7835476E-005  0.1178283E+03  0.7546771E-02  0.1252250E+00
         -4   -1    0    0    0  501 -0.00000000000E+00  0.00000000000E+00  0.52649664946E+03  0.52649664946E+03  0.00000000000E+00 0.  1.
         21   -1    0    0  501  502  0.00000000000E+00 -0.00000000000E+00 -0.52347963081E+02  0.52347963081E+02  0.00000000000E+00 0. -1.
        -24    2    1    2    0    0  0.36782808677E+02 -0.70898920717E+02  0.39340140536E+03  0.40823884653E+03  0.74260743993E+02 0.  0.
         23    2    1    2    0    0  0.29629859773E+01  0.59550519684E+02  0.54323094804E+02  0.12154710709E+03  0.90926656882E+02 0.  0.
         11    1    3    3    0    0  0.36865508187E+02 -0.13494955224E+01  0.96770897232E+02  0.10356395794E+03  0.00000000000E+00 0. -1.
        -12    1    3    3    0    0 -0.82699509228E-01 -0.69549425194E+02  0.29663050813E+03  0.30467488859E+03  0.00000000000E+00 0.  1.
        -13    1    4    4    0    0 -0.31560316759E+02  0.13004663686E+02 -0.94081052851E+01  0.35407447191E+02  0.00000000000E+00 0. -1.
         13    1    4    4    0    0  0.34523302736E+02  0.46545855997E+02  0.63731200089E+02  0.86139659897E+02  0.00000000000E+00 0.  1.
         -3    1    1    2    0  502 -0.39745794655E+02  0.11348401033E+02  0.26424186211E+02  0.49058658926E+02  0.00000000000E+00 0.  1.
<scales pt_clust_5="13000.00000" pt_clust_6="13000.00000" pt_clust_7="13000.00000" pt_clust_8="13000.00000" pt_clust_9="41.33418"></scales>
<clustering>
<clus scale="   41.334">  2  9  1 -1</clus>
<clus scale="   74.261">  5  6 -1 -1</clus>
<clus scale="   90.927">  7  8 -1 -1</clus>
<clus scale="  105.501">  1  5  2 -1</clus>
<clus scale="   41.334">  2  5  1 -1</clus>
</clustering>
</event>
<event>
 9    1  0.7835476E-005  0.1205823E+03  0.7546771E-02  0.1244817E+00
         21   -1    0    0  501  502  0.00000000000E+00  0.00000000000E+00  0.13292844518E+03  0.13292844518E+03  0.00000000000E+00 0.  1.
         -4   -1    0    0    0  501 -0.00000000000E+00 -0.00000000000E+00 -0.17102618570E+03  0.17102618570E+03  0.00000000000E+00 0.  1.
        -24    2    1    2    0    0 -0.92022783699E+02  0.24972559446E+02 -0.36798913404E+02  0.13008602380E+03  0.80476034412E+02 0.  0.
         23    2    1    2    0    0  0.56571869936E+02 -0.84764263101E+01  0.43335604647E+02  0.11452956266E+03  0.89257043537E+02 0.  0.
         13    1    3    3    0    0 -0.84155913230E+02 -0.66556817214E+01 -0.46109302601E+02  0.96190350957E+02  0.00000000000E+00 0. -1.
        -14    1    3    3    0    0 -0.78668704687E+01  0.31628241167E+02  0.93103891978E+01  0.33895672840E+02  0.00000000000E+00 0.  1.
        -11    1    4    4    0    0  0.24592938998E+02  0.89508955650E+00  0.68490421151E+02  0.72777411491E+02  0.00000000000E+00 0.  1.
         11    1    4    4    0    0  0.31978930938E+02 -0.93715158666E+01 -0.25154816504E+02  0.41752151165E+02  0.00000000000E+00 0. -1.
         -3    1    1    2    0  502  0.35450913763E+02 -0.16496133136E+02 -0.44634431764E+02  0.59339044431E+02  0.00000000000E+00 0.  1.
<scales pt_clust_5="13000.00000" pt_clust_6="13000.00000" pt_clust_7="13000.00000" pt_clust_8="13000.00000" pt_clust_9="39.10104"></scales>
<clustering>
<clus scale="   39.101">  1  9  2 -1</clus>
<clus scale="   80.476">  5  6 -1 -1</clus>
<clus scale="   89.257">  7  8 -1 -1</clus>
<clus scale="  114.235">  2  5  1 -1</clus>
<clus scale="   39.101">  1  5  2 -1</clus>
</clustering>
</event>
<event>
 9    1  0.7835476E-005  0.9307253E+02  0.7546771E-02  0.1302662E+00
          1   -1    0    0  502    0 -0.00000000000E+00  0.00000000000E+00  0.22124397921E+03  0.22124397921E+03  0.00000000000E+00 0. -1.
         21   -1    0    0  501  502  0.00000000000E+00 -0.00000000000E+00 -0.66831828586E+02  0.66831828586E+02  0.00000000000E+00 0. -1.
         23    2    1    2    0    0  0.96754675046E+01 -0.90777395549E+01  0.79134794209E+02  0.12181413854E+03  0.91653416008E+02 0.  0.
        -24    2    1    2    0    0 -0.18939779932E+02 -0.40065263064E+02  0.23891533802E+02  0.94558357227E+02  0.80040845609E+02 0.  0.
         13    1    4    4    0    0 -0.11687798729E+02 -0.61442096008E+02  0.32395992896E+02  0.70436043023E+02  0.00000000000E+00 0. -1.
        -14    1    4    4    0    0 -0.72519812022E+01  0.21376832944E+02 -0.85044590936E+01  0.24122314204E+02  0.00000000000E+00 0.  1.
        -13    1    3    3    0    0  0.49713812227E+02  0.49896178262E+01  0.46836055697E+02  0.68483395983E+02  0.00000000000E+00 0. -1.
         13    1    3    3    0    0 -0.40038344722E+02 -0.14067357381E+02  0.32298738512E+02  0.53330742553E+02  0.00000000000E+00 0.  1.
          2    1    1    2  501    0  0.92643124270E+01  0.49143002619E+02  0.51385822615E+02  0.71703312036E+02  0.00000000000E+00 0. -1.
<scales pt_clust_5="13000.00000" pt_clust_6="13000.00000" pt_clust_7="13000.00000" pt_clust_8="13000.00000" pt_clust_9="50.00865"></scales>
<clustering>
<clus scale="   50.009">  2  9  1 -1</clus>
<clus scale="   80.041">  5  6 -1 -1</clus>
<clus scale="   81.662">  2  5  1 -1</clus>
<clus scale="   91.653">  7  8 -1 -1</clus>
<clus scale="   50.009">  2  5  1 -1</clus>
</clustering>
</event>
<event>
 9    1  0.7835476E-005  0.9898633E+02  0.7546771E-02  0.1288949E+00
          1   -1    0    0  502    0 -0.00000000000E+00  0.00000000000E+00  0.45170371778E+03  0.45170371778E+03  0.00000000000E+00 0. -1.
         21   -1    0    0  501  502  0.00000000000E+00 -0.00000000000E+00 -0.10044546126E+03  0.10044546126E+03  0.00000000000E+00 0.  1.
        -24    2    1    2    0    0  0.35430301973E+02 -0.97025597478E+01  0.40092853809E+03  0.41061734973E+03  0.80706067160E+02 0.  0.
         23    2    1    2    0    0 -0.19986851529E+00 -0.33116469902E+01 -0.24154551408E+02  0.96126923146E+02  0.92983525673E+02 0.  0.
         11    1    3    3    0    0 -0.17010360235E+02 -0.27240929479E+02  0.18211618769E+03  0.18492627291E+03  0.00000000000E+00 0. -1.
        -12    1    3    3    0    0  0.52440662207E+02  0.17538369731E+02  0.21881235040E+03  0.22569107682E+03  0.00000000000E+00 0.  1.
        -13    1    4    4    0    0 -0.18130459175E+02  0.22466211379E+02  0.24738537761E+02  0.38018935468E+02  0.00000000000E+00 0. -1.
         13    1    4    4    0    0  0.17930590659E+02 -0.25777858369E+02 -0.48893089169E+02  0.58107987678E+02  0.00000000000E+00 0.  1.
          2    1    1    2  501    0 -0.35230433457E+02  0.13014206738E+02 -0.25515730163E+02  0.45404906170E+02  0.00000000000E+00 0. -1.
<scales pt_clust_5="13000.00000" pt_clust_6="13000.00000" pt_clust_7="13000.00000" pt_clust_8="13000.00000" pt_clust_9="37.55733"></scales>
<clustering>
<clus scale="   37.557">  2  9  1 -1</clus>
<clus scale="   80.706">  5  6 -1 -1</clus>
<clus scale="   87.555">  1  5  2 -1</clus>
<clus scale="   92.984">  7  8 -1 -1</clus>
<clus scale="   37.557">  2  5  1 -1</clus>
</clustering>
</event>
<event>
 9    1  0.7835476E-005  0.1754323E+03  0.7546771E-02  0.1173709E+00
         21   -1    0    0  501  502  0.00000000000E+00  0.00000000000E+00  0.62371879709E+02  0.62371879709E+02  0.00000000000E+00 0.  1.
         -4   -1    0    0    0  501 -0.00000000000E+00 -0.00000000000E+00 -0.10216480351E+04  0.10216480351E+04  0.00000000000E+00 0.  1.
         23    2    1    2    0    0  0.12638440037E+03  0.63379163634E+02 -0.35860476925E+03  0.39627183391E+03  0.91891516385E+02 0.  0.
        -24    2    1    2    0    0 -0.72349020137E+02 -0.17446857808E+03 -0.30974736713E+03  0.37168247828E+03  0.80813165786E+02 0.  0.
         13    1    4    4    0    0  0.80466940852E+00 -0.63322392474E+02 -0.15593200487E+03  0.16830081112E+03  0.00000000000E+00 0. -1.
        -14    1    4    4    0    0 -0.73153689545E+02 -0.11114618561E+03 -0.15381536226E+03  0.20338166716E+03  0.00000000000E+00 0.  1.
        -11    1    3    3    0    0  0.13395083470E+03  0.35143840758E+02 -0.31048865579E+03  0.33997223569E+03  0.00000000000E+00 0.  1.
         11    1    3    3    0    0 -0.75664343301E+01  0.28235322876E+02 -0.48116113453E+02  0.56299598224E+02  0.00000000000E+00 0. -1.
         -3    1    1    2    0  502 -0.54035380238E+02  0.11108941445E+03 -0.29092401904E+03  0.31606560264E+03  0.00000000000E+00 0.  1.
<scales pt_clust_5="13000.00000" pt_clust_6="13000.00000" pt_clust_7="13000.00000" pt_clust_8="13000.00000" pt_clust_9="123.53419"></scales>
<clustering>
<clus scale="   80.813">  5  6 -1 -1</clus>
<clus scale="   91.892">  7  8 -1 -1</clus>
<clus scale="  123.534">  1  9  2 -1</clus>
<clus scale="  169.892">  1  5  2 -1</clus>
<clus scale="  123.534">  1  5  2 -1</clus>
</clustering>
</event>
<event>
 9    1  0.7835476E-005  0.1479685E+03  0.7546771E-02  0.1204184E+00
          1   -1    0    0  502    0 -0.00000000000E+00  0.00000000000E+00  0.20608680691E+03  0.20608680691E+03  0.00000000000E+00 0. -1.
         21   -1    0    0  501  502  0.00000000000E+00 -0.00000000000E+00 -0.28276015877E+03  0.28276015877E+03  0.00000000000E+00 0. -1.
         23    2    1    2    0    0  0.89074501286E+02 -0.61754591832E+02 -0.97525309494E+02  0.17022170733E+03  0.87842741661E+02 0.  0.
        -24    2    1    2    0    0 -0.53718688193E+02  0.12930031063E+03 -0.89100239403E+02  0.18482711457E+03  0.81350733435E+02 0.  0.
         11    1    4    4    0    0 -0.49219897160E+02  0.25363430594E+02 -0.46884626156E+02  0.72553911388E+02  0.00000000000E+00 0. -1.
        -12    1    4    4    0    0 -0.44987910336E+01  0.10393688003E+03 -0.42215613247E+02  0.11227320318E+03  0.00000000000E+00 0.  1.
        -11    1    3    3    0    0  0.39215325983E+02 -0.70705545522E+02 -0.86453799190E+02  0.11836965555E+03  0.00000000000E+00 0.  1.
         11    1    3    3    0    0  0.49859175303E+02  0.89509536898E+01 -0.11071510304E+02  0.51852051785E+02  0.00000000000E+00 0. -1.
          2    1    1    2  501    0 -0.35355813093E+02 -0.67545718793E+02  0.10995219703E+03  0.13379814378E+03  0.00000000000E+00 0. -1.
<scales pt_clust_5="13000.00000" pt_clust_6="13000.00000" pt_clust_7="13000.00000" pt_clust_8="13000.00000" pt_clust_9="76.23951"></scales>
<clustering>
<clus scale="   76.240">  2  9  1 -1</clus>
<clus scale="   81.351">  5  6 -1 -1</clus>
<clus scale="   87.843">  7  8 -1 -1</clus>
<clus scale="  144.209">  2  5  1 -1</clus>
<clus scale="   76.240">  2  5  1 -1</clus>
</clustering>
</event>
<event>
 9    1  0.7835476E-005  0.1499654E+03  0.7546771E-02  0.1201806E+00
          1   -1    0    0  502    0 -0.00000000000E+00  0.00000000000E+00  0.73398389785E+02  0.73398389785E+02  0.00000000000E+00 0. -1.
         21   -1    0    0  501  502  0.00000000000E+00 -0.00000000000E+00 -0.69301058516E+03  0.69301058516E+03  0.00000000000E+00 0.  1.
        -24    2    1    2    0    0 -0.73538191581E+01 -0.84234965818E+02 -0.21964327083E+03  0.24957410173E+03  0.83032871284E+02 0.  0.
         23    2    1    2    0    0 -0.24070892676E+02  0.17777210295E+03 -0.35622762886E+03  0.40889966354E+03  0.90102623838E+02 0.  0.
         11    1    3    3    0    0 -0.31579361213E+02 -0.41872579553E+02 -0.17753081362E+03  0.18511552814E+03  0.00000000000E+00 0. -1.
        -12    1    3    3    0    0  0.24225542055E+02 -0.42362386265E+02 -0.42112457208E+02  0.64458573596E+02  0.00000000000E+00 0.  1.
        -11    1    4    4    0    0 -0.47530166561E+02  0.46231138176E+02 -0.10115788227E+03  0.12095185826E+03  0.00000000000E+00 0.  1.
         11    1    4    4    0    0  0.23459273885E+02  0.13154096478E+03 -0.25506974659E+03  0.28794780529E+03  0.00000000000E+00 0. -1.
          2    1    1    2  501    0  0.31424711834E+02 -0.93537137136E+02 -0.43741295693E+02  0.10793520967E+03  0.00000000000E+00 0. -1.
<scales pt_clust_5="13000.00000" pt_clust_6="13000.00000" pt_clust_7="13000.00000" pt_clust_8="13000.00000" pt_clust_9="98.67481"></scales>
<clustering>
<clus scale="   83.033">  5  6 -1 -1</clus>
<clus scale="   90.103">  7  8 -1 -1</clus>
<clus scale="   98.675">  2  9  1 -1</clus>
<clus scale="  145.827">  1  5  2 -1</clus>
<clus scale="   98.675">  2  5  1 -1</clus>
</clustering>
</event>
<event>
 9    1  0.7835476E-005  0.1502810E+03  0.7546771E-02  0.1212205E+00
          1   -1    0    0  502    0 -0.00000000000E+00  0.00000000000E+00  0.15848767971E+04  0.15848767971E+04  0.00000000000E+00 0. -1.
         21   -1    0    0  501  502  0.00000000000E+00 -0.00000000000E+00 -0.80426707874E+02  0.80426707874E+02  0.00000000000E+00 0. -1.
         23    2    1    2    0    0 -0.66004930514E+02  0.28279571551E+02  0.31088655852E+03  0.33179683697E+03  0.91007163101E+02 0.  0.
        -24    2    1    2    0    0  0.16840793902E+03 -0.95819447242E+02  0.11924323204E+04  0.12108311179E+04  0.81697961734E+02 0.  0.
         13    1    4    4    0    0  0.17159908823E+03 -0.79034334497E+02  0.10036083240E+04  0.10212356933E+04  0.00000000000E+00 0. -1.
        -14    1    4    4    0    0 -0.31911492102E+01 -0.16785112745E+02  0.18882399633E+03  0.18959542462E+03  0.00000000000E+00 0.  1.
        -11    1    3    3    0    0 -0.88502717511E+01  0.51957510653E+02  0.16851054273E+03  0.17656079190E+03  0.00000000000E+00 0. -1.
         11    1    3    3    0    0 -0.57154658763E+02 -0.23677939102E+02  0.14237601579E+03  0.15523604508E+03  0.00000000000E+00 0.  1.
          2    1    1    2  501    0 -0.10240300851E+03  0.67539875692E+02  0.11312103225E+01  0.12267555012E+03  0.00000000000E+00 0. -1.
<scales pt_clust_5="13000.00000" pt_clust_6="13000.00000" pt_clust_7="13000.00000" pt_clust_8="13000.00000" pt_clust_9="126.13415"></scales>
<clustering>
<clus scale="   81.698">  5  6 -1 -1</clus>
<clus scale="   91.007">  7  8 -1 -1</clus>
<clus scale="  115.925">  1  7  2 -1</clus>
<clus scale="  126.134">  2  9  1 -1</clus>
<clus scale="  126.134">  2  5  1 -1</clus>
</clustering>
</event>
<event>
 9    1  0.7835476E-005  0.1330709E+03  0.7546771E-02  0.1225357E+00
         21   -1    0    0  501  502  0.00000000000E+00  0.00000000000E+00  0.24012090306E+03  0.24012090306E+03  0.00000000000E+00 0. -1.
         -2   -1    0    0    0  501 -0.00000000000E+00 -0.00000000000E+00 -0.13130136981E+03  0.13130136981E+03  0.00000000000E+00 0.  1.
         23    2    1    2    0    0  0.38337762710E+02 -0.98959617140E+02 -0.48366583528E+02  0.14757711296E+03  0.90426146626E+02 0.  0.
        -24    2    1    2    0    0 -0.46765758143E+02  0.65786206731E+02  0.79770707539E+02  0.13920089341E+03  0.80614277975E+02 0.  0.
         13    1    4    4    0    0 -0.49983233702E+02  0.79810208685E+02  0.81716059541E+02  0.12468162434E+03  0.00000000000E+00 0. -1.
        -14    1    4    4    0    0  0.32174755594E+01 -0.14024001954E+02 -0.19453520021E+01  0.14519269065E+02  0.00000000000E+00 0.  1.
        -11    1    3    3    0    0 -0.24971048684E+02 -0.46925186116E+02 -0.15073859348E+01  0.53177049343E+02  0.00000000000E+00 0. -1.
         11    1    3    3    0    0  0.63308811394E+02 -0.52034431024E+02 -0.46859197593E+02  0.94400063618E+02  0.00000000000E+00 0.  1.
         -1    1    1    2    0  502  0.84279954331E+01  0.33173410409E+02  0.77415409236E+02  0.84644266506E+02  0.00000000000E+00 0.  1.
<scales pt_clust_5="13000.00000" pt_clust_6="13000.00000" pt_clust_7="13000.00000" pt_clust_8="13000.00000" pt_clust_9="34.22727"></scales>
<clustering>
<clus scale="   34.227">  1  9  2 -1</clus>
<clus scale="   80.614">  5  6 -1 -1</clus>
<clus scale="   90.426">  7  8 -1 -1</clus>
<clus scale="  126.608">  1  5  2 -1</clus>
<clus scale="   34.227">  1  5  2 -1</clus>
</clustering>
</event>
<event>
 9    1  0.7835476E-005  0.1128681E+03  0.7546771E-02  0.1257669E+00
         -2   -1    0    0    0  501 -0.00000000000E+00  0.00000000000E+00  0.13878825135E+03  0.13878825135E+03  0.00000000000E+00 0.  1.
         21   -1    0    0  501  502  0.00000000000E+00 -0.00000000000E+00 -0.30116429255E+03  0.30116429255E+03  0.00000000000E+00 0.  1.
         23    2    1    2    0    0 -0.61397046913E+02 -0.46701142363E+02 -0.81861956423E+02  0.14375215021E+03  0.89513723601E+02 0.  0.
        -24    2    1    2    0    0  0.61185659455E+02  0.56560600011E+01 -0.16933238812E+03  0.19835646451E+03  0.83043081644E+02 0.  0.
         13    1    4    4    0    0  0.21850132111E+02 -0.37872027587E+02 -0.85543706035E+02  0.96069997340E+02  0.00000000000E+00 0. -1.
        -14    1    4    4    0    0  0.39335527344E+02  0.43528087588E+02 -0.83788682083E+02  0.10228646717E+03  0.00000000000E+00 0.  1.
        -11    1    3    3    0    0 -0.84612387046E+02 -0.34014959985E+02 -0.57636611221E+02  0.10788073274E+03  0.00000000000E+00 0.  1.
         11    1    3    3    0    0  0.23215340133E+02 -0.12686182378E+02 -0.24225345202E+02  0.35871417465E+02  0.00000000000E+00 0. -1.
         -1    1    1    2    0  502  0.21138745869E+00  0.41045082362E+02  0.88818303335E+02  0.97843929184E+02  0.00000000000E+00 0.  1.
<scales pt_clust_5="13000.00000" pt_clust_6="13000.00000" pt_clust_7="13000.00000" pt_clust_8="13000.00000" pt_clust_9="41.04565"></scales>
<clustering>
<clus scale="   41.046">  2  9  1 -1</clus>
<clus scale="   83.043">  5  6 -1 -1</clus>
<clus scale="   89.514">  7  8 -1 -1</clus>
<clus scale="  107.808">  2  5  1 -1</clus>
<clus scale="   41.046">  2  5  1 -1</clus>
</clustering>
</event>
<event>
 9    1  0.7835476E-005  0.1624167E+03  0.7546771E-02  0.1191411E+00
          3   -1    0    0  502    0 -0.00000000000E+00  0.00000000000E+00  0.24819900656E+03  0.24819900656E+03  0.00000000000E+00 0. -1.
         21   -1    0    0  501  502  0.00000000000E+00 -0.00000000000E+00 -0.71670964223E+03  0.71670964223E+03  0.00000000000E+00 0. -1.
         23    2    1    2    0    0  0.10580163732E+03 -0.25292806319E+02  0.17340602377E+03  0.22544093691E+03  0.94447098657E+02 0.  0.
        -24    2    1    2    0    0  0.20272489820E+02  0.12205797446E+03 -0.10272208673E+03  0.17733874934E+03  0.74753474435E+02 0.  0.
         13    1    4    4    0    0 -0.23123681007E+02  0.81980530082E+02 -0.66307009008E+02  0.10794503870E+03  0.00000000000E+00 0. -1.
        -14    1    4    4    0    0  0.43396170827E+02  0.40077444382E+02 -0.36415077724E+02  0.69393710639E+02  0.00000000000E+00 0.  1.
        -11    1    3    3    0    0  0.81147708691E+02 -0.14200242639E+02  0.44303460306E+02  0.93538196005E+02  0.00000000000E+00 0.  1.
         11    1    3    3    0    0  0.24653928630E+02 -0.11092563680E+02  0.12910256346E+03  0.13190274090E+03  0.00000000000E+00 0. -1.
          4    1    1    2  501    0 -0.12607412714E+03 -0.96765168146E+02 -0.53919457270E+03  0.56212896255E+03  0.00000000000E+00 0. -1.
<scales pt_clust_5="13000.00000" pt_clust_6="13000.00000" pt_clust_7="13000.00000" pt_clust_8="13000.00000" pt_clust_9="144.19121"></scales>
<clustering>
<clus scale="   74.753">  5  6 -1 -1</clus>
<clus scale="   94.447">  7  8 -1 -1</clus>
<clus scale="  144.062">  1  7  2 -1</clus>
<clus scale="  144.191">  2  9  1 -1</clus>
<clus scale="  144.191">  2  5  1 -1</clus>
</clustering>
</event>
<event>
 9    1  0.7835476E-005  0.1348163E+03  0.7546771E-02  0.1223323E+00
         -4   -1    0    0    0  501 -0.00000000000E+00  0.00000000000E+00  0.10442467741E+04  0.10442467741E+04  0.00000000000E+00 0.  1.
         21   -1    0    0  501  502  0.00000000000E+00 -0.00000000000E+00 -0.64135324593E+02  0.64135324593E+02  0.00000000000E+00 0. -1.
        -24    2    1    2    0    0  0.92049870209E+02  0.18609351452E+02  0.89309264162E+03  0.90193643773E+03  0.83996336954E+02 0.  0.
         23    2    1    2    0    0 -0.10984373050E+03  0.34277869753E+01  0.98682710035E+02  0.17581392007E+03  0.95366987875E+02 0.  0.
         11    1    3    3    0    0  0.10800160181E+02 -0.25070165891E+02  0.10607417730E+03  0.10953030525E+03  0.00000000000E+00 0. -1.
        -12    1    3    3    0    0  0.81249710028E+02  0.43679517343E+02  0.78701846431E+03  0.79240613248E+03  0.00000000000E+00 0.  1.
        -11    1    4    4    0    0 -0.55703448119E+02 -0.33517271042E+01  0.10694486511E+03  0.12062882069E+03  0.00000000000E+00 0.  1.
         11    1    4    4    0    0 -0.54140282377E+02  0.67795140794E+01 -0.82621550750E+01  0.55185099379E+02  0.00000000000E+00 0. -1.
         -3    1    1    2    0  502  0.17793860287E+02 -0.22037138428E+02 -0.11663902184E+02  0.30631740860E+02  0.00000000000E+00 0.  1.
<scales pt_clust_5="13000.00000" pt_clust_6="13000.00000" pt_clust_7="13000.00000" pt_clust_8="13000.00000" pt_clust_9="28.32414"></scales>
<clustering>
<clus scale="   28.324">  2  9  1 -1</clus>
<clus scale="   83.996">  5  6 -1 -1</clus>
<clus scale="   95.367">  7  8 -1 -1</clus>
<clus scale="  127.027">  1  5  2 -1</clus>
<clus scale="   28.324">  2  5  1 -1</clus>
</clustering>
</event>
<event>
 9    1  0.7835476E-005  0.1493608E+03  0.7546771E-02  0.1203190E+00
         21   -1    0    0  501  502  0.00000000000E+00  0.00000000000E+00  0.34860801634E+02  0.34860801634E+02  0.00000000000E+00 0. -1.
          1   -1    0    0  502    0 -0.00000000000E+00 -0.00000000000E+00 -0.95631296117E+03  0.95631296117E+03  0.00000000000E+00 0. -1.
         23    2    1    2    0    0 -0.16662202796E+02  0.98010596827E+02 -0.38996667104E+03  0.41235387443E+03  0.89877734416E+02 0.  0.
        -24    2    1    2    0    0  0.44091385613E+02 -0.14667918611E+03 -0.37830559572E+03  0.41577059766E+03  0.79317288129E+02 0.  0.
         11    1    4    4    0    0  0.33459512188E+02 -0.98078074856E+02 -0.15135937272E+03  0.18343529495E+03  0.00000000000E+00 0. -1.
        -12    1    4    4    0    0  0.10631873425E+02 -0.48601111257E+02 -0.22694622301E+03  0.23233530271E+03  0.00000000000E+00 0.  1.
        -13    1    3    3    0    0 -0.33763863057E+02  0.18087538770E+01 -0.68918899538E+02  0.76766429855E+02  0.00000000000E+00 0. -1.
         13    1    3    3    0    0  0.17101660261E+02  0.96201842949E+02 -0.32104777151E+03  0.33558744458E+03  0.00000000000E+00 0.  1.
          2    1    1    2  501    0 -0.27429182816E+02  0.48668589286E+02 -0.15317989276E+03  0.16304929071E+03  0.00000000000E+00 0. -1.
<scales pt_clust_5="13000.00000" pt_clust_6="13000.00000" pt_clust_7="13000.00000" pt_clust_8="13000.00000" pt_clust_9="55.86586"></scales>
<clustering>
<clus scale="   55.866">  1  9  2 -1</clus>
<clus scale="   79.317">  5  6 -1 -1</clus>
<clus scale="   89.878">  7  8 -1 -1</clus>
<clus scale="  143.255">  1  5  2 -1</clus>
<clus scale="   55.866">  1  5  2 -1</clus>
</clustering>
</event>
<event>
 9    1  0.7835476E-005  0.9531717E+02  0.7546771E-02  0.1294003E+00
         21   -1    0    0  501  502  0.00000000000E+00  0.00000000000E+00  0.52334713015E+02  0.52334713015E+02  0.00000000000E+00 0. -1.
         -4   -1    0    0    0  501 -0.00000000000E+00 -0.00000000000E+00 -0.63299192042E+03  0.63299192042E+03  0.00000000000E+00 0.  1.
        -24    2    1    2    0    0 -0.32593903334E+02  0.16195219541E+02 -0.45858631180E+03  0.46687310157E+03  0.79651992652E+02 0.  0.
         23    2    1    2    0    0  0.40940745034E+02 -0.39737520855E+02 -0.14917415508E+03  0.18159574581E+03  0.86422631209E+02 0.  0.
         11    1    3    3    0    0 -0.38854993990E+02 -0.10952590540E+02 -0.10997369141E+03  0.11714897609E+03  0.00000000000E+00 0. -1.
        -12    1    3    3    0    0  0.62610906561E+01  0.27147810081E+02 -0.34861262039E+03  0.34972412548E+03  0.00000000000E+00 0.  1.
        -13    1    4    4    0    0  0.50692094398E+02  0.38819653457E+01 -0.11364485593E+03  0.12449864003E+03  0.00000000000E+00 0.  1.
         13    1    4    4    0    0 -0.97513493637E+01 -0.43619486200E+02 -0.35529299154E+02  0.57097105786E+02  0.00000000000E+00 0. -1.
         -3    1    1    2    0  502 -0.83468417003E+01  0.23542301314E+02  0.27103259482E+02  0.36857786044E+02  0.00000000000E+00 0.  1.
<scales pt_clust_5="13000.00000" pt_clust_6="13000.00000" pt_clust_7="13000.00000" pt_clust_8="13000.00000" pt_clust_9="24.97818"></scales>
<clustering>
<clus scale="   24.978">  1  9  2 -1</clus>
<clus scale="   79.652">  5  6 -1 -1</clus>
<clus scale="   86.423">  7  8 -1 -1</clus>
<clus scale="   89.224">  2  5  1 -1</clus>
<clus scale="   24.978">  1  5  2 -1</clus>
</clustering>
</event>
<event>
 9    1  0.7835476E-005  0.1014035E+03  0.7546771E-02  0.1282100E+00
         -4   -1    0    0    0  501 -0.00000000000E+00  0.00000000000E+00  0.33654781115E+02  0.33654781115E+02  0.00000000000E+00 0.  1.
         21   -1    0    0  501  502  0.00000000000E+00 -0.00000000000E+00 -0.48387340526E+03  0.48387340526E+03  0.00000000000E+00 0. -1.
        -24    2    1    2    0    0  0.31993760281E+02  0.32516980064E+02 -0.67710119951E+02  0.11494715838E+03  0.80914981231E+02 0.  0.
         23    2    1    2    0    0 -0.13675267485E+02 -0.46006847726E+02 -0.31899122828E+03  0.33511260539E+03  0.90782220712E+02 0.  0.
         11    1    3    3    0    0 -0.63693331875E+01  0.22735163477E+02 -0.71383243253E+02  0.75186591098E+02  0.00000000000E+00 0. -1.
        -12    1    3    3    0    0  0.38363093468E+02  0.97818165878E+01  0.36731233025E+01  0.39760567287E+02  0.00000000000E+00 0.  1.
        -13    1    4    4    0    0 -0.52271449414E+02 -0.33221816982E+02 -0.18545843719E+03  0.19552704537E+03  0.00000000000E+00 0. -1.
         13    1    4    4    0    0  0.38596181929E+02 -0.12785030744E+02 -0.13353279109E+03  0.13958556002E+03  0.00000000000E+00 0.  1.
         -3    1    1    2    0  502 -0.18318492795E+02  0.13489867661E+02 -0.63517275914E+02  0.67468422594E+02  0.00000000000E+00 0.  1.
<scales pt_clust_5="13000.00000" pt_clust_6="13000.00000" pt_clust_7="13000.00000" pt_clust_8="13000.00000" pt_clust_9="22.74959"></scales>
<clustering>
<clus scale="   22.750">  2  9  1 -1</clus>
<clus scale="   80.915">  5  6 -1 -1</clus>
<clus scale="   90.782">  7  8 -1 -1</clus>
<clus scale="   92.674">  1  5  2 -1</clus>
<clus scale="   22.750">  2  5  1 -1</clus>
</clustering>
</event>
<event>
 9    1  0.7835476E-005  0.1606911E+03  0.7546771E-02  0.1189435E+00
          1   -1    0    0  502    0 -0.00000000000E+00  0.00000000000E+00  0.10286120771E+04  0.10286120771E+04  0.00000000000E+00 0. -1.
         21   -1    0    0  501  502  0.00000000000E+00 -0.00000000000E+00 -0.34990867430E+02  0.34990867430E+02  0.00000000000E+00 0. -1.
         23    2    1    2    0    0  0.93788556603E+02 -0.10519364434E+03  0.45371328947E+03  0.48345192876E+03  0.89487553437E+02 0.  0.
        -24    2    1    2    0    0 -0.46670046791E+02  0.12066733832E+03  0.31325097645E+03  0.34813170769E+03  0.79566398986E+02 0.  0.
         11    1    4    4    0    0  0.21309125851E+02  0.46023492133E+02  0.96262207514E+02  0.10880557554E+03  0.00000000000E+00 0. -1.
        -12    1    4    4    0    0 -0.67979172642E+02  0.74643846185E+02  0.21698876893E+03  0.23932613215E+03  0.00000000000E+00 0.  1.
        -11    1    3    3    0    0  0.29418141159E+02 -0.93526890190E+02  0.22211743311E+03  0.24279386382E+03  0.00000000000E+00 0. -1.
         11    1    3    3    0    0  0.64370415444E+02 -0.11666754154E+02  0.23159585636E+03  0.24065806494E+03  0.00000000000E+00 0.  1.
          2    1    1    2  501    0 -0.47118509812E+02 -0.15473693974E+02  0.22665694377E+03  0.23201930810E+03  0.00000000000E+00 0. -1.
<scales pt_clust_5="13000.00000" pt_clust_6="13000.00000" pt_clust_7="13000.00000" pt_clust_8="13000.00000" pt_clust_9="49.59427"></scales>
<clustering>
<clus scale="   49.594">  2  9  1 -1</clus>
<clus scale="   79.566">  5  6 -1 -1</clus>
<clus scale="   89.488">  7  8 -1 -1</clus>
<clus scale="  155.385">  2  5  1 -1</clus>
<clus scale="   49.594">  2  5  1 -1</clus>
</clustering>
</event>
<event>
 9    1  0.7835476E-005  0.1206139E+03  0.7546771E-02  0.1247869E+00
         21   -1    0    0  501  502  0.00000000000E+00  0.00000000000E+00  0.18405010352E+03  0.18405010352E+03  0.00000000000E+00 0. -1.
          1   -1    0    0  502    0 -0.00000000000E+00 -0.00000000000E+00 -0.20812347871E+03  0.20812347871E+03  0.00000000000E+00 0. -1.
         23    2    1    2    0    0 -0.41508887352E+02 -0.80630560449E+02 -0.14478595641E+03  0.19482447790E+03  0.93644695568E+02 0.  0.
        -24    2    1    2    0    0 -0.10549755799E+02  0.41381628236E+02  0.46819531848E+02  0.98805896796E+02  0.75807652492E+02 0.  0.
         11    1    4    4    0    0 -0.41239095529E+02  0.14148817581E+02  0.35552963756E+02  0.56257135288E+02  0.00000000000E+00 0. -1.
        -12    1    4    4    0    0  0.30689339730E+02  0.27232810655E+02  0.11266568092E+02  0.42548761508E+02  0.00000000000E+00 0.  1.
        -11    1    3    3    0    0 -0.55264728330E+02 -0.87115026218E+01 -0.75901116426E+02  0.94292417246E+02  0.00000000000E+00 0.  1.
         11    1    3    3    0    0  0.13755840978E+02 -0.71919057827E+02 -0.68884839981E+02  0.10053206065E+03  0.00000000000E+00 0. -1.
          2    1    1    2  501    0  0.52058643150E+02  0.39248932213E+02  0.73893049372E+02  0.98543207539E+02  0.00000000000E+00 0. -1.
<scales pt_clust_5="13000.00000" pt_clust_6="13000.00000" pt_clust_7="13000.00000" pt_clust_8="13000.00000" pt_clust_9="65.19648"></scales>
<clustering>
<clus scale="   65.196">  1  9  2 -1</clus>
<clus scale="   75.808">  5  6 -1 -1</clus>
<clus scale="   93.645">  7  8 -1 -1</clus>
<clus scale="  107.355">  1  5  2 -1</clus>
<clus scale="   65.196">  1  5  2 -1</clus>
</clustering>
</event>
<event>
 9    1  0.7835476E-005  0.1208433E+03  0.7546771E-02  0.1246087E+00
         21   -1    0    0  501  502  0.00000000000E+00  0.00000000000E+00  0.45791957882E+02  0.45791957882E+02  0.00000000000E+00 0.  1.
          1   -1    0    0  502    0 -0.00000000000E+00 -0.00000000000E+00 -0.83680070800E+03  0.83680070800E+03  0.00000000000E+00 0. -1.
         23    2    1    2    0    0 -0.67774335119E+02  0.43946184080E+02 -0.55233755426E+03  0.56596377725E+03  0.93346642770E+02 0.  0.
        -24    2    1    2    0    0  0.56943431989E+02 -0.11496726282E+02 -0.27045472775E+02  0.10225603017E+03  0.79687570845E+02 0.  0.
         13    1    4    4    0    0 -0.14878250714E+01  0.27372089912E+02 -0.10980699828E+01  0.27434479898E+02  0.00000000000E+00 0. -1.
        -14    1    4    4    0    0  0.58431257060E+02 -0.38868816193E+02 -0.25947402793E+02  0.74821550275E+02  0.00000000000E+00 0.  1.
        -11    1    3    3    0    0  0.19469848076E+02 -0.70725594504E+01 -0.63692148460E+02  0.66976009562E+02  0.00000000000E+00 0.  1.
         11    1    3    3    0    0 -0.87244183196E+02  0.51018743530E+02 -0.48864540580E+03  0.49898776769E+03  0.00000000000E+00 0. -1.
          2    1    1    2  501    0  0.10830903130E+02 -0.32449457798E+02 -0.21162572309E+03  0.21437285847E+03  0.00000000000E+00 0. -1.
<scales pt_clust_5="13000.00000" pt_clust_6="13000.00000" pt_clust_7="13000.00000" pt_clust_8="13000.00000" pt_clust_9="34.20931"></scales>
<clustering>
<clus scale="   34.209">  1  9  2 -1</clus>
<clus scale="   79.688">  5  6 -1 -1</clus>
<clus scale="   93.347">  7  8 -1 -1</clus>
<clus scale="  110.633">  1  5  2 -1</clus>
<clus scale="   34.209">  1  5  2 -1</clus>
</clustering>
</event>
<event>
 9    1  0.7835476E-005  0.1023101E+03  0.7546771E-02  0.1281283E+00
         -2   -1    0    0    0  501 -0.00000000000E+00  0.00000000000E+00  0.30108418765E+03  0.30108418765E+03  0.00000000000E+00 0.  1.
         21   -1    0    0  501  502  0.00000000000E+00 -0.00000000000E+00 -0.33810620849E+03  0.33810620849E+03  0.00000000000E+00 0. -1.
         23    2    1    2    0    0  0.27125997428E+02 -0.36415106808E+02  0.25619156004E+03  0.27556474618E+03  0.90774083112E+02 0.  0.
        -24    2    1    2    0    0 -0.56991924795E+02  0.83511322102E+02 -0.27761544092E+03  0.30571771368E+03  0.78554229745E+02 0.  0.
         13    1    4    4    0    0 -0.15759866436E+01  0.70495481311E+02 -0.13879776677E+03  0.15568210135E+03  0.00000000000E+00 0. -1.
        -14    1    4    4    0    0 -0.55415938152E+02  0.13015840790E+02 -0.13881767414E+03  0.15003561233E+03  0.00000000000E+00 0.  1.
        -11    1    3    3    0    0  0.51267636060E+02  0.66044161436E+01  0.11773560419E+03  0.12858328551E+03  0.00000000000E+00 0.  1.
         11    1    3    3    0    0 -0.24141638632E+02 -0.43019522952E+02  0.13845595585E+03  0.14698146067E+03  0.00000000000E+00 0. -1.
         -1    1    1    2    0  502  0.29865927367E+02 -0.47096215293E+02 -0.15598139956E+02  0.57907936266E+02  0.00000000000E+00 0.  1.
<scales pt_clust_5="13000.00000" pt_clust_6="13000.00000" pt_clust_7="13000.00000" pt_clust_8="13000.00000" pt_clust_9="55.76762"></scales>
<clustering>
<clus scale="   55.768">  2  9  1 -1</clus>
<clus scale="   78.554">  5  6 -1 -1</clus>
<clus scale="   90.774">  7  8 -1 -1</clus>
<clus scale="   91.642">  2  5  1 -1</clus>
<clus scale="   55.768">  2  5  1 -1</clus>
</clustering>
</event>
<event>
 9    1  0.7835476E-005  0.1304903E+03  0.7546771E-02  0.1244065E+00
         21   -1    0    0  501  502  0.00000000000E+00  0.00000000000E+00  0.32878064193E+02  0.32878064193E+02  0.00000000000E+00 0.  1.
         -2   -1    0    0    0  501 -0.00000000000E+00 -0.00000000000E+00 -0.80914279899E+03  0.80914279899E+03  0.00000000000E+00 0.  1.
        -24    2    1    2    0    0 -0.30011734097E+02 -0.28646958166E+02 -0.18756553446E+03  0.20870093157E+03  0.81571421015E+02 0.  0.
         23    2    1    2    0    0 -0.56779103099E+02 -0.29259607130E+02 -0.42182961959E+03  0.43651729772E+03  0.92342471759E+02 0.  0.
         13    1    3    3    0    0 -0.42507334410E+02  0.74665243187E+01 -0.14596915265E+03  0.15221568904E+03  0.00000000000E+00 0. -1.
        -14    1    3    3    0    0  0.12495600312E+02 -0.36113482485E+02 -0.41596381802E+02  0.56485242528E+02  0.00000000000E+00 0.  1.
        -13    1    4    4    0    0  0.16396495518E+02  0.18637825209E+02 -0.93597215996E+02  0.96833116422E+02  0.00000000000E+00 0. -1.
         13    1    4    4    0    0 -0.73175598616E+02 -0.47897432339E+02 -0.32823240359E+03  0.33968418130E+03  0.00000000000E+00 0.  1.
         -1    1    1    2    0  502  0.86790837196E+02  0.57906565296E+02 -0.16686958075E+03  0.19680263389E+03  0.00000000000E+00 0.  1.
<scales pt_clust_5="13000.00000" pt_clust_6="13000.00000" pt_clust_7="13000.00000" pt_clust_8="13000.00000" pt_clust_9="92.19863"></scales>
<clustering>
<clus scale="   81.571">  5  6 -1 -1</clus>
<clus scale="   91.516">  2  5  1 -1</clus>
<clus scale="   92.199">  1  9  2 -1</clus>
<clus scale="   92.342">  7  8 -1 -1</clus>
<clus scale="   92.199">  1  5  2 -1</clus>
</clustering>
</event>
<event>
 9    1  0.7835476E-005  0.9352114E+02  0.7546771E-02  0.1300248E+00
         21   -1    0    0  501  502  0.00000000000E+00  0.00000000000E+00  0.29944260848E+03  0.29944260848E+03  0.00000000000E+00 0.  1.
         -2   -1    0    0    0  501 -0.00000000000E+00 -0.00000000000E+00 -0.61737046493E+02  0.61737046493E+02  0.00000000000E+00 0.  1.
        -24    2    1    2    0    0 -0.16989080918E-01  0.60166624344E+01  0.90087895665E+01  0.84652152807E+02  0.83956108592E+02 0.  0.
         23    2    1    2    0    0 -0.13819578375E+02  0.43588272418E+02  0.15180028973E+03  0.18397930277E+03  0.93349545514E+02 0.  0.
         13    1    3    3    0    0  0.35900906519E+02  0.23714930890E+02  0.11488887573E+02  0.44533892416E+02  0.00000000000E+00 0. -1.
        -14    1    3    3    0    0 -0.35917895600E+02 -0.17698268456E+02 -0.24800980063E+01  0.40118260391E+02  0.00000000000E+00 0.  1.
        -13    1    4    4    0    0  0.82015462019E+01  0.69458598387E+02  0.10431810303E+03  0.12559470080E+03  0.00000000000E+00 0.  1.
         13    1    4    4    0    0 -0.22021124577E+02 -0.25870325969E+02  0.47482186699E+02  0.58384601969E+02  0.00000000000E+00 0. -1.
         -1    1    1    2    0  502  0.13836567456E+02 -0.49604934852E+02  0.76896482691E+02  0.92548199393E+02  0.00000000000E+00 0.  1.
<scales pt_clust_5="13000.00000" pt_clust_6="13000.00000" pt_clust_7="13000.00000" pt_clust_8="13000.00000" pt_clust_9="51.49855"></scales>
<clustering>
<clus scale="   51.499">  1  9  2 -1</clus>
<clus scale="   83.956">  5  6 -1 -1</clus>
<clus scale="   84.147">  2  5  1 -1</clus>
<clus scale="   93.350">  7  8 -1 -1</clus>
<clus scale="   51.499">  1  5  2 -1</clus>
</clustering>
</event>
<event>
 9    1  0.7835476E-005  0.9540469E+02  0.7546771E-02  0.1299297E+00
         21   -1    0    0  501  502  0.00000000000E+00  0.00000000000E+00  0.20203193250E+03  0.20203193250E+03  0.00000000000E+00 0.  1.
          1   -1    0    0  502    0 -0.00000000000E+00 -0.00000000000E+00 -0.10220834761E+03  0.10220834761E+03  0.00000000000E+00 0. -1.
         23    2    1    2    0    0  0.21096366291E+02 -0.15734105551E+02 -0.41303798880E+02  0.10635309142E+03  0.94405283241E+02 0.  0.
        -24    2    1    2    0    0  0.23137916191E+02  0.10739001210E+01  0.53288847138E+02  0.98452778726E+02  0.79477871023E+02 0.  0.
         13    1    4    4    0    0  0.82729115991E+01 -0.25393521190E+02 -0.97937861488E+01  0.28446269208E+02  0.00000000000E+00 0. -1.
        -14    1    4    4    0    0  0.14865004591E+02  0.26467421311E+02  0.63082633287E+02  0.70006509517E+02  0.00000000000E+00 0.  1.
        -11    1    3    3    0    0 -0.11204688690E+02  0.30034871329E+02 -0.38728596043E+02  0.50274672509E+02  0.00000000000E+00 0.  1.
         11    1    3    3    0    0  0.32301054981E+02 -0.45768976880E+02 -0.25752028364E+01  0.56078418907E+02  0.00000000000E+00 0. -1.
          2    1    1    2  501    0 -0.44234282482E+02  0.14660205430E+02  0.87838536627E+02  0.99434409973E+02  0.00000000000E+00 0. -1.
<scales pt_clust_5="13000.00000" pt_clust_6="13000.00000" pt_clust_7="13000.00000" pt_clust_8="13000.00000" pt_clust_9="46.60036"></scales>
<clustering>
<clus scale="   46.600">  1  9  2 -1</clus>
<clus scale="   79.478">  5  6 -1 -1</clus>
<clus scale="   80.662">  1  5  2 -1</clus>
<clus scale="   94.405">  7  8 -1 -1</clus>
<clus scale="   46.600">  1  5  2 -1</clus>
</clustering>
</event>
<event>
 9    1  0.7835476E-005  0.1025983E+03  0.7546771E-02  0.1279396E+00
         21   -1    0    0  501  502  0.00000000000E+00  0.00000000000E+00  0.18518189070E+03  0.18518189070E+03  0.00000000000E+00 0.  1.
         -2   -1    0    0    0  501 -0.00000000000E+00 -0.00000000000E+00 -0.12739966774E+03  0.12739966774E+03  0.00000000000E+00 0.  1.
         23    2    1    2    0    0 -0.49320302230E+02 -0.12739500026E+02 -0.65245675428E+02  0.12260204665E+03  0.90440458912E+02 0.  0.
        -24    2    1    2    0    0  0.32541270511E+02  0.35129424273E+02  0.39475177323E+02  0.10186650588E+03  0.80780472020E+02 0.  0.
         13    1    4    4    0    0  0.41421597352E+02 -0.88082613673E+01  0.32223672517E+00  0.42349002728E+02  0.00000000000E+00 0. -1.
        -14    1    4    4    0    0 -0.88803268417E+01  0.43937685641E+02  0.39152940598E+02  0.59517503155E+02  0.00000000000E+00 0.  1.
        -11    1    3    3    0    0 -0.11529300618E+02 -0.44698434704E+02 -0.55449172261E+02  0.72149050875E+02  0.00000000000E+00 0.  1.
         11    1    3    3    0    0 -0.37791001612E+02  0.31958934678E+02 -0.97965031667E+01  0.50452995777E+02  0.00000000000E+00 0. -1.
         -1    1    1    2    0  502  0.16779031719E+02 -0.22389924247E+02  0.83552721066E+02  0.88113005912E+02  0.00000000000E+00 0.  1.
<scales pt_clust_5="13000.00000" pt_clust_6="13000.00000" pt_clust_7="13000.00000" pt_clust_8="13000.00000" pt_clust_9="27.97936"></scales>
<clustering>
<clus scale="   27.979">  1  9  2 -1</clus>
<clus scale="   80.780">  5  6 -1 -1</clus>
<clus scale="   90.440">  7  8 -1 -1</clus>
<clus scale="   94.193">  1  5  2 -1</clus>
<clus scale="   27.979">  1  5  2 -1</clus>
</clustering>
</event>
<event>
 9    1  0.7835476E-005  0.1096354E+03  0.7546771E-02  0.1263668E+00
         21   -1    0    0  501  502  0.00000000000E+00  0.00000000000E+00  0.40706436584E+03  0.40706436584E+03  0.00000000000E+00 0. -1.
         -2   -1    0    0    0  501 -0.00000000000E+00 -0.00000000000E+00 -0.96542716163E+02  0.96542716163E+02  0.00000000000E+00 0.  1.
         23    2    1    2    0    0  0.24792936846E+02 -0.64136665303E+02  0.13142608319E+03  0.17160884931E+03  0.86305157802E+02 0.  0.
        -24    2    1    2    0    0  0.74174751982E+02  0.67643759383E+02  0.19329883453E+03  0.23195506220E+03  0.79756751637E+02 0.  0.
         13    1    4    4    0    0  0.84823051107E+02  0.75365405501E+02  0.15997963151E+03  0.19613356889E+03  0.00000000000E+00 0. -1.
        -14    1    4    4    0    0 -0.10648299125E+02 -0.77216461177E+01  0.33319203021E+02  0.35821493311E+02  0.00000000000E+00 0.  1.
        -11    1    3    3    0    0  0.30005819038E+02 -0.83707582921E+02  0.11593553987E+03  0.14611077311E+03  0.00000000000E+00 0.  1.
         11    1    3    3    0    0 -0.52128821920E+01  0.19570917618E+02  0.15490543324E+02  0.25498076195E+02  0.00000000000E+00 0. -1.
         -1    1    1    2    0  502 -0.98967688828E+02 -0.35070940797E+01 -0.14203268046E+02  0.10004317050E+03  0.00000000000E+00 0.  1.
<scales pt_clust_5="13000.00000" pt_clust_6="13000.00000" pt_clust_7="13000.00000" pt_clust_8="13000.00000" pt_clust_9="99.02986"></scales>
<clustering>
<clus scale="   79.757">  5  6 -1 -1</clus>
<clus scale="   86.305">  7  8 -1 -1</clus>
<clus scale="   99.030">  1  9  2 -1</clus>
<clus scale="  104.559">  1  5  2 -1</clus>
<clus scale="   99.030">  1  5  2 -1</clus>
</clustering>
</event>
<event>
 9    1  0.7835476E-005  0.1014503E+03  0.7546771E-02  0.1284241E+00
         21   -1    0    0  501  502  0.00000000000E+00  0.00000000000E+00  0.62990561909E+02  0.62990561909E+02  0.00000000000E+00 0.  1.
         -4   -1    0    0    0  501 -0.00000000000E+00 -0.00000000000E+00 -0.26084291228E+03  0.26084291228E+03  0.00000000000E+00 0.  1.
        -24    2    1    2    0    0  0.32994693292E+02  0.10191907883E+02 -0.15925653446E+03  0.18159278005E+03  0.80129702522E+02 0.  0.
         23    2    1    2    0    0 -0.42295679833E+02 -0.31738313079E+02 -0.46660317957E+02  0.11742553504E+03  0.93889967294E+02 0.  0.
         11    1    3    3    0    0  0.17770916062E+02  0.38282135345E+02 -0.40067423052E+02  0.58195581742E+02  0.00000000000E+00 0. -1.
        -12    1    3    3    0    0  0.15223777229E+02 -0.28090227462E+02 -0.11918911141E+03  0.12339719831E+03  0.00000000000E+00 0.  1.
        -11    1    4    4    0    0  0.93287376384E+01 -0.51387697043E+02 -0.26997499360E+02  0.58792735309E+02  0.00000000000E+00 0.  1.
         11    1    4    4    0    0 -0.51624417471E+02  0.19649383964E+02 -0.19662818597E+02  0.58632799734E+02  0.00000000000E+00 0. -1.
         -3    1    1    2    0  502  0.93009865413E+01  0.21546405196E+02  0.80645020495E+01  0.24815159093E+02  0.00000000000E+00 0.  1.
<scales pt_clust_5="13000.00000" pt_clust_6="13000.00000" pt_clust_7="13000.00000" pt_clust_8="13000.00000" pt_clust_9="23.46819"></scales>
<clustering>
<clus scale="   23.468">  1  9  2 -1</clus>
<clus scale="   80.130">  5  6 -1 -1</clus>
<clus scale="   88.869">  2  5  1 -1</clus>
<clus scale="   93.890">  7  8 -1 -1</clus>
<clus scale="   23.468">  1  5  2 -1</clus>
</clustering>
</event>
<event>
 9    1  0.7835476E-005  0.1140492E+03  0.7546771E-02  0.1257589E+00
          1   -1    0    0  502    0 -0.00000000000E+00  0.00000000000E+00  0.49111672889E+03  0.49111672889E+03  0.00000000000E+00 0. -1.
         21   -1    0    0  501  502  0.00000000000E+00 -0.00000000000E+00 -0.57594722427E+02  0.57594722427E+02  0.00000000000E+00 0.  1.
        -24    2    1    2    0    0  0.73183944391E+02 -0.27815570039E+02  0.24913659135E+03  0.27330333169E+03  0.80598227730E+02 0.  0.
         23    2    1    2    0    0 -0.40478662223E+02 -0.31010850280E+02  0.34471775595E+02  0.11107832158E+03  0.92465643797E+02 0.  0.
         11    1    3    3    0    0  0.26440036129E+02  0.23081654104E+02  0.40874731542E+02  0.53875615499E+02  0.00000000000E+00 0. -1.
        -12    1    3    3    0    0  0.46743908261E+02 -0.50897224143E+02  0.20826185980E+03  0.21942771619E+03  0.00000000000E+00 0.  1.
        -13    1    4    4    0    0 -0.79103540013E+01  0.29940909005E+02  0.27859370083E+02  0.41655446629E+02  0.00000000000E+00 0. -1.
         13    1    4    4    0    0 -0.32568308222E+02 -0.60951759285E+02  0.66124055121E+01  0.69422874955E+02  0.00000000000E+00 0.  1.
          2    1    1    2  501    0 -0.32705282167E+02  0.58826420320E+02  0.14991363952E+03  0.16432979804E+03  0.00000000000E+00 0. -1.
<scales pt_clust_5="13000.00000" pt_clust_6="13000.00000" pt_clust_7="13000.00000" pt_clust_8="13000.00000" pt_clust_9="67.30667"></scales>
<clustering>
<clus scale="   67.307">  2  9  1 -1</clus>
<clus scale="   80.598">  5  6 -1 -1</clus>
<clus scale="   92.466">  7  8 -1 -1</clus>
<clus scale="  104.659">  1  5  2 -1</clus>
<clus scale="   67.307">  2  5  1 -1</clus>
</clustering>
</event>
<event>
 9    1  0.7835476E-005  0.1732950E+03  0.7546771E-02  0.1175845E+00
          1   -1    0    0  502    0 -0.00000000000E+00  0.00000000000E+00  0.56524699975E+03  0.56524699975E+03  0.00000000000E+00 0. -1.
         21   -1    0    0  501  502  0.00000000000E+00 -0.00000000000E+00 -0.21524761430E+03  0.21524761430E+03  0.00000000000E+00 0. -1.
        -24    2    1    2    0    0  0.97112104771E+02  0.12006366109E+03  0.40900296758E+03  0.44445864772E+03  0.80087567313E+02 0.  0.
         23    2    1    2    0    0 -0.87204773498E+02 -0.96527088671E+02  0.91656735490E+02  0.18322674947E+03  0.90823637844E+02 0.  0.
         13    1    3    3    0    0  0.35362273789E+02  0.56395648132E+02  0.28069037923E+03  0.28847538634E+03  0.00000000000E+00 0. -1.
        -14    1    3    3    0    0  0.61749830982E+02  0.63668012955E+02  0.12831258835E+03  0.15598326138E+03  0.00000000000E+00 0.  1.
        -13    1    4    4    0    0 -0.76106446932E+01 -0.25030883741E+02  0.69096607066E+02  0.73883747614E+02  0.00000000000E+00 0. -1.
         13    1    4    4    0    0 -0.79594128805E+02 -0.71496204930E+02  0.22560128424E+02  0.10934300185E+03  0.00000000000E+00 0.  1.
          2    1    1    2  501    0 -0.99073312723E+01 -0.23536572416E+02 -0.15066031762E+03  0.15280921687E+03  0.00000000000E+00 0. -1.
<scales pt_clust_5="13000.00000" pt_clust_6="13000.00000" pt_clust_7="13000.00000" pt_clust_8="13000.00000" pt_clust_9="25.53675"></scales>
<clustering>
<clus scale="   25.537">  2  9  1 -1</clus>
<clus scale="   80.088">  5  6 -1 -1</clus>
<clus scale="   90.824">  7  8 -1 -1</clus>
<clus scale="  167.917">  1  5  2 -1</clus>
<clus scale="   25.537">  2  5  1 -1</clus>
</clustering>
</event>
<event>
 9    1  0.7835476E-005  0.1474684E+03  0.7546771E-02  0.1205744E+00
         -2   -1    0    0    0  501 -0.00000000000E+00  0.00000000000E+00  0.19879619224E+03  0.19879619224E+03  0.00000000000E+00 0.  1.
         21   -1    0    0  501  502  0.00000000000E+00 -0.00000000000E+00 -0.16744856159E+03  0.16744856159E+03  0.00000000000E+00 0.  1.
         23    2    1    2    0    0 -0.82336545745E+02  0.68712641164E+02  0.41217813373E+02  0.14676284983E+03  0.91321914839E+02 0.  0.
        -24    2    1    2    0    0  0.86137263068E+02 -0.90360298299E+02  0.49293389398E+02  0.15636776312E+03  0.80227348882E+02 0.  0.
         13    1    4    4    0    0 -0.90802496534E+01 -0.32145875596E+02 -0.21621876850E+01  0.33473621065E+02  0.00000000000E+00 0. -1.
        -14    1    4    4    0    0  0.95217512722E+02 -0.58214422703E+02  0.51455577083E+02  0.12289414206E+03  0.00000000000E+00 0.  1.
        -11    1    3    3    0    0 -0.21674737588E+02  0.67693683261E+02 -0.38528343288E+01  0.71183378223E+02  0.00000000000E+00 0. -1.
         11    1    3    3    0    0 -0.60661808157E+02  0.10189579037E+01  0.45070647702E+02  0.75579471606E+02  0.00000000000E+00 0.  1.
         -1    1    1    2    0  502 -0.38007173235E+01  0.21647657135E+02 -0.59163572121E+02  0.63114140870E+02  0.00000000000E+00 0.  1.
<scales pt_clust_5="13000.00000" pt_clust_6="13000.00000" pt_clust_7="13000.00000" pt_clust_8="13000.00000" pt_clust_9="21.97877"></scales>
<clustering>
<clus scale="   21.979">  2  9  1 -1</clus>
<clus scale="   80.227">  5  6 -1 -1</clus>
<clus scale="   91.322">  7  8 -1 -1</clus>
<clus scale="  140.867">  2  5  1 -1</clus>
<clus scale="   21.979">  2  5  1 -1</clus>
</clustering>
</event>
<event>
 9    1  0.7835476E-005  0.1401412E+03  0.7546771E-02  0.1232328E+00
         21   -1    0    0  501  502  0.00000000000E+00  0.00000000000E+00  0.88014410042E+02  0.88014410042E+02  0.00000000000E+00 0. -1.
          1   -1    0    0  502    0 -0.00000000000E+00 -0.00000000000E+00 -0.59886524114E+03  0.59886524114E+03  0.00000000000E+00 0. -1.
         23    2    1    2    0    0 -0.94691744925E+01  0.12169982743E+02  0.18411654532E+02  0.95626381798E+02  0.92561558585E+02 0.  0.
        -24    2    1    2    0    0  0.11903104551E+03  0.15930480080E+02 -0.35888703464E+03  0.38675086380E+03  0.79712966461E+02 0.  0.
         11    1    4    4    0    0  0.10549414934E+03  0.17578184631E+02 -0.35737001189E+03  0.37302993649E+03  0.00000000000E+00 0. -1.
        -12    1    4    4    0    0  0.13536896166E+02 -0.16477045505E+01 -0.15170227533E+01  0.13720927305E+02  0.00000000000E+00 0.  1.
        -11    1    3    3    0    0 -0.35285055065E+02 -0.15658248178E+02 -0.18386929199E+02  0.42758566537E+02  0.00000000000E+00 0.  1.
         11    1    3    3    0    0  0.25815880572E+02  0.27828230921E+02  0.36798583731E+02  0.52867815261E+02  0.00000000000E+00 0. -1.
          2    1    1    2  501    0 -0.10956187102E+03 -0.28100462823E+02 -0.17037545099E+03  0.20450240559E+03  0.00000000000E+00 0. -1.
<scales pt_clust_5="13000.00000" pt_clust_6="13000.00000" pt_clust_7="13000.00000" pt_clust_8="13000.00000" pt_clust_9="115.26235"></scales>
<clustering>
<clus scale="   79.713">  5  6 -1 -1</clus>
<clus scale="   92.562">  7  8 -1 -1</clus>
<clus scale="   93.837">  2  7  1 -1</clus>
<clus scale="  115.262">  1  9  2 -1</clus>
<clus scale="  115.262">  1  5  2 -1</clus>
</clustering>
</event>
<event>
 9    1  0.7835476E-005  0.1573176E+03  0.7546771E-02  0.1200616E+00
         21   -1    0    0  501  502  0.00000000000E+00  0.00000000000E+00  0.55185323275E+02  0.55185323275E+02  0.00000000000E+00 0. -1.
          3   -1    0    0  502    0 -0.00000000000E+00 -0.00000000000E+00 -0.93687945039E+03  0.93687945039E+03  0.00000000000E+00 0. -1.
        -24    2    1    2    0    0 -0.34073488030E+02  0.95648313559E+02 -0.37070687653E+03  0.39271636082E+03  0.80578838882E+02 0.  0.
         23    2    1    2    0    0  0.14086483367E+03 -0.14130257234E+02 -0.35883629103E+03  0.39637181443E+03  0.91129391430E+02 0.  0.
         11    1    3    3    0    0 -0.42135189006E+02  0.95174579693E+02 -0.23800562897E+03  0.25976961754E+03  0.00000000000E+00 0. -1.
        -12    1    3    3    0    0  0.80617009760E+01  0.47373386647E+00 -0.13270124756E+03  0.13294674328E+03  0.00000000000E+00 0.  1.
        -13    1    4    4    0    0  0.81279908122E+02  0.25821026217E+02 -0.26416391221E+03  0.27758912330E+03  0.00000000000E+00 0. -1.
         13    1    4    4    0    0  0.59584925543E+02 -0.39951283451E+02 -0.94672378818E+02  0.11878269113E+03  0.00000000000E+00 0.  1.
          4    1    1    2  501    0 -0.10679134564E+03 -0.81518056325E+02 -0.15215095956E+03  0.20297659841E+03  0.00000000000E+00 0. -1.
<scales pt_clust_5="13000.00000" pt_clust_6="13000.00000" pt_clust_7="13000.00000" pt_clust_8="13000.00000" pt_clust_9="128.23513"></scales>
<clustering>
<clus scale="   80.579">  5  6 -1 -1</clus>
<clus scale="   91.129">  7  8 -1 -1</clus>
<clus scale="  129.625">  2  5  1 -1</clus>
<clus scale="  128.235">  1  9  2 -1</clus>
<clus scale="  128.235">  1  5  2 -1</clus>
</clustering>
</event>
<event>
 9    1  0.7835476E-005  0.1187519E+03  0.7546771E-02  0.1248924E+00
          1   -1    0    0  502    0 -0.00000000000E+00  0.00000000000E+00  0.29386889060E+03  0.29386889060E+03  0.00000000000E+00 0. -1.
         21   -1    0    0  501  502  0.00000000000E+00 -0.00000000000E+00 -0.87861567620E+02  0.87861567620E+02  0.00000000000E+00 0. -1.
        -24    2    1    2    0    0 -0.35348937903E+02 -0.75068168558E+02  0.20735364103E+03  0.23735104834E+03  0.80344323751E+02 0.  0.
         23    2    1    2    0    0  0.81638499078E+01  0.52259803439E+02  0.11644035984E+02  0.10659052491E+03  0.91805342581E+02 0.  0.
         13    1    3    3    0    0 -0.12607379313E+02 -0.60452609920E+02  0.55242740093E+02  0.82856649656E+02  0.00000000000E+00 0. -1.
        -14    1    3    3    0    0 -0.22741558590E+02 -0.14615558638E+02  0.15211090094E+03  0.15449439869E+03  0.00000000000E+00 0.  1.
        -13    1    4    4    0    0 -0.33043101112E+02  0.18883749299E+02 -0.21836081708E+02  0.43877750433E+02  0.00000000000E+00 0. -1.
         13    1    4    4    0    0  0.41206951020E+02  0.33376054140E+02  0.33480117693E+02  0.62712774480E+02  0.00000000000E+00 0.  1.
          2    1    1    2  501    0  0.27185087995E+02  0.22808365119E+02 -0.12990354038E+02  0.37788884963E+02  0.00000000000E+00 0. -1.
<scales pt_clust_5="13000.00000" pt_clust_6="13000.00000" pt_clust_7="13000.00000" pt_clust_8="13000.00000" pt_clust_9="35.48592"></scales>
<clustering>
<clus scale="   35.486">  2  9  1 -1</clus>
<clus scale="   80.344">  5  6 -1 -1</clus>
<clus scale="   91.805">  7  8 -1 -1</clus>
<clus scale="  110.132">  1  5  2 -1</clus>
<clus scale="   35.486">  2  5  1 -1</clus>
</clustering>
</event>
<event>
 9    1  0.7835476E-005  0.1169441E+03  0.7546771E-02  0.1250823E+00
          1   -1    0    0  502    0 -0.00000000000E+00  0.00000000000E+00  0.44101370882E+03  0.44101370882E+03  0.00000000000E+00 0. -1.
         21   -1    0    0  501  502  0.00000000000E+00 -0.00000000000E+00 -0.13327557166E+03  0.13327557166E+03  0.00000000000E+00 0.  1.
        -24    2    1    2    0    0 -0.68637681409E+02 -0.38069167959E+02  0.36821981804E+03  0.38495072747E+03  0.80254814949E+02 0.  0.
         23    2    1    2    0    0  0.49104077395E+02  0.47437312768E+02  0.13360380253E+02  0.11238419111E+03  0.88262096004E+02 0.  0.
         13    1    3    3    0    0 -0.12448425677E+02 -0.47977225125E+02  0.23251423894E+03  0.23773861432E+03  0.00000000000E+00 0. -1.
        -14    1    3    3    0    0 -0.56189255732E+02  0.99080571658E+01  0.13570557910E+03  0.14721211315E+03  0.00000000000E+00 0.  1.
        -13    1    4    4    0    0  0.23894925239E+00  0.33489758380E+02  0.42262427202E+02  0.53923406477E+02  0.00000000000E+00 0. -1.
         13    1    4    4    0    0  0.48865128143E+02  0.13947554388E+02 -0.28902046949E+02  0.58460784631E+02  0.00000000000E+00 0.  1.
          2    1    1    2  501    0  0.19533604014E+02 -0.93681448092E+01 -0.73842061140E+02  0.76954361906E+02  0.00000000000E+00 0. -1.
<scales pt_clust_5="13000.00000" pt_clust_6="13000.00000" pt_clust_7="13000.00000" pt_clust_8="13000.00000" pt_clust_9="21.66388"></scales>
<clustering>
<clus scale="   21.664">  2  9  1 -1</clus>
<clus scale="   80.255">  5  6 -1 -1</clus>
<clus scale="   88.262">  7  8 -1 -1</clus>
<clus scale="  111.025">  1  5  2 -1</clus>
<clus scale="   21.664">  2  5  1 -1</clus>
</clustering>
</event>
<event>
 9    1  0.1149108E-004  0.9975691E+02  0.7546771E-02  0.1284858E+00
          1   -1    0    0  502    0 -0.00000000000E+00  0.00000000000E+00  0.32254799174E+03  0.32254799174E+03  0.00000000000E+00 0. -1.
         21   -1    0    0  501  502  0.00000000000E+00 -0.00000000000E+00 -0.13479037559E+03  0.13479037559E+03  0.00000000000E+00 0.  1.
         23    2    1    2    0    0 -0.44271954830E+02 -0.24107536107E+01  0.28991737629E+03  0.30671035710E+03  0.89740405421E+02 0.  0.
        -24    2    1    2    0    0  0.34531122493E+02 -0.15767231445E+02 -0.86387364113E+02  0.12466473940E+03  0.81470955340E+02 0.  0.
         13    1    4    4    0    0 -0.13383814133E+02 -0.33479857016E+02 -0.21131668152E+02  0.41792041174E+02  0.00000000000E+00 0. -1.
        -14    1    4    4    0    0  0.47914936626E+02  0.17712625571E+02 -0.65255695961E+02  0.82872698230E+02  0.00000000000E+00 0.  1.
        -11    1    3    3    0    0  0.22262848191E+02 -0.12100115914E+02  0.14180542295E+03  0.14405146717E+03  0.00000000000E+00 0.  1.
         11    1    3    3    0    0 -0.66534803021E+02  0.96893623036E+01  0.14811195334E+03  0.16265888994E+03  0.00000000000E+00 0. -1.
          2    1    1    2  501    0  0.97408323369E+01  0.18177985056E+02 -0.15772396025E+02  0.25963270820E+02  0.00000000000E+00 0. -1.
<scales pt_clust_5="13000.00000" pt_clust_6="13000.00000" pt_clust_7="13000.00000" pt_clust_8="13000.00000" pt_clust_9="20.62336"></scales>
<clustering>
<clus scale="   20.623">  2  9  1 -1</clus>
<clus scale="   81.471">  5  6 -1 -1</clus>
<clus scale="   89.740">  7  8 -1 -1</clus>
<clus scale="   92.388">  2  5  1 -1</clus>
<clus scale="   20.623">  2  5  1 -1</clus>
</clustering>
</event>
<event>
 9    1  0.7835476E-005  0.9281758E+02  0.7546771E-02  0.1302971E+00
         21   -1    0    0  501  502  0.00000000000E+00  0.00000000000E+00  0.65890328038E+03  0.65890328038E+03  0.00000000000E+00 0. -1.
          1   -1    0    0  502    0 -0.00000000000E+00 -0.00000000000E+00 -0.59969454493E+02  0.59969454493E+02  0.00000000000E+00 0. -1.
         23    2    1    2    0    0 -0.16679400215E+02 -0.27429003045E+01 -0.14373686701E+02  0.94407782653E+02  0.91763286027E+02 0.  0.
        -24    2    1    2    0    0 -0.15340424343E+02 -0.99020712046E+01  0.40947550258E+03  0.41774617520E+03  0.80674035769E+02 0.  0.
         11    1    4    4    0    0 -0.36236956799E+02 -0.32268720178E+02  0.18778764475E+03  0.19395511559E+03  0.00000000000E+00 0. -1.
        -12    1    4    4    0    0  0.20896532456E+02  0.22366648973E+02  0.22168785783E+03  0.22379105962E+03  0.00000000000E+00 0.  1.
        -11    1    3    3    0    0 -0.79212988767E+01  0.20972325338E+02 -0.47624822907E+02  0.52637526186E+02  0.00000000000E+00 0. -1.
         11    1    3    3    0    0 -0.87581013383E+01 -0.23715225643E+02  0.33251136207E+02  0.41770256468E+02  0.00000000000E+00 0.  1.
          2    1    1    2  501    0  0.32019824558E+02  0.12644971509E+02  0.20383201001E+03  0.20671877702E+03  0.00000000000E+00 0. -1.
<scales pt_clust_5="13000.00000" pt_clust_6="13000.00000" pt_clust_7="13000.00000" pt_clust_8="13000.00000" pt_clust_9="34.42622"></scales>
<clustering>
<clus scale="   34.426">  1  9  2 -1</clus>
<clus scale="   80.674">  5  6 -1 -1</clus>
<clus scale="   81.871">  1  5  2 -1</clus>
<clus scale="   91.763">  7  8 -1 -1</clus>
<clus scale="   34.426">  1  5  2 -1</clus>
</clustering>
</event>
<event>
 9    1  0.7835476E-005  0.1077298E+03  0.7546771E-02  0.1270968E+00
          1   -1    0    0  502    0 -0.00000000000E+00  0.00000000000E+00  0.45325262345E+03  0.45325262345E+03  0.00000000000E+00 0. -1.
         21   -1    0    0  501  502  0.00000000000E+00 -0.00000000000E+00 -0.35513845066E+02  0.35513845066E+02  0.00000000000E+00 0.  1.
         23    2    1    2    0    0  0.40144624607E+02 -0.45376404514E+02  0.29795860637E+03  0.31816461429E+03  0.93695153050E+02 0.  0.
        -24    2    1    2    0    0 -0.31440838934E+02  0.20716403044E+02  0.63327478490E+02  0.10838627608E+03  0.79495406178E+02 0.  0.
         13    1    4    4    0    0  0.24584287078E+02 -0.54940899558E+01  0.11506941902E+02  0.27694438205E+02  0.00000000000E+00 0. -1.
        -14    1    4    4    0    0 -0.56025126012E+02  0.26210493000E+02  0.51820536588E+02  0.80691837878E+02  0.00000000000E+00 0.  1.
        -13    1    3    3    0    0 -0.26949899951E+02 -0.32726890811E+02  0.95031441380E+02  0.10405922035E+03  0.00000000000E+00 0.  1.
         13    1    3    3    0    0  0.67094524558E+02 -0.12649513703E+02  0.20292716499E+03  0.21410539394E+03  0.00000000000E+00 0. -1.
          2    1    1    2  501    0 -0.87037856728E+01  0.24660001469E+02  0.56452693519E+02  0.62215578138E+02  0.00000000000E+00 0. -1.
<scales pt_clust_5="13000.00000" pt_clust_6="13000.00000" pt_clust_7="13000.00000" pt_clust_8="13000.00000" pt_clust_9="26.15095"></scales>
<clustering>
<clus scale="   26.151">  2  9  1 -1</clus>
<clus scale="   79.495">  5  6 -1 -1</clus>
<clus scale="   93.695">  7  8 -1 -1</clus>
<clus scale="   95.637">  2  5  1 -1</clus>
<clus scale="   26.151">  2  5  1 -1</clus>
</clustering>
</event>
<event>
 9    1  0.7835476E-005  0.1295838E+03  0.7546771E-02  0.1230390E+00
         21   -1    0    0  501  502  0.00000000000E+00  0.00000000000E+00  0.84753718731E+02  0.84753718731E+02  0.00000000000E+00 0. -1.
          3   -1    0    0  502    0 -0.00000000000E+00 -0.00000000000E+00 -0.48607755283E+03  0.48607755283E+03  0.00000000000E+00 0. -1.
        -24    2    1    2    0    0  0.23472453807E+02  0.84452963109E+02 -0.16675104560E+03  0.20507742960E+03  0.81040618567E+02 0.  0.
         23    2    1    2    0    0  0.10481852597E+01 -0.11501331300E+03 -0.19737627238E+02  0.14737494362E+03  0.90003551145E+02 0.  0.
         11    1    3    3    0    0  0.18666305117E+01  0.22112494574E+02 -0.12509802925E+03  0.12705102773E+03  0.00000000000E+00 0. -1.
        -12    1    3    3    0    0  0.21605823296E+02  0.62340468535E+02 -0.41653016349E+02  0.78026401868E+02  0.00000000000E+00 0.  1.
        -11    1    4    4    0    0  0.30760366204E+02 -0.14287089073E+02  0.14545168573E+02  0.36903698622E+02  0.00000000000E+00 0.  1.
         11    1    4    4    0    0 -0.29712180944E+02 -0.10072622393E+03 -0.34282795811E+02  0.11047124500E+03  0.00000000000E+00 0. -1.
          4    1    1    2  501    0 -0.24520639067E+02  0.30560349889E+02 -0.21483516127E+03  0.21837889834E+03  0.00000000000E+00 0. -1.
<scales pt_clust_5="13000.00000" pt_clust_6="13000.00000" pt_clust_7="13000.00000" pt_clust_8="13000.00000" pt_clust_9="39.18161"></scales>
<clustering>
<clus scale="   39.182">  1  9  2 -1</clus>
<clus scale="   81.041">  5  6 -1 -1</clus>
<clus scale="   90.004">  7  8 -1 -1</clus>
<clus scale="  123.527">  2  5  1 -1</clus>
<clus scale="   39.182">  1  5  2 -1</clus>
</clustering>
</event>
<event>
 9    1  0.7835476E-005  0.1290996E+03  0.7546771E-02  0.1233966E+00
         21   -1    0    0  501  502  0.00000000000E+00  0.00000000000E+00  0.68371168893E+03  0.68371168893E+03  0.00000000000E+00 0.  1.
         -2   -1    0    0    0  501 -0.00000000000E+00 -0.00000000000E+00 -0.47951965858E+02  0.47951965858E+02  0.00000000000E+00 0.  1.
         23    2    1    2    0    0 -0.24284225453E+02 -0.65302664079E+02  0.18381739406E+03  0.21739124675E+03  0.92822186264E+02 0.  0.
        -24    2    1    2    0    0 -0.89419532181E+02  0.13507037920E+02  0.23517639667E+03  0.26407488444E+03  0.79052604217E+02 0.  0.
         11    1    4    4    0    0 -0.36708233066E+02 -0.19530965912E+02  0.16561060963E+03  0.17075077460E+03  0.00000000000E+00 0. -1.
        -12    1    4    4    0    0 -0.52711299116E+02  0.33038003832E+02  0.69565787047E+02  0.93324109849E+02  0.00000000000E+00 0.  1.
        -13    1    3    3    0    0  0.27683409184E+02  0.54158765711E+01  0.41052718179E+02  0.49809924041E+02  0.00000000000E+00 0. -1.
         13    1    3    3    0    0 -0.51967634637E+02 -0.70718540650E+02  0.14276467588E+03  0.16758132271E+03  0.00000000000E+00 0.  1.
         -1    1    1    2    0  502  0.11370375763E+03  0.51795626159E+02  0.21676593234E+03  0.25019752359E+03  0.00000000000E+00 0.  1.
<scales pt_clust_5="13000.00000" pt_clust_6="13000.00000" pt_clust_7="13000.00000" pt_clust_8="13000.00000" pt_clust_9="102.06571"></scales>
<clustering>
<clus scale="   79.053">  5  6 -1 -1</clus>
<clus scale="   92.822">  7  8 -1 -1</clus>
<clus scale="  116.061">  2  7  1 -1</clus>
<clus scale="  102.066">  1  9  2 -1</clus>
<clus scale="  102.066">  1  5  2 -1</clus>
</clustering>
</event>
<event>
 9    1  0.7835476E-005  0.1397758E+03  0.7546771E-02  0.1226032E+00
          1   -1    0    0  502    0 -0.00000000000E+00  0.00000000000E+00  0.97995290757E+02  0.97995290757E+02  0.00000000000E+00 0. -1.
         21   -1    0    0  501  502  0.00000000000E+00 -0.00000000000E+00 -0.57743518949E+03  0.57743518949E+03  0.00000000000E+00 0. -1.
        -24    2    1    2    0    0 -0.66488362937E+02 -0.26631643259E+02  0.22701117220E+02  0.11008936211E+03  0.80463532724E+02 0.  0.
         23    2    1    2    0    0 -0.77802153582E+01 -0.65629403347E+02 -0.13139480894E+03  0.17613593773E+03  0.96909867443E+02 0.  0.
         13    1    3    3    0    0 -0.76026366274E+02 -0.36510170018E+02  0.35324056056E+02  0.91437354620E+02  0.00000000000E+00 0. -1.
        -14    1    3    3    0    0  0.95380033377E+01  0.98785267590E+01 -0.12622938837E+02  0.18652007492E+02  0.00000000000E+00 0.  1.
        -13    1    4    4    0    0  0.29067571799E+02 -0.18753551566E+02 -0.31833761711E+01  0.34738355034E+02  0.00000000000E+00 0.  1.
         13    1    4    4    0    0 -0.36847787157E+02 -0.46875851781E+02 -0.12821143277E+03  0.14139758269E+03  0.00000000000E+00 0. -1.
          2    1    1    2  501    0  0.74268578295E+02  0.92261046606E+02 -0.37074620701E+03  0.38920518041E+03  0.00000000000E+00 0. -1.
<scales pt_clust_5="13000.00000" pt_clust_6="13000.00000" pt_clust_7="13000.00000" pt_clust_8="13000.00000" pt_clust_9="100.72616"></scales>
<clustering>
<clus scale="   80.464">  5  6 -1 -1</clus>
<clus scale="   96.910">  7  8 -1 -1</clus>
<clus scale="  107.723">  1  5  2 -1</clus>
<clus scale="  100.726">  2  9  1 -1</clus>
<clus scale="  100.726">  2  5  1 -1</clus>
</clustering>
</event>
<event>
 9    1  0.7835476E-005  0.1111553E+03  0.7546771E-02  0.1266045E+00
         21   -1    0    0  501  502  0.00000000000E+00  0.00000000000E+00  0.30931263944E+02  0.30931263944E+02  0.00000000000E+00 0.  1.
          1   -1    0    0  502    0 -0.00000000000E+00 -0.00000000000E+00 -0.66540954159E+03  0.66540954159E+03  0.00000000000E+00 0. -1.
         23    2    1    2    0    0  0.22141060384E+02 -0.52375534109E+02 -0.50044033830E+03  0.51325858057E+03  0.98794813661E+02 0.  0.
        -24    2    1    2    0    0  0.64597612879E+01  0.36873870791E+02 -0.79549303902E+02  0.11962105606E+03  0.81115315682E+02 0.  0.
         11    1    4    4    0    0 -0.35394577429E+02  0.34757955366E+01 -0.35951901334E+02  0.50570707683E+02  0.00000000000E+00 0. -1.
        -12    1    4    4    0    0  0.41854338717E+02  0.33398075254E+02 -0.43597402568E+02  0.69050348376E+02  0.00000000000E+00 0.  1.
        -11    1    3    3    0    0 -0.18921161264E+02 -0.65725443146E+02 -0.25312577488E+03  0.26220316956E+03  0.00000000000E+00 0. -1.
         11    1    3    3    0    0  0.41062221648E+02  0.13349909037E+02 -0.24731456342E+03  0.25105541101E+03  0.00000000000E+00 0.  1.
          2    1    1    2  501    0 -0.28600821672E+02  0.15501663318E+02 -0.54488635452E+02  0.63461168910E+02  0.00000000000E+00 0. -1.
<scales pt_clust_5="13000.00000" pt_clust_6="13000.00000" pt_clust_7="13000.00000" pt_clust_8="13000.00000" pt_clust_9="32.53165"></scales>
<clustering>
<clus scale="   32.532">  1  9  2 -1</clus>
<clus scale="   81.115">  5  6 -1 -1</clus>
<clus scale="   95.785">  1  5  2 -1</clus>
<clus scale="   98.795">  7  8 -1 -1</clus>
<clus scale="   32.532">  1  5  2 -1</clus>
</clustering>
</event>
<event>
 9    1  0.7835476E-005  0.1429886E+03  0.7546771E-02  0.1212105E+00
          1   -1    0    0  502    0 -0.00000000000E+00  0.00000000000E+00  0.62469184019E+03  0.62469184019E+03  0.00000000000E+00 0. -1.
         21   -1    0    0  501  502  0.00000000000E+00 -0.00000000000E+00 -0.56086649547E+02  0.56086649547E+02  0.00000000000E+00 0. -1.
         23    2    1    2    0    0  0.93091035118E+02  0.55842424908E+02  0.37566015859E+03  0.40154698933E+03  0.91296838082E+02 0.  0.
        -24    2    1    2    0    0 -0.11760976095E+03 -0.16741966339E+02  0.18356410285E+03  0.23213568733E+03  0.77966968436E+02 0.  0.
         11    1    4    4    0    0 -0.10199229659E+03  0.16330352802E+02  0.11611519039E+03  0.15540864334E+03  0.00000000000E+00 0. -1.
        -12    1    4    4    0    0 -0.15617464364E+02 -0.33072319141E+02  0.67448912463E+02  0.76727043987E+02  0.00000000000E+00 0.  1.
        -11    1    3    3    0    0  0.61841938516E+02 -0.46666246599E+00  0.93295169162E+02  0.11193137059E+03  0.00000000000E+00 0.  1.
         11    1    3    3    0    0  0.31249096602E+02  0.56309087374E+02  0.28236498943E+03  0.28961561873E+03  0.00000000000E+00 0. -1.
          2    1    1    2  501    0  0.24518725837E+02 -0.39100458569E+02  0.93809291928E+01  0.47095813078E+02  0.00000000000E+00 0. -1.
<scales pt_clust_5="13000.00000" pt_clust_6="13000.00000" pt_clust_7="13000.00000" pt_clust_8="13000.00000" pt_clust_9="46.15207"></scales>
<clustering>
<clus scale="   46.152">  2  9  1 -1</clus>
<clus scale="   77.967">  5  6 -1 -1</clus>
<clus scale="   91.297">  7  8 -1 -1</clus>
<clus scale="  134.868">  2  5  1 -1</clus>
<clus scale="   46.152">  2  5  1 -1</clus>
</clustering>
</event>
<event>
 9    1  0.7835476E-005  0.9874092E+02  0.7546771E-02  0.1291989E+00
          3   -1    0    0  502    0 -0.00000000000E+00  0.00000000000E+00  0.14115977448E+03  0.14115977448E+03  0.00000000000E+00 0. -1.
         21   -1    0    0  501  502  0.00000000000E+00 -0.00000000000E+00 -0.18517436083E+03  0.18517436083E+03  0.00000000000E+00 0.  1.
        -24    2    1    2    0    0  0.18845515392E+02 -0.84767066849E+01  0.10339679410E+03  0.13275091260E+03  0.80652958787E+02 0.  0.
         23    2    1    2    0    0 -0.10760885428E+02  0.30696055279E+02 -0.11893586567E+03  0.15657085133E+03  0.96491693312E+02 0.  0.
         13    1    3    3    0    0 -0.26474257819E+01 -0.21066538018E+02  0.10562943077E+03  0.10774221332E+03  0.00000000000E+00 0. -1.
        -14    1    3    3    0    0  0.21492941174E+02  0.12589831333E+02 -0.22326366697E+01  0.25008699283E+02  0.00000000000E+00 0.  1.
        -13    1    4    4    0    0 -0.46475296809E+02 -0.84196413361E+01 -0.70090093676E+02  0.84519020376E+02  0.00000000000E+00 0. -1.
         13    1    4    4    0    0  0.35714411381E+02  0.39115696615E+02 -0.48845771994E+02  0.72051830953E+02  0.00000000000E+00 0.  1.
          4    1    1    2  501    0 -0.80846299640E+01 -0.22219348594E+02 -0.28475514767E+02  0.37012371376E+02  0.00000000000E+00 0. -1.
<scales pt_clust_5="13000.00000" pt_clust_6="13000.00000" pt_clust_7="13000.00000" pt_clust_8="13000.00000" pt_clust_9="23.64446"></scales>
<clustering>
<clus scale="   23.644">  2  9  1 -1</clus>
<clus scale="   80.653">  5  6 -1 -1</clus>
<clus scale="   83.331">  1  5  2 -1</clus>
<clus scale="   96.492">  7  8 -1 -1</clus>
<clus scale="   23.644">  2  5  1 -1</clus>
</clustering>
</event>
<event>
 9    1  0.7835476E-005  0.9107860E+02  0.7546771E-02  0.1307785E+00
         21   -1    0    0  501  502  0.00000000000E+00  0.00000000000E+00  0.40326230009E+03  0.40326230009E+03  0.00000000000E+00 0. -1.
          1   -1    0    0  502    0 -0.00000000000E+00 -0.00000000000E+00 -0.70307667405E+02  0.70307667405E+02  0.00000000000E+00 0. -1.
         23    2    1    2    0    0 -0.14234924137E+02 -0.37167067917E+01  0.18286440024E+02  0.93226329692E+02  0.90223653687E+02 0.  0.
        -24    2    1    2    0    0 -0.32447504827E+02  0.46283830737E+02  0.30042552025E+03  0.31558205249E+03  0.78367755352E+02 0.  0.
         11    1    4    4    0    0 -0.17343202975E+02  0.58127023224E+02  0.12323523394E+03  0.13735523435E+03  0.00000000000E+00 0. -1.
        -12    1    4    4    0    0 -0.15104301852E+02 -0.11843192487E+02  0.17719028630E+03  0.17822681814E+03  0.00000000000E+00 0.  1.
        -13    1    3    3    0    0  0.23243125576E+02 -0.16488644377E+00 -0.26149992494E+02  0.34987028761E+02  0.00000000000E+00 0.  1.
         13    1    3    3    0    0 -0.37478049713E+02 -0.35518203479E+01  0.44436432518E+02  0.58239300932E+02  0.00000000000E+00 0. -1.
          2    1    1    2  501    0  0.46682428964E+02 -0.42567123946E+02  0.14242672413E+02  0.64761585314E+02  0.00000000000E+00 0. -1.
<scales pt_clust_5="13000.00000" pt_clust_6="13000.00000" pt_clust_7="13000.00000" pt_clust_8="13000.00000" pt_clust_9="63.17605"></scales>
<clustering>
<clus scale="   63.176">  1  9  2 -1</clus>
<clus scale="   78.368">  5  6 -1 -1</clus>
<clus scale="   79.351">  1  5  2 -1</clus>
<clus scale="   90.224">  7  8 -1 -1</clus>
<clus scale="   63.176">  1  5  2 -1</clus>
</clustering>
</event>
<event>
 9    1  0.7835476E-005  0.1029407E+03  0.7546771E-02  0.1278528E+00
          1   -1    0    0  502    0 -0.00000000000E+00  0.00000000000E+00  0.37725921230E+03  0.37725921230E+03  0.00000000000E+00 0. -1.
         21   -1    0    0  501  502  0.00000000000E+00 -0.00000000000E+00 -0.10726477070E+03  0.10726477070E+03  0.00000000000E+00 0. -1.
         23    2    1    2    0    0 -0.75469398753E+01 -0.26971518578E+02  0.21493182694E+03  0.23671947233E+03  0.95163013984E+02 0.  0.
        -24    2    1    2    0    0 -0.31083534780E+02  0.11355745989E+03  0.10539036510E+02  0.14305820851E+03  0.80579754900E+02 0.  0.
         13    1    4    4    0    0 -0.55313178118E+02  0.66528819009E+02  0.21228224764E+02  0.89085739369E+02  0.00000000000E+00 0. -1.
        -14    1    4    4    0    0  0.24229643338E+02  0.47028640882E+02 -0.10689188254E+02  0.53972469140E+02  0.00000000000E+00 0.  1.
        -11    1    3    3    0    0  0.12141564385E+01  0.33640241294E+02  0.11197406704E+03  0.11692447006E+03  0.00000000000E+00 0. -1.
         11    1    3    3    0    0 -0.87610963139E+01 -0.60611759872E+02  0.10295775990E+03  0.11979500226E+03  0.00000000000E+00 0.  1.
          2    1    1    2  501    0  0.38630474656E+02 -0.86585941313E+02  0.44523578149E+02  0.10474630216E+03  0.00000000000E+00 0. -1.
<scales pt_clust_5="13000.00000" pt_clust_6="13000.00000" pt_clust_7="13000.00000" pt_clust_8="13000.00000" pt_clust_9="94.81265"></scales>
<clustering>
<clus scale="   80.580">  5  6 -1 -1</clus>
<clus scale="   94.813">  2  9  1 -1</clus>
<clus scale="   94.813">  2  5  1 -1</clus>
<clus scale="   95.163">  7  8 -1 -1</clus>
<clus scale="   94.813">  2  5  1 -1</clus>
</clustering>
</event>
<event>
 9    1  0.7835476E-005  0.1137756E+03  0.7546771E-02  0.1257841E+00
         21   -1    0    0  501  502  0.00000000000E+00  0.00000000000E+00  0.48420342792E+02  0.48420342792E+02  0.00000000000E+00 0. -1.
          3   -1    0    0  502    0 -0.00000000000E+00 -0.00000000000E+00 -0.84855466373E+03  0.84855466373E+03  0.00000000000E+00 0. -1.
        -24    2    1    2    0    0 -0.14352090019E+02  0.45381980623E+02 -0.30458132181E+03  0.31918868483E+03  0.82741333554E+02 0.  0.
         23    2    1    2    0    0  0.86982469279E+02 -0.43871789525E+02 -0.48607137103E+03  0.50452409444E+03  0.93747001369E+02 0.  0.
         13    1    3    3    0    0  0.21650906684E+02  0.40943813603E+02 -0.24572063390E+03  0.25004757059E+03  0.00000000000E+00 0. -1.
        -14    1    3    3    0    0 -0.36002996703E+02  0.44381670203E+01 -0.58860687905E+02  0.69141114243E+02  0.00000000000E+00 0.  1.
        -11    1    4    4    0    0  0.76042090916E+01 -0.53314353168E+02 -0.16099753857E+03  0.16976587312E+03  0.00000000000E+00 0. -1.
         11    1    4    4    0    0  0.79378260188E+02  0.94425636425E+01 -0.32507383245E+03  0.33475822132E+03  0.00000000000E+00 0.  1.
          4    1    1    2  501    0 -0.72630379260E+02 -0.15101910979E+01 -0.94816280994E+01  0.73262227239E+02  0.00000000000E+00 0. -1.
<scales pt_clust_5="13000.00000" pt_clust_6="13000.00000" pt_clust_7="13000.00000" pt_clust_8="13000.00000" pt_clust_9="72.64608"></scales>
<clustering>
<clus scale="   72.646">  1  9  2 -1</clus>
<clus scale="   82.741">  5  6 -1 -1</clus>
<clus scale="   93.747">  7  8 -1 -1</clus>
<clus scale="  104.893">  2  5  1 -1</clus>
<clus scale="   72.646">  1  5  2 -1</clus>
</clustering>
</event>
<event>
 9    1  0.7835476E-005  0.1487212E+03  0.7546771E-02  0.1203444E+00
          1   -1    0    0  502    0 -0.00000000000E+00  0.00000000000E+00  0.73469070785E+03  0.73469070785E+03  0.00000000000E+00 0. -1.
         21   -1    0    0  501  502  0.00000000000E+00 -0.00000000000E+00 -0.43159182585E+02  0.43159182585E+02  0.00000000000E+00 0. -1.
        -24    2    1    2    0    0 -0.11877316719E+03  0.22867557932E+02  0.37445522762E+03  0.40163898871E+03  0.80418712413E+02 0.  0.
         23    2    1    2    0    0  0.11964196503E+03 -0.28443149213E+00  0.32058845247E+03  0.35333979242E+03  0.88078217223E+02 0.  0.
         13    1    3    3    0    0 -0.24500946927E+02  0.36199160590E+02  0.17855327061E+03  0.18382585801E+03  0.00000000000E+00 0. -1.
        -14    1    3    3    0    0 -0.94272220265E+02 -0.13331602659E+02  0.19590195702E+03  0.21781313070E+03  0.00000000000E+00 0.  1.
        -13    1    4    4    0    0  0.38851287803E+02  0.27630884583E+02  0.47955327060E+02  0.67621015522E+02  0.00000000000E+00 0.  1.
         13    1    4    4    0    0  0.80790677230E+02 -0.27915316076E+02  0.27263312541E+03  0.28571877690E+03  0.00000000000E+00 0. -1.
          2    1    1    2  501    0 -0.86879784089E+00 -0.22583126439E+02 -0.35121548290E+01  0.22871109309E+02  0.00000000000E+00 0. -1.
<scales pt_clust_5="13000.00000" pt_clust_6="13000.00000" pt_clust_7="13000.00000" pt_clust_8="13000.00000" pt_clust_9="22.59983"></scales>
<clustering>
<clus scale="   22.600">  2  9  1 -1</clus>
<clus scale="   80.419">  5  6 -1 -1</clus>
<clus scale="   88.078">  7  8 -1 -1</clus>
<clus scale="  144.317">  1  5  2 -1</clus>
<clus scale="   22.600">  2  5  1 -1</clus>
</clustering>
</event>
<event>
 9    1  0.7835476E-005  0.1016142E+03  0.7546771E-02  0.1281308E+00
         21   -1    0    0  501  502  0.00000000000E+00  0.00000000000E+00  0.33609209832E+02  0.33609209832E+02  0.00000000000E+00 0.  1.
          1   -1    0    0  502    0 -0.00000000000E+00 -0.00000000000E+00 -0.73393674568E+03  0.73393674568E+03  0.00000000000E+00 0. -1.
        -24    2    1    2    0    0 -0.41184559003E+02 -0.25463291873E+02 -0.40354335243E+03  0.41443189526E+03  0.81006242925E+02 0.  0.
         23    2    1    2    0    0  0.49803204273E+02 -0.12619519972E+02 -0.75467611759E+02  0.12837953576E+03  0.90257040371E+02 0.  0.
         11    1    3    3    0    0 -0.77897582990E+01 -0.50550952364E+02 -0.25762397358E+03  0.26265222421E+03  0.00000000000E+00 0. -1.
        -12    1    3    3    0    0 -0.33394800704E+02  0.25087660491E+02 -0.14591937884E+03  0.15177967105E+03  0.00000000000E+00 0.  1.
        -13    1    4    4    0    0  0.23124980261E+02 -0.35248636330E+02  0.32058201013E+01  0.42278935154E+02  0.00000000000E+00 0.  1.
         13    1    4    4    0    0  0.26678224012E+02  0.22629116359E+02 -0.78673431860E+02  0.86100600603E+02  0.00000000000E+00 0. -1.
          2    1    1    2  501    0 -0.86186452701E+01  0.38082811845E+02 -0.22131657167E+03  0.22473452449E+03  0.00000000000E+00 0. -1.
<scales pt_clust_5="13000.00000" pt_clust_6="13000.00000" pt_clust_7="13000.00000" pt_clust_8="13000.00000" pt_clust_9="39.04591"></scales>
<clustering>
<clus scale="   39.046">  1  9  2 -1</clus>
<clus scale="   81.006">  5  6 -1 -1</clus>
<clus scale="   90.257">  7  8 -1 -1</clus>
<clus scale="   93.494">  2  5  1 -1</clus>
<clus scale="   39.046">  1  5  2 -1</clus>
</clustering>
</event>
<event>
 9    1  0.7835476E-005  0.1091430E+03  0.7546771E-02  0.1266454E+00
         21   -1    0    0  501  502  0.00000000000E+00  0.00000000000E+00  0.15678432617E+03  0.15678432617E+03  0.00000000000E+00 0. -1.
          1   -1    0    0  502    0 -0.00000000000E+00 -0.00000000000E+00 -0.12885507675E+03  0.12885507675E+03  0.00000000000E+00 0. -1.
        -24    2    1    2    0    0  0.23070865353E+02  0.67290614531E+02 -0.65666304978E-03  0.10916035383E+03  0.82799101535E+02 0.  0.
         23    2    1    2    0    0 -0.43804675629E+02 -0.16627236312E+02  0.52114580749E+02  0.11663285231E+03  0.93230778802E+02 0.  0.
         11    1    3    3    0    0  0.25068473708E+02  0.75184330939E+02  0.24811325489E+02  0.83046456067E+02  0.00000000000E+00 0. -1.
        -12    1    3    3    0    0 -0.19976083553E+01 -0.78937164085E+01 -0.24811982152E+02  0.26113897759E+02  0.00000000000E+00 0.  1.
        -11    1    4    4    0    0 -0.11283170154E+00 -0.25257579478E+02 -0.19766626372E+02  0.32073003760E+02  0.00000000000E+00 0.  1.
         11    1    4    4    0    0 -0.43691843927E+02  0.86303431664E+01  0.71881207120E+02  0.84559848545E+02  0.00000000000E+00 0. -1.
          2    1    1    2  501    0  0.20733810276E+02 -0.50663378219E+02 -0.24184674664E+02  0.59846196786E+02  0.00000000000E+00 0. -1.
<scales pt_clust_5="13000.00000" pt_clust_6="13000.00000" pt_clust_7="13000.00000" pt_clust_8="13000.00000" pt_clust_9="54.74186"></scales>
<clustering>
<clus scale="   54.742">  1  9  2 -1</clus>
<clus scale="   82.799">  5  6 -1 -1</clus>
<clus scale="   93.231">  7  8 -1 -1</clus>
<clus scale="  100.379">  2  5  1 -1</clus>
<clus scale="   54.742">  1  5  2 -1</clus>
</clustering>
</event>
<event>
 9    1  0.7835476E-005  0.9450632E+02  0.7546771E-02  0.1299879E+00
         -2   -1    0    0    0  501 -0.00000000000E+00  0.00000000000E+00  0.40481534699E+03  0.40481534699E+03  0.00000000000E+00 0.  1.
         21   -1    0    0  501  502  0.00000000000E+00 -0.00000000000E+00 -0.33945097652E+02  0.33945097652E+02  0.00000000000E+00 0.  1.
         23    2    1    2    0    0 -0.73404754946E+01 -0.66431700665E+01  0.22278381410E+03  0.24157020866E+03  0.92873696999E+02 0.  0.
        -24    2    1    2    0    0  0.31308927982E+02 -0.22586187743E+02  0.12295579260E+03  0.15179870295E+03  0.80214303177E+02 0.  0.
         11    1    4    4    0    0  0.27755576585E+02  0.49320955366E+01  0.12071352611E+03  0.12396149799E+03  0.00000000000E+00 0. -1.
        -12    1    4    4    0    0  0.35533513973E+01 -0.27518283280E+02  0.22422664904E+01  0.27837204957E+02  0.00000000000E+00 0.  1.
        -11    1    3    3    0    0  0.20186017890E+02  0.30194195593E+02  0.44445071276E+02  0.57397988872E+02  0.00000000000E+00 0. -1.
         11    1    3    3    0    0 -0.27526493384E+02 -0.36837365660E+02  0.17833874283E+03  0.18417221978E+03  0.00000000000E+00 0.  1.
         -1    1    1    2    0  502 -0.23968452488E+02  0.29229357810E+02  0.25130642637E+02  0.45391533043E+02  0.00000000000E+00 0.  1.
<scales pt_clust_5="13000.00000" pt_clust_6="13000.00000" pt_clust_7="13000.00000" pt_clust_8="13000.00000" pt_clust_9="37.80003"></scales>
<clustering>
<clus scale="   37.800">  2  9  1 -1</clus>
<clus scale="   80.214">  5  6 -1 -1</clus>
<clus scale="   82.099">  2  5  1 -1</clus>
<clus scale="   92.874">  7  8 -1 -1</clus>
<clus scale="   37.800">  2  5  1 -1</clus>
</clustering>
</event>
<event>
 9    1  0.7835476E-005  0.1275993E+03  0.7546771E-02  0.1233759E+00
         21   -1    0    0  501  502  0.00000000000E+00  0.00000000000E+00  0.31817527489E+03  0.31817527489E+03  0.00000000000E+00 0.  1.
         -2   -1    0    0    0  501 -0.00000000000E+00 -0.00000000000E+00 -0.58294627599E+02  0.58294627599E+02  0.00000000000E+00 0.  1.
         23    2    1    2    0    0  0.33550412872E+01  0.80193665975E+02  0.11179599803E+03  0.16477863839E+03  0.90616632755E+02 0.  0.
        -24    2    1    2    0    0  0.61446286628E+01 -0.10038468094E+03  0.12416099017E+03  0.17897640082E+03  0.80633491438E+02 0.  0.
         11    1    4    4    0    0 -0.22344609510E+02 -0.20349303695E+02  0.21448759132E+01  0.30298122511E+02  0.00000000000E+00 0. -1.
        -12    1    4    4    0    0  0.28489238173E+02 -0.80035377248E+02  0.12201611426E+03  0.14867827831E+03  0.00000000000E+00 0.  1.
        -11    1    3    3    0    0  0.31453755009E+02  0.32403082459E+02  0.62908148642E+01  0.45594657677E+02  0.00000000000E+00 0. -1.
         11    1    3    3    0    0 -0.28098713721E+02  0.47790583515E+02  0.10550518316E+03  0.11918398072E+03  0.00000000000E+00 0.  1.
         -1    1    1    2    0  502 -0.94996699500E+01  0.20191014968E+02  0.23923659098E+02  0.32714863278E+02  0.00000000000E+00 0.  1.
<scales pt_clust_5="13000.00000" pt_clust_6="13000.00000" pt_clust_7="13000.00000" pt_clust_8="13000.00000" pt_clust_9="22.31414"></scales>
<clustering>
<clus scale="   22.314">  1  9  2 -1</clus>
<clus scale="   80.633">  5  6 -1 -1</clus>
<clus scale="   90.617">  7  8 -1 -1</clus>
<clus scale="  120.714">  1  5  2 -1</clus>
<clus scale="   22.314">  1  5  2 -1</clus>
</clustering>
</event>
<event>
 9    1  0.7835476E-005  0.2544363E+03  0.7546771E-02  0.1125345E+00
         21   -1    0    0  501  502  0.00000000000E+00  0.00000000000E+00  0.79649117101E+03  0.79649117101E+03  0.00000000000E+00 0. -1.
          3   -1    0    0  502    0 -0.00000000000E+00 -0.00000000000E+00 -0.21827731995E+03  0.21827731995E+03  0.00000000000E+00 0. -1.
        -24    2    1    2    0    0 -0.13927918746E+03 -0.71368921073E+02  0.57460528446E+02  0.18459508072E+03  0.79255388098E+02 0.  0.
         23    2    1    2    0    0 -0.16733194966E+02  0.25564436039E+03  0.18985763594E+02  0.27333592561E+03  0.93370392520E+02 0.  0.
         11    1    3    3    0    0 -0.12383411684E+03 -0.38377131555E+02  0.17995340829E+02  0.13088745169E+03  0.00000000000E+00 0. -1.
        -12    1    3    3    0    0 -0.15445070623E+02 -0.32991789518E+02  0.39465187617E+02  0.53707629028E+02  0.00000000000E+00 0.  1.
        -13    1    4    4    0    0 -0.51508555591E+01  0.21539520349E+03  0.50046333256E+02  0.22119281289E+03  0.00000000000E+00 0. -1.
         13    1    4    4    0    0 -0.11582339407E+02  0.40249156893E+02 -0.31060569662E+02  0.52143112723E+02  0.00000000000E+00 0.  1.
          4    1    1    2  501    0  0.15601238243E+03 -0.18427543931E+03  0.50176755902E+03  0.55683748463E+03  0.00000000000E+00 0. -1.
<scales pt_clust_5="13000.00000" pt_clust_6="13000.00000" pt_clust_7="13000.00000" pt_clust_8="13000.00000" pt_clust_9="236.68507"></scales>
<clustering>
<clus scale="   79.255">  5  6 -1 -1</clus>
<clus scale="   93.370">  7  8 -1 -1</clus>
<clus scale="  175.424">  2  5  1 -1</clus>
<clus scale="  236.685">  1  9  2 -1</clus>
<clus scale="  236.685">  1  5  2 -1</clus>
</clustering>
</event>
<event>
 9    1  0.7835476E-005  0.1308368E+03  0.7546771E-02  0.1229936E+00
          1   -1    0    0  502    0 -0.00000000000E+00  0.00000000000E+00  0.58447321512E+03  0.58447321512E+03  0.00000000000E+00 0. -1.
         21   -1    0    0  501  502  0.00000000000E+00 -0.00000000000E+00 -0.56274099986E+02  0.56274099986E+02  0.00000000000E+00 0. -1.
        -24    2    1    2    0    0 -0.79171960599E+02  0.45801844735E+02  0.43421249713E+03  0.45090230991E+03  0.80039940596E+02 0.  0.
         23    2    1    2    0    0  0.61867470607E+02 -0.68552275540E+02  0.92851739492E+02  0.16123879215E+03  0.94071803253E+02 0.  0.
         13    1    3    3    0    0 -0.78333771571E+02  0.42977743972E+02  0.43747534193E+03  0.44650637290E+03  0.00000000000E+00 0. -1.
        -14    1    3    3    0    0 -0.83818902848E+00  0.28241007637E+01 -0.32628448003E+01  0.43959370061E+01  0.00000000000E+00 0.  1.
        -11    1    4    4    0    0  0.13763907660E+02 -0.68091216999E+02  0.89108592329E+02  0.11298761088E+03  0.00000000000E+00 0. -1.
         11    1    4    4    0    0  0.48103562947E+02 -0.46105854026E+00  0.37431471631E+01  0.48251181269E+02  0.00000000000E+00 0.  1.
          2    1    1    2  501    0  0.17304489992E+02  0.22750430804E+02  0.11348785155E+01  0.28606213047E+02  0.00000000000E+00 0. -1.
<scales pt_clust_5="13000.00000" pt_clust_6="13000.00000" pt_clust_7="13000.00000" pt_clust_8="13000.00000" pt_clust_9="28.58369"></scales>
<clustering>
<clus scale="   28.584">  2  9  1 -1</clus>
<clus scale="   80.040">  5  6 -1 -1</clus>
<clus scale="   94.072">  7  8 -1 -1</clus>
<clus scale="  121.141">  1  5  2 -1</clus>
<clus scale="   28.584">  2  5  1 -1</clus>
</clustering>
</event>
<event>
 9    1  0.7835476E-005  0.1044318E+03  0.7546771E-02  0.1275644E+00
          1   -1    0    0  502    0 -0.00000000000E+00  0.00000000000E+00  0.11166406045E+03  0.11166406045E+03  0.00000000000E+00 0. -1.
         21   -1    0    0  501  502  0.00000000000E+00 -0.00000000000E+00 -0.16504772330E+03  0.16504772330E+03  0.00000000000E+00 0. -1.
        -24    2    1    2    0    0  0.27908386099E+02 -0.38546757839E+02  0.28852178888E+02  0.97661931695E+02  0.80253810634E+02 0.  0.
         23    2    1    2    0    0 -0.50602468294E+02  0.38781684621E+02 -0.19294957477E+02  0.11214221819E+03  0.90216145213E+02 0.  0.
         13    1    3    3    0    0  0.49136175469E+02 -0.80688475034E+01 -0.13161116182E+01  0.49811667203E+02  0.00000000000E+00 0. -1.
        -14    1    3    3    0    0 -0.21227789369E+02 -0.30477910336E+02  0.30168290506E+02  0.47850264493E+02  0.00000000000E+00 0.  1.
        -13    1    4    4    0    0 -0.58677280497E+02 -0.84479343354E+01 -0.24085747222E+02  0.63988390043E+02  0.00000000000E+00 0.  1.
         13    1    4    4    0    0  0.80748122021E+01  0.47229618957E+02  0.47907897450E+01  0.48153828147E+02  0.00000000000E+00 0. -1.
          2    1    1    2  501    0  0.22694082195E+02 -0.23492678182E+00 -0.62940884268E+02  0.66907633867E+02  0.00000000000E+00 0. -1.
<scales pt_clust_5="13000.00000" pt_clust_6="13000.00000" pt_clust_7="13000.00000" pt_clust_8="13000.00000" pt_clust_9="22.69530"></scales>
<clustering>
<clus scale="   22.695">  2  9  1 -1</clus>
<clus scale="   80.254">  5  6 -1 -1</clus>
<clus scale="   90.216">  7  8 -1 -1</clus>
<clus scale="   95.957">  1  5  2 -1</clus>
<clus scale="   22.695">  2  5  1 -1</clus>
</clustering>
</event>
<event>
 9    1  0.7835476E-005  0.2265411E+03  0.7546771E-02  0.1129098E+00
         21   -1    0    0  501  502  0.00000000000E+00  0.00000000000E+00  0.26246142468E+03  0.26246142468E+03  0.00000000000E+00 0. -1.
          3   -1    0    0  502    0 -0.00000000000E+00 -0.00000000000E+00 -0.21457081318E+03  0.21457081318E+03  0.00000000000E+00 0. -1.
        -24    2    1    2    0    0 -0.77743237861E+02  0.20356811037E+02 -0.64688713701E+02  0.13145427468E+03  0.81468925747E+02 0.  0.
         23    2    1    2    0    0 -0.19452725390E+02  0.64584819879E+02 -0.62274981440E+02  0.12823913903E+03  0.89540471191E+02 0.  0.
         11    1    3    3    0    0 -0.26738319801E+02  0.43263327920E+02 -0.54637991359E+02  0.74645585189E+02  0.00000000000E+00 0. -1.
        -12    1    3    3    0    0 -0.51004918060E+02 -0.22906516882E+02 -0.10050722342E+02  0.56808689490E+02  0.00000000000E+00 0.  1.
        -13    1    4    4    0    0  0.14633698118E+02  0.18858995700E+02 -0.66888325146E+02  0.71020101945E+02  0.00000000000E+00 0.  1.
         13    1    4    4    0    0 -0.34086423508E+02  0.45725824179E+02  0.46133437062E+01  0.57219037082E+02  0.00000000000E+00 0. -1.
          4    1    1    2  501    0  0.97195963252E+02 -0.84941630917E+02  0.17485430663E+03  0.21733882415E+03  0.00000000000E+00 0. -1.
<scales pt_clust_5="13000.00000" pt_clust_6="13000.00000" pt_clust_7="13000.00000" pt_clust_8="13000.00000" pt_clust_9="129.08190"></scales>
<clustering>
<clus scale="   81.469">  5  6 -1 -1</clus>
<clus scale="   89.540">  7  8 -1 -1</clus>
<clus scale="  111.433">  5  7 -1 -1</clus>
<clus scale="  129.082">  1  9  2 -1</clus>
<clus scale="  129.082">  1  5  2 -1</clus>
</clustering>
</event>
<event>
 9    1  0.7835476E-005  0.1379174E+03  0.7546771E-02  0.1219945E+00
         -2   -1    0    0    0  501 -0.00000000000E+00  0.00000000000E+00  0.64509651458E+03  0.64509651458E+03  0.00000000000E+00 0.  1.
         21   -1    0    0  501  502  0.00000000000E+00 -0.00000000000E+00 -0.77206818992E+02  0.77206818992E+02  0.00000000000E+00 0.  1.
        -24    2    1    2    0    0 -0.66717279285E+02 -0.97131039073E+02  0.41391099383E+03  0.43746259294E+03  0.78521177428E+02 0.  0.
         23    2    1    2    0    0  0.25313757107E+02  0.99106819015E+01 -0.51986065038E+01  0.98671307534E+02  0.94710049658E+02 0.  0.
         13    1    3    3    0    0  0.91292901730E+01 -0.41790445161E+02  0.81464494269E+02  0.92012222407E+02  0.00000000000E+00 0. -1.
        -14    1    3    3    0    0 -0.75846569458E+02 -0.55340593912E+02  0.33244649956E+03  0.34545037053E+03  0.00000000000E+00 0.  1.
        -11    1    4    4    0    0  0.55730966614E+02  0.11037568857E+02 -0.25302708867E+02  0.62193212186E+02  0.00000000000E+00 0.  1.
         11    1    4    4    0    0 -0.30417209507E+02 -0.11268869555E+01  0.20104102363E+02  0.36478095348E+02  0.00000000000E+00 0. -1.
         -1    1    1    2    0  502  0.41403522178E+02  0.87220357171E+02  0.15917730826E+03  0.18616943310E+03  0.00000000000E+00 0.  1.
<scales pt_clust_5="13000.00000" pt_clust_6="13000.00000" pt_clust_7="13000.00000" pt_clust_8="13000.00000" pt_clust_9="96.54870"></scales>
<clustering>
<clus scale="   78.521">  5  6 -1 -1</clus>
<clus scale="   94.710">  7  8 -1 -1</clus>
<clus scale="   96.549">  2  9  1 -1</clus>
<clus scale="  127.345">  1  5  2 -1</clus>
<clus scale="   96.549">  2  5  1 -1</clus>
</clustering>
</event>
<event>
 9    1  0.7835476E-005  0.9084750E+02  0.7546771E-02  0.1309025E+00
          1   -1    0    0  502    0 -0.00000000000E+00  0.00000000000E+00  0.11685613003E+03  0.11685613003E+03  0.00000000000E+00 0. -1.
         21   -1    0    0  501  502  0.00000000000E+00 -0.00000000000E+00 -0.28638844618E+03  0.28638844618E+03  0.00000000000E+00 0. -1.
        -24    2    1    2    0    0  0.12456330570E+01  0.15500708619E+02  0.75214628527E+02  0.10798976562E+03  0.75912617961E+02 0.  0.
         23    2    1    2    0    0 -0.48278895869E+02 -0.37220743734E+02 -0.12679555421E+03  0.16642772396E+03  0.88909162551E+02 0.  0.
         13    1    3    3    0    0 -0.18712850996E+02  0.40782344838E+02  0.38259111340E+02  0.58967194637E+02  0.00000000000E+00 0. -1.
        -14    1    3    3    0    0  0.19958484053E+02 -0.25281636219E+02  0.36955517187E+02  0.49022570986E+02  0.00000000000E+00 0.  1.
        -13    1    4    4    0    0 -0.71883336427E+02 -0.21300175210E+02 -0.68512785922E+02  0.10156236190E+03  0.00000000000E+00 0. -1.
         13    1    4    4    0    0  0.23604440558E+02 -0.15920568524E+02 -0.58282768289E+02  0.64865362064E+02  0.00000000000E+00 0.  1.
          2    1    1    2  501    0  0.47033262812E+02  0.21720035115E+02 -0.11795139046E+03  0.12882708662E+03  0.00000000000E+00 0. -1.
<scales pt_clust_5="13000.00000" pt_clust_6="13000.00000" pt_clust_7="13000.00000" pt_clust_8="13000.00000" pt_clust_9="51.80625"></scales>
<clustering>
<clus scale="   51.806">  2  9  1 -1</clus>
<clus scale="   75.913">  5  6 -1 -1</clus>
<clus scale="   78.174">  1  5  2 -1</clus>
<clus scale="   88.909">  7  8 -1 -1</clus>
<clus scale="   51.806">  2  5  1 -1</clus>
</clustering>
</event>
<event>
 9    1  0.7835476E-005  0.1756482E+03  0.7546771E-02  0.1173362E+00
          1   -1    0    0  502    0 -0.00000000000E+00  0.00000000000E+00  0.11137589055E+04  0.11137589055E+04  0.00000000000E+00 0. -1.
         21   -1    0    0  501  502  0.00000000000E+00 -0.00000000000E+00 -0.44921479766E+02  0.44921479766E+02  0.00000000000E+00 0.  1.
        -24    2    1    2    0    0 -0.10562179563E+03 -0.91540901205E+02  0.66415974346E+03  0.68341228927E+03  0.80053057325E+02 0.  0.
         23    2    1    2    0    0  0.13157493612E+03  0.12130869932E+03  0.37720191187E+03  0.42715775133E+03  0.90303365729E+02 0.  0.
         11    1    3    3    0    0 -0.82351081716E+02 -0.65259731518E+02  0.60922595682E+03  0.61822067231E+03  0.00000000000E+00 0. -1.
        -12    1    3    3    0    0 -0.23270713919E+02 -0.26281169687E+02  0.54933786641E+02  0.65191616954E+02  0.00000000000E+00 0.  1.
        -11    1    4    4    0    0  0.55283674304E+02  0.14957025401E+02  0.19210245816E+03  0.20045785513E+03  0.00000000000E+00 0.  1.
         11    1    4    4    0    0  0.76291261812E+02  0.10635167392E+03  0.18509945371E+03  0.22669989620E+03  0.00000000000E+00 0. -1.
          2    1    1    2  501    0 -0.25953140482E+02 -0.29767798112E+02  0.27475770432E+02  0.48110344689E+02  0.00000000000E+00 0. -1.
<scales pt_clust_5="13000.00000" pt_clust_6="13000.00000" pt_clust_7="13000.00000" pt_clust_8="13000.00000" pt_clust_9="39.49288"></scales>
<clustering>
<clus scale="   39.493">  2  9  1 -1</clus>
<clus scale="   80.053">  5  6 -1 -1</clus>
<clus scale="   90.303">  7  8 -1 -1</clus>
<clus scale="  170.605">  1  5  2 -1</clus>
<clus scale="   39.493">  2  5  1 -1</clus>
</clustering>
</event>
<event>
 9    1  0.7835476E-005  0.1697380E+03  0.7546771E-02  0.1195441E+00
         -2   -1    0    0    0  501 -0.00000000000E+00  0.00000000000E+00  0.30576292560E+03  0.30576292560E+03  0.00000000000E+00 0.  1.
         21   -1    0    0  501  502  0.00000000000E+00 -0.00000000000E+00 -0.27469502255E+03  0.27469502255E+03  0.00000000000E+00 0.  1.
         23    2    1    2    0    0  0.62571429780E+02  0.41001934212E+02  0.12081063766E+03  0.16715223312E+03  0.88024521756E+02 0.  0.
        -24    2    1    2    0    0  0.11752455526E+03 -0.77571099524E+02 -0.14814058008E+03  0.22047891183E+03  0.82680242657E+02 0.  0.
         11    1    4    4    0    0  0.67561083310E+02 -0.61705362994E+02 -0.39122486098E+02  0.99511912447E+02  0.00000000000E+00 0. -1.
        -12    1    4    4    0    0  0.49963471949E+02 -0.15865736530E+02 -0.10901809398E+03  0.12096699939E+03  0.00000000000E+00 0.  1.
        -11    1    3    3    0    0  0.85089757564E+02  0.30796377064E+02  0.89717932363E+02  0.12742837624E+03  0.00000000000E+00 0.  1.
         11    1    3    3    0    0 -0.22518327784E+02  0.10205557148E+02  0.31092705298E+02  0.39723856883E+02  0.00000000000E+00 0. -1.
         -1    1    1    2    0  502 -0.18009598504E+03  0.36569165312E+02  0.58397845469E+02  0.19282680320E+03  0.00000000000E+00 0.  1.
<scales pt_clust_5="13000.00000" pt_clust_6="13000.00000" pt_clust_7="13000.00000" pt_clust_8="13000.00000" pt_clust_9="148.23963"></scales>
<clustering>
<clus scale="   82.680">  5  6 -1 -1</clus>
<clus scale="   88.025">  7  8 -1 -1</clus>
<clus scale="  115.519">  1  7  2 -1</clus>
<clus scale="  148.240">  2  9  1 -1</clus>
<clus scale="  148.240">  2  5  1 -1</clus>
</clustering>
</event>
<event>
 9    1  0.7835476E-005  0.1646039E+03  0.7546771E-02  0.1203251E+00
          1   -1    0    0  502    0 -0.00000000000E+00  0.00000000000E+00  0.35234181543E+03  0.35234181543E+03  0.00000000000E+00 0. -1.
         21   -1    0    0  501  502  0.00000000000E+00 -0.00000000000E+00 -0.13416121520E+03  0.13416121520E+03  0.00000000000E+00 0. -1.
        -24    2    1    2    0    0 -0.72037438005E+02  0.29076102739E+02  0.71905257993E+02  0.12882276082E+03  0.73417473081E+02 0.  0.
         23    2    1    2    0    0 -0.93396791569E+02 -0.74533064466E+02  0.39554437056E+02  0.15563034705E+03  0.91532032956E+02 0.  0.
         13    1    3    3    0    0 -0.46012461526E+02  0.13375911479E+02 -0.29745895135E+01  0.48009476214E+02  0.00000000000E+00 0. -1.
        -14    1    3    3    0    0 -0.26024976479E+02  0.15700191261E+02  0.74879847506E+02  0.80813284607E+02  0.00000000000E+00 0.  1.
        -11    1    4    4    0    0 -0.35141173923E+02 -0.58744748930E+02 -0.19512369896E+02  0.71179914376E+02  0.00000000000E+00 0. -1.
         11    1    4    4    0    0 -0.58255617646E+02 -0.15788315535E+02  0.59066806952E+02  0.84450432671E+02  0.00000000000E+00 0.  1.
          2    1    1    2  501    0  0.16543422957E+03  0.45456961727E+02  0.10672090518E+03  0.20204992276E+03  0.00000000000E+00 0. -1.
<scales pt_clust_5="13000.00000" pt_clust_6="13000.00000" pt_clust_7="13000.00000" pt_clust_8="13000.00000" pt_clust_9="136.80776"></scales>
<clustering>
<clus scale="   73.417">  5  6 -1 -1</clus>
<clus scale="   91.532">  7  8 -1 -1</clus>
<clus scale="  106.887">  1  5  2 -1</clus>
<clus scale="  136.808">  2  9  1 -1</clus>
<clus scale="  136.808">  2  5  1 -1</clus>
</clustering>
</event>
<event>
 9    1  0.9053965E-005  0.9286384E+02  0.7546771E-02  0.1303400E+00
         21   -1    0    0  501  502  0.00000000000E+00  0.00000000000E+00  0.12897162691E+03  0.12897162691E+03  0.00000000000E+00 0.  1.
          3   -1    0    0  502    0 -0.00000000000E+00 -0.00000000000E+00 -0.20011914365E+03  0.20011914365E+03  0.00000000000E+00 0. -1.
         23    2    1    2    0    0 -0.15163297089E+02  0.40109583962E+01 -0.16100829306E+03  0.18593690338E+03  0.91667051002E+02 0.  0.
        -24    2    1    2    0    0  0.49075124318E+00 -0.22924816682E+02  0.84900217301E+02  0.11870750176E+03  0.79734785500E+02 0.  0.
         13    1    4    4    0    0 -0.11020080097E+02 -0.50691074175E+02  0.62485014255E+02  0.81212093759E+02  0.00000000000E+00 0. -1.
        -14    1    4    4    0    0  0.11510831340E+02  0.27766257492E+02  0.22415203046E+02  0.37495407997E+02  0.00000000000E+00 0.  1.
        -13    1    3    3    0    0 -0.28444535979E+02 -0.17137635660E+02 -0.15720701375E+03  0.16067618167E+03  0.00000000000E+00 0. -1.
         13    1    3    3    0    0  0.13281238890E+02  0.21148594056E+02 -0.38012793057E+01  0.25260721711E+02  0.00000000000E+00 0.  1.
          4    1    1    2  501    0  0.14672545846E+02  0.18913858286E+02  0.49605590201E+01  0.24446365428E+02  0.00000000000E+00 0. -1.
<scales pt_clust_5="13000.00000" pt_clust_6="13000.00000" pt_clust_7="13000.00000" pt_clust_8="13000.00000" pt_clust_9="23.93779"></scales>
<clustering>
<clus scale="   23.938">  1  9  2 -1</clus>
<clus scale="   79.735">  5  6 -1 -1</clus>
<clus scale="   81.108">  1  5  2 -1</clus>
<clus scale="   91.667">  7  8 -1 -1</clus>
<clus scale="   23.938">  1  5  2 -1</clus>
</clustering>
</event>
<event>
 9    1  0.7835476E-005  0.9242701E+02  0.7546771E-02  0.1304238E+00
         21   -1    0    0  501  502  0.00000000000E+00  0.00000000000E+00  0.16378955189E+03  0.16378955189E+03  0.00000000000E+00 0.  1.
         -4   -1    0    0    0  501 -0.00000000000E+00 -0.00000000000E+00 -0.24757901195E+03  0.24757901195E+03  0.00000000000E+00 0.  1.
        -24    2    1    2    0    0 -0.67227010143E+01  0.30083957834E+01 -0.20090376765E+03  0.21670033728E+03  0.80885518907E+02 0.  0.
         23    2    1    2    0    0 -0.14566510495E+02  0.96661691732E+01  0.22162502898E+02  0.96537088087E+02  0.92318009007E+02 0.  0.
         13    1    3    3    0    0  0.29998486957E+02  0.24384152299E+02 -0.91168073376E+02  0.99025823431E+02  0.00000000000E+00 0. -1.
        -14    1    3    3    0    0 -0.36721187972E+02 -0.21375756516E+02 -0.10973569427E+03  0.11767451385E+03  0.00000000000E+00 0.  1.
        -13    1    4    4    0    0 -0.36510527662E+02 -0.26569697327E+02 -0.61682302700E+01  0.45574274661E+02  0.00000000000E+00 0.  1.
         13    1    4    4    0    0  0.21944017167E+02  0.36235866500E+02  0.28330733168E+02  0.50962813426E+02  0.00000000000E+00 0. -1.
         -3    1    1    2    0  502  0.21289211509E+02 -0.12674564957E+02  0.94951804687E+02  0.98131138467E+02  0.00000000000E+00 0.  1.
<scales pt_clust_5="13000.00000" pt_clust_6="13000.00000" pt_clust_7="13000.00000" pt_clust_8="13000.00000" pt_clust_9="24.77650"></scales>
<clustering>
<clus scale="   24.777">  1  9  2 -1</clus>
<clus scale="   80.886">  5  6 -1 -1</clus>
<clus scale="   81.010">  2  5  1 -1</clus>
<clus scale="   92.318">  7  8 -1 -1</clus>
<clus scale="   24.777">  1  5  2 -1</clus>
</clustering>
</event>
<event>
 9    1  0.7835476E-005  0.1285833E+03  0.7546771E-02  0.1232524E+00
         -4   -1    0    0    0  501 -0.00000000000E+00  0.00000000000E+00  0.17467970662E+03  0.17467970662E+03  0.00000000000E+00 0.  1.
         21   -1    0    0  501  502  0.00000000000E+00 -0.00000000000E+00 -0.32558538772E+03  0.32558538772E+03  0.00000000000E+00 0.  1.
        -24    2    1    2    0    0  0.82603482852E+02  0.15484682036E+02  0.10308024653E+03  0.15613823485E+03  0.81795479089E+02 0.  0.
         23    2    1    2    0    0 -0.12199584109E+03 -0.66232387105E+02 -0.19759623908E+03  0.25864654344E+03  0.92650128913E+02 0.  0.
         13    1    3    3    0    0  0.13266747604E+02  0.40563009052E+02  0.47122982234E+02  0.63576251462E+02  0.00000000000E+00 0. -1.
        -14    1    3    3    0    0  0.69336735247E+02 -0.25078327015E+02  0.55957264296E+02  0.92561983385E+02  0.00000000000E+00 0.  1.
        -13    1    4    4    0    0 -0.22228036031E+02 -0.17945561563E+02 -0.11997919078E+03  0.12333343013E+03  0.00000000000E+00 0. -1.
         13    1    4    4    0    0 -0.99767805061E+02 -0.48286825542E+02 -0.77617048300E+02  0.13531311331E+03  0.00000000000E+00 0.  1.
         -3    1    1    2    0  502  0.39392358241E+02  0.50747705069E+02 -0.56389688551E+02  0.85480316052E+02  0.00000000000E+00 0.  1.
<scales pt_clust_5="13000.00000" pt_clust_6="13000.00000" pt_clust_7="13000.00000" pt_clust_8="13000.00000" pt_clust_9="64.24241"></scales>
<clustering>
<clus scale="   64.242">  2  9  1 -1</clus>
<clus scale="   81.795">  5  6 -1 -1</clus>
<clus scale="   92.650">  7  8 -1 -1</clus>
<clus scale="  120.996">  1  5  2 -1</clus>
<clus scale="   64.242">  2  5  1 -1</clus>
</clustering>
</event>
<event>
 9    1  0.7835476E-005  0.1099661E+03  0.7546771E-02  0.1265021E+00
         -2   -1    0    0    0  501 -0.00000000000E+00  0.00000000000E+00  0.91738763246E+03  0.91738763246E+03  0.00000000000E+00 0.  1.
         21   -1    0    0  501  502  0.00000000000E+00 -0.00000000000E+00 -0.22450800633E+03  0.22450800633E+03  0.00000000000E+00 0.  1.
        -24    2    1    2    0    0 -0.22435407159E+01  0.84891935268E+02  0.61375598277E+03  0.62484064168E+03  0.80732564398E+02 0.  0.
         23    2    1    2    0    0 -0.32438757473E+02 -0.20528265940E+02  0.28325692263E+03  0.30022340477E+03  0.91792842112E+02 0.  0.
         13    1    3    3    0    0 -0.30470890396E+02  0.39803166674E+02  0.15249980021E+03  0.16052712015E+03  0.00000000000E+00 0. -1.
        -14    1    3    3    0    0  0.28227349680E+02  0.45088768594E+02  0.46125618256E+03  0.46431352153E+03  0.00000000000E+00 0.  1.
        -13    1    4    4    0    0 -0.60893966699E+02 -0.23963166068E+02  0.23644857421E+03  0.24533698611E+03  0.00000000000E+00 0. -1.
         13    1    4    4    0    0  0.28455209226E+02  0.34349001280E+01  0.46808348419E+02  0.54886418654E+02  0.00000000000E+00 0.  1.
         -1    1    1    2    0  502  0.34682298189E+02 -0.64363669328E+02 -0.20413327926E+03  0.21683159235E+03  0.00000000000E+00 0.  1.
<scales pt_clust_5="13000.00000" pt_clust_6="13000.00000" pt_clust_7="13000.00000" pt_clust_8="13000.00000" pt_clust_9="73.11323"></scales>
<clustering>
<clus scale="   73.113">  2  9  1 -1</clus>
<clus scale="   80.733">  5  6 -1 -1</clus>
<clus scale="   91.793">  7  8 -1 -1</clus>
<clus scale="  100.918">  1  5  2 -1</clus>
<clus scale="   73.113">  2  5  1 -1</clus>
</clustering>
</event>
<event>
 9    1  0.7835476E-005  0.2773601E+03  0.7546771E-02  0.1097140E+00
         21   -1    0    0  501  502  0.00000000000E+00  0.00000000000E+00  0.12945762901E+03  0.12945762901E+03  0.00000000000E+00 0. -1.
          3   -1    0    0  502    0 -0.00000000000E+00 -0.00000000000E+00 -0.42558324140E+03  0.42558324140E+03  0.00000000000E+00 0. -1.
        -24    2    1    2    0    0 -0.10399716241E+03 -0.11577585398E+03 -0.13712633435E+03  0.22211747796E+03  0.79454919854E+02 0.  0.
         23    2    1    2    0    0 -0.40450828960E+02 -0.10204278649E+02 -0.49471193989E+02  0.11216873853E+03  0.91618939104E+02 0.  0.
         13    1    3    3    0    0 -0.11678522790E+03 -0.11047019710E+03 -0.12380317803E+03  0.20290313155E+03  0.00000000000E+00 0. -1.
        -14    1    3    3    0    0  0.12788065485E+02 -0.53056568872E+01 -0.13323156319E+02  0.19214346415E+02  0.00000000000E+00 0.  1.
        -13    1    4    4    0    0 -0.21554468103E+02  0.17156165279E+02 -0.68517729295E+02  0.73848549952E+02  0.00000000000E+00 0.  1.
         13    1    4    4    0    0 -0.18896360857E+02 -0.27360443928E+02  0.19046535306E+02  0.38320188579E+02  0.00000000000E+00 0. -1.
          4    1    1    2  501    0  0.14444799137E+03  0.12598013263E+03 -0.10952808405E+03  0.22075465391E+03  0.00000000000E+00 0. -1.
<scales pt_clust_5="13000.00000" pt_clust_6="13000.00000" pt_clust_7="13000.00000" pt_clust_8="13000.00000" pt_clust_9="191.66694"></scales>
<clustering>
<clus scale="   79.455">  5  6 -1 -1</clus>
<clus scale="   91.619">  7  8 -1 -1</clus>
<clus scale="   96.510">  5  7 -1 -1</clus>
<clus scale="  191.667">  1  9  2 -1</clus>
<clus scale="  191.667">  1  5  2 -1</clus>
</clustering>
</event>
<event>
 9    1  0.7835476E-005  0.9230489E+02  0.7546771E-02  0.1304710E+00
          1   -1    0    0  502    0 -0.00000000000E+00  0.00000000000E+00  0.41236320092E+03  0.41236320092E+03  0.00000000000E+00 0. -1.
         21   -1    0    0  501  502  0.00000000000E+00 -0.00000000000E+00 -0.81556822685E+02  0.81556822685E+02  0.00000000000E+00 0. -1.
        -24    2    1    2    0    0  0.12423838767E+01  0.34868012403E+02  0.21410183155E+03  0.23098575392E+03  0.79356804592E+02 0.  0.
         23    2    1    2    0    0  0.12424157044E+02  0.17456229260E+02  0.16544938977E+03  0.19012863574E+03  0.91193848112E+02 0.  0.
         11    1    3    3    0    0 -0.33438842854E+02  0.30165379730E+02  0.16257208328E+03  0.16869436449E+03  0.00000000000E+00 0. -1.
        -12    1    3    3    0    0  0.34681226731E+02  0.47026326731E+01  0.51529748265E+02  0.62291389436E+02  0.00000000000E+00 0.  1.
        -13    1    4    4    0    0  0.14012416184E+02 -0.20030367849E+02  0.14568397379E+03  0.14772062708E+03  0.00000000000E+00 0.  1.
         13    1    4    4    0    0 -0.15882591399E+01  0.37486597109E+02  0.19765415980E+02  0.42408008663E+02  0.00000000000E+00 0. -1.
          2    1    1    2  501    0 -0.13666540920E+02 -0.52324241664E+02 -0.48744843088E+02  0.72805633945E+02  0.00000000000E+00 0. -1.
<scales pt_clust_5="13000.00000" pt_clust_6="13000.00000" pt_clust_7="13000.00000" pt_clust_8="13000.00000" pt_clust_9="54.07958"></scales>
<clustering>
<clus scale="   54.080">  2  9  1 -1</clus>
<clus scale="   79.357">  5  6 -1 -1</clus>
<clus scale="   80.631">  1  5  2 -1</clus>
<clus scale="   91.194">  7  8 -1 -1</clus>
<clus scale="   54.080">  2  5  1 -1</clus>
</clustering>
</event>
<event>
 9    1  0.7835476E-005  0.1850702E+03  0.7546771E-02  0.1192314E+00
          1   -1    0    0  502    0 -0.00000000000E+00  0.00000000000E+00  0.74315308072E+03  0.74315308072E+03  0.00000000000E+00 0. -1.
         21   -1    0    0  501  502  0.00000000000E+00 -0.00000000000E+00 -0.19771924997E+03  0.19771924997E+03  0.00000000000E+00 0.  1.
        -24    2    1    2    0    0 -0.51956232622E+02  0.17579153813E+02 -0.13541154342E+03  0.16567373972E+03  0.78121861115E+02 0.  0.
         23    2    1    2    0    0 -0.87595115379E+02  0.92208678104E+02  0.49160008456E+03  0.51569574627E+03  0.89978414234E+02 0.  0.
         11    1    3    3    0    0 -0.19143666690E+02 -0.30317384797E+02 -0.37796030755E+02  0.52097636569E+02  0.00000000000E+00 0. -1.
        -12    1    3    3    0    0 -0.32812565933E+02  0.47896538610E+02 -0.97615512663E+02  0.11357610315E+03  0.00000000000E+00 0.  1.
        -13    1    4    4    0    0 -0.12163309618E+02  0.25379340526E+02  0.22898345175E+02  0.36282106308E+02  0.00000000000E+00 0.  1.
         13    1    4    4    0    0 -0.75431805761E+02  0.66829337579E+02  0.46870173939E+03  0.47941363996E+03  0.00000000000E+00 0. -1.
          2    1    1    2  501    0  0.13955134800E+03 -0.10978783192E+03  0.18924528961E+03  0.25950284470E+03  0.00000000000E+00 0. -1.
<scales pt_clust_5="13000.00000" pt_clust_6="13000.00000" pt_clust_7="13000.00000" pt_clust_8="13000.00000" pt_clust_9="161.72471"></scales>
<clustering>
<clus scale="   78.122">  5  6 -1 -1</clus>
<clus scale="   89.978">  7  8 -1 -1</clus>
<clus scale="   95.454">  1  5  2 -1</clus>
<clus scale="  161.725">  2  9  1 -1</clus>
<clus scale="  161.725">  2  5  1 -1</clus>
</clustering>
</event>
<event>
 9    1  0.7835476E-005  0.9494045E+02  0.7546771E-02  0.1296231E+00
          1   -1    0    0  502    0 -0.00000000000E+00  0.00000000000E+00  0.26316148883E+03  0.26316148883E+03  0.00000000000E+00 0. -1.
         21   -1    0    0  501  502  0.00000000000E+00 -0.00000000000E+00 -0.12440258925E+03  0.12440258925E+03  0.00000000000E+00 0. -1.
        -24    2    1    2    0    0  0.38818621825E+02  0.16149441022E+02  0.14461243052E+03  0.17152962641E+03  0.82109486843E+02 0.  0.
         23    2    1    2    0    0 -0.33598933022E+01  0.44419362046E+02  0.61798966282E+02  0.11855234196E+03  0.90835989247E+02 0.  0.
         11    1    3    3    0    0  0.45270064035E+02 -0.10040330724E+02  0.13525019371E+03  0.14297832646E+03  0.00000000000E+00 0. -1.
        -12    1    3    3    0    0 -0.64514422105E+01  0.26189771746E+02  0.93622368108E+01  0.28551299950E+02  0.00000000000E+00 0.  1.
        -13    1    4    4    0    0  0.13844012116E+01 -0.27365822880E+02  0.27614018485E+02  0.38901656077E+02  0.00000000000E+00 0.  1.
         13    1    4    4    0    0 -0.47442945138E+01  0.71785184927E+02  0.34184947797E+02  0.79650685881E+02  0.00000000000E+00 0. -1.
          2    1    1    2  501    0 -0.35458728522E+02 -0.60568803068E+02 -0.67652497225E+02  0.97482109714E+02  0.00000000000E+00 0. -1.
<scales pt_clust_5="13000.00000" pt_clust_6="13000.00000" pt_clust_7="13000.00000" pt_clust_8="13000.00000" pt_clust_9="70.18477"></scales>
<clustering>
<clus scale="   70.185">  2  9  1 -1</clus>
<clus scale="   82.109">  5  6 -1 -1</clus>
<clus scale="   86.628">  1  5  2 -1</clus>
<clus scale="   90.836">  7  8 -1 -1</clus>
<clus scale="   70.185">  2  5  1 -1</clus>
</clustering>
</event>
<event>
 9    1  0.7835476E-005  0.1013268E+03  0.7546771E-02  0.1282696E+00
          1   -1    0    0  502    0 -0.00000000000E+00  0.00000000000E+00  0.14493637547E+03  0.14493637547E+03  0.00000000000E+00 0. -1.
         21   -1    0    0  501  502  0.00000000000E+00 -0.00000000000E+00 -0.18207733022E+03  0.18207733022E+03  0.00000000000E+00 0. -1.
         23    2    1    2    0    0  0.96883589665E+01 -0.58781934114E+01 -0.17747088217E+02  0.94095721012E+02  0.91709476693E+02 0.  0.
        -24    2    1    2    0    0 -0.91091239959E+02  0.36975028155E+02 -0.54967103610E+02  0.13879626901E+03  0.81106443070E+02 0.  0.
         11    1    4    4    0    0 -0.77331751025E+02 -0.97742660508E+01 -0.41154878263E+02  0.88144540377E+02  0.00000000000E+00 0. -1.
        -12    1    4    4    0    0 -0.13759488933E+02  0.46749294206E+02 -0.13812225346E+02  0.50651728632E+02  0.00000000000E+00 0.  1.
        -11    1    3    3    0    0  0.18139178838E+02  0.39898723378E+02  0.11804773219E+01  0.43844400587E+02  0.00000000000E+00 0. -1.
         11    1    3    3    0    0 -0.84508198713E+01 -0.45776916790E+02 -0.18927565538E+02  0.50251320425E+02  0.00000000000E+00 0.  1.
          2    1    1    2  501    0  0.81402880992E+02 -0.31096834743E+02  0.35573237071E+02  0.94121715669E+02  0.00000000000E+00 0. -1.
<scales pt_clust_5="13000.00000" pt_clust_6="13000.00000" pt_clust_7="13000.00000" pt_clust_8="13000.00000" pt_clust_9="87.14040"></scales>
<clustering>
<clus scale="   81.106">  5  6 -1 -1</clus>
<clus scale="   87.140">  2  9  1 -1</clus>
<clus scale="   91.709">  7  8 -1 -1</clus>
<clus scale="   91.841">  2  5  1 -1</clus>
<clus scale="   87.140">  2  5  1 -1</clus>
</clustering>
</event>
<event>
 9    1  0.7835476E-005  0.1057014E+03  0.7546771E-02  0.1270153E+00
          1   -1    0    0  502    0 -0.00000000000E+00  0.00000000000E+00  0.60949471239E+02  0.60949471239E+02  0.00000000000E+00 0. -1.
         21   -1    0    0  501  502  0.00000000000E+00 -0.00000000000E+00 -0.32299607784E+03  0.32299607784E+03  0.00000000000E+00 0. -1.
        -24    2    1    2    0    0 -0.14433344943E+02  0.57733464608E+02 -0.70514328545E+02  0.12273208381E+03  0.80928483757E+02 0.  0.
         23    2    1    2    0    0 -0.43162912295E+02 -0.70605231170E+02 -0.12030954658E+03  0.16871649937E+03  0.84514699878E+02 0.  0.
         13    1    3    3    0    0 -0.33831805122E+02  0.44751080941E+02 -0.88453080426E+01  0.56793395369E+02  0.00000000000E+00 0. -1.
        -14    1    3    3    0    0  0.19398460179E+02  0.12982383667E+02 -0.61669020502E+02  0.65938688436E+02  0.00000000000E+00 0.  1.
        -11    1    4    4    0    0  0.82229009366E+01 -0.57806571820E+02 -0.34317515967E+02  0.67726713692E+02  0.00000000000E+00 0. -1.
         11    1    4    4    0    0 -0.51385813232E+02 -0.12798659350E+02 -0.85992030611E+02  0.10098978568E+03  0.00000000000E+00 0.  1.
          2    1    1    2  501    0  0.57596257239E+02  0.12871766562E+02 -0.71222731478E+02  0.92496965905E+02  0.00000000000E+00 0. -1.
<scales pt_clust_5="13000.00000" pt_clust_6="13000.00000" pt_clust_7="13000.00000" pt_clust_8="13000.00000" pt_clust_9="59.01704"></scales>
<clustering>
<clus scale="   59.017">  2  9  1 -1</clus>
<clus scale="   80.928">  5  6 -1 -1</clus>
<clus scale="   84.515">  7  8 -1 -1</clus>
<clus scale="  102.857">  1  5  2 -1</clus>
<clus scale="   59.017">  2  5  1 -1</clus>
</clustering>
</event>
<event>
 9    1  0.7835476E-005  0.1470452E+03  0.7546771E-02  0.1233229E+00
         21   -1    0    0  501  502  0.00000000000E+00  0.00000000000E+00  0.59664393004E+03  0.59664393004E+03  0.00000000000E+00 0.  1.
         -4   -1    0    0    0  501 -0.00000000000E+00 -0.00000000000E+00 -0.36121312353E+03  0.36121312353E+03  0.00000000000E+00 0.  1.
        -24    2    1    2    0    0 -0.34470470550E+01 -0.12430514201E+02 -0.27811007528E+03  0.28931593694E+03  0.78689882319E+02 0.  0.
         23    2    1    2    0    0  0.74417846555E+02  0.10439401722E+03  0.15040247479E+02  0.15668466929E+03  0.88813004835E+02 0.  0.
         11    1    3    3    0    0 -0.37044183021E+02  0.63627167858E+01 -0.94236662222E+02  0.10145592229E+03  0.00000000000E+00 0. -1.
        -12    1    3    3    0    0  0.33597135966E+02 -0.18793230987E+02 -0.18387341306E+03  0.18786001465E+03  0.00000000000E+00 0.  1.
        -13    1    4    4    0    0 -0.17306219577E+02  0.19738977317E+02 -0.12168571980E+02  0.28934522730E+02  0.00000000000E+00 0. -1.
         13    1    4    4    0    0  0.91724066133E+02  0.84655039908E+02  0.27208819459E+02  0.12775014656E+03  0.00000000000E+00 0.  1.
         -3    1    1    2    0  502 -0.70970799500E+02 -0.91963503024E+02  0.49850063431E+03  0.51185644734E+03  0.00000000000E+00 0.  1.
<scales pt_clust_5="13000.00000" pt_clust_6="13000.00000" pt_clust_7="13000.00000" pt_clust_8="13000.00000" pt_clust_9="117.19445"></scales>
<clustering>
<clus scale="   78.690">  5  6 -1 -1</clus>
<clus scale="   79.740">  2  5  1 -1</clus>
<clus scale="   88.813">  7  8 -1 -1</clus>
<clus scale="  117.194">  1  9  2 -1</clus>
<clus scale="  117.194">  1  5  2 -1</clus>
</clustering>
</event>
<event>
 9    1  0.7835476E-005  0.1146410E+03  0.7546771E-02  0.1256696E+00
          1   -1    0    0  502    0 -0.00000000000E+00  0.00000000000E+00  0.53517875403E+03  0.53517875403E+03  0.00000000000E+00 0. -1.
         21   -1    0    0  501  502  0.00000000000E+00 -0.00000000000E+00 -0.13000781674E+03  0.13000781674E+03  0.00000000000E+00 0. -1.
        -24    2    1    2    0    0  0.14170771804E+02  0.74416688047E+02  0.27127951064E+03  0.29257747189E+03  0.79185541180E+02 0.  0.
         23    2    1    2    0    0  0.57209901553E+02 -0.62466291979E+01 -0.81601566513E+02  0.13558676332E+03  0.91722197516E+02 0.  0.
         13    1    3    3    0    0  0.38490118528E+02  0.71090478087E+02  0.16824256546E+03  0.18665718880E+03  0.00000000000E+00 0. -1.
        -14    1    3    3    0    0 -0.24319346724E+02  0.33262099602E+01  0.10303694517E+03  0.10592028308E+03  0.00000000000E+00 0.  1.
        -11    1    4    4    0    0  0.27114986747E+02 -0.23623361422E+02  0.10238870050E+02  0.37391445159E+02  0.00000000000E+00 0.  1.
         11    1    4    4    0    0  0.30094914806E+02  0.17376732224E+02 -0.91840436563E+02  0.98195318158E+02  0.00000000000E+00 0. -1.
          2    1    1    2  501    0 -0.71380673357E+02 -0.68170058849E+02  0.21549299317E+03  0.23702233557E+03  0.00000000000E+00 0. -1.
<scales pt_clust_5="13000.00000" pt_clust_6="13000.00000" pt_clust_7="13000.00000" pt_clust_8="13000.00000" pt_clust_9="98.70343"></scales>
<clustering>
<clus scale="   79.186">  5  6 -1 -1</clus>
<clus scale="   91.722">  7  8 -1 -1</clus>
<clus scale="   98.703">  2  9  1 -1</clus>
<clus scale="  104.881">  1  5  2 -1</clus>
<clus scale="   98.703">  2  5  1 -1</clus>
</clustering>
</event>
<event>
 9    1  0.7835476E-005  0.8418208E+02  0.7546771E-02  0.1318506E+00
         21   -1    0    0  501  502  0.00000000000E+00  0.00000000000E+00  0.36811032931E+02  0.36811032931E+02  0.00000000000E+00 0. -1.
          1   -1    0    0  502    0 -0.00000000000E+00 -0.00000000000E+00 -0.53066307514E+03  0.53066307514E+03  0.00000000000E+00 0. -1.
        -24    2    1    2    0    0 -0.22020126294E+02 -0.17839725145E+01 -0.39673061539E+03  0.40524639763E+03  0.79632864312E+02 0.  0.
         23    2    1    2    0    0  0.55356009975E+02 -0.23732331245E+01 -0.78141776632E+02  0.12364286082E+03  0.78176081381E+02 0.  0.
         11    1    3    3    0    0  0.17290557033E+02 -0.25401182649E+02 -0.89869825091E+02  0.94977728465E+02  0.00000000000E+00 0. -1.
        -12    1    3    3    0    0 -0.39310683327E+02  0.23617210134E+02 -0.30686079030E+03  0.31026866916E+03  0.00000000000E+00 0.  1.
        -11    1    4    4    0    0  0.47705357149E+01  0.32294436504E+02 -0.39137453873E+02  0.50964977541E+02  0.00000000000E+00 0.  1.
         11    1    4    4    0    0  0.50585474260E+02 -0.34667669628E+02 -0.39004322758E+02  0.72677883275E+02  0.00000000000E+00 0. -1.
          2    1    1    2  501    0 -0.33335883681E+02  0.41572056389E+01 -0.18979650180E+02  0.38584849623E+02  0.00000000000E+00 0. -1.
<scales pt_clust_5="13000.00000" pt_clust_6="13000.00000" pt_clust_7="13000.00000" pt_clust_8="13000.00000" pt_clust_9="33.59410"></scales>
<clustering>
<clus scale="   33.594">  1  9  2 -1</clus>
<clus scale="   78.176">  7  8 -1 -1</clus>
<clus scale="   79.633">  5  6 -1 -1</clus>
<clus scale="   82.805">  1  7  2 -1</clus>
<clus scale="   33.594">  1  5  2 -1</clus>
</clustering>
</event>
<event>
 9    1  0.7835476E-005  0.1783674E+03  0.7546771E-02  0.1180851E+00
          1   -1    0    0  502    0 -0.00000000000E+00  0.00000000000E+00  0.61941781113E+03  0.61941781113E+03  0.00000000000E+00 0. -1.
         21   -1    0    0  501  502  0.00000000000E+00 -0.00000000000E+00 -0.16335696561E+03  0.16335696561E+03  0.00000000000E+00 0. -1.
         23    2    1    2    0    0 -0.59134804952E+02 -0.85897930061E+02  0.30066860691E+03  0.33064323876E+03  0.89710426421E+02 0.  0.
        -24    2    1    2    0    0  0.20014601177E+03  0.11566626856E+03  0.18297068073E+03  0.30539747617E+03  0.79700920503E+02 0.  0.
         11    1    4    4    0    0  0.10306647751E+03  0.87895671059E+02  0.14252203533E+03  0.19662369728E+03  0.00000000000E+00 0. -1.
        -12    1    4    4    0    0  0.97079534261E+02  0.27770597505E+02  0.40448645403E+02  0.10877377889E+03  0.00000000000E+00 0.  1.
        -11    1    3    3    0    0 -0.34816851056E+02 -0.10186693681E+03  0.25044770839E+03  0.27260436639E+03  0.00000000000E+00 0.  1.
         11    1    3    3    0    0 -0.24317953897E+02  0.15969006750E+02  0.50220898518E+02  0.58038872373E+02  0.00000000000E+00 0. -1.
          2    1    1    2  501    0 -0.14101120682E+03 -0.29768338503E+02 -0.27578442123E+02  0.14673406181E+03  0.00000000000E+00 0. -1.
<scales pt_clust_5="13000.00000" pt_clust_6="13000.00000" pt_clust_7="13000.00000" pt_clust_8="13000.00000" pt_clust_9="159.57034"></scales>
<clustering>
<clus scale="   79.701">  5  6 -1 -1</clus>
<clus scale="   89.710">  7  8 -1 -1</clus>
<clus scale="  137.562">  1  7  2 -1</clus>
<clus scale="  159.570">  2  9  1 -1</clus>
<clus scale="  159.570">  2  5  1 -1</clus>
</clustering>
</event>
<event>
 9    1  0.7835476E-005  0.9957179E+02  0.7546771E-02  0.1286852E+00
         -4   -1    0    0    0  501 -0.00000000000E+00  0.00000000000E+00  0.36745436944E+03  0.36745436944E+03  0.00000000000E+00 0.  1.
         21   -1    0    0  501  502  0.00000000000E+00 -0.00000000000E+00 -0.88549518945E+02  0.88549518945E+02  0.00000000000E+00 0. -1.
        -24    2    1    2    0    0  0.23602626986E+02 -0.33683668024E+02  0.30387791442E+03  0.31715729507E+03  0.80964741996E+02 0.  0.
         23    2    1    2    0    0 -0.21384035084E+02  0.72152297183E+01  0.96413152654E+01  0.95215691156E+02  0.91998567303E+02 0.  0.
         13    1    3    3    0    0  0.52999707294E+02 -0.16494638656E+02  0.21283660040E+03  0.21995558767E+03  0.00000000000E+00 0. -1.
        -14    1    3    3    0    0 -0.29397080308E+02 -0.17189029369E+02  0.91041314020E+02  0.97201707392E+02  0.00000000000E+00 0.  1.
        -13    1    4    4    0    0  0.10933727159E+01 -0.38775306388E+02 -0.10531189006E+02  0.40194847820E+02  0.00000000000E+00 0.  1.
         13    1    4    4    0    0 -0.22477407800E+02  0.45990536107E+02  0.20172504271E+02  0.55020843335E+02  0.00000000000E+00 0. -1.
         -3    1    1    2    0  502 -0.22185919023E+01  0.26468438306E+02 -0.34614379196E+02  0.43630902163E+02  0.00000000000E+00 0.  1.
<scales pt_clust_5="13000.00000" pt_clust_6="13000.00000" pt_clust_7="13000.00000" pt_clust_8="13000.00000" pt_clust_9="26.56126"></scales>
<clustering>
<clus scale="   26.561">  2  9  1 -1</clus>
<clus scale="   80.965">  5  6 -1 -1</clus>
<clus scale="   89.477">  1  5  2 -1</clus>
<clus scale="   91.999">  7  8 -1 -1</clus>
<clus scale="   26.561">  2  5  1 -1</clus>
</clustering>
</event>
<event>
 9    1  0.7835476E-005  0.1141948E+03  0.7546771E-02  0.1258841E+00
          1   -1    0    0  502    0 -0.00000000000E+00  0.00000000000E+00  0.61421782364E+03  0.61421782364E+03  0.00000000000E+00 0. -1.
         21   -1    0    0  501  502  0.00000000000E+00 -0.00000000000E+00 -0.52833988600E+02  0.52833988600E+02  0.00000000000E+00 0.  1.
         23    2    1    2    0    0 -0.20664082195E+02  0.33310658115E+02  0.11698694809E+03  0.16066614151E+03  0.10291286980E+03 0.  0.
        -24    2    1    2    0    0 -0.80078839130E+02 -0.47351507734E+02  0.14486417097E+03  0.19005336191E+03  0.80497618481E+02 0.  0.
         11    1    4    4    0    0  0.70653708974E+01 -0.23472799984E+02  0.74986025403E+01  0.25634368435E+02  0.00000000000E+00 0. -1.
        -12    1    4    4    0    0 -0.87144210027E+02 -0.23878707750E+02  0.13736556842E+03  0.16441899347E+03  0.00000000000E+00 0.  1.
        -13    1    3    3    0    0 -0.34786992478E+02  0.60380800476E+02  0.46292253394E+02  0.83659719316E+02  0.00000000000E+00 0.  1.
         13    1    3    3    0    0  0.14122910283E+02 -0.27070142360E+02  0.70694694692E+02  0.77006422199E+02  0.00000000000E+00 0. -1.
          2    1    1    2  501    0  0.10074292132E+03  0.14040849619E+02  0.29953271599E+03  0.31633230882E+03  0.00000000000E+00 0. -1.
<scales pt_clust_5="13000.00000" pt_clust_6="13000.00000" pt_clust_7="13000.00000" pt_clust_8="13000.00000" pt_clust_9="101.71672"></scales>
<clustering>
<clus scale="   80.498">  5  6 -1 -1</clus>
<clus scale="  101.717">  2  9  1 -1</clus>
<clus scale="  101.717">  2  5  1 -1</clus>
<clus scale="  102.913">  7  8 -1 -1</clus>
<clus scale="  101.717">  2  5  1 -1</clus>
</clustering>
</event>
<event>
 9    1  0.7835476E-005  0.1083822E+03  0.7546771E-02  0.1267281E+00
         21   -1    0    0  501  502  0.00000000000E+00  0.00000000000E+00  0.31971395088E+02  0.31971395088E+02  0.00000000000E+00 0. -1.
          1   -1    0    0  502    0 -0.00000000000E+00 -0.00000000000E+00 -0.48720138138E+03  0.48720138138E+03  0.00000000000E+00 0. -1.
         23    2    1    2    0    0  0.38187296923E+02 -0.27630448426E+02 -0.27138158998E+03  0.29072986656E+03  0.93027827057E+02 0.  0.
        -24    2    1    2    0    0 -0.55325341224E+02  0.42455346772E+02 -0.16929431403E+03  0.20151130236E+03  0.84159909502E+02 0.  0.
         11    1    4    4    0    0 -0.34468921489E+02 -0.20616895945E+02 -0.43189516225E+02  0.58978786515E+02  0.00000000000E+00 0. -1.
        -12    1    4    4    0    0 -0.20856419734E+02  0.63072242717E+02 -0.12610479780E+03  0.14253251585E+03  0.00000000000E+00 0.  1.
        -13    1    3    3    0    0  0.55154291573E+02  0.13806961961E+02 -0.18337900442E+03  0.19199085223E+03  0.00000000000E+00 0.  1.
         13    1    3    3    0    0 -0.16966994649E+02 -0.41437410387E+02 -0.88002585553E+02  0.98739014331E+02  0.00000000000E+00 0. -1.
          2    1    1    2  501    0  0.17138044300E+02 -0.14824898346E+02 -0.14554082286E+02  0.26931607538E+02  0.00000000000E+00 0. -1.
<scales pt_clust_5="13000.00000" pt_clust_6="13000.00000" pt_clust_7="13000.00000" pt_clust_8="13000.00000" pt_clust_9="22.66032"></scales>
<clustering>
<clus scale="   22.660">  1  9  2 -1</clus>
<clus scale="   84.160">  5  6 -1 -1</clus>
<clus scale="   93.028">  7  8 -1 -1</clus>
<clus scale="  100.873">  1  5  2 -1</clus>
<clus scale="   22.660">  1  5  2 -1</clus>
</clustering>
</event>
<event>
 9    1  0.7835476E-005  0.1517221E+03  0.7546771E-02  0.1227167E+00
         21   -1    0    0  501  502  0.00000000000E+00  0.00000000000E+00  0.66003186345E+02  0.66003186345E+02  0.00000000000E+00 0.  1.
          1   -1    0    0  502    0 -0.00000000000E+00 -0.00000000000E+00 -0.74364092535E+03  0.74364092535E+03  0.00000000000E+00 0. -1.
        -24    2    1    2    0    0  0.13951723984E+02  0.12958702151E+02 -0.23077632066E+02  0.85442941733E+02  0.80033371956E+02 0.  0.
         23    2    1    2    0    0 -0.11169717941E+03  0.49614980200E+02 -0.18425730393E+03  0.23978980934E+03  0.92792739291E+02 0.  0.
         13    1    3    3    0    0 -0.52110516549E+01 -0.29048590554E+02  0.70096526997E+01  0.30333329911E+02  0.00000000000E+00 0. -1.
        -14    1    3    3    0    0  0.19162775639E+02  0.42007292705E+02 -0.30087284766E+02  0.55109611822E+02  0.00000000000E+00 0.  1.
        -13    1    4    4    0    0 -0.93906236534E+02  0.90274383990E+01 -0.16783033291E+03  0.19252765139E+03  0.00000000000E+00 0.  1.
         13    1    4    4    0    0 -0.17790942875E+02  0.40587541801E+02 -0.16426971022E+02  0.47262157958E+02  0.00000000000E+00 0. -1.
          2    1    1    2  501    0  0.97745455425E+02 -0.62573682351E+02 -0.47030280301E+03  0.48441136062E+03  0.00000000000E+00 0. -1.
<scales pt_clust_5="13000.00000" pt_clust_6="13000.00000" pt_clust_7="13000.00000" pt_clust_8="13000.00000" pt_clust_9="120.03803"></scales>
<clustering>
<clus scale="   80.033">  5  6 -1 -1</clus>
<clus scale="   82.267">  2  5  1 -1</clus>
<clus scale="   92.793">  7  8 -1 -1</clus>
<clus scale="  120.038">  1  9  2 -1</clus>
<clus scale="  120.038">  1  5  2 -1</clus>
</clustering>
</event>
<event>
 9    1  0.7835476E-005  0.1118001E+03  0.7546771E-02  0.1262945E+00
         21   -1    0    0  501  502  0.00000000000E+00  0.00000000000E+00  0.51339685316E+02  0.51339685316E+02  0.00000000000E+00 0.  1.
         -2   -1    0    0    0  501 -0.00000000000E+00 -0.00000000000E+00 -0.63653536986E+03  0.63653536986E+03  0.00000000000E+00 0.  1.
        -24    2    1    2    0    0  0.24296155220E+02 -0.55910626326E+02 -0.52434316352E+03  0.53423291243E+03  0.82175119758E+02 0.  0.
         23    2    1    2    0    0 -0.84299477803E+01  0.35013120925E+02 -0.71695980399E+02  0.12525160063E+03  0.96180388845E+02 0.  0.
         13    1    3    3    0    0  0.22745151346E+01  0.21610047895E+02 -0.11236272969E+03  0.11444453072E+03  0.00000000000E+00 0. -1.
        -14    1    3    3    0    0  0.22021640085E+02 -0.77520674221E+02 -0.41198043383E+03  0.41978838171E+03  0.00000000000E+00 0.  1.
        -13    1    4    4    0    0 -0.40826261969E+02  0.34934731121E+02 -0.75461342867E+02  0.92637105807E+02  0.00000000000E+00 0. -1.
         13    1    4    4    0    0  0.32396314189E+02  0.78389803974E-01  0.37653624687E+01  0.32614494822E+02  0.00000000000E+00 0.  1.
         -1    1    1    2    0  502 -0.15866207440E+02  0.20897505401E+02  0.10843459368E+02  0.28390542115E+02  0.00000000000E+00 0.  1.
<scales pt_clust_5="13000.00000" pt_clust_6="13000.00000" pt_clust_7="13000.00000" pt_clust_8="13000.00000" pt_clust_9="26.23818"></scales>
<clustering>
<clus scale="   26.238">  1  9  2 -1</clus>
<clus scale="   82.175">  5  6 -1 -1</clus>
<clus scale="   96.180">  7  8 -1 -1</clus>
<clus scale="  100.007">  2  5  1 -1</clus>
<clus scale="   26.238">  1  5  2 -1</clus>
</clustering>
</event>
<event>
 9    1  0.7835476E-005  0.1378681E+03  0.7546771E-02  0.1217774E+00
         21   -1    0    0  501  502  0.00000000000E+00  0.00000000000E+00  0.11198725653E+03  0.11198725653E+03  0.00000000000E+00 0. -1.
          1   -1    0    0  502    0 -0.00000000000E+00 -0.00000000000E+00 -0.33818762121E+03  0.33818762121E+03  0.00000000000E+00 0. -1.
         23    2    1    2    0    0  0.89124160706E+02  0.72323589821E+02 -0.21375627995E+03  0.25880950084E+03  0.90093245265E+02 0.  0.
        -24    2    1    2    0    0 -0.38315868555E+02 -0.82388704509E+02 -0.43906549258E+02  0.13076277169E+03  0.83157158317E+02 0.  0.
         13    1    4    4    0    0  0.97992568569E+01 -0.62896220720E+02 -0.14053965756E+01  0.63670520300E+02  0.00000000000E+00 0. -1.
        -14    1    4    4    0    0 -0.48115125412E+02 -0.19492483789E+02 -0.42501152682E+02  0.67092251393E+02  0.00000000000E+00 0.  1.
        -11    1    3    3    0    0  0.55581902366E+02  0.51985010141E+02 -0.20492596909E+03  0.21860110237E+03  0.00000000000E+00 0. -1.
         11    1    3    3    0    0  0.33542258340E+02  0.20338579680E+02 -0.88303108612E+01  0.40208398474E+02  0.00000000000E+00 0.  1.
          2    1    1    2  501    0 -0.50808292151E+02  0.10065114688E+02  0.31462464524E+02  0.60602605216E+02  0.00000000000E+00 0. -1.
<scales pt_clust_5="13000.00000" pt_clust_6="13000.00000" pt_clust_7="13000.00000" pt_clust_8="13000.00000" pt_clust_9="51.79565"></scales>
<clustering>
<clus scale="   51.796">  1  9  2 -1</clus>
<clus scale="   83.157">  5  6 -1 -1</clus>
<clus scale="   90.093">  7  8 -1 -1</clus>
<clus scale="  133.439">  1  5  2 -1</clus>
<clus scale="   51.796">  1  5  2 -1</clus>
</clustering>
</event>
<event>
 9    1  0.8883711E-005  0.8959870E+02  0.7546771E-02  0.1304215E+00
         21   -1    0    0  501  502  0.00000000000E+00  0.00000000000E+00  0.11795764643E+03  0.11795764643E+03  0.00000000000E+00 0.  1.
          1   -1    0    0  502    0 -0.00000000000E+00 -0.00000000000E+00 -0.35677646015E+03  0.35677646015E+03  0.00000000000E+00 0. -1.
         23    2    1    2    0    0 -0.33458814250E+02 -0.37458496824E+02 -0.63880752812E+02  0.11489034900E+03  0.81218289062E+02 0.  0.
        -24    2    1    2    0    0  0.32260381856E+02 -0.46180789836E+02  0.56778571491E+02  0.11349123731E+03  0.80517434000E+02 0.  0.
         13    1    4    4    0    0  0.28539375264E+02 -0.10642535881E+02 -0.14517547624E+02  0.33741942734E+02  0.00000000000E+00 0. -1.
        -14    1    4    4    0    0  0.37210065911E+01 -0.35538253955E+02  0.71296119115E+02  0.79749294574E+02  0.00000000000E+00 0.  1.
        -11    1    3    3    0    0 -0.58790707319E+02 -0.33309450279E+02 -0.34478038613E+02  0.75859092346E+02  0.00000000000E+00 0. -1.
         11    1    3    3    0    0  0.25331893069E+02 -0.41490465457E+01 -0.29402714199E+02  0.39031256654E+02  0.00000000000E+00 0.  1.
          2    1    1    2  501    0  0.11984323940E+01  0.83639286660E+02 -0.23171663240E+03  0.24635252027E+03  0.00000000000E+00 0. -1.
<scales pt_clust_5="13000.00000" pt_clust_6="13000.00000" pt_clust_7="13000.00000" pt_clust_8="13000.00000" pt_clust_9="83.64791"></scales>
<clustering>
<clus scale="   80.517">  5  6 -1 -1</clus>
<clus scale="   81.218">  7  8 -1 -1</clus>
<clus scale="   83.648">  1  9  2 -1</clus>
<clus scale="   88.964">  1  5  2 -1</clus>
<clus scale="   83.648">  1  5  2 -1</clus>
</clustering>
</event>
<event>
 9    1  0.7835476E-005  0.3174159E+03  0.7546771E-02  0.1099991E+00
         -4   -1    0    0    0  501 -0.00000000000E+00  0.00000000000E+00  0.65557824406E+03  0.65557824406E+03  0.00000000000E+00 0.  1.
         21   -1    0    0  501  502  0.00000000000E+00 -0.00000000000E+00 -0.26786844387E+03  0.26786844387E+03  0.00000000000E+00 0. -1.
         23    2    1    2    0    0  0.52731999476E+01  0.14596964564E+03  0.11943968559E+03  0.20925518478E+03  0.90481764884E+02 0.  0.
        -24    2    1    2    0    0 -0.28591961648E+03 -0.17300979323E+03  0.29744388904E+02  0.34488390437E+03  0.79860898943E+02 0.  0.
         13    1    4    4    0    0 -0.18847444178E+03 -0.68499825256E+02  0.11999074593E+02  0.20089504488E+03  0.00000000000E+00 0. -1.
        -14    1    4    4    0    0 -0.97445174702E+02 -0.10450996797E+03  0.17745314312E+02  0.14398885950E+03  0.00000000000E+00 0.  1.
        -13    1    3    3    0    0  0.22405574901E+02  0.13077483187E+03  0.12842670133E+03  0.18465504069E+03  0.00000000000E+00 0. -1.
         13    1    3    3    0    0 -0.17132374953E+02  0.15194813775E+02 -0.89870157453E+01  0.24600144089E+02  0.00000000000E+00 0.  1.
         -3    1    1    2    0  502  0.28064641654E+03  0.27040147587E+02  0.23852572570E+03  0.36930759878E+03  0.00000000000E+00 0.  1.
<scales pt_clust_5="13000.00000" pt_clust_6="13000.00000" pt_clust_7="13000.00000" pt_clust_8="13000.00000" pt_clust_9="307.20544"></scales>
<clustering>
<clus scale="   79.861">  5  6 -1 -1</clus>
<clus scale="   90.482">  7  8 -1 -1</clus>
<clus scale="  171.819">  1  7  2 -1</clus>
<clus scale="  307.205">  2  9  1 -1</clus>
<clus scale="  307.205">  2  5  1 -1</clus>
</clustering>
</event>
<event>
 9    1  0.7835476E-005  0.1857294E+03  0.7546771E-02  0.1180372E+00
         21   -1    0    0  501  502  0.00000000000E+00  0.00000000000E+00  0.36606840272E+03  0.36606840272E+03  0.00000000000E+00 0. -1.
          1   -1    0    0  502    0 -0.00000000000E+00 -0.00000000000E+00 -0.30307312368E+03  0.30307312368E+03  0.00000000000E+00 0. -1.
        -24    2    1    2    0    0 -0.35363336974E+02  0.87058384151E+02 -0.16842518181E+03  0.20865254711E+03  0.79618563759E+02 0.  0.
         23    2    1    2    0    0  0.93930409879E+01  0.96595418314E+02 -0.33886950365E+02  0.13677429337E+03  0.90221825873E+02 0.  0.
         11    1    3    3    0    0 -0.59790641731E+02  0.71707527758E+02 -0.13898569430E+03  0.16743331089E+03  0.00000000000E+00 0. -1.
        -12    1    3    3    0    0  0.24427304757E+02  0.15350856393E+02 -0.29439487509E+02  0.41219236219E+02  0.00000000000E+00 0.  1.
        -13    1    4    4    0    0 -0.39303559780E+02  0.43864281178E+02 -0.26610551596E+02  0.64629454824E+02  0.00000000000E+00 0.  1.
         13    1    4    4    0    0  0.48696600767E+02  0.52731137136E+02 -0.72763987693E+01  0.72144838547E+02  0.00000000000E+00 0. -1.
          2    1    1    2  501    0  0.25970295986E+02 -0.18365380247E+03  0.26530741122E+03  0.32371468592E+03  0.00000000000E+00 0. -1.
<scales pt_clust_5="13000.00000" pt_clust_6="13000.00000" pt_clust_7="13000.00000" pt_clust_8="13000.00000" pt_clust_9="162.34354"></scales>
<clustering>
<clus scale="   79.619">  5  6 -1 -1</clus>
<clus scale="   90.222">  7  8 -1 -1</clus>
<clus scale="  123.162">  2  5  1 -1</clus>
<clus scale="  162.344">  1  9  2 -1</clus>
<clus scale="  162.344">  1  5  2 -1</clus>
</clustering>
</event>
<event>
 9    1  0.7835476E-005  0.1750317E+03  0.7546771E-02  0.1174198E+00
         21   -1    0    0  501  502  0.00000000000E+00  0.00000000000E+00  0.11977527205E+03  0.11977527205E+03  0.00000000000E+00 0. -1.
          3   -1    0    0  502    0 -0.00000000000E+00 -0.00000000000E+00 -0.31301834977E+03  0.31301834977E+03  0.00000000000E+00 0. -1.
        -24    2    1    2    0    0  0.13585899228E+03 -0.22555332978E+02 -0.55772327672E+02  0.16937084442E+03  0.81298964168E+02 0.  0.
         23    2    1    2    0    0 -0.15772826854E+03  0.25448682863E+02 -0.79099771751E+02  0.20102239420E+03  0.92883727983E+02 0.  0.
         13    1    3    3    0    0  0.12399993028E+03 -0.22724275423E+02 -0.15054290404E+02  0.12696065163E+03  0.00000000000E+00 0. -1.
        -14    1    3    3    0    0  0.11859062002E+02  0.16894244459E+00 -0.40718037268E+02  0.42410192786E+02  0.00000000000E+00 0.  1.
        -11    1    4    4    0    0 -0.87283398032E+02 -0.22873202372E+02 -0.71751481460E+02  0.11528161194E+03  0.00000000000E+00 0. -1.
         11    1    4    4    0    0 -0.70444870507E+02  0.48321885236E+02 -0.73482902909E+01  0.85740782267E+02  0.00000000000E+00 0.  1.
          4    1    1    2  501    0  0.21869276256E+02 -0.28933498851E+01 -0.58370978294E+02  0.62400383208E+02  0.00000000000E+00 0. -1.
<scales pt_clust_5="13000.00000" pt_clust_6="13000.00000" pt_clust_7="13000.00000" pt_clust_8="13000.00000" pt_clust_9="22.05986"></scales>
<clustering>
<clus scale="   22.060">  1  9  2 -1</clus>
<clus scale="   81.299">  5  6 -1 -1</clus>
<clus scale="   92.884">  7  8 -1 -1</clus>
<clus scale="  169.169">  2  5  1 -1</clus>
<clus scale="   22.060">  1  5  2 -1</clus>
</clustering>
</event>
<event>
 9    1  0.7835476E-005  0.1578745E+03  0.7546771E-02  0.1193034E+00
         21   -1    0    0  501  502  0.00000000000E+00  0.00000000000E+00  0.81914894070E+03  0.81914894070E+03  0.00000000000E+00 0. -1.
          3   -1    0    0  502    0 -0.00000000000E+00 -0.00000000000E+00 -0.34676153732E+03  0.34676153732E+03  0.00000000000E+00 0. -1.
        -24    2    1    2    0    0 -0.12911688784E+03  0.32242203618E+00 -0.27649465396E+03  0.31537682301E+03  0.79636500034E+02 0.  0.
         23    2    1    2    0    0  0.11227241399E+03 -0.14280654393E+03  0.63675023734E+03  0.66843750912E+03  0.91427757896E+02 0.  0.
         11    1    3    3    0    0 -0.13965554630E+03  0.43487918307E+01 -0.26279082983E+03  0.29762661817E+03  0.00000000000E+00 0. -1.
        -12    1    3    3    0    0  0.10538658456E+02 -0.40263697945E+01 -0.13703824132E+02  0.17750204833E+02  0.00000000000E+00 0.  1.
        -13    1    4    4    0    0  0.46606491230E+02 -0.10771598457E+03  0.49025410802E+03  0.50410712035E+03  0.00000000000E+00 0. -1.
         13    1    4    4    0    0  0.65665922756E+02 -0.35090559358E+02  0.14649612932E+03  0.16433038877E+03  0.00000000000E+00 0.  1.
          4    1    1    2  501    0  0.16844473858E+02  0.14248412189E+03  0.11213182000E+03  0.18209614589E+03  0.00000000000E+00 0. -1.
<scales pt_clust_5="13000.00000" pt_clust_6="13000.00000" pt_clust_7="13000.00000" pt_clust_8="13000.00000" pt_clust_9="143.47634"></scales>
<clustering>
<clus scale="   79.637">  5  6 -1 -1</clus>
<clus scale="   91.428">  7  8 -1 -1</clus>
<clus scale="  143.476">  1  9  2 -1</clus>
<clus scale="  151.352">  2  5  1 -1</clus>
<clus scale="  143.476">  1  5  2 -1</clus>
</clustering>
</event>
<event>
 9    1  0.7835476E-005  0.9718492E+02  0.7546771E-02  0.1292969E+00
         21   -1    0    0  501  502  0.00000000000E+00  0.00000000000E+00  0.44736293176E+02  0.44736293176E+02  0.00000000000E+00 0. -1.
          1   -1    0    0  502    0 -0.00000000000E+00 -0.00000000000E+00 -0.54478086929E+03  0.54478086929E+03  0.00000000000E+00 0. -1.
         23    2    1    2    0    0 -0.19972617288E+01  0.47058361767E+02 -0.32184592624E+03  0.33778397879E+03  0.91075450143E+02 0.  0.
        -24    2    1    2    0    0  0.57994100682E+01  0.16815552618E+02 -0.23244865495E+02  0.84087698912E+02  0.78829064243E+02 0.  0.
         13    1    4    4    0    0  0.32290521031E+02 -0.16070860488E+02 -0.39038384632E+00  0.36070801278E+02  0.00000000000E+00 0. -1.
        -14    1    4    4    0    0 -0.26491110963E+02  0.32886413106E+02 -0.22854481649E+02  0.48016897635E+02  0.00000000000E+00 0.  1.
        -13    1    3    3    0    0  0.15258019039E+02 -0.24299929900E+02 -0.10486431426E+03  0.10871898704E+03  0.00000000000E+00 0.  1.
         13    1    3    3    0    0 -0.17255280768E+02  0.71358291668E+02 -0.21698161198E+03  0.22906499174E+03  0.00000000000E+00 0. -1.
          2    1    1    2  501    0 -0.38021483394E+01 -0.63873914386E+02 -0.15495378438E+03  0.16764548477E+03  0.00000000000E+00 0. -1.
<scales pt_clust_5="13000.00000" pt_clust_6="13000.00000" pt_clust_7="13000.00000" pt_clust_8="13000.00000" pt_clust_9="63.98701"></scales>
<clustering>
<clus scale="   63.987">  1  9  2 -1</clus>
<clus scale="   78.829">  5  6 -1 -1</clus>
<clus scale="   85.815">  1  5  2 -1</clus>
<clus scale="   91.075">  7  8 -1 -1</clus>
<clus scale="   63.987">  1  5  2 -1</clus>
</clustering>
</event>
<event>
 9    1  0.7835476E-005  0.1442481E+03  0.7546771E-02  0.1226301E+00
         21   -1    0    0  501  502  0.00000000000E+00  0.00000000000E+00  0.90255412745E+02  0.90255412745E+02  0.00000000000E+00 0. -1.
          1   -1    0    0  502    0 -0.00000000000E+00 -0.00000000000E+00 -0.48621332786E+03  0.48621332786E+03  0.00000000000E+00 0. -1.
         23    2    1    2    0    0  0.39957945596E+02  0.45165317188E+01 -0.12143652598E+03  0.15571220801E+03  0.88783024310E+02 0.  0.
        -24    2    1    2    0    0 -0.86452005078E+02 -0.93184753665E+02 -0.26066674543E+02  0.15288810155E+03  0.80857606789E+02 0.  0.
         11    1    4    4    0    0 -0.46984089680E+02 -0.83156876478E+02  0.13077439639E+02  0.96403268700E+02  0.00000000000E+00 0. -1.
        -12    1    4    4    0    0 -0.39467915398E+02 -0.10027877187E+02 -0.39144114182E+02  0.56484832848E+02  0.00000000000E+00 0.  1.
        -11    1    3    3    0    0  0.60198140461E+02  0.27366364550E+02 -0.73367759875E+02  0.98770249634E+02  0.00000000000E+00 0.  1.
         11    1    3    3    0    0 -0.20240194866E+02 -0.22849832831E+02 -0.48068766105E+02  0.56941958374E+02  0.00000000000E+00 0. -1.
          2    1    1    2  501    0  0.46494059482E+02  0.88668221946E+02 -0.24845471459E+03  0.26786843105E+03  0.00000000000E+00 0. -1.
<scales pt_clust_5="13000.00000" pt_clust_6="13000.00000" pt_clust_7="13000.00000" pt_clust_8="13000.00000" pt_clust_9="119.45536"></scales>
<clustering>
<clus scale="   80.858">  5  6 -1 -1</clus>
<clus scale="   88.783">  7  8 -1 -1</clus>
<clus scale="   97.465">  2  7  1 -1</clus>
<clus scale="  119.455">  1  9  2 -1</clus>
<clus scale="  119.455">  1  5  2 -1</clus>
</clustering>
</event>
<event>
 9    1  0.7835476E-005  0.9534133E+02  0.7546771E-02  0.1292731E+00
          1   -1    0    0  502    0 -0.00000000000E+00  0.00000000000E+00  0.25923298886E+03  0.25923298886E+03  0.00000000000E+00 0. -1.
         21   -1    0    0  501  502  0.00000000000E+00 -0.00000000000E+00 -0.14373176744E+03  0.14373176744E+03  0.00000000000E+00 0.  1.
         23    2    1    2    0    0  0.30136382220E+00  0.36574353044E+02  0.17687075509E+03  0.19961555557E+03  0.85001952329E+02 0.  0.
        -24    2    1    2    0    0  0.27213526942E+02 -0.95834893667E+02 -0.47414746341E+02  0.13653889480E+03  0.80435121251E+02 0.  0.
         11    1    4    4    0    0  0.83640200010E+01 -0.23770775596E+02  0.22940300189E+02  0.34077323483E+02  0.00000000000E+00 0. -1.
        -12    1    4    4    0    0  0.18849506941E+02 -0.72064118072E+02 -0.70355046529E+02  0.10246157132E+03  0.00000000000E+00 0.  1.
        -13    1    3    3    0    0 -0.11064729670E+02 -0.26325757791E+02  0.51293931683E+02  0.58707249922E+02  0.00000000000E+00 0.  1.
         13    1    3    3    0    0  0.11366093492E+02  0.62900110835E+02  0.12557682340E+03  0.14090830565E+03  0.00000000000E+00 0. -1.
          2    1    1    2  501    0 -0.27514890764E+02  0.59260540623E+02 -0.13954787323E+02  0.66810305926E+02  0.00000000000E+00 0. -1.
<scales pt_clust_5="13000.00000" pt_clust_6="13000.00000" pt_clust_7="13000.00000" pt_clust_8="13000.00000" pt_clust_9="65.33667"></scales>
<clustering>
<clus scale="   65.337">  2  9  1 -1</clus>
<clus scale="   80.435">  5  6 -1 -1</clus>
<clus scale="   85.002">  7  8 -1 -1</clus>
<clus scale="   91.293">  2  5  1 -1</clus>
<clus scale="   65.337">  2  5  1 -1</clus>
</clustering>
</event>
<event>
 9    1  0.7835476E-005  0.1048018E+03  0.7546771E-02  0.1275421E+00
         -2   -1    0    0    0  501 -0.00000000000E+00  0.00000000000E+00  0.39147581827E+03  0.39147581827E+03  0.00000000000E+00 0.  1.
         21   -1    0    0  501  502  0.00000000000E+00 -0.00000000000E+00 -0.51057646386E+02  0.51057646386E+02  0.00000000000E+00 0. -1.
         23    2    1    2    0    0  0.45737637674E+02  0.14353163356E+02  0.25437523950E+03  0.27479718425E+03  0.92243076715E+02 0.  0.
        -24    2    1    2    0    0 -0.60027717987E+02  0.68963044452E+01  0.29298650781E+02  0.10548148323E+03  0.81345229884E+02 0.  0.
         13    1    4    4    0    0 -0.35151031793E+02  0.42237754875E+02  0.29274795718E+02  0.62262642389E+02  0.00000000000E+00 0. -1.
        -14    1    4    4    0    0 -0.24876686195E+02 -0.35341450430E+02  0.23855063559E-01  0.43218840840E+02  0.00000000000E+00 0.  1.
        -11    1    3    3    0    0 -0.19660103703E+01 -0.29142499174E+02  0.32387265508E+02  0.43612904306E+02  0.00000000000E+00 0. -1.
         11    1    3    3    0    0  0.47703648044E+02  0.43495662530E+02  0.22198797399E+03  0.23118427994E+03  0.00000000000E+00 0.  1.
         -1    1    1    2    0  502  0.14290080314E+02 -0.21249467801E+02  0.56744281606E+02  0.62254797182E+02  0.00000000000E+00 0.  1.
<scales pt_clust_5="13000.00000" pt_clust_6="13000.00000" pt_clust_7="13000.00000" pt_clust_8="13000.00000" pt_clust_9="25.60756"></scales>
<clustering>
<clus scale="   25.608">  2  9  1 -1</clus>
<clus scale="   81.345">  5  6 -1 -1</clus>
<clus scale="   92.243">  7  8 -1 -1</clus>
<clus scale="   95.350">  2  5  1 -1</clus>
<clus scale="   25.608">  2  5  1 -1</clus>
</clustering>
</event>
<event>
 9    1  0.7835476E-005  0.1328965E+03  0.7546771E-02  0.1224236E+00
          3   -1    0    0  502    0 -0.00000000000E+00  0.00000000000E+00  0.13192151863E+03  0.13192151863E+03  0.00000000000E+00 0. -1.
         21   -1    0    0  501  502  0.00000000000E+00 -0.00000000000E+00 -0.18332401778E+03  0.18332401778E+03  0.00000000000E+00 0. -1.
         23    2    1    2    0    0 -0.10489550082E+03 -0.22699344038E+02  0.15616698570E+02  0.13857886169E+03  0.86266408987E+02 0.  0.
        -24    2    1    2    0    0  0.82481244114E+02  0.39155052118E+02 -0.79519138115E+02  0.14617999334E+03  0.81908628302E+02 0.  0.
         13    1    4    4    0    0  0.85822206220E+02  0.33614532199E+01 -0.48122498749E+02  0.98450623838E+02  0.00000000000E+00 0. -1.
        -14    1    4    4    0    0 -0.33409621068E+01  0.35793598898E+02 -0.31396639366E+02  0.47729369505E+02  0.00000000000E+00 0.  1.
        -13    1    3    3    0    0 -0.50606828396E+02 -0.25740705848E+01 -0.35072869642E+02  0.61626156010E+02  0.00000000000E+00 0.  1.
         13    1    3    3    0    0 -0.54288672425E+02 -0.20125273453E+02  0.50689568212E+02  0.76952705675E+02  0.00000000000E+00 0. -1.
          4    1    1    2  501    0  0.22414256708E+02 -0.16455708080E+02  0.12499940390E+02  0.30486681386E+02  0.00000000000E+00 0. -1.
<scales pt_clust_5="13000.00000" pt_clust_6="13000.00000" pt_clust_7="13000.00000" pt_clust_8="13000.00000" pt_clust_9="27.80629"></scales>
<clustering>
<clus scale="   27.806">  2  9  1 -1</clus>
<clus scale="   81.909">  5  6 -1 -1</clus>
<clus scale="   86.266">  7  8 -1 -1</clus>
<clus scale="  130.110">  2  5  1 -1</clus>
<clus scale="   27.806">  2  5  1 -1</clus>
</clustering>
</event>
<event>
 9    1  0.7835476E-005  0.9089706E+02  0.7546771E-02  0.1308295E+00
         21   -1    0    0  501  502  0.00000000000E+00  0.00000000000E+00  0.23293432148E+03  0.23293432148E+03  0.00000000000E+00 0.  1.
          1   -1    0    0  502    0 -0.00000000000E+00 -0.00000000000E+00 -0.83421347147E+02  0.83421347147E+02  0.00000000000E+00 0. -1.
        -24    2    1    2    0    0 -0.10691385951E+02 -0.14308445163E+02 -0.37934688382E+02  0.88520943270E+02  0.77960756013E+02 0.  0.
         23    2    1    2    0    0 -0.22354478056E+02 -0.19575838108E+01  0.13412148970E+03  0.16302505359E+03  0.89916846440E+02 0.  0.
         11    1    3    3    0    0  0.21092193890E+01 -0.34177464227E+02  0.94897316518E+01  0.35533123621E+02  0.00000000000E+00 0. -1.
        -12    1    3    3    0    0 -0.12800605340E+02  0.19869019064E+02 -0.47424420034E+02  0.52987819649E+02  0.00000000000E+00 0.  1.
        -13    1    4    4    0    0  0.10008942774E+02 -0.29802421240E+02  0.10910085708E+03  0.11354012623E+03  0.00000000000E+00 0.  1.
         13    1    4    4    0    0 -0.32363420830E+02  0.27844837429E+02  0.25020632620E+02  0.49484927362E+02  0.00000000000E+00 0. -1.
          2    1    1    2  501    0  0.33045864007E+02  0.16266028974E+02  0.53326173006E+02  0.64809671763E+02  0.00000000000E+00 0. -1.
<scales pt_clust_5="13000.00000" pt_clust_6="13000.00000" pt_clust_7="13000.00000" pt_clust_8="13000.00000" pt_clust_9="36.83223"></scales>
<clustering>
<clus scale="   36.832">  1  9  2 -1</clus>
<clus scale="   77.961">  5  6 -1 -1</clus>
<clus scale="   79.089">  2  5  1 -1</clus>
<clus scale="   89.917">  7  8 -1 -1</clus>
<clus scale="   36.832">  1  5  2 -1</clus>
</clustering>
</event>
<event>
 9    1  0.2251215E-004  0.1009436E+03  0.7546771E-02  0.1283100E+00
         21   -1    0    0  501  502  0.00000000000E+00  0.00000000000E+00  0.33010155101E+03  0.33010155101E+03  0.00000000000E+00 0.  1.
          1   -1    0    0  502    0 -0.00000000000E+00 -0.00000000000E+00 -0.31635267743E+03  0.31635267743E+03  0.00000000000E+00 0. -1.
        -24    2    1    2    0    0  0.23910624344E+02 -0.36069717322E+02 -0.27421791457E+03  0.28914174785E+03  0.80837758588E+02 0.  0.
         23    2    1    2    0    0 -0.56317970832E+02  0.65548253884E+02  0.28737968939E+03  0.31349964105E+03  0.90700891035E+02 0.  0.
         11    1    3    3    0    0  0.41930505634E+02 -0.37552637680E+02 -0.26032205347E+03  0.26633801723E+03  0.00000000000E+00 0. -1.
        -12    1    3    3    0    0 -0.18019881290E+02  0.14829203574E+01 -0.13895861105E+02  0.22803730623E+02  0.00000000000E+00 0.  1.
        -11    1    4    4    0    0 -0.60329522830E+02  0.85658943008E+02  0.24077027784E+03  0.26257843121E+03  0.00000000000E+00 0.  1.
         11    1    4    4    0    0  0.40115519987E+01 -0.20110689124E+02  0.46609411550E+02  0.50921209840E+02  0.00000000000E+00 0. -1.
          2    1    1    2  501    0  0.32407346487E+02 -0.29478536562E+02  0.58709876212E+00  0.43812839547E+02  0.00000000000E+00 0. -1.
<scales pt_clust_5="13000.00000" pt_clust_6="13000.00000" pt_clust_7="13000.00000" pt_clust_8="13000.00000" pt_clust_9="43.80893"></scales>
<clustering>
<clus scale="   43.809">  1  9  2 -1</clus>
<clus scale="   80.838">  5  6 -1 -1</clus>
<clus scale="   90.701">  7  8 -1 -1</clus>
<clus scale="   92.183">  2  5  1 -1</clus>
<clus scale="   43.809">  1  5  2 -1</clus>
</clustering>
</event>
<event>
 9    1  0.7835476E-005  0.1674115E+03  0.7546771E-02  0.1182458E+00
          3   -1    0    0  502    0 -0.00000000000E+00  0.00000000000E+00  0.54758803752E+03  0.54758803752E+03  0.00000000000E+00 0. -1.
         21   -1    0    0  501  502  0.00000000000E+00 -0.00000000000E+00 -0.44668370500E+03  0.44668370500E+03  0.00000000000E+00 0. -1.
         23    2    1    2    0    0  0.32234201898E+02  0.13764562551E+03  0.46064606989E+03  0.49053214043E+03  0.91878273263E+02 0.  0.
        -24    2    1    2    0    0  0.18606614613E+02 -0.13791069273E+03 -0.20968212949E+02  0.16117229521E+03  0.78557479041E+02 0.  0.
         13    1    4    4    0    0  0.28290423250E+02 -0.93684503748E+02  0.20261329370E+02  0.99938259731E+02  0.00000000000E+00 0. -1.
        -14    1    4    4    0    0 -0.96838086362E+01 -0.44226188978E+02 -0.41229542319E+02  0.61234035479E+02  0.00000000000E+00 0.  1.
        -11    1    3    3    0    0  0.50467162340E+02  0.53095648322E+02  0.13498502138E+03  0.15358072256E+03  0.00000000000E+00 0.  1.
         11    1    3    3    0    0 -0.18232960442E+02  0.84549977192E+02  0.32566104851E+03  0.33695141787E+03  0.00000000000E+00 0. -1.
          4    1    1    2  501    0 -0.50840816512E+02  0.26506721280E+00 -0.33877352443E+03  0.34256730687E+03  0.00000000000E+00 0. -1.
<scales pt_clust_5="13000.00000" pt_clust_6="13000.00000" pt_clust_7="13000.00000" pt_clust_8="13000.00000" pt_clust_9="50.84151"></scales>
<clustering>
<clus scale="   50.842">  2  9  1 -1</clus>
<clus scale="   78.557">  5  6 -1 -1</clus>
<clus scale="   91.878">  7  8 -1 -1</clus>
<clus scale="  160.488">  2  5  1 -1</clus>
<clus scale="   50.842">  2  5  1 -1</clus>
</clustering>
</event>
<event>
 9    1  0.7835476E-005  0.1934644E+03  0.7546771E-02  0.1156786E+00
         21   -1    0    0  501  502  0.00000000000E+00  0.00000000000E+00  0.40376086517E+03  0.40376086517E+03  0.00000000000E+00 0.  1.
         -2   -1    0    0    0  501 -0.00000000000E+00 -0.00000000000E+00 -0.28805951306E+03  0.28805951306E+03  0.00000000000E+00 0.  1.
        -24    2    1    2    0    0 -0.15846261453E+03  0.67969947171E+02 -0.22256066164E+03  0.29298636565E+03  0.81101469934E+02 0.  0.
         23    2    1    2    0    0  0.13637343736E+03 -0.33425647427E+02  0.25672621112E+03  0.30756886312E+03  0.94737900346E+02 0.  0.
         11    1    3    3    0    0 -0.73196326693E+02  0.30837750106E+02 -0.41918968821E+02  0.89810183276E+02  0.00000000000E+00 0. -1.
        -12    1    3    3    0    0 -0.85266287841E+02  0.37132197065E+02 -0.18064169282E+03  0.20317618238E+03  0.00000000000E+00 0.  1.
        -13    1    4    4    0    0  0.85674341365E+02 -0.63265871107E+02  0.19570836952E+03  0.22281029849E+03  0.00000000000E+00 0. -1.
         13    1    4    4    0    0  0.50699095997E+02  0.29840223679E+02  0.61017841604E+02  0.84758564630E+02  0.00000000000E+00 0.  1.
         -1    1    1    2    0  502  0.22089177172E+02 -0.34544299744E+02  0.81535802631E+02  0.91265149447E+02  0.00000000000E+00 0.  1.
<scales pt_clust_5="13000.00000" pt_clust_6="13000.00000" pt_clust_7="13000.00000" pt_clust_8="13000.00000" pt_clust_9="41.00293"></scales>
<clustering>
<clus scale="   41.003">  1  9  2 -1</clus>
<clus scale="   81.101">  5  6 -1 -1</clus>
<clus scale="   94.738">  7  8 -1 -1</clus>
<clus scale="  187.165">  2  5  1 -1</clus>
<clus scale="   41.003">  1  5  2 -1</clus>
</clustering>
</event>
<event>
 9    1  0.7835476E-005  0.1085157E+03  0.7546771E-02  0.1277825E+00
          1   -1    0    0  502    0 -0.00000000000E+00  0.00000000000E+00  0.76261136523E+02  0.76261136523E+02  0.00000000000E+00 0. -1.
         21   -1    0    0  501  502  0.00000000000E+00 -0.00000000000E+00 -0.21755937163E+03  0.21755937163E+03  0.00000000000E+00 0. -1.
         23    2    1    2    0    0  0.22165051976E+02 -0.48425297792E+02 -0.89748829721E+01  0.11093988985E+03  0.96906200217E+02 0.  0.
        -24    2    1    2    0    0  0.20342338693E+00  0.46276899216E+02 -0.44054970684E+02  0.91796747773E+02  0.65910618854E+02 0.  0.
         13    1    4    4    0    0 -0.31018485357E+02  0.18061757422E+02 -0.89454480575E+01  0.36991817419E+02  0.00000000000E+00 0. -1.
        -14    1    4    4    0    0  0.31221908744E+02  0.28215141793E+02 -0.35109522626E+02  0.54804930354E+02  0.00000000000E+00 0.  1.
        -11    1    3    3    0    0 -0.35214096525E+02 -0.36953339066E+02  0.33003430939E+01  0.51151482156E+02  0.00000000000E+00 0.  1.
         11    1    3    3    0    0  0.57379148501E+02 -0.11471958726E+02 -0.12275226066E+02  0.59788407695E+02  0.00000000000E+00 0. -1.
          2    1    1    2  501    0 -0.22368475363E+02  0.21483985767E+01 -0.88268381447E+02  0.91083870525E+02  0.00000000000E+00 0. -1.
<scales pt_clust_5="13000.00000" pt_clust_6="13000.00000" pt_clust_7="13000.00000" pt_clust_8="13000.00000" pt_clust_9="22.47141"></scales>
<clustering>
<clus scale="   22.471">  2  9  1 -1</clus>
<clus scale="   65.911">  5  6 -1 -1</clus>
<clus scale="   82.031">  2  5  1 -1</clus>
<clus scale="   96.906">  7  8 -1 -1</clus>
<clus scale="   22.471">  2  5  1 -1</clus>
</clustering>
</event>
<event>
 9    1  0.7835476E-005  0.1594233E+03  0.7546771E-02  0.1200940E+00
         21   -1    0    0  501  502  0.00000000000E+00  0.00000000000E+00  0.20762376616E+03  0.20762376616E+03  0.00000000000E+00 0.  1.
          1   -1    0    0  502    0 -0.00000000000E+00 -0.00000000000E+00 -0.44919715679E+03  0.44919715679E+03  0.00000000000E+00 0. -1.
         23    2    1    2    0    0  0.70410651164E+02  0.34371993955E+02 -0.29264133854E+03  0.31770514785E+03  0.95700126332E+02 0.  0.
        -24    2    1    2    0    0 -0.19952047073E+02 -0.15851065247E+03 -0.30853093973E+02  0.18205675954E+03  0.81664185299E+02 0.  0.
         13    1    4    4    0    0 -0.32376484150E+02 -0.29192571318E+02 -0.28572422024E+02  0.52123183387E+02  0.00000000000E+00 0. -1.
        -14    1    4    4    0    0  0.12424437078E+02 -0.12931808115E+03 -0.22806719497E+01  0.12993357616E+03  0.00000000000E+00 0.  1.
        -11    1    3    3    0    0 -0.16161730443E+02 -0.15729175769E+02 -0.38961600088E+02  0.45017938454E+02  0.00000000000E+00 0.  1.
         11    1    3    3    0    0  0.86572381607E+02  0.50101169724E+02 -0.25367973846E+03  0.27268720940E+03  0.00000000000E+00 0. -1.
          2    1    1    2  501    0 -0.50458604091E+02  0.12413865851E+03  0.81921041886E+02  0.15705901556E+03  0.00000000000E+00 0. -1.
<scales pt_clust_5="13000.00000" pt_clust_6="13000.00000" pt_clust_7="13000.00000" pt_clust_8="13000.00000" pt_clust_9="136.91873"></scales>
<clustering>
<clus scale="   81.664">  5  6 -1 -1</clus>
<clus scale="   95.700">  7  8 -1 -1</clus>
<clus scale="  123.683">  2  7  1 -1</clus>
<clus scale="  136.919">  1  9  2 -1</clus>
<clus scale="  136.919">  1  5  2 -1</clus>
</clustering>
</event>
<event>
 9    1  0.7835476E-005  0.1194077E+03  0.7546771E-02  0.1248647E+00
          1   -1    0    0  502    0 -0.00000000000E+00  0.00000000000E+00  0.50188237989E+03  0.50188237989E+03  0.00000000000E+00 0. -1.
         21   -1    0    0  501  502  0.00000000000E+00 -0.00000000000E+00 -0.13706380329E+03  0.13706380329E+03  0.00000000000E+00 0. -1.
         23    2    1    2    0    0 -0.60287609581E+02  0.15055123387E+02  0.34273068632E+03  0.36094759277E+03  0.94644539055E+02 0.  0.
        -24    2    1    2    0    0  0.10402693140E+03 -0.55012350180E+02  0.10413569694E+03  0.17679804285E+03  0.81026806990E+02 0.  0.
         11    1    4    4    0    0  0.45268321206E+02 -0.63337780080E+02  0.83009070381E+02  0.11380422249E+03  0.00000000000E+00 0. -1.
        -12    1    4    4    0    0  0.58758610192E+02  0.83254298997E+01  0.21126626562E+02  0.62993820368E+02  0.00000000000E+00 0.  1.
        -13    1    3    3    0    0 -0.63722247996E+02 -0.27296456386E+02  0.18391570945E+03  0.19654671100E+03  0.00000000000E+00 0. -1.
         13    1    3    3    0    0  0.34346384156E+01  0.42351579773E+02  0.15881497687E+03  0.16440088177E+03  0.00000000000E+00 0.  1.
          2    1    1    2  501    0 -0.43739321817E+02  0.39957226793E+02 -0.82047806667E+02  0.10120054755E+03  0.00000000000E+00 0. -1.
<scales pt_clust_5="13000.00000" pt_clust_6="13000.00000" pt_clust_7="13000.00000" pt_clust_8="13000.00000" pt_clust_9="59.24279"></scales>
<clustering>
<clus scale="   59.243">  2  9  1 -1</clus>
<clus scale="   81.027">  5  6 -1 -1</clus>
<clus scale="   94.645">  7  8 -1 -1</clus>
<clus scale="  108.931">  2  5  1 -1</clus>
<clus scale="   59.243">  2  5  1 -1</clus>
</clustering>
</event>
<event>
 9    1  0.7835476E-005  0.1462347E+03  0.7546771E-02  0.1224754E+00
          1   -1    0    0  502    0 -0.00000000000E+00  0.00000000000E+00  0.45163495832E+03  0.45163495832E+03  0.00000000000E+00 0. -1.
         21   -1    0    0  501  502  0.00000000000E+00 -0.00000000000E+00 -0.89561492356E+02  0.89561492356E+02  0.00000000000E+00 0. -1.
        -24    2    1    2    0    0 -0.46011556049E+02  0.21931253946E+02  0.21768317797E+03  0.23815695676E+03  0.82065381793E+02 0.  0.
         23    2    1    2    0    0 -0.90339764931E+02 -0.60400642706E+01  0.81315988942E+02  0.15196805439E+03  0.91017822392E+02 0.  0.
         11    1    3    3    0    0 -0.46805575472E+02 -0.54162674636E+01  0.20024332048E+03  0.20571214171E+03  0.00000000000E+00 0. -1.
        -12    1    3    3    0    0  0.79401942316E+00  0.27347521410E+02  0.17439857490E+02  0.32444815046E+02  0.00000000000E+00 0.  1.
        -11    1    4    4    0    0 -0.49698764659E+02 -0.32261251876E+02  0.22649198234E+01  0.59294902336E+02  0.00000000000E+00 0. -1.
         11    1    4    4    0    0 -0.40641000272E+02  0.26221187606E+02  0.79051069119E+02  0.92673152053E+02  0.00000000000E+00 0.  1.
          2    1    1    2  501    0  0.13635132098E+03 -0.15891189676E+02  0.63074299051E+02  0.15107143953E+03  0.00000000000E+00 0. -1.
<scales pt_clust_5="13000.00000" pt_clust_6="13000.00000" pt_clust_7="13000.00000" pt_clust_8="13000.00000" pt_clust_9="114.45685"></scales>
<clustering>
<clus scale="   82.065">  5  6 -1 -1</clus>
<clus scale="   91.018">  7  8 -1 -1</clus>
<clus scale="   96.606">  1  5  2 -1</clus>
<clus scale="  114.457">  2  9  1 -1</clus>
<clus scale="  114.457">  2  5  1 -1</clus>
</clustering>
</event>
<event>
 9    1  0.7835476E-005  0.1323927E+03  0.7546771E-02  0.1224828E+00
         -2   -1    0    0    0  501 -0.00000000000E+00  0.00000000000E+00  0.28274196191E+03  0.28274196191E+03  0.00000000000E+00 0.  1.
         21   -1    0    0  501  502  0.00000000000E+00 -0.00000000000E+00 -0.12578632637E+03  0.12578632637E+03  0.00000000000E+00 0.  1.
        -24    2    1    2    0    0  0.39246513885E+02 -0.89859508776E+02  0.15987848494E+03  0.20465095258E+03  0.81889329426E+02 0.  0.
         23    2    1    2    0    0 -0.12994112945E+02  0.11671297619E+03 -0.40356057648E+02  0.15085335673E+03  0.85658380007E+02 0.  0.
         13    1    3    3    0    0  0.29563390933E+02 -0.37968195077E+02  0.14920146557E+02  0.50380439598E+02  0.00000000000E+00 0. -1.
        -14    1    3    3    0    0  0.96831229520E+01 -0.51891313700E+02  0.14495833838E+03  0.15427051298E+03  0.00000000000E+00 0.  1.
        -11    1    4    4    0    0  0.34243246890E+02  0.42600870170E+02 -0.30027117524E+02  0.62362343475E+02  0.00000000000E+00 0.  1.
         11    1    4    4    0    0 -0.47237359835E+02  0.74112106016E+02 -0.10328940124E+02  0.88491013253E+02  0.00000000000E+00 0. -1.
         -1    1    1    2    0  502 -0.26252400940E+02 -0.26853467410E+02  0.37433208252E+02  0.53023978982E+02  0.00000000000E+00 0.  1.
<scales pt_clust_5="13000.00000" pt_clust_6="13000.00000" pt_clust_7="13000.00000" pt_clust_8="13000.00000" pt_clust_9="37.55394"></scales>
<clustering>
<clus scale="   37.554">  2  9  1 -1</clus>
<clus scale="   81.889">  5  6 -1 -1</clus>
<clus scale="   85.658">  7  8 -1 -1</clus>
<clus scale="  129.986">  1  5  2 -1</clus>
<clus scale="   37.554">  2  5  1 -1</clus>
</clustering>
</event>
<event>
 9    1  0.7835476E-005  0.1060251E+03  0.7546771E-02  0.1272878E+00
          1   -1    0    0  502    0 -0.00000000000E+00  0.00000000000E+00  0.47146953613E+03  0.47146953613E+03  0.00000000000E+00 0. -1.
         21   -1    0    0  501  502  0.00000000000E+00 -0.00000000000E+00 -0.12855542400E+03  0.12855542400E+03  0.00000000000E+00 0.  1.
         23    2    1    2    0    0 -0.13502061006E+02 -0.43538711102E+02  0.18122886289E+03  0.20804021926E+03  0.91427058723E+02 0.  0.
        -24    2    1    2    0    0  0.60678581245E+02  0.10531009200E+03 -0.59592309092E+02  0.15745311106E+03  0.80424705033E+02 0.  0.
         13    1    4    4    0    0 -0.11569781188E+02  0.26199487713E+02  0.92591484897E+01  0.30099914019E+02  0.00000000000E+00 0. -1.
        -14    1    4    4    0    0  0.72248362433E+02  0.79110604290E+02 -0.68851457581E+02  0.12735319704E+03  0.00000000000E+00 0.  1.
        -11    1    3    3    0    0 -0.17794921789E+01 -0.70624569115E+02  0.14513303873E+03  0.16141435898E+03  0.00000000000E+00 0.  1.
         11    1    3    3    0    0 -0.11722568827E+02  0.27085858013E+02  0.36095824166E+02  0.46625860275E+02  0.00000000000E+00 0. -1.
          2    1    1    2  501    0 -0.47176520239E+02 -0.61771380902E+02  0.22127755833E+03  0.23453162981E+03  0.00000000000E+00 0. -1.
<scales pt_clust_5="13000.00000" pt_clust_6="13000.00000" pt_clust_7="13000.00000" pt_clust_8="13000.00000" pt_clust_9="77.72602"></scales>
<clustering>
<clus scale="   77.726">  2  9  1 -1</clus>
<clus scale="   80.425">  5  6 -1 -1</clus>
<clus scale="   91.427">  7  8 -1 -1</clus>
<clus scale="   96.698">  2  5  1 -1</clus>
<clus scale="   77.726">  2  5  1 -1</clus>
</clustering>
</event>
<event>
 9    1  0.7835476E-005  0.8677868E+02  0.7546771E-02  0.1317068E+00
         21   -1    0    0  501  502  0.00000000000E+00  0.00000000000E+00  0.44275023749E+02  0.44275023749E+02  0.00000000000E+00 0. -1.
         -2   -1    0    0    0  501 -0.00000000000E+00 -0.00000000000E+00 -0.56733134336E+03  0.56733134336E+03  0.00000000000E+00 0.  1.
        -24    2    1    2    0    0 -0.12795533493E+02  0.25638572473E+01 -0.14924564497E+03  0.16988347727E+03  0.80098903038E+02 0.  0.
         23    2    1    2    0    0  0.85746108807E+02 -0.28922700687E+02 -0.83323797655E+02  0.14105829137E+03  0.69033821555E+02 0.  0.
         11    1    3    3    0    0 -0.69017120367E+01 -0.28901445199E+02 -0.17891678842E+02  0.34684857436E+02  0.00000000000E+00 0. -1.
        -12    1    3    3    0    0 -0.58938214560E+01  0.31465302446E+02 -0.13135396612E+03  0.13519861984E+03  0.00000000000E+00 0.  1.
        -11    1    4    4    0    0  0.67194582441E+02 -0.38384827543E+02 -0.90460092722E+02  0.11904425761E+03  0.00000000000E+00 0.  1.
         11    1    4    4    0    0  0.18551526366E+02  0.94621268555E+01  0.71362950670E+01  0.22014033761E+02  0.00000000000E+00 0. -1.
         -1    1    1    2    0  502 -0.72950575314E+02  0.26358843440E+02 -0.29048687699E+03  0.30066459846E+03  0.00000000000E+00 0.  1.
<scales pt_clust_5="13000.00000" pt_clust_6="13000.00000" pt_clust_7="13000.00000" pt_clust_8="13000.00000" pt_clust_9="77.56662"></scales>
<clustering>
<clus scale="   69.034">  7  8 -1 -1</clus>
<clus scale="   77.567">  1  9  2 -1</clus>
<clus scale="   77.567">  1  7  2 -1</clus>
<clus scale="   80.099">  5  6 -1 -1</clus>
<clus scale="   77.567">  1  5  2 -1</clus>
</clustering>
</event>
<event>
 9    1  0.7835476E-005  0.1232020E+03  0.7546771E-02  0.1257119E+00
         21   -1    0    0  501  502  0.00000000000E+00  0.00000000000E+00  0.23227164927E+03  0.23227164927E+03  0.00000000000E+00 0.  1.
          1   -1    0    0  502    0 -0.00000000000E+00 -0.00000000000E+00 -0.12174981232E+03  0.12174981232E+03  0.00000000000E+00 0. -1.
        -24    2    1    2    0    0 -0.25563355489E+02  0.72239513060E+01  0.33176401994E+02  0.90125050731E+02  0.79474401562E+02 0.  0.
         23    2    1    2    0    0  0.29555624047E+02  0.79125851112E+02  0.11585998225E+03  0.16926239510E+03  0.89954364435E+02 0.  0.
         11    1    3    3    0    0 -0.52936243738E+02 -0.74745844276E+00  0.31415281951E+02  0.61560738587E+02  0.00000000000E+00 0. -1.
        -12    1    3    3    0    0  0.27372888249E+02  0.79714097488E+01  0.17611200429E+01  0.28564312144E+02  0.00000000000E+00 0.  1.
        -11    1    4    4    0    0 -0.48049347603E+01  0.20730891563E+02 -0.12093945404E+02  0.24476943814E+02  0.00000000000E+00 0. -1.
         11    1    4    4    0    0  0.34360558807E+02  0.58394959549E+02  0.12795392765E+03  0.14478545128E+03  0.00000000000E+00 0.  1.
          2    1    1    2  501    0 -0.39922685574E+01 -0.86349802418E+02 -0.38514547286E+02  0.94634015758E+02  0.00000000000E+00 0. -1.
<scales pt_clust_5="13000.00000" pt_clust_6="13000.00000" pt_clust_7="13000.00000" pt_clust_8="13000.00000" pt_clust_9="84.18408"></scales>
<clustering>
<clus scale="   79.474">  5  6 -1 -1</clus>
<clus scale="   83.797">  2  5  1 -1</clus>
<clus scale="   84.184">  1  9  2 -1</clus>
<clus scale="   89.954">  7  8 -1 -1</clus>
<clus scale="   84.184">  1  5  2 -1</clus>
</clustering>
</event>
<event>
 9    1  0.7835476E-005  0.9299304E+02  0.7546771E-02  0.1301325E+00
          3   -1    0    0  502    0 -0.00000000000E+00  0.00000000000E+00  0.19570239681E+03  0.19570239681E+03  0.00000000000E+00 0. -1.
         21   -1    0    0  501  502  0.00000000000E+00 -0.00000000000E+00 -0.12587530757E+03  0.12587530757E+03  0.00000000000E+00 0. -1.
        -24    2    1    2    0    0 -0.15122988684E+02  0.22302695966E+02  0.90860782215E+02  0.12510710382E+03  0.81670010701E+02 0.  0.
         23    2    1    2    0    0 -0.61585883847E+02 -0.81831883938E+01  0.13835997138E+02  0.11103344876E+03  0.90979152910E+02 0.  0.
         13    1    3    3    0    0 -0.47187512396E+02  0.98223508176E+01  0.69602591363E+02  0.84662037692E+02  0.00000000000E+00 0. -1.
        -14    1    3    3    0    0  0.32064523713E+02  0.12480345148E+02  0.21258190852E+02  0.40445066130E+02  0.00000000000E+00 0.  1.
        -11    1    4    4    0    0  0.61664232040E+01 -0.35501686715E+02  0.11927312936E+02  0.37955965652E+02  0.00000000000E+00 0.  1.
         11    1    4    4    0    0 -0.67752307051E+02  0.27318498321E+02  0.19086842019E+01  0.73077483103E+02  0.00000000000E+00 0. -1.
          4    1    1    2  501    0  0.76708872531E+02 -0.14119507572E+02 -0.34869690109E+02  0.85437151798E+02  0.00000000000E+00 0. -1.
<scales pt_clust_5="13000.00000" pt_clust_6="13000.00000" pt_clust_7="13000.00000" pt_clust_8="13000.00000" pt_clust_9="77.99751"></scales>
<clustering>
<clus scale="   77.998">  2  9  1 -1</clus>
<clus scale="   81.670">  5  6 -1 -1</clus>
<clus scale="   83.908">  1  5  2 -1</clus>
<clus scale="   90.979">  7  8 -1 -1</clus>
<clus scale="   77.998">  2  5  1 -1</clus>
</clustering>
</event>
<event>
 9    1  0.7835476E-005  0.9565303E+02  0.7546771E-02  0.1297264E+00
         21   -1    0    0  501  502  0.00000000000E+00  0.00000000000E+00  0.53493367918E+02  0.53493367918E+02  0.00000000000E+00 0. -1.
          1   -1    0    0  502    0 -0.00000000000E+00 -0.00000000000E+00 -0.29549545820E+03  0.29549545820E+03  0.00000000000E+00 0. -1.
        -24    2    1    2    0    0  0.20263971345E+02  0.11055501800E+02 -0.15307467961E+03  0.17344418247E+03  0.78218758871E+02 0.  0.
         23    2    1    2    0    0 -0.19386687210E+02 -0.50159142288E+02 -0.41114775708E+02  0.11377157194E+03  0.91442673864E+02 0.  0.
         13    1    3    3    0    0  0.27978961041E+02 -0.22693256968E+02 -0.12100386908E+03  0.12625269306E+03  0.00000000000E+00 0. -1.
        -14    1    3    3    0    0 -0.77149896964E+01  0.33748758768E+02 -0.32070810533E+02  0.47191489409E+02  0.00000000000E+00 0.  1.
        -13    1    4    4    0    0  0.11063770629E+02  0.18283770493E+02 -0.31757364030E+02  0.38278367966E+02  0.00000000000E+00 0.  1.
         13    1    4    4    0    0 -0.30450457839E+02 -0.68442912781E+02 -0.93574116778E+01  0.75493203971E+02  0.00000000000E+00 0. -1.
          2    1    1    2  501    0 -0.87728413508E+00  0.39103640488E+02 -0.47812634967E+02  0.61773071717E+02  0.00000000000E+00 0. -1.
<scales pt_clust_5="13000.00000" pt_clust_6="13000.00000" pt_clust_7="13000.00000" pt_clust_8="13000.00000" pt_clust_9="39.11350"></scales>
<clustering>
<clus scale="   39.113">  1  9  2 -1</clus>
<clus scale="   78.219">  5  6 -1 -1</clus>
<clus scale="   83.102">  2  5  1 -1</clus>
<clus scale="   91.443">  7  8 -1 -1</clus>
<clus scale="   39.113">  1  5  2 -1</clus>
</clustering>
</event>
<event>
 9    1  0.1008520E-004  0.9775911E+02  0.7546771E-02  0.1290936E+00
         21   -1    0    0  501  502  0.00000000000E+00  0.00000000000E+00  0.22362013815E+03  0.22362013815E+03  0.00000000000E+00 0.  1.
         -4   -1    0    0    0  501 -0.00000000000E+00 -0.00000000000E+00 -0.36259089534E+03  0.36259089534E+03  0.00000000000E+00 0.  1.
         23    2    1    2    0    0 -0.32662491850E+02  0.15270694834E+02 -0.33449220166E+03  0.34874953534E+03  0.91875856091E+02 0.  0.
        -24    2    1    2    0    0 -0.10923045701E+02 -0.12446002791E+02  0.84633273246E+02  0.11828153135E+03  0.80953775736E+02 0.  0.
         13    1    4    4    0    0  0.16092587198E+02 -0.23366126865E+02  0.84506551052E+02  0.89142046298E+02  0.00000000000E+00 0. -1.
        -14    1    4    4    0    0 -0.27015632899E+02  0.10920124074E+02  0.12672219330E+00  0.29139485055E+02  0.00000000000E+00 0.  1.
        -13    1    3    3    0    0 -0.47467833407E+02  0.43072666716E+02 -0.17981024495E+03  0.19089309578E+03  0.00000000000E+00 0.  1.
         13    1    3    3    0    0  0.14805341557E+02 -0.27801971882E+02 -0.15468195671E+03  0.15785643956E+03  0.00000000000E+00 0. -1.
         -3    1    1    2    0  502  0.43585537551E+02 -0.28246920427E+01  0.11088817122E+03  0.11917996680E+03  0.00000000000E+00 0.  1.
<scales pt_clust_5="13000.00000" pt_clust_6="13000.00000" pt_clust_7="13000.00000" pt_clust_8="13000.00000" pt_clust_9="43.67697"></scales>
<clustering>
<clus scale="   43.677">  1  9  2 -1</clus>
<clus scale="   80.954">  5  6 -1 -1</clus>
<clus scale="   87.574">  1  5  2 -1</clus>
<clus scale="   91.876">  7  8 -1 -1</clus>
<clus scale="   43.677">  1  5  2 -1</clus>
</clustering>
</event>
<event>
 9    1  0.7835476E-005  0.1802074E+03  0.7546771E-02  0.1168118E+00
          3   -1    0    0  502    0 -0.00000000000E+00  0.00000000000E+00  0.28055702551E+03  0.28055702551E+03  0.00000000000E+00 0. -1.
         21   -1    0    0  501  502  0.00000000000E+00 -0.00000000000E+00 -0.23469743033E+03  0.23469743033E+03  0.00000000000E+00 0.  1.
         23    2    1    2    0    0 -0.39463379103E+02  0.14862072505E+03  0.16997978606E+03  0.24476467890E+03  0.85855356056E+02 0.  0.
        -24    2    1    2    0    0  0.77939475058E+02 -0.16389515081E+03 -0.10512949872E+03  0.22494458586E+03  0.81312194492E+02 0.  0.
         13    1    4    4    0    0  0.31474136004E+02 -0.12271052041E+03 -0.35312601115E+02  0.13151225362E+03  0.00000000000E+00 0. -1.
        -14    1    4    4    0    0  0.46465339054E+02 -0.41184630405E+02 -0.69816897609E+02  0.93432332235E+02  0.00000000000E+00 0.  1.
        -13    1    3    3    0    0  0.60977277097E+01  0.81660687665E+02  0.13193876412E+03  0.15528518175E+03  0.00000000000E+00 0. -1.
         13    1    3    3    0    0 -0.45561106812E+02  0.66960037381E+02  0.38041021942E+02  0.89479497152E+02  0.00000000000E+00 0.  1.
          4    1    1    2  501    0 -0.38476095956E+02  0.15274425765E+02 -0.18990692161E+02  0.45545191088E+02  0.00000000000E+00 0. -1.
<scales pt_clust_5="13000.00000" pt_clust_6="13000.00000" pt_clust_7="13000.00000" pt_clust_8="13000.00000" pt_clust_9="41.39708"></scales>
<clustering>
<clus scale="   41.397">  2  9  1 -1</clus>
<clus scale="   81.312">  5  6 -1 -1</clus>
<clus scale="   85.855">  7  8 -1 -1</clus>
<clus scale="  178.088">  2  5  1 -1</clus>
<clus scale="   41.397">  2  5  1 -1</clus>
</clustering>
</event>
<event>
 9    1  0.7835476E-005  0.5223743E+03  0.7546771E-02  0.1027823E+00
          3   -1    0    0  502    0 -0.00000000000E+00  0.00000000000E+00  0.23113410098E+04  0.23113410098E+04  0.00000000000E+00 0. -1.
         21   -1    0    0  501  502  0.00000000000E+00 -0.00000000000E+00 -0.31488493084E+03  0.31488493084E+03  0.00000000000E+00 0. -1.
         23    2    1    2    0    0 -0.10601216235E+03 -0.25038860916E+03  0.20534821717E+03  0.35274729792E+03  0.91267364008E+02 0.  0.
        -24    2    1    2    0    0 -0.24242143923E+03 -0.18939589521E+03  0.16693986521E+04  0.16993449330E+04  0.79008746968E+02 0.  0.
         11    1    4    4    0    0 -0.23851950153E+03 -0.17329696413E+03  0.16323511835E+04  0.16587627246E+04  0.00000000000E+00 0. -1.
        -12    1    4    4    0    0 -0.39019376979E+01 -0.16098931077E+02  0.37047468660E+02  0.40582208340E+02  0.00000000000E+00 0.  1.
        -13    1    3    3    0    0 -0.10517462370E+03 -0.13680108454E+03  0.13549293268E+03  0.21939592751E+03  0.00000000000E+00 0.  1.
         13    1    3    3    0    0 -0.83753865492E+00 -0.11358752462E+03  0.69855284489E+02  0.13335137041E+03  0.00000000000E+00 0. -1.
          4    1    1    2  501    0  0.34843360158E+03  0.43978450436E+03  0.12170920967E+03  0.57413370978E+03  0.00000000000E+00 0. -1.
<scales pt_clust_5="13000.00000" pt_clust_6="13000.00000" pt_clust_7="13000.00000" pt_clust_8="13000.00000" pt_clust_9="516.36475"></scales>
<clustering>
<clus scale="   79.009">  5  6 -1 -1</clus>
<clus scale="   91.267">  7  8 -1 -1</clus>
<clus scale="  286.815">  1  7  2 -1</clus>
<clus scale="  516.365">  2  9  1 -1</clus>
<clus scale="  516.365">  2  5  1 -1</clus>
</clustering>
</event>
<event>
 9    1  0.7835476E-005  0.2198350E+03  0.7546771E-02  0.1171082E+00
         21   -1    0    0  501  502  0.00000000000E+00  0.00000000000E+00  0.16246284958E+03  0.16246284958E+03  0.00000000000E+00 0. -1.
          1   -1    0    0  502    0 -0.00000000000E+00 -0.00000000000E+00 -0.74266672571E+03  0.74266672571E+03  0.00000000000E+00 0. -1.
        -24    2    1    2    0    0  0.38608964717E+02 -0.15302885573E+02  0.11571218031E+02  0.92389721914E+02  0.81713751384E+02 0.  0.
         23    2    1    2    0    0 -0.17800833723E+03  0.14987851862E+03 -0.56407196141E+03  0.61700981063E+03  0.91506230964E+02 0.  0.
         13    1    3    3    0    0  0.47709221438E+02  0.22234687695E+02  0.10933292834E+02  0.53759539054E+02  0.00000000000E+00 0. -1.
        -14    1    3    3    0    0 -0.91002567208E+01 -0.37537573268E+02  0.63792519700E+00  0.38630182860E+02  0.00000000000E+00 0.  1.
        -13    1    4    4    0    0 -0.14147472134E+03  0.14506372124E+03 -0.52755720443E+03  0.56513289052E+03  0.00000000000E+00 0. -1.
         13    1    4    4    0    0 -0.36533615886E+02  0.48147973826E+01 -0.36514756974E+02  0.51876920113E+02  0.00000000000E+00 0.  1.
          2    1    1    2  501    0  0.13939937251E+03 -0.13457563305E+03 -0.27703132756E+02  0.19573004274E+03  0.00000000000E+00 0. -1.
<scales pt_clust_5="13000.00000" pt_clust_6="13000.00000" pt_clust_7="13000.00000" pt_clust_8="13000.00000" pt_clust_9="199.88507"></scales>
<clustering>
<clus scale="   81.714">  5  6 -1 -1</clus>
<clus scale="   91.506">  7  8 -1 -1</clus>
<clus scale="   91.662">  2  5  1 -1</clus>
<clus scale="  199.885">  1  9  2 -1</clus>
<clus scale="  199.885">  1  5  2 -1</clus>
</clustering>
</event>
<event>
 9    1  0.7835476E-005  0.1073644E+03  0.7546771E-02  0.1271610E+00
         21   -1    0    0  501  502  0.00000000000E+00  0.00000000000E+00  0.71568221933E+02  0.71568221933E+02  0.00000000000E+00 0. -1.
         -4   -1    0    0    0  501 -0.00000000000E+00 -0.00000000000E+00 -0.29463574500E+03  0.29463574500E+03  0.00000000000E+00 0.  1.
         23    2    1    2    0    0  0.12553653909E+02  0.50466316107E+02 -0.21475822479E+03  0.24008266342E+03  0.93883688014E+02 0.  0.
        -24    2    1    2    0    0 -0.37506652709E+02 -0.43326580041E+02  0.14721967636E+01  0.98384944239E+02  0.79959291856E+02 0.  0.
         11    1    4    4    0    0 -0.15143975318E+02 -0.58229936027E+02  0.22526585670E+02  0.64245719702E+02  0.00000000000E+00 0. -1.
        -12    1    4    4    0    0 -0.22362677391E+02  0.14903355986E+02 -0.21054388907E+02  0.34139224537E+02  0.00000000000E+00 0.  1.
        -11    1    3    3    0    0  0.39772206722E+02  0.51853040146E+02 -0.83538034183E+02  0.10606210141E+03  0.00000000000E+00 0. -1.
         11    1    3    3    0    0 -0.27218552814E+02 -0.13867240390E+01 -0.13122019060E+03  0.13402056202E+03  0.00000000000E+00 0.  1.
         -3    1    1    2    0  502  0.24952998800E+02 -0.71397360662E+01 -0.97814950424E+01  0.27736359269E+02  0.00000000000E+00 0.  1.
<scales pt_clust_5="13000.00000" pt_clust_6="13000.00000" pt_clust_7="13000.00000" pt_clust_8="13000.00000" pt_clust_9="25.95434"></scales>
<clustering>
<clus scale="   25.954">  1  9  2 -1</clus>
<clus scale="   79.959">  5  6 -1 -1</clus>
<clus scale="   93.884">  7  8 -1 -1</clus>
<clus scale="   95.428">  1  5  2 -1</clus>
<clus scale="   25.954">  1  5  2 -1</clus>
</clustering>
</event>
<event>
 9    1  0.7835476E-005  0.2452721E+03  0.7546771E-02  0.1135533E+00
         21   -1    0    0  501  502  0.00000000000E+00  0.00000000000E+00  0.17105354856E+03  0.17105354856E+03  0.00000000000E+00 0. -1.
          1   -1    0    0  502    0 -0.00000000000E+00 -0.00000000000E+00 -0.69565433560E+03  0.69565433560E+03  0.00000000000E+00 0. -1.
         23    2    1    2    0    0 -0.10475718027E+03 -0.66280440055E+02 -0.10758867468E+02  0.15288905901E+03  0.88837759891E+02 0.  0.
        -24    2    1    2    0    0  0.20127484066E+03  0.22082777901E+03 -0.27931373115E+03  0.41682722610E+03  0.80326250593E+02 0.  0.
         13    1    4    4    0    0  0.20075740565E+03  0.18439684942E+03 -0.25275348196E+03  0.37173923205E+03  0.00000000000E+00 0. -1.
        -14    1    4    4    0    0  0.51743501350E+00  0.36430929593E+02 -0.26560249193E+02  0.45087994047E+02  0.00000000000E+00 0.  1.
        -11    1    3    3    0    0 -0.68739874335E+02 -0.17282899704E+01 -0.32191870005E+02  0.75924131896E+02  0.00000000000E+00 0.  1.
         11    1    3    3    0    0 -0.36017305938E+02 -0.64552150085E+02  0.21433002536E+02  0.76964927112E+02  0.00000000000E+00 0. -1.
          2    1    1    2  501    0 -0.96517660391E+02 -0.15454733896E+03 -0.23452818842E+03  0.29699159905E+03  0.00000000000E+00 0. -1.
<scales pt_clust_5="13000.00000" pt_clust_6="13000.00000" pt_clust_7="13000.00000" pt_clust_8="13000.00000" pt_clust_9="231.74574"></scales>
<clustering>
<clus scale="   80.326">  5  6 -1 -1</clus>
<clus scale="   88.838">  7  8 -1 -1</clus>
<clus scale="  152.510">  2  7  1 -1</clus>
<clus scale="  231.746">  1  9  2 -1</clus>
<clus scale="  231.746">  1  5  2 -1</clus>
</clustering>
</event>
<event>
 9    1  0.7835476E-005  0.1455782E+03  0.7546771E-02  0.1223791E+00
          3   -1    0    0  502    0 -0.00000000000E+00  0.00000000000E+00  0.50028076064E+03  0.50028076064E+03  0.00000000000E+00 0. -1.
         21   -1    0    0  501  502  0.00000000000E+00 -0.00000000000E+00 -0.22479176681E+03  0.22479176681E+03  0.00000000000E+00 0.  1.
        -24    2    1    2    0    0  0.59026208747E+00 -0.59024405641E+02  0.32361174402E+03  0.33868219703E+03  0.80602982887E+02 0.  0.
         23    2    1    2    0    0 -0.10185529358E+03 -0.40413061307E+02 -0.15359222066E+03  0.20956774804E+03  0.91215976759E+02 0.  0.
         13    1    3    3    0    0  0.37588730362E+02 -0.22365787826E+02  0.19658634685E+03  0.20139347775E+03  0.00000000000E+00 0. -1.
        -14    1    3    3    0    0 -0.36998468275E+02 -0.36658617815E+02  0.12702539717E+03  0.13728871928E+03  0.00000000000E+00 0.  1.
        -11    1    4    4    0    0 -0.57934875024E+02 -0.63673819874E+02 -0.12635626847E+03  0.15289444615E+03  0.00000000000E+00 0.  1.
         11    1    4    4    0    0 -0.43920418560E+02  0.23260758567E+02 -0.27235952189E+02  0.56673301891E+02  0.00000000000E+00 0. -1.
          4    1    1    2  501    0  0.10126503150E+03  0.99437466948E+02  0.10546947047E+03  0.17682258238E+03  0.00000000000E+00 0. -1.
<scales pt_clust_5="13000.00000" pt_clust_6="13000.00000" pt_clust_7="13000.00000" pt_clust_8="13000.00000" pt_clust_9="113.45785"></scales>
<clustering>
<clus scale="   80.603">  5  6 -1 -1</clus>
<clus scale="   91.216">  7  8 -1 -1</clus>
<clus scale="   99.905">  1  5  2 -1</clus>
<clus scale="  113.458">  2  9  1 -1</clus>
<clus scale="  113.458">  2  5  1 -1</clus>
</clustering>
</event>
<event>
 9    1  0.7835476E-005  0.3491310E+03  0.7546771E-02  0.1062972E+00
          1   -1    0    0  502    0 -0.00000000000E+00  0.00000000000E+00  0.17031765590E+04  0.17031765590E+04  0.00000000000E+00 0. -1.
         21   -1    0    0  501  502  0.00000000000E+00 -0.00000000000E+00 -0.63187677855E+02  0.63187677855E+02  0.00000000000E+00 0. -1.
        -24    2    1    2    0    0  0.37765004140E+02  0.95038751377E+02  0.33038890179E+03  0.35460402080E+03  0.78285537237E+02 0.  0.
         23    2    1    2    0    0  0.67571465540E+02  0.18835652605E+03  0.65224879808E+03  0.68821392822E+03  0.90364996227E+02 0.  0.
         13    1    3    3    0    0  0.37433228636E+02  0.38824774791E+01  0.96913081015E+02  0.10396377018E+03  0.00000000000E+00 0. -1.
        -14    1    3    3    0    0  0.33177550357E+00  0.91156273898E+02  0.23347582077E+03  0.25064025062E+03  0.00000000000E+00 0.  1.
        -13    1    4    4    0    0  0.40715455331E+02  0.64847667280E+02  0.12987617067E+03  0.15076733055E+03  0.00000000000E+00 0.  1.
         13    1    4    4    0    0  0.26856010209E+02  0.12350885877E+03  0.52237262741E+03  0.53744659767E+03  0.00000000000E+00 0. -1.
          2    1    1    2  501    0 -0.10533646968E+03 -0.28339527742E+03  0.65735118128E+03  0.72354628783E+03  0.00000000000E+00 0. -1.
<scales pt_clust_5="13000.00000" pt_clust_6="13000.00000" pt_clust_7="13000.00000" pt_clust_8="13000.00000" pt_clust_9="302.33864"></scales>
<clustering>
<clus scale="   78.286">  5  6 -1 -1</clus>
<clus scale="   90.365">  7  8 -1 -1</clus>
<clus scale="   91.678">  5  7 -1 -1</clus>
<clus scale="  302.339">  2  9  1 -1</clus>
<clus scale="  302.339">  2  5  1 -1</clus>
</clustering>
</event>
<event>
 9    1  0.7835476E-005  0.1611965E+03  0.7546771E-02  0.1188497E+00
         -4   -1    0    0    0  501 -0.00000000000E+00  0.00000000000E+00  0.33120799005E+03  0.33120799005E+03  0.00000000000E+00 0.  1.
         21   -1    0    0  501  502  0.00000000000E+00 -0.00000000000E+00 -0.12370424743E+03  0.12370424743E+03  0.00000000000E+00 0.  1.
         23    2    1    2    0    0 -0.11426066729E+03  0.64622621682E+02  0.12573144093E+03  0.20216780164E+03  0.88497691839E+02 0.  0.
        -24    2    1    2    0    0  0.14626785132E+03 -0.11655718440E+02  0.90186599140E+02  0.19028842676E+03  0.80906876054E+02 0.  0.
         11    1    4    4    0    0  0.37725236557E+02 -0.39281826727E+02  0.39897509457E+02  0.67513455290E+02  0.00000000000E+00 0. -1.
        -12    1    4    4    0    0  0.10854261476E+03  0.27626108288E+02  0.50289089683E+02  0.12277497147E+03  0.00000000000E+00 0.  1.
        -11    1    3    3    0    0 -0.33361303763E+02  0.10428517379E+02 -0.88476499501E+01  0.36055671858E+02  0.00000000000E+00 0. -1.
         11    1    3    3    0    0 -0.80899363527E+02  0.54194104302E+02  0.13457909088E+03  0.16611212978E+03  0.00000000000E+00 0.  1.
         -3    1    1    2    0  502 -0.32007184028E+02 -0.52966903242E+02 -0.84142974561E+01  0.62456009079E+02  0.00000000000E+00 0.  1.
<scales pt_clust_5="13000.00000" pt_clust_6="13000.00000" pt_clust_7="13000.00000" pt_clust_8="13000.00000" pt_clust_9="61.88661"></scales>
<clustering>
<clus scale="   61.887">  2  9  1 -1</clus>
<clus scale="   80.907">  5  6 -1 -1</clus>
<clus scale="   88.498">  7  8 -1 -1</clus>
<clus scale="  157.157">  2  5  1 -1</clus>
<clus scale="   61.887">  2  5  1 -1</clus>
</clustering>
</event>
<event>
 9    1  0.7835476E-005  0.2709110E+03  0.7546771E-02  0.1100759E+00
         21   -1    0    0  501  502  0.00000000000E+00  0.00000000000E+00  0.49492571521E+03  0.49492571521E+03  0.00000000000E+00 0. -1.
          1   -1    0    0  502    0 -0.00000000000E+00 -0.00000000000E+00 -0.13043506797E+03  0.13043506797E+03  0.00000000000E+00 0. -1.
        -24    2    1    2    0    0  0.44492692393E+02 -0.12483731332E+03  0.52603320728E+02  0.16352093607E+03  0.80050188687E+02 0.  0.
         23    2    1    2    0    0  0.66216927471E+02 -0.22003645441E+02  0.20168457643E+02  0.11699381544E+03  0.91716652098E+02 0.  0.
         11    1    3    3    0    0  0.18793073925E+02 -0.12058555889E+03  0.23179019325E+02  0.12422287864E+03  0.00000000000E+00 0. -1.
        -12    1    3    3    0    0  0.25699618468E+02 -0.42517544326E+01  0.29424301403E+02  0.39298057436E+02  0.00000000000E+00 0.  1.
        -13    1    4    4    0    0 -0.22704959998E+02  0.27161869534E+01  0.22577252924E+01  0.22978037418E+02  0.00000000000E+00 0.  1.
         13    1    4    4    0    0  0.88921887469E+02 -0.24719832394E+02  0.17910732351E+02  0.94015778026E+02  0.00000000000E+00 0. -1.
          2    1    1    2  501    0 -0.11070961986E+03  0.14684095876E+03  0.29171886887E+03  0.34484603166E+03  0.00000000000E+00 0. -1.
<scales pt_clust_5="13000.00000" pt_clust_6="13000.00000" pt_clust_7="13000.00000" pt_clust_8="13000.00000" pt_clust_9="183.89912"></scales>
<clustering>
<clus scale="   80.050">  5  6 -1 -1</clus>
<clus scale="   91.717">  7  8 -1 -1</clus>
<clus scale="  113.465">  5  7 -1 -1</clus>
<clus scale="  183.899">  1  9  2 -1</clus>
<clus scale="  183.899">  1  5  2 -1</clus>
</clustering>
</event>
<event>
 9    1  0.7835476E-005  0.2380169E+03  0.7546771E-02  0.1121121E+00
          3   -1    0    0  502    0 -0.00000000000E+00  0.00000000000E+00  0.26323058923E+03  0.26323058923E+03  0.00000000000E+00 0. -1.
         21   -1    0    0  501  502  0.00000000000E+00 -0.00000000000E+00 -0.20069248840E+03  0.20069248840E+03  0.00000000000E+00 0. -1.
        -24    2    1    2    0    0  0.90423796278E+02  0.56374699170E+02  0.76948605668E+02  0.15464826380E+03  0.81488820970E+02 0.  0.
         23    2    1    2    0    0  0.18022647855E+02  0.47594333670E+02  0.81271750849E+02  0.13115888224E+03  0.89484738757E+02 0.  0.
         11    1    3    3    0    0  0.84636130757E+02  0.73897750046E+02  0.52502624971E+02  0.12401886034E+03  0.00000000000E+00 0. -1.
        -12    1    3    3    0    0  0.57876655218E+01 -0.17523050876E+02  0.24445980698E+02  0.30629403462E+02  0.00000000000E+00 0.  1.
        -13    1    4    4    0    0  0.37664704517E+02 -0.10501992359E+02  0.18006692659E+02  0.43048377326E+02  0.00000000000E+00 0.  1.
         13    1    4    4    0    0 -0.19642056662E+02  0.58096326029E+02  0.63265058190E+02  0.88110504912E+02  0.00000000000E+00 0. -1.
          4    1    1    2  501    0 -0.10844644413E+03 -0.10396903284E+03 -0.95682255690E+02  0.17811593160E+03  0.00000000000E+00 0. -1.
<scales pt_clust_5="13000.00000" pt_clust_6="13000.00000" pt_clust_7="13000.00000" pt_clust_8="13000.00000" pt_clust_9="150.23379"></scales>
<clustering>
<clus scale="   81.489">  5  6 -1 -1</clus>
<clus scale="   89.485">  7  8 -1 -1</clus>
<clus scale="   99.286">  5  7 -1 -1</clus>
<clus scale="  150.234">  2  9  1 -1</clus>
<clus scale="  150.234">  2  5  1 -1</clus>
</clustering>
</event>
<event>
 9    1  0.7835476E-005  0.9613740E+02  0.7546771E-02  0.1293703E+00
         21   -1    0    0  501  502  0.00000000000E+00  0.00000000000E+00  0.90018258424E+02  0.90018258424E+02  0.00000000000E+00 0. -1.
          1   -1    0    0  502    0 -0.00000000000E+00 -0.00000000000E+00 -0.19237869140E+03  0.19237869140E+03  0.00000000000E+00 0. -1.
         23    2    1    2    0    0 -0.87056359244E+01 -0.25338943816E+02 -0.11894799588E+03  0.15269384457E+03  0.91918084597E+02 0.  0.
        -24    2    1    2    0    0  0.41669978951E+02  0.14845446707E+02  0.15164218204E+02  0.95079597305E+02  0.82785275721E+02 0.  0.
         13    1    4    4    0    0  0.46973509858E+02  0.23334516157E+02  0.41514995413E+02  0.66891741769E+02  0.00000000000E+00 0. -1.
        -14    1    4    4    0    0 -0.53035309071E+01 -0.84890694506E+01 -0.26350777209E+02  0.28187855536E+02  0.00000000000E+00 0.  1.
        -13    1    3    3    0    0  0.19745540642E+02  0.13676249367E+02 -0.96499021122E+02  0.99443387158E+02  0.00000000000E+00 0. -1.
         13    1    3    3    0    0 -0.28451176566E+02 -0.39015193183E+02 -0.22448974756E+02  0.53250457413E+02  0.00000000000E+00 0.  1.
          2    1    1    2  501    0 -0.32964343027E+02  0.10493497109E+02  0.14233446944E+01  0.34623507952E+02  0.00000000000E+00 0. -1.
<scales pt_clust_5="13000.00000" pt_clust_6="13000.00000" pt_clust_7="13000.00000" pt_clust_8="13000.00000" pt_clust_9="34.59424"></scales>
<clustering>
<clus scale="   34.594">  1  9  2 -1</clus>
<clus scale="   82.785">  5  6 -1 -1</clus>
<clus scale="   87.446">  1  5  2 -1</clus>
<clus scale="   91.918">  7  8 -1 -1</clus>
<clus scale="   34.594">  1  5  2 -1</clus>
</clustering>
</event>
<event>
 9    1  0.7835476E-005  0.1232063E+03  0.7546771E-02  0.1240780E+00
         21   -1    0    0  501  502  0.00000000000E+00  0.00000000000E+00  0.51264106686E+02  0.51264106686E+02  0.00000000000E+00 0. -1.
          1   -1    0    0  502    0 -0.00000000000E+00 -0.00000000000E+00 -0.75289903058E+03  0.75289903058E+03  0.00000000000E+00 0. -1.
        -24    2    1    2    0    0  0.57007013214E+01  0.88130372547E+02 -0.38392212068E+03  0.40227109087E+03  0.81402550593E+02 0.  0.
         23    2    1    2    0    0 -0.71024584897E+02 -0.51415204205E+02 -0.73121271255E+02  0.14607916389E+03  0.91128409008E+02 0.  0.
         11    1    3    3    0    0  0.17943819497E+02  0.76774768304E+02 -0.37527200591E+03  0.38346502334E+03  0.00000000000E+00 0. -1.
        -12    1    3    3    0    0 -0.12243118176E+02  0.11355604243E+02 -0.86501147671E+01  0.18806067528E+02  0.00000000000E+00 0.  1.
        -11    1    4    4    0    0 -0.58727883223E+02  0.10276196805E+02 -0.17566081479E+02  0.62154096463E+02  0.00000000000E+00 0.  1.
         11    1    4    4    0    0 -0.12296701673E+02 -0.61691401011E+02 -0.55555189776E+02  0.83925067422E+02  0.00000000000E+00 0. -1.
          2    1    1    2  501    0  0.65323883575E+02 -0.36715168342E+02 -0.24459153196E+03  0.25581288251E+03  0.00000000000E+00 0. -1.
<scales pt_clust_5="13000.00000" pt_clust_6="13000.00000" pt_clust_7="13000.00000" pt_clust_8="13000.00000" pt_clust_9="74.93476"></scales>
<clustering>
<clus scale="   74.935">  1  9  2 -1</clus>
<clus scale="   81.403">  5  6 -1 -1</clus>
<clus scale="   91.128">  7  8 -1 -1</clus>
<clus scale="  116.197">  2  5  1 -1</clus>
<clus scale="   74.935">  1  5  2 -1</clus>
</clustering>
</event>
<event>
 9    1  0.7835476E-005  0.1406527E+03  0.7546771E-02  0.1214608E+00
         21   -1    0    0  501  502  0.00000000000E+00  0.00000000000E+00  0.45732919250E+02  0.45732919250E+02  0.00000000000E+00 0.  1.
          1   -1    0    0  502    0 -0.00000000000E+00 -0.00000000000E+00 -0.62000739867E+03  0.62000739867E+03  0.00000000000E+00 0. -1.
         23    2    1    2    0    0 -0.10353517646E+03 -0.14968436418E+02 -0.39185529933E+03  0.41546918611E+03  0.90113717816E+02 0.  0.
        -24    2    1    2    0    0  0.10980313492E+03  0.40904936135E+02 -0.16822406751E+03  0.22004712575E+03  0.79946597332E+02 0.  0.
         11    1    4    4    0    0  0.73370078615E+02  0.56530308719E+02 -0.15028551399E+03  0.17653492560E+03  0.00000000000E+00 0. -1.
        -12    1    4    4    0    0  0.36433056309E+02 -0.15625372584E+02 -0.17938553517E+02  0.43512200159E+02  0.00000000000E+00 0.  1.
        -11    1    3    3    0    0 -0.25983657588E+02  0.36559915640E+02 -0.11973081319E+03  0.12785634720E+03  0.00000000000E+00 0.  1.
         11    1    3    3    0    0 -0.77551518868E+02 -0.51528352058E+02 -0.27212448614E+03  0.28761283891E+03  0.00000000000E+00 0. -1.
          2    1    1    2  501    0 -0.62679584683E+01 -0.25936499716E+02 -0.14195112582E+02  0.30224006057E+02  0.00000000000E+00 0. -1.
<scales pt_clust_5="13000.00000" pt_clust_6="13000.00000" pt_clust_7="13000.00000" pt_clust_8="13000.00000" pt_clust_9="26.68313"></scales>
<clustering>
<clus scale="   26.683">  1  9  2 -1</clus>
<clus scale="   79.947">  5  6 -1 -1</clus>
<clus scale="   90.114">  7  8 -1 -1</clus>
<clus scale="  134.366">  1  5  2 -1</clus>
<clus scale="   26.683">  1  5  2 -1</clus>
</clustering>
</event>
<event>
 9    1  0.7835476E-005  0.1358382E+03  0.7546771E-02  0.1235031E+00
         21   -1    0    0  501  502  0.00000000000E+00  0.00000000000E+00  0.12484721616E+03  0.12484721616E+03  0.00000000000E+00 0. -1.
         -2   -1    0    0    0  501 -0.00000000000E+00 -0.00000000000E+00 -0.33813522039E+03  0.33813522039E+03  0.00000000000E+00 0.  1.
        -24    2    1    2    0    0 -0.19158213199E+02 -0.50997237718E+02 -0.24717603212E+02  0.10056565864E+03  0.80837716456E+02 0.  0.
         23    2    1    2    0    0 -0.77889919821E+02  0.22901772139E+02 -0.22298974387E+03  0.25568165496E+03  0.95170121528E+02 0.  0.
         13    1    3    3    0    0 -0.45262462859E+02 -0.38708081495E+02  0.42147532287E+01  0.59705697064E+02  0.00000000000E+00 0. -1.
        -14    1    3    3    0    0  0.26104249661E+02 -0.12289156223E+02 -0.28932356440E+02  0.40859961579E+02  0.00000000000E+00 0.  1.
        -11    1    4    4    0    0 -0.51238221596E+02  0.41705347184E+02 -0.21071838478E+03  0.22083235501E+03  0.00000000000E+00 0.  1.
         11    1    4    4    0    0 -0.26651698225E+02 -0.18803575045E+02 -0.12271359098E+02  0.34849299948E+02  0.00000000000E+00 0. -1.
         -1    1    1    2    0  502  0.97048133020E+02  0.28095465580E+02  0.34419342848E+02  0.10673512295E+03  0.00000000000E+00 0.  1.
<scales pt_clust_5="13000.00000" pt_clust_6="13000.00000" pt_clust_7="13000.00000" pt_clust_8="13000.00000" pt_clust_9="96.92609"></scales>
<clustering>
<clus scale="   80.838">  5  6 -1 -1</clus>
<clus scale="   95.170">  7  8 -1 -1</clus>
<clus scale="   97.481">  2  5  1 -1</clus>
<clus scale="   96.926">  1  9  2 -1</clus>
<clus scale="   96.926">  1  5  2 -1</clus>
</clustering>
</event>
<event>
 9    1  0.7835476E-005  0.1443604E+03  0.7546771E-02  0.1222954E+00
         21   -1    0    0  501  502  0.00000000000E+00  0.00000000000E+00  0.42372982709E+03  0.42372982709E+03  0.00000000000E+00 0.  1.
          3   -1    0    0  502    0 -0.00000000000E+00 -0.00000000000E+00 -0.95283910672E+02  0.95283910672E+02  0.00000000000E+00 0. -1.
         23    2    1    2    0    0 -0.42511328731E+02  0.26142669085E+02  0.16286895095E+03  0.19338218553E+03  0.91540823011E+02 0.  0.
        -24    2    1    2    0    0 -0.12421894322E+02 -0.12731722900E+03  0.47363852415E+02  0.16062158082E+03  0.84805527241E+02 0.  0.
         13    1    4    4    0    0 -0.21605101554E+00 -0.10336332066E+03  0.70529186017E+02  0.12513348399E+03  0.00000000000E+00 0. -1.
        -14    1    4    4    0    0 -0.12205843307E+02 -0.23953908342E+02 -0.23165333601E+02  0.35488096829E+02  0.00000000000E+00 0.  1.
        -13    1    3    3    0    0  0.70447039747E+01  0.47885033507E+02  0.94633455451E+02  0.10629249822E+03  0.00000000000E+00 0. -1.
         13    1    3    3    0    0 -0.49556032706E+02 -0.21742364423E+02  0.68235495500E+02  0.87089687302E+02  0.00000000000E+00 0.  1.
          4    1    1    2  501    0  0.54933223054E+02  0.10117455992E+03  0.11821311305E+03  0.16500997142E+03  0.00000000000E+00 0. -1.
<scales pt_clust_5="13000.00000" pt_clust_6="13000.00000" pt_clust_7="13000.00000" pt_clust_8="13000.00000" pt_clust_9="116.82449"></scales>
<clustering>
<clus scale="   84.806">  5  6 -1 -1</clus>
<clus scale="   91.541">  7  8 -1 -1</clus>
<clus scale="  104.261">  2  7  1 -1</clus>
<clus scale="  116.824">  1  9  2 -1</clus>
<clus scale="  116.824">  1  5  2 -1</clus>
</clustering>
</event>
<event>
 9    1  0.7835476E-005  0.1007600E+03  0.7546771E-02  0.1284503E+00
         -4   -1    0    0    0  501 -0.00000000000E+00  0.00000000000E+00  0.39531064999E+03  0.39531064999E+03  0.00000000000E+00 0.  1.
         21   -1    0    0  501  502  0.00000000000E+00 -0.00000000000E+00 -0.10279608249E+03  0.10279608249E+03  0.00000000000E+00 0.  1.
        -24    2    1    2    0    0 -0.45842076794E+02  0.12872775995E+02  0.30224593373E+03  0.31622494197E+03  0.79864917841E+02 0.  0.
         23    2    1    2    0    0 -0.55244355100E+01 -0.47282007058E+02  0.31106185990E+02  0.10778577550E+03  0.91564572918E+02 0.  0.
         13    1    3    3    0    0 -0.40037177998E+02  0.41924127191E+02  0.14401948421E+03  0.15524889660E+03  0.00000000000E+00 0. -1.
        -14    1    3    3    0    0 -0.58048987961E+01 -0.29051351196E+02  0.15822644952E+03  0.16097604537E+03  0.00000000000E+00 0.  1.
        -11    1    4    4    0    0 -0.48354863997E+02 -0.23066035523E+02  0.21078942742E+02  0.57572186810E+02  0.00000000000E+00 0.  1.
         11    1    4    4    0    0  0.42830428487E+02 -0.24215971534E+02  0.10027243249E+02  0.50213588688E+02  0.00000000000E+00 0. -1.
         -3    1    1    2    0  502  0.51366512304E+02  0.34409231063E+02 -0.40837552217E+02  0.74096015005E+02  0.00000000000E+00 0.  1.
<scales pt_clust_5="13000.00000" pt_clust_6="13000.00000" pt_clust_7="13000.00000" pt_clust_8="13000.00000" pt_clust_9="61.82648"></scales>
<clustering>
<clus scale="   61.826">  2  9  1 -1</clus>
<clus scale="   79.865">  5  6 -1 -1</clus>
<clus scale="   90.260">  1  5  2 -1</clus>
<clus scale="   91.565">  7  8 -1 -1</clus>
<clus scale="   61.826">  2  5  1 -1</clus>
</clustering>
</event>
<event>
 9    1  0.7835476E-005  0.9278467E+02  0.7546771E-02  0.1301098E+00
         21   -1    0    0  501  502  0.00000000000E+00  0.00000000000E+00  0.16246027085E+03  0.16246027085E+03  0.00000000000E+00 0. -1.
          3   -1    0    0  502    0 -0.00000000000E+00 -0.00000000000E+00 -0.74441364510E+02  0.74441364510E+02  0.00000000000E+00 0. -1.
        -24    2    1    2    0    0  0.10270195812E+02 -0.19233436947E+02 -0.86989842249E+01  0.86021712981E+02  0.82756635739E+02 0.  0.
         23    2    1    2    0    0  0.12207151806E+02  0.15584011517E+02  0.77067557414E+02  0.12080193949E+03  0.90894577440E+02 0.  0.
         13    1    3    3    0    0  0.20932927513E+02 -0.45450418999E+02 -0.22105688514E+02  0.54704565679E+02  0.00000000000E+00 0. -1.
        -14    1    3    3    0    0 -0.10662731701E+02  0.26216982052E+02  0.13406704289E+02  0.31317147302E+02  0.00000000000E+00 0.  1.
        -13    1    4    4    0    0 -0.38575639349E+02  0.50300522623E+01  0.46383238802E+02  0.60537477803E+02  0.00000000000E+00 0.  1.
         13    1    4    4    0    0  0.50782791155E+02  0.10553959255E+02  0.30684318612E+02  0.60264461685E+02  0.00000000000E+00 0. -1.
          4    1    1    2  501    0 -0.22477347618E+02  0.36494254298E+01  0.19650333156E+02  0.30077982896E+02  0.00000000000E+00 0. -1.
<scales pt_clust_5="13000.00000" pt_clust_6="13000.00000" pt_clust_7="13000.00000" pt_clust_8="13000.00000" pt_clust_9="22.77168"></scales>
<clustering>
<clus scale="   22.772">  1  9  2 -1</clus>
<clus scale="   82.757">  5  6 -1 -1</clus>
<clus scale="   84.828">  2  5  1 -1</clus>
<clus scale="   90.895">  7  8 -1 -1</clus>
<clus scale="   22.772">  1  5  2 -1</clus>
</clustering>
</event>
<event>
 9    1  0.7835476E-005  0.1473863E+03  0.7546771E-02  0.1227588E+00
          3   -1    0    0  502    0 -0.00000000000E+00  0.00000000000E+00  0.91830549794E+03  0.91830549794E+03  0.00000000000E+00 0. -1.
         21   -1    0    0  501  502  0.00000000000E+00 -0.00000000000E+00 -0.48447441416E+02  0.48447441416E+02  0.00000000000E+00 0. -1.
        -24    2    1    2    0    0  0.31785596511E+02  0.20122258740E+02  0.46094593564E+02  0.10019542240E+03  0.80617502266E+02 0.  0.
         23    2    1    2    0    0 -0.88204849587E+02 -0.10099655170E+03  0.39901861244E+03  0.43051626727E+03  0.90266296974E+02 0.  0.
         11    1    3    3    0    0  0.58110035838E+02  0.88707384472E+01  0.39487365346E+02  0.70814675651E+02  0.00000000000E+00 0. -1.
        -12    1    3    3    0    0 -0.26324439327E+02  0.11251520292E+02  0.66072282189E+01  0.29380746748E+02  0.00000000000E+00 0.  1.
        -13    1    4    4    0    0 -0.23850211433E+02 -0.76256463897E+02  0.12820745733E+03  0.15106631983E+03  0.00000000000E+00 0.  1.
         13    1    4    4    0    0 -0.64354638155E+02 -0.24740087803E+02  0.27081115510E+03  0.27944994744E+03  0.00000000000E+00 0. -1.
          4    1    1    2  501    0  0.56419253076E+02  0.80874292960E+02  0.42474485053E+03  0.43604124969E+03  0.00000000000E+00 0. -1.
<scales pt_clust_5="13000.00000" pt_clust_6="13000.00000" pt_clust_7="13000.00000" pt_clust_8="13000.00000" pt_clust_9="116.51070"></scales>
<clustering>
<clus scale="   80.618">  5  6 -1 -1</clus>
<clus scale="   88.963">  1  5  2 -1</clus>
<clus scale="   90.266">  7  8 -1 -1</clus>
<clus scale="  116.511">  2  9  1 -1</clus>
<clus scale="  116.511">  2  5  1 -1</clus>
</clustering>
</event>
<event>
 9    1  0.7835476E-005  0.1020197E+03  0.7546771E-02  0.1280873E+00
         21   -1    0    0  501  502  0.00000000000E+00  0.00000000000E+00  0.20640367528E+03  0.20640367528E+03  0.00000000000E+00 0. -1.
         -2   -1    0    0    0  501 -0.00000000000E+00 -0.00000000000E+00 -0.10453771518E+03  0.10453771518E+03  0.00000000000E+00 0.  1.
         23    2    1    2    0    0  0.32974654542E+02 -0.96318994247E+01  0.28549459687E+02  0.10127617020E+03  0.90893837375E+02 0.  0.
        -24    2    1    2    0    0 -0.66036103741E+02 -0.47432731765E+02  0.84971553847E+02  0.14269304823E+03  0.80811571015E+02 0.  0.
         13    1    4    4    0    0 -0.63347155626E+02 -0.46528345033E+02  0.10011722743E+03  0.12728396696E+03  0.00000000000E+00 0. -1.
        -14    1    4    4    0    0 -0.26889481155E+01 -0.90438673184E+00 -0.15145673581E+02  0.15409081269E+02  0.00000000000E+00 0.  1.
        -11    1    3    3    0    0  0.31672797208E+02 -0.40500835151E+02  0.43132536819E+02  0.67111097915E+02  0.00000000000E+00 0.  1.
         11    1    3    3    0    0  0.13018573341E+01  0.30868935726E+02 -0.14583077132E+02  0.34165072282E+02  0.00000000000E+00 0. -1.
         -1    1    1    2    0  502  0.33061449199E+02  0.57064631190E+02 -0.11655053440E+02  0.66972172032E+02  0.00000000000E+00 0.  1.
<scales pt_clust_5="13000.00000" pt_clust_6="13000.00000" pt_clust_7="13000.00000" pt_clust_8="13000.00000" pt_clust_9="65.95025"></scales>
<clustering>
<clus scale="   65.950">  1  9  2 -1</clus>
<clus scale="   80.812">  5  6 -1 -1</clus>
<clus scale="   90.894">  7  8 -1 -1</clus>
<clus scale="   93.150">  1  5  2 -1</clus>
<clus scale="   65.950">  1  5  2 -1</clus>
</clustering>
</event>
<event>
 9    1  0.7835476E-005  0.1404656E+03  0.7546771E-02  0.1219681E+00
         21   -1    0    0  501  502  0.00000000000E+00  0.00000000000E+00  0.27390811423E+03  0.27390811423E+03  0.00000000000E+00 0. -1.
          1   -1    0    0  502    0 -0.00000000000E+00 -0.00000000000E+00 -0.24489843321E+03  0.24489843321E+03  0.00000000000E+00 0. -1.
         23    2    1    2    0    0  0.25988745504E+02  0.78188669238E+02 -0.14966584510E+03  0.19259130076E+03  0.88896912470E+02 0.  0.
        -24    2    1    2    0    0  0.93794849209E+02  0.93261254521E+01  0.83867991627E+02  0.15016009211E+03  0.81423355913E+02 0.  0.
         11    1    4    4    0    0  0.84712593718E+02  0.31533699458E+02  0.37320344849E+02  0.97792667800E+02  0.00000000000E+00 0. -1.
        -12    1    4    4    0    0  0.90822554912E+01 -0.22207574005E+02  0.46547646778E+02  0.52367424308E+02  0.00000000000E+00 0.  1.
        -13    1    3    3    0    0  0.49534986730E+02  0.26380169588E+02 -0.10915287574E+03  0.12273540051E+03  0.00000000000E+00 0. -1.
         13    1    3    3    0    0 -0.23546241226E+02  0.51808499649E+02 -0.40512969368E+02  0.69855900243E+02  0.00000000000E+00 0.  1.
          2    1    1    2  501    0 -0.11978359471E+03 -0.87514794690E+02  0.94807534497E+02  0.17605515457E+03  0.00000000000E+00 0. -1.
<scales pt_clust_5="13000.00000" pt_clust_6="13000.00000" pt_clust_7="13000.00000" pt_clust_8="13000.00000" pt_clust_9="114.45891"></scales>
<clustering>
<clus scale="   81.423">  5  6 -1 -1</clus>
<clus scale="   88.897">  7  8 -1 -1</clus>
<clus scale="  121.209">  2  7  1 -1</clus>
<clus scale="  114.459">  1  9  2 -1</clus>
<clus scale="  114.459">  1  5  2 -1</clus>
</clustering>
</event>
<event>
 9    1  0.7835476E-005  0.1369877E+03  0.7546771E-02  0.1220017E+00
         21   -1    0    0  501  502  0.00000000000E+00  0.00000000000E+00  0.21136857399E+03  0.21136857399E+03  0.00000000000E+00 0.  1.
          1   -1    0    0  502    0 -0.00000000000E+00 -0.00000000000E+00 -0.18448030255E+03  0.18448030255E+03  0.00000000000E+00 0. -1.
        -24    2    1    2    0    0  0.17868616391E+02  0.94260961412E+02 -0.75900731204E+02  0.14711249437E+03  0.81711374391E+02 0.  0.
         23    2    1    2    0    0 -0.29658482510E+02 -0.12057962770E+03  0.13496823984E+03  0.20552554506E+03  0.92764495945E+02 0.  0.
         11    1    3    3    0    0  0.16715508862E+02  0.99636913422E+02 -0.87898801849E+02  0.13391460756E+03  0.00000000000E+00 0. -1.
        -12    1    3    3    0    0  0.11531075289E+01 -0.53759520094E+01  0.11998070645E+02  0.13197886807E+02  0.00000000000E+00 0.  1.
        -13    1    4    4    0    0 -0.35564820933E+02 -0.72463635002E+02  0.23656542665E+02  0.84115794573E+02  0.00000000000E+00 0. -1.
         13    1    4    4    0    0  0.59063384228E+01 -0.48115992693E+02  0.11131169717E+03  0.12140975049E+03  0.00000000000E+00 0.  1.
          2    1    1    2  501    0  0.11789866119E+02  0.26318666284E+02 -0.32179237185E+02  0.43210837111E+02  0.00000000000E+00 0. -1.
<scales pt_clust_5="13000.00000" pt_clust_6="13000.00000" pt_clust_7="13000.00000" pt_clust_8="13000.00000" pt_clust_9="28.83876"></scales>
<clustering>
<clus scale="   28.839">  1  9  2 -1</clus>
<clus scale="   81.711">  5  6 -1 -1</clus>
<clus scale="   92.764">  7  8 -1 -1</clus>
<clus scale="  129.758">  2  5  1 -1</clus>
<clus scale="   28.839">  1  5  2 -1</clus>
</clustering>
</event>
<event>
 9    1  0.7835476E-005  0.1117586E+03  0.7546771E-02  0.1263755E+00
          1   -1    0    0  502    0 -0.00000000000E+00  0.00000000000E+00  0.68949343408E+02  0.68949343408E+02  0.00000000000E+00 0. -1.
         21   -1    0    0  501  502  0.00000000000E+00 -0.00000000000E+00 -0.45559826449E+03  0.45559826449E+03  0.00000000000E+00 0. -1.
         23    2    1    2    0    0 -0.72377163474E+02 -0.36743132477E+02 -0.60617637673E+02  0.13743672905E+03  0.92875426884E+02 0.  0.
        -24    2    1    2    0    0  0.80826759677E+01  0.59440656022E+02 -0.64033416078E+02  0.11638621949E+03  0.76465367799E+02 0.  0.
         13    1    4    4    0    0 -0.20450022072E+00  0.66752971242E+02 -0.75283152361E+02  0.10061587360E+03  0.00000000000E+00 0. -1.
        -14    1    4    4    0    0  0.82871761884E+01 -0.73123152199E+01  0.11249736284E+02  0.15770345890E+02  0.00000000000E+00 0.  1.
        -13    1    3    3    0    0 -0.43856129198E+02 -0.13272592597E+01 -0.77395948659E+02  0.88967716360E+02  0.00000000000E+00 0.  1.
         13    1    3    3    0    0 -0.28521034276E+02 -0.35415873217E+02  0.16778310986E+02  0.48469012693E+02  0.00000000000E+00 0. -1.
          2    1    1    2  501    0  0.64294487506E+02 -0.22697523546E+02 -0.26199786733E+03  0.27072465936E+03  0.00000000000E+00 0. -1.
<scales pt_clust_5="13000.00000" pt_clust_6="13000.00000" pt_clust_7="13000.00000" pt_clust_8="13000.00000" pt_clust_9="68.18327"></scales>
<clustering>
<clus scale="   68.183">  2  9  1 -1</clus>
<clus scale="   76.465">  5  6 -1 -1</clus>
<clus scale="   92.875">  7  8 -1 -1</clus>
<clus scale="   98.545">  2  5  1 -1</clus>
<clus scale="   68.183">  2  5  1 -1</clus>
</clustering>
</event>
<event>
 9    1  0.7835476E-005  0.1167331E+03  0.7546771E-02  0.1253636E+00
          1   -1    0    0  502    0 -0.00000000000E+00  0.00000000000E+00  0.50409419397E+03  0.50409419397E+03  0.00000000000E+00 0. -1.
         21   -1    0    0  501  502  0.00000000000E+00 -0.00000000000E+00 -0.34340636140E+02  0.34340636140E+02  0.00000000000E+00 0. -1.
        -24    2    1    2    0    0  0.72685845489E+02 -0.37034146118E+02  0.23168320790E+03  0.25732459068E+03  0.76707731234E+02 0.  0.
         23    2    1    2    0    0 -0.38811166994E+02  0.52233463851E+02  0.17474177584E+03  0.20770028508E+03  0.91488134569E+02 0.  0.
         11    1    3    3    0    0  0.87338565284E+02 -0.23124689370E+02  0.20343522458E+03  0.22259529834E+03  0.00000000000E+00 0. -1.
        -12    1    3    3    0    0 -0.14652719796E+02 -0.13909456748E+02  0.28247983329E+02  0.34729292343E+02  0.00000000000E+00 0.  1.
        -13    1    4    4    0    0  0.82097907722E+01  0.61805359406E+02  0.79304877258E+02  0.10087897042E+03  0.00000000000E+00 0. -1.
         13    1    4    4    0    0 -0.47020957766E+02 -0.95718955550E+01  0.95436898585E+02  0.10682131466E+03  0.00000000000E+00 0.  1.
          2    1    1    2  501    0 -0.33874678495E+02 -0.15199317733E+02  0.63328574079E+02  0.73409954349E+02  0.00000000000E+00 0. -1.
<scales pt_clust_5="13000.00000" pt_clust_6="13000.00000" pt_clust_7="13000.00000" pt_clust_8="13000.00000" pt_clust_9="37.12833"></scales>
<clustering>
<clus scale="   37.128">  2  9  1 -1</clus>
<clus scale="   76.708">  5  6 -1 -1</clus>
<clus scale="   91.488">  7  8 -1 -1</clus>
<clus scale="  105.549">  1  5  2 -1</clus>
<clus scale="   37.128">  2  5  1 -1</clus>
</clustering>
</event>
<event>
 9    1  0.2733254E-004  0.9906555E+02  0.7546771E-02  0.1285014E+00
         -2   -1    0    0    0  501 -0.00000000000E+00  0.00000000000E+00  0.93887666574E+03  0.93887666574E+03  0.00000000000E+00 0.  1.
         21   -1    0    0  501  502  0.00000000000E+00 -0.00000000000E+00 -0.26067762695E+03  0.26067762695E+03  0.00000000000E+00 0. -1.
        -24    2    1    2    0    0  0.85833528486E+01  0.22903932839E+02  0.90484761533E+03  0.91027262281E+03  0.96170560820E+02 0.  0.
         23    2    1    2    0    0  0.37035543853E+02 -0.14566432270E+02 -0.59421456265E+02  0.11574346830E+03  0.91004552264E+02 0.  0.
         11    1    3    3    0    0  0.25702710064E+02  0.24277917652E+02  0.11670800261E+03  0.12194590794E+03  0.00000000000E+00 0. -1.
        -12    1    3    3    0    0 -0.17119357215E+02 -0.13739848133E+01  0.78813961273E+03  0.78832671487E+03  0.00000000000E+00 0.  1.
        -13    1    4    4    0    0 -0.22283508095E+02 -0.31965901058E+01  0.92073097594E+01  0.24321748998E+02  0.00000000000E+00 0.  1.
         13    1    4    4    0    0  0.59319051948E+02 -0.11369842164E+02 -0.68628766024E+02  0.91421719306E+02  0.00000000000E+00 0. -1.
         -1    1    1    2    0  502 -0.45618896702E+02 -0.83375005692E+01 -0.16722712028E+03  0.17353820158E+03  0.00000000000E+00 0.  1.
<scales pt_clust_5="13000.00000" pt_clust_6="13000.00000" pt_clust_7="13000.00000" pt_clust_8="13000.00000" pt_clust_9="46.37454"></scales>
<clustering>
<clus scale="   46.375">  2  9  1 -1</clus>
<clus scale="   91.005">  7  8 -1 -1</clus>
<clus scale="   94.059">  2  7  1 -1</clus>
<clus scale="   96.171">  5  6 -1 -1</clus>
<clus scale="   46.375">  2  5  1 -1</clus>
</clustering>
</event>
<event>
 9    1  0.7835476E-005  0.2330638E+03  0.7546771E-02  0.1138974E+00
          1   -1    0    0  502    0 -0.00000000000E+00  0.00000000000E+00  0.16297293032E+04  0.16297293032E+04  0.00000000000E+00 0. -1.
         21   -1    0    0  501  502  0.00000000000E+00 -0.00000000000E+00 -0.61576256098E+02  0.61576256098E+02  0.00000000000E+00 0. -1.
         23    2    1    2    0    0 -0.11386604107E+03 -0.61447237140E+02  0.43016888675E+03  0.46020354457E+03  0.10000396515E+03 0.  0.
        -24    2    1    2    0    0  0.27450180656E+02 -0.18563175267E+03  0.57013060354E+03  0.60582336475E+03  0.82221555345E+02 0.  0.
         13    1    4    4    0    0  0.47496937319E+02 -0.16423740121E+03  0.43169576477E+03  0.46431790439E+03  0.00000000000E+00 0. -1.
        -14    1    4    4    0    0 -0.20046756663E+02 -0.21394351453E+02  0.13843483877E+03  0.14150546036E+03  0.00000000000E+00 0.  1.
        -11    1    3    3    0    0 -0.44428226532E+01 -0.42942056790E+02  0.20092106068E+03  0.20550676762E+03  0.00000000000E+00 0. -1.
         11    1    3    3    0    0 -0.10942321842E+03 -0.18505180350E+02  0.22924782608E+03  0.25469677695E+03  0.00000000000E+00 0.  1.
          2    1    1    2  501    0  0.86415860419E+02  0.24707898981E+03  0.56785355681E+03  0.62527864998E+03  0.00000000000E+00 0. -1.
<scales pt_clust_5="13000.00000" pt_clust_6="13000.00000" pt_clust_7="13000.00000" pt_clust_8="13000.00000" pt_clust_9="218.07891"></scales>
<clustering>
<clus scale="   82.222">  5  6 -1 -1</clus>
<clus scale="  100.004">  7  8 -1 -1</clus>
<clus scale="  163.530">  1  7  2 -1</clus>
<clus scale="  218.079">  2  9  1 -1</clus>
<clus scale="  218.079">  2  5  1 -1</clus>
</clustering>
</event>
<event>
 9    1  0.7835476E-005  0.1273664E+03  0.7546771E-02  0.1232949E+00
         21   -1    0    0  501  502  0.00000000000E+00  0.00000000000E+00  0.40804671028E+03  0.40804671028E+03  0.00000000000E+00 0.  1.
          1   -1    0    0  502    0 -0.00000000000E+00 -0.00000000000E+00 -0.11684703544E+03  0.11684703544E+03  0.00000000000E+00 0. -1.
         23    2    1    2    0    0  0.11496134629E+03  0.38196339361E+02 -0.19039491118E+02  0.15393113988E+03  0.93044194453E+02 0.  0.
        -24    2    1    2    0    0 -0.28084637417E+02 -0.25490480782E+02  0.79884034181E+02  0.12444183972E+03  0.87554560632E+02 0.  0.
         11    1    4    4    0    0  0.11063405819E+02  0.21427106684E+02  0.31463506384E+00  0.24116775165E+02  0.00000000000E+00 0. -1.
        -12    1    4    4    0    0 -0.39148043236E+02 -0.46917587466E+02  0.79569399117E+02  0.10032506456E+03  0.00000000000E+00 0.  1.
        -11    1    3    3    0    0  0.10888705789E+03  0.61696500672E+02 -0.36765677840E+01  0.12520529830E+03  0.00000000000E+00 0. -1.
         11    1    3    3    0    0  0.60742884001E+01 -0.23500161312E+02 -0.15362923334E+02  0.28725841582E+02  0.00000000000E+00 0.  1.
          2    1    1    2  501    0 -0.86876708873E+02 -0.12705858579E+02  0.23035513178E+03  0.24652076611E+03  0.00000000000E+00 0. -1.
<scales pt_clust_5="13000.00000" pt_clust_6="13000.00000" pt_clust_7="13000.00000" pt_clust_8="13000.00000" pt_clust_9="87.80092"></scales>
<clustering>
<clus scale="   87.555">  5  6 -1 -1</clus>
<clus scale="   87.801">  1  9  2 -1</clus>
<clus scale="   93.044">  7  8 -1 -1</clus>
<clus scale="  123.413">  1  5  2 -1</clus>
<clus scale="   87.801">  1  5  2 -1</clus>
</clustering>
</event>
<event>
 9    1  0.7835476E-005  0.9427071E+02  0.7546771E-02  0.1299547E+00
          1   -1    0    0  502    0 -0.00000000000E+00  0.00000000000E+00  0.28382320271E+03  0.28382320271E+03  0.00000000000E+00 0. -1.
         21   -1    0    0  501  502  0.00000000000E+00 -0.00000000000E+00 -0.47034279855E+02  0.47034279855E+02  0.00000000000E+00 0. -1.
         23    2    1    2    0    0 -0.24407213562E+02 -0.15683771742E+02  0.15402353694E+03  0.18147292003E+03  0.91473919809E+02 0.  0.
        -24    2    1    2    0    0  0.20486515337E+02 -0.14588911280E+02  0.84147517749E+02  0.11882777114E+03  0.80041869090E+02 0.  0.
         11    1    4    4    0    0  0.46147178956E+02  0.30762073719E+01  0.71608916886E+02  0.85245892305E+02  0.00000000000E+00 0. -1.
        -12    1    4    4    0    0 -0.25660663619E+02 -0.17665118652E+02  0.12538600863E+02  0.33581878833E+02  0.00000000000E+00 0.  1.
        -11    1    3    3    0    0  0.31282779114E+02 -0.81745610314E+01  0.93271510021E+02  0.98716818723E+02  0.00000000000E+00 0.  1.
         11    1    3    3    0    0 -0.55689992677E+02 -0.75092107110E+01  0.60752026917E+02  0.82756101312E+02  0.00000000000E+00 0. -1.
          2    1    1    2  501    0  0.39206982252E+01  0.30272683022E+02 -0.13821318290E+01  0.30556791395E+02  0.00000000000E+00 0. -1.
<scales pt_clust_5="13000.00000" pt_clust_6="13000.00000" pt_clust_7="13000.00000" pt_clust_8="13000.00000" pt_clust_9="30.52552"></scales>
<clustering>
<clus scale="   30.526">  2  9  1 -1</clus>
<clus scale="   80.042">  5  6 -1 -1</clus>
<clus scale="   83.224">  2  5  1 -1</clus>
<clus scale="   91.474">  7  8 -1 -1</clus>
<clus scale="   30.526">  2  5  1 -1</clus>
</clustering>
</event>
<event>
 9    1  0.7835476E-005  0.2610774E+03  0.7546771E-02  0.1125634E+00
         21   -1    0    0  501  502  0.00000000000E+00  0.00000000000E+00  0.59501744926E+03  0.59501744926E+03  0.00000000000E+00 0. -1.
          1   -1    0    0  502    0 -0.00000000000E+00 -0.00000000000E+00 -0.57011474764E+03  0.57011474764E+03  0.00000000000E+00 0. -1.
         23    2    1    2    0    0 -0.13291014197E+03  0.10027197176E+02 -0.37146700968E+03  0.40494280777E+03  0.90693372198E+02 0.  0.
        -24    2    1    2    0    0 -0.13996984307E+03 -0.22573964951E+02 -0.10108130657E+03  0.19266985396E+03  0.82480914290E+02 0.  0.
         11    1    4    4    0    0 -0.14702030936E+03 -0.32101274959E+02 -0.10018631199E+03  0.18078373911E+03  0.00000000000E+00 0. -1.
        -12    1    4    4    0    0  0.70504662843E+01  0.95273100078E+01 -0.89499458423E+00  0.11886114845E+02  0.00000000000E+00 0.  1.
        -11    1    3    3    0    0 -0.31616091307E+02  0.16933899257E+02 -0.24521934957E+02  0.43447203220E+02  0.00000000000E+00 0.  1.
         11    1    3    3    0    0 -0.10129405067E+03 -0.69067020814E+01 -0.34694507472E+03  0.36149560455E+03  0.00000000000E+00 0. -1.
          2    1    1    2  501    0  0.27287998505E+03  0.12546767775E+02  0.49745101787E+03  0.56751953517E+03  0.00000000000E+00 0. -1.
<scales pt_clust_5="13000.00000" pt_clust_6="13000.00000" pt_clust_7="13000.00000" pt_clust_8="13000.00000" pt_clust_9="247.70611"></scales>
<clustering>
<clus scale="   82.481">  5  6 -1 -1</clus>
<clus scale="   90.693">  7  8 -1 -1</clus>
<clus scale="  161.217">  2  7  1 -1</clus>
<clus scale="  247.706">  1  9  2 -1</clus>
<clus scale="  247.706">  1  5  2 -1</clus>
</clustering>
</event>
<event>
 9    1  0.7835476E-005  0.1516841E+03  0.7546771E-02  0.1200609E+00
          1   -1    0    0  502    0 -0.00000000000E+00  0.00000000000E+00  0.39888043257E+03  0.39888043257E+03  0.00000000000E+00 0. -1.
         21   -1    0    0  501  502  0.00000000000E+00 -0.00000000000E+00 -0.88122720571E+02  0.88122720571E+02  0.00000000000E+00 0. -1.
         23    2    1    2    0    0  0.12213100992E+03  0.77813987699E+02  0.24491873321E+03  0.29885383350E+03  0.91418967685E+02 0.  0.
        -24    2    1    2    0    0 -0.69931572967E+02 -0.51164233824E+02  0.48808295383E+02  0.12711625666E+03  0.79171265552E+02 0.  0.
         13    1    4    4    0    0  0.44252848272E+01 -0.39318917937E+02  0.46790407171E+01  0.39842864801E+02  0.00000000000E+00 0. -1.
        -14    1    4    4    0    0 -0.74356857794E+02 -0.11845315887E+02  0.44129254666E+02  0.87273391861E+02  0.00000000000E+00 0.  1.
        -11    1    3    3    0    0  0.79571320294E+02  0.63089809849E+01  0.74415561334E+02  0.10912870394E+03  0.00000000000E+00 0.  1.
         11    1    3    3    0    0  0.42559689624E+02  0.71505006714E+02  0.17050317188E+03  0.18972512956E+03  0.00000000000E+00 0. -1.
          2    1    1    2  501    0 -0.52199436952E+02 -0.26649753875E+02  0.17030683404E+02  0.61033062981E+02  0.00000000000E+00 0. -1.
<scales pt_clust_5="13000.00000" pt_clust_6="13000.00000" pt_clust_7="13000.00000" pt_clust_8="13000.00000" pt_clust_9="58.60879"></scales>
<clustering>
<clus scale="   58.609">  2  9  1 -1</clus>
<clus scale="   79.171">  5  6 -1 -1</clus>
<clus scale="   91.419">  7  8 -1 -1</clus>
<clus scale="  144.633">  2  5  1 -1</clus>
<clus scale="   58.609">  2  5  1 -1</clus>
</clustering>
</event>
<event>
 9    1  0.7835476E-005  0.1050726E+03  0.7546771E-02  0.1276435E+00
         -2   -1    0    0    0  501 -0.00000000000E+00  0.00000000000E+00  0.50714922564E+03  0.50714922564E+03  0.00000000000E+00 0.  1.
         21   -1    0    0  501  502  0.00000000000E+00 -0.00000000000E+00 -0.34978718674E+02  0.34978718674E+02  0.00000000000E+00 0. -1.
        -24    2    1    2    0    0  0.32673985699E+02 -0.26248501207E+02  0.32797556869E+03  0.34026201285E+03  0.80334865229E+02 0.  0.
         23    2    1    2    0    0 -0.40060300406E+02  0.47341893179E+02  0.13880835147E+03  0.17887671340E+03  0.94249868129E+02 0.  0.
         11    1    3    3    0    0  0.96438002643E+01  0.29097025100E+02  0.10847047007E+03  0.11271859931E+03  0.00000000000E+00 0. -1.
        -12    1    3    3    0    0  0.23030185435E+02 -0.55345526307E+02  0.21950509862E+03  0.22754341354E+03  0.00000000000E+00 0.  1.
        -13    1    4    4    0    0 -0.29819459880E+02 -0.25199534361E+02  0.56635591884E+02  0.68788131153E+02  0.00000000000E+00 0.  1.
         13    1    4    4    0    0 -0.10240840527E+02  0.72541427540E+02  0.82172759584E+02  0.11008858225E+03  0.00000000000E+00 0. -1.
         -1    1    1    2    0  502  0.73863147074E+01 -0.21093391972E+02  0.53865868109E+01  0.22989218067E+02  0.00000000000E+00 0.  1.
<scales pt_clust_5="13000.00000" pt_clust_6="13000.00000" pt_clust_7="13000.00000" pt_clust_8="13000.00000" pt_clust_9="22.34925"></scales>
<clustering>
<clus scale="   22.349">  2  9  1 -1</clus>
<clus scale="   80.335">  5  6 -1 -1</clus>
<clus scale="   92.795">  1  5  2 -1</clus>
<clus scale="   94.250">  7  8 -1 -1</clus>
<clus scale="   22.349">  2  5  1 -1</clus>
</clustering>
</event>
<event>
 9    1  0.7835476E-005  0.1194787E+03  0.7546771E-02  0.1264108E+00
          1   -1    0    0  502    0 -0.00000000000E+00  0.00000000000E+00  0.10237988388E+04  0.10237988388E+04  0.00000000000E+00 0. -1.
         21   -1    0    0  501  502  0.00000000000E+00 -0.00000000000E+00 -0.41848287805E+02  0.41848287805E+02  0.00000000000E+00 0.  1.
        -24    2    1    2    0    0  0.14679399604E+02  0.20264407919E+01  0.53385041668E+03  0.53982553155E+03  0.78713060477E+02 0.  0.
         23    2    1    2    0    0  0.33484154838E+02  0.67775124539E+02  0.68204712715E+02  0.13657550599E+03  0.91029280279E+02 0.  0.
         13    1    3    3    0    0 -0.88968048168E+00 -0.35955929136E+02  0.17666490668E+03  0.18028896146E+03  0.00000000000E+00 0. -1.
        -14    1    3    3    0    0  0.15569080086E+02  0.37982369928E+02  0.35718550999E+03  0.35953657009E+03  0.00000000000E+00 0.  1.
        -13    1    4    4    0    0  0.43716486357E+02 -0.51991338086E+01  0.32317997263E+02  0.54613323639E+02  0.00000000000E+00 0.  1.
         13    1    4    4    0    0 -0.10232331519E+02  0.72974258348E+02  0.35886715452E+02  0.81962182350E+02  0.00000000000E+00 0. -1.
          2    1    1    2  501    0 -0.48163554442E+02 -0.69801565331E+02  0.37989542158E+03  0.38924608904E+03  0.00000000000E+00 0. -1.
<scales pt_clust_5="13000.00000" pt_clust_6="13000.00000" pt_clust_7="13000.00000" pt_clust_8="13000.00000" pt_clust_9="77.38751"></scales>
<clustering>
<clus scale="   78.713">  5  6 -1 -1</clus>
<clus scale="   80.096">  1  5  2 -1</clus>
<clus scale="   77.388">  2  9  1 -1</clus>
<clus scale="   91.029">  7  8 -1 -1</clus>
<clus scale="   77.388">  2  5  1 -1</clus>
</clustering>
</event>
<event>
 9    1  0.7835476E-005  0.1476571E+03  0.7546771E-02  0.1216185E+00
          3   -1    0    0  502    0 -0.00000000000E+00  0.00000000000E+00  0.82165242693E+02  0.82165242693E+02  0.00000000000E+00 0. -1.
         21   -1    0    0  501  502  0.00000000000E+00 -0.00000000000E+00 -0.64832505404E+03  0.64832505404E+03  0.00000000000E+00 0. -1.
         23    2    1    2    0    0  0.60677181609E+02  0.33743280390E+02 -0.32433836222E+03  0.34323748861E+03  0.88296495082E+02 0.  0.
        -24    2    1    2    0    0  0.46474362635E+01  0.10850261475E+03 -0.16172091114E+03  0.21141965831E+03  0.82159617511E+02 0.  0.
         13    1    4    4    0    0 -0.12522939465E+02  0.30384103285E+02 -0.21602279238E+01  0.32934546148E+02  0.00000000000E+00 0. -1.
        -14    1    4    4    0    0  0.17170375729E+02  0.78118511468E+02 -0.15956068321E+03  0.17848511217E+03  0.00000000000E+00 0.  1.
        -11    1    3    3    0    0  0.60340017727E+02 -0.15168283637E+02 -0.15639682484E+03  0.16831803643E+03  0.00000000000E+00 0.  1.
         11    1    3    3    0    0  0.33716388215E+00  0.48911564027E+02 -0.16794153738E+03  0.17491945218E+03  0.00000000000E+00 0. -1.
          4    1    1    2  501    0 -0.65324617872E+02 -0.14224589514E+03 -0.80100537993E+02  0.17583314981E+03  0.00000000000E+00 0. -1.
<scales pt_clust_5="13000.00000" pt_clust_6="13000.00000" pt_clust_7="13000.00000" pt_clust_8="13000.00000" pt_clust_9="122.68831"></scales>
<clustering>
<clus scale="   82.160">  5  6 -1 -1</clus>
<clus scale="   88.296">  7  8 -1 -1</clus>
<clus scale="  112.324">  1  7  2 -1</clus>
<clus scale="  122.688">  2  9  1 -1</clus>
<clus scale="  122.688">  2  5  1 -1</clus>
</clustering>
</event>
<event>
 9    1  0.7835476E-005  0.1023175E+03  0.7546771E-02  0.1280376E+00
         -2   -1    0    0    0  501 -0.00000000000E+00  0.00000000000E+00  0.71618372334E+02  0.71618372334E+02  0.00000000000E+00 0.  1.
         21   -1    0    0  501  502  0.00000000000E+00 -0.00000000000E+00 -0.22988478196E+03  0.22988478196E+03  0.00000000000E+00 0. -1.
        -24    2    1    2    0    0  0.43062601576E+02 -0.19044790232E+02 -0.36277447372E+02  0.10012843967E+03  0.80576420582E+02 0.  0.
         23    2    1    2    0    0 -0.15038473506E+02  0.58802965105E+02 -0.99286410350E+02  0.14769538819E+03  0.90951591638E+02 0.  0.
         11    1    3    3    0    0  0.96862273764E+01 -0.20910872485E+02 -0.56527637964E+02  0.61044749510E+02  0.00000000000E+00 0. -1.
        -12    1    3    3    0    0  0.33376374199E+02  0.18660822534E+01  0.20250190592E+02  0.39083690162E+02  0.00000000000E+00 0.  1.
        -11    1    4    4    0    0 -0.24574072288E+02  0.21469689750E+02 -0.10388557548E+03  0.10889006107E+03  0.00000000000E+00 0.  1.
         11    1    4    4    0    0  0.95355987823E+01  0.37333275355E+02  0.45991651312E+01  0.38805327119E+02  0.00000000000E+00 0. -1.
         -1    1    1    2    0  502 -0.28024128070E+02 -0.39758174873E+02 -0.22702551902E+02  0.53679326432E+02  0.00000000000E+00 0.  1.
<scales pt_clust_5="13000.00000" pt_clust_6="13000.00000" pt_clust_7="13000.00000" pt_clust_8="13000.00000" pt_clust_9="48.64223"></scales>
<clustering>
<clus scale="   48.642">  2  9  1 -1</clus>
<clus scale="   80.576">  5  6 -1 -1</clus>
<clus scale="   90.952">  7  8 -1 -1</clus>
<clus scale="   93.216">  1  5  2 -1</clus>
<clus scale="   48.642">  2  5  1 -1</clus>
</clustering>
</event>
<event>
 9    1  0.7835476E-005  0.1368906E+03  0.7546771E-02  0.1219660E+00
         21   -1    0    0  501  502  0.00000000000E+00  0.00000000000E+00  0.15123164434E+03  0.15123164434E+03  0.00000000000E+00 0.  1.
          1   -1    0    0  502    0 -0.00000000000E+00 -0.00000000000E+00 -0.24790233965E+03  0.24790233965E+03  0.00000000000E+00 0. -1.
         23    2    1    2    0    0 -0.10239243545E+03 -0.67558177390E+02 -0.14595299814E+03  0.21075874992E+03  0.89825691377E+02 0.  0.
        -24    2    1    2    0    0  0.50455010329E+02  0.54666421057E+02 -0.80223006747E+01  0.10996916866E+03  0.80589919278E+02 0.  0.
         11    1    4    4    0    0 -0.22277296127E+01  0.52442004077E+02 -0.19518411003E+02  0.56000847662E+02  0.00000000000E+00 0. -1.
        -12    1    4    4    0    0  0.52682739942E+02  0.22244169803E+01  0.11496110328E+02  0.53968320998E+02  0.00000000000E+00 0.  1.
        -13    1    3    3    0    0 -0.39521838047E+02 -0.59332945535E+02 -0.12514295800E+03  0.14402476886E+03  0.00000000000E+00 0.  1.
         13    1    3    3    0    0 -0.62870597406E+02 -0.82252318559E+01 -0.20810040140E+02  0.66733981058E+02  0.00000000000E+00 0. -1.
          2    1    1    2  501    0  0.51937425123E+02  0.12891756333E+02  0.57304603512E+02  0.78406065412E+02  0.00000000000E+00 0. -1.
<scales pt_clust_5="13000.00000" pt_clust_6="13000.00000" pt_clust_7="13000.00000" pt_clust_8="13000.00000" pt_clust_9="53.51349"></scales>
<clustering>
<clus scale="   53.513">  1  9  2 -1</clus>
<clus scale="   80.590">  5  6 -1 -1</clus>
<clus scale="   89.826">  7  8 -1 -1</clus>
<clus scale="  131.016">  1  5  2 -1</clus>
<clus scale="   53.513">  1  5  2 -1</clus>
</clustering>
</event>
<event>
 9    1  0.9599049E-005  0.3403168E+03  0.7546771E-02  0.1116428E+00
         21   -1    0    0  501  502  0.00000000000E+00  0.00000000000E+00  0.17578269809E+03  0.17578269809E+03  0.00000000000E+00 0.  1.
          1   -1    0    0  502    0 -0.00000000000E+00 -0.00000000000E+00 -0.11425701754E+04  0.11425701754E+04  0.00000000000E+00 0. -1.
        -24    2    1    2    0    0  0.24084932876E+02 -0.33097993505E+02 -0.55038147102E+02  0.10685773555E+03  0.81937884068E+02 0.  0.
         23    2    1    2    0    0  0.11623255665E+03 -0.29635142436E+03 -0.13813866257E+03  0.35902849232E+03  0.92114028553E+02 0.  0.
         13    1    3    3    0    0  0.33679215103E+02 -0.21735886127E+02 -0.73156305747E+02  0.83418123608E+02  0.00000000000E+00 0. -1.
        -14    1    3    3    0    0 -0.95942822271E+01 -0.11362107377E+02  0.18118158645E+02  0.23439611946E+02  0.00000000000E+00 0.  1.
        -13    1    4    4    0    0 -0.37065460732E+01 -0.54090550488E+02  0.25637093814E+01  0.54277976581E+02  0.00000000000E+00 0. -1.
         13    1    4    4    0    0  0.11993910273E+03 -0.24226087387E+03 -0.14070237195E+03  0.30475051574E+03  0.00000000000E+00 0.  1.
          2    1    1    2  501    0 -0.14031748953E+03  0.32944941786E+03 -0.77361066760E+03  0.85246664558E+03  0.00000000000E+00 0. -1.
<scales pt_clust_5="13000.00000" pt_clust_6="13000.00000" pt_clust_7="13000.00000" pt_clust_8="13000.00000" pt_clust_9="327.61354"></scales>
<clustering>
<clus scale="   81.938">  5  6 -1 -1</clus>
<clus scale="   91.594">  2  5  1 -1</clus>
<clus scale="   92.114">  7  8 -1 -1</clus>
<clus scale="  327.614">  1  9  2 -1</clus>
<clus scale="  327.614">  1  5  2 -1</clus>
</clustering>
</event>
<event>
 9    1  0.7835476E-005  0.1055275E+03  0.7546771E-02  0.1275216E+00
         21   -1    0    0  501  502  0.00000000000E+00  0.00000000000E+00  0.45285653714E+02  0.45285653714E+02  0.00000000000E+00 0. -1.
         -2   -1    0    0    0  501 -0.00000000000E+00 -0.00000000000E+00 -0.61030939770E+03  0.61030939770E+03  0.00000000000E+00 0.  1.
         23    2    1    2    0    0  0.41379344353E+02 -0.40808748344E+02 -0.35940489898E+03  0.37584734193E+03  0.93336696673E+02 0.  0.
        -24    2    1    2    0    0 -0.76627169277E+01  0.95012566877E+01 -0.13066951735E+02  0.81774980044E+02  0.79796058951E+02 0.  0.
         11    1    4    4    0    0 -0.35816922592E+02  0.91872446445E+01  0.16900402046E+02  0.40655639184E+02  0.00000000000E+00 0. -1.
        -12    1    4    4    0    0  0.28154205664E+02  0.31401204317E+00 -0.29967353781E+02  0.41119340860E+02  0.00000000000E+00 0.  1.
        -13    1    3    3    0    0  0.49655598581E+02 -0.66321776515E+02 -0.25953316111E+03  0.27243663158E+03  0.00000000000E+00 0.  1.
         13    1    3    3    0    0 -0.82762542274E+01  0.25513028170E+02 -0.99871737873E+02  0.10341071036E+03  0.00000000000E+00 0. -1.
         -1    1    1    2    0  502 -0.33716627425E+02  0.31307491657E+02 -0.19255189327E+03  0.19797272944E+03  0.00000000000E+00 0.  1.
<scales pt_clust_5="13000.00000" pt_clust_6="13000.00000" pt_clust_7="13000.00000" pt_clust_8="13000.00000" pt_clust_9="46.01057"></scales>
<clustering>
<clus scale="   46.011">  1  9  2 -1</clus>
<clus scale="   79.796">  5  6 -1 -1</clus>
<clus scale="   93.337">  7  8 -1 -1</clus>
<clus scale="   93.764">  1  5  2 -1</clus>
<clus scale="   46.011">  1  5  2 -1</clus>
</clustering>
</event>
<event>
 9    1  0.7835476E-005  0.1145704E+03  0.7546771E-02  0.1270415E+00
         -4   -1    0    0    0  501 -0.00000000000E+00  0.00000000000E+00  0.76062551206E+02  0.76062551206E+02  0.00000000000E+00 0.  1.
         21   -1    0    0  501  502  0.00000000000E+00 -0.00000000000E+00 -0.25966221917E+03  0.25966221917E+03  0.00000000000E+00 0.  1.
         23    2    1    2    0    0  0.34901437337E+02  0.45321090312E+02 -0.70531332034E+01  0.11946165448E+03  0.10463856195E+03 0.  0.
        -24    2    1    2    0    0 -0.38112525224E+02  0.27016018419E+01 -0.12099965780E+03  0.14276518676E+03  0.65430253953E+02 0.  0.
         11    1    4    4    0    0 -0.56207137195E+02 -0.15117428330E+01 -0.10002495490E+03  0.11474545411E+03  0.00000000000E+00 0. -1.
        -12    1    4    4    0    0  0.18094611972E+02  0.42133446749E+01 -0.20974702903E+02  0.28019732647E+02  0.00000000000E+00 0.  1.
        -11    1    3    3    0    0 -0.17862330293E+02  0.32673743443E+02 -0.41057105268E+02  0.55428532788E+02  0.00000000000E+00 0.  1.
         11    1    3    3    0    0  0.52763767629E+02  0.12647346869E+02  0.34003972064E+02  0.64033121691E+02  0.00000000000E+00 0. -1.
         -3    1    1    2    0  502  0.32110878871E+01 -0.48022692154E+02 -0.55546876962E+02  0.73497929136E+02  0.00000000000E+00 0.  1.
<scales pt_clust_5="13000.00000" pt_clust_6="13000.00000" pt_clust_7="13000.00000" pt_clust_8="13000.00000" pt_clust_9="48.12993"></scales>
<clustering>
<clus scale="   48.130">  2  9  1 -1</clus>
<clus scale="   65.430">  5  6 -1 -1</clus>
<clus scale="   80.363">  2  5  1 -1</clus>
<clus scale="  104.639">  7  8 -1 -1</clus>
<clus scale="   48.130">  2  5  1 -1</clus>
</clustering>
</event>
<event>
 9    1  0.7835476E-005  0.1250891E+03  0.7546771E-02  0.1250547E+00
         -4   -1    0    0    0  501 -0.00000000000E+00  0.00000000000E+00  0.13794844180E+04  0.13794844180E+04  0.00000000000E+00 0.  1.
         21   -1    0    0  501  502  0.00000000000E+00 -0.00000000000E+00 -0.13885514174E+03  0.13885514174E+03  0.00000000000E+00 0.  1.
         23    2    1    2    0    0  0.45768264955E+02  0.19895516465E+02  0.28429273718E+03  0.29856870992E+03  0.76356718614E+02 0.  0.
        -24    2    1    2    0    0  0.38585045796E+02 -0.65531273170E+02  0.10673254437E+04  0.10730853350E+04  0.80903521732E+02 0.  0.
         13    1    4    4    0    0  0.38246402374E+02 -0.11092499411E+01  0.21901258625E+03  0.22232977908E+03  0.00000000000E+00 0. -1.
        -14    1    4    4    0    0  0.33864342179E+00 -0.64422023229E+02  0.84831285748E+03  0.85075555591E+03  0.00000000000E+00 0.  1.
        -11    1    3    3    0    0 -0.20262206887E+02  0.13242654139E+02  0.61161133411E+02  0.65776965243E+02  0.00000000000E+00 0. -1.
         11    1    3    3    0    0  0.66030471842E+02  0.66528623263E+01  0.22313160376E+03  0.23279174467E+03  0.00000000000E+00 0.  1.
         -3    1    1    2    0  502 -0.84353310751E+02  0.45635756705E+02 -0.11098890461E+03  0.14668551486E+03  0.00000000000E+00 0.  1.
<scales pt_clust_5="13000.00000" pt_clust_6="13000.00000" pt_clust_7="13000.00000" pt_clust_8="13000.00000" pt_clust_9="95.40388"></scales>
<clustering>
<clus scale="   76.357">  7  8 -1 -1</clus>
<clus scale="   80.904">  5  6 -1 -1</clus>
<clus scale="   91.219">  1  7  2 -1</clus>
<clus scale="   95.404">  2  9  1 -1</clus>
<clus scale="   95.404">  2  5  1 -1</clus>
</clustering>
</event>
<event>
 9    1  0.7835476E-005  0.9711760E+02  0.7546771E-02  0.1291423E+00
         21   -1    0    0  501  502  0.00000000000E+00  0.00000000000E+00  0.44622531829E+03  0.44622531829E+03  0.00000000000E+00 0.  1.
         -2   -1    0    0    0  501 -0.00000000000E+00 -0.00000000000E+00 -0.13953611684E+03  0.13953611684E+03  0.00000000000E+00 0.  1.
        -24    2    1    2    0    0 -0.33862265012E+02 -0.31868729843E+01 -0.10364001200E+03  0.13596330568E+03  0.81166244540E+02 0.  0.
         23    2    1    2    0    0  0.61119535130E+02  0.41578189727E+02  0.36931987414E+03  0.38735921622E+03  0.90474579406E+02 0.  0.
         13    1    3    3    0    0 -0.13106567928E+02  0.37373180374E+02 -0.31341251254E+02  0.50505551816E+02  0.00000000000E+00 0. -1.
        -14    1    3    3    0    0 -0.20755697084E+02 -0.40560053358E+02 -0.72298760748E+02  0.85457753864E+02  0.00000000000E+00 0.  1.
        -13    1    4    4    0    0 -0.89290891978E+01 -0.20998436351E+02  0.78251523581E+02  0.81510514082E+02  0.00000000000E+00 0. -1.
         13    1    4    4    0    0  0.70048624328E+02  0.62576626078E+02  0.29106835056E+03  0.30584870214E+03  0.00000000000E+00 0.  1.
         -1    1    1    2    0  502 -0.27257270118E+02 -0.38391316743E+02  0.41009339304E+02  0.62438913233E+02  0.00000000000E+00 0.  1.
<scales pt_clust_5="13000.00000" pt_clust_6="13000.00000" pt_clust_7="13000.00000" pt_clust_8="13000.00000" pt_clust_9="47.08346"></scales>
<clustering>
<clus scale="   47.083">  1  9  2 -1</clus>
<clus scale="   81.166">  5  6 -1 -1</clus>
<clus scale="   88.511">  2  5  1 -1</clus>
<clus scale="   90.475">  7  8 -1 -1</clus>
<clus scale="   47.083">  1  5  2 -1</clus>
</clustering>
</event>
<event>
 9    1  0.7835476E-005  0.1274926E+03  0.7546771E-02  0.1234703E+00
          1   -1    0    0  502    0 -0.00000000000E+00  0.00000000000E+00  0.68302719200E+02  0.68302719200E+02  0.00000000000E+00 0. -1.
         21   -1    0    0  501  502  0.00000000000E+00 -0.00000000000E+00 -0.64695358244E+03  0.64695358244E+03  0.00000000000E+00 0. -1.
         23    2    1    2    0    0 -0.85788123209E+02  0.49412024973E+01 -0.26094345476E+02  0.12962858577E+03  0.93480681515E+02 0.  0.
        -24    2    1    2    0    0  0.92912590607E+02  0.17046288869E+02 -0.54813821750E+03  0.56209626480E+03  0.81076383537E+02 0.  0.
         11    1    4    4    0    0  0.83481243583E+02  0.43610994152E+02 -0.46059798014E+03  0.47012927600E+03  0.00000000000E+00 0. -1.
        -12    1    4    4    0    0  0.94313470242E+01 -0.26564705283E+02 -0.87540237358E+02  0.91966988806E+02  0.00000000000E+00 0.  1.
        -11    1    3    3    0    0  0.12986047826E+02  0.22300731735E+02 -0.11619027596E+02  0.28301269871E+02  0.00000000000E+00 0.  1.
         11    1    3    3    0    0 -0.98774171035E+02 -0.17359529237E+02 -0.14475317880E+02  0.10132731590E+03  0.00000000000E+00 0. -1.
          2    1    1    2  501    0 -0.71244673987E+01 -0.21987491366E+02 -0.44183002704E+01  0.23531451073E+02  0.00000000000E+00 0. -1.
<scales pt_clust_5="13000.00000" pt_clust_6="13000.00000" pt_clust_7="13000.00000" pt_clust_8="13000.00000" pt_clust_9="23.11295"></scales>
<clustering>
<clus scale="   23.113">  2  9  1 -1</clus>
<clus scale="   81.076">  5  6 -1 -1</clus>
<clus scale="   93.481">  7  8 -1 -1</clus>
<clus scale="  118.698">  2  5  1 -1</clus>
<clus scale="   23.113">  2  5  1 -1</clus>
</clustering>
</event>
<event>
 9    1  0.7835476E-005  0.2939461E+03  0.7546771E-02  0.1114404E+00
         21   -1    0    0  501  502  0.00000000000E+00  0.00000000000E+00  0.17708267954E+03  0.17708267954E+03  0.00000000000E+00 0. -1.
          1   -1    0    0  502    0 -0.00000000000E+00 -0.00000000000E+00 -0.10280856183E+04  0.10280856183E+04  0.00000000000E+00 0. -1.
        -24    2    1    2    0    0  0.11361394265E+03 -0.57292808651E+02 -0.85049762271E+02  0.17207019772E+03  0.78639029700E+02 0.  0.
         23    2    1    2    0    0 -0.20611121793E+03 -0.20862071400E+03 -0.66748992130E+03  0.73483519584E+03  0.91845160734E+02 0.  0.
         13    1    3    3    0    0  0.10810733209E+03 -0.74613395531E+02 -0.73221112482E+02  0.15038512346E+03  0.00000000000E+00 0. -1.
        -14    1    3    3    0    0  0.55066105581E+01  0.17320586880E+02 -0.11828649789E+02  0.21685074257E+02  0.00000000000E+00 0.  1.
        -11    1    4    4    0    0 -0.11054751745E+03 -0.52676569430E+02 -0.22792073415E+03  0.25873429544E+03  0.00000000000E+00 0.  1.
         11    1    4    4    0    0 -0.95563700476E+02 -0.15594414457E+03 -0.43956918715E+03  0.47610090040E+03  0.00000000000E+00 0. -1.
          2    1    1    2  501    0  0.92497275279E+02  0.26591352265E+03 -0.98463255234E+02  0.29826290432E+03  0.00000000000E+00 0. -1.
<scales pt_clust_5="13000.00000" pt_clust_6="13000.00000" pt_clust_7="13000.00000" pt_clust_8="13000.00000" pt_clust_9="279.22884"></scales>
<clustering>
<clus scale="   78.639">  5  6 -1 -1</clus>
<clus scale="   91.845">  7  8 -1 -1</clus>
<clus scale="  149.582">  2  5  1 -1</clus>
<clus scale="  279.229">  1  9  2 -1</clus>
<clus scale="  279.229">  1  5  2 -1</clus>
</clustering>
</event>
<event>
 9    1  0.7835476E-005  0.3711335E+03  0.7546771E-02  0.1091937E+00
          1   -1    0    0  502    0 -0.00000000000E+00  0.00000000000E+00  0.15058382583E+04  0.15058382583E+04  0.00000000000E+00 0. -1.
         21   -1    0    0  501  502  0.00000000000E+00 -0.00000000000E+00 -0.16511303347E+03  0.16511303347E+03  0.00000000000E+00 0. -1.
        -24    2    1    2    0    0 -0.79067381922E+01 -0.10451167221E+03  0.15185595629E+03  0.20165411042E+03  0.81356884467E+02 0.  0.
         23    2    1    2    0    0  0.36419808535E+03  0.46382879071E+02  0.98397856930E+03  0.10542036024E+04  0.91322470634E+02 0.  0.
         11    1    3    3    0    0 -0.34914513805E+01 -0.88770379879E+02  0.16028641269E+03  0.18325966460E+03  0.00000000000E+00 0. -1.
        -12    1    3    3    0    0 -0.44152868117E+01 -0.15741292335E+02 -0.84304563961E+01  0.18394445821E+02  0.00000000000E+00 0.  1.
        -11    1    4    4    0    0  0.34233297873E+03  0.63876956826E+02  0.87673268015E+03  0.94336224558E+03  0.00000000000E+00 0. -1.
         11    1    4    4    0    0  0.21865106620E+02 -0.17494077755E+02  0.10724588916E+03  0.11084135683E+03  0.00000000000E+00 0.  1.
          2    1    1    2  501    0 -0.35629134716E+03  0.58128793142E+02  0.20489069925E+03  0.41509357895E+03  0.00000000000E+00 0. -1.
<scales pt_clust_5="13000.00000" pt_clust_6="13000.00000" pt_clust_7="13000.00000" pt_clust_8="13000.00000" pt_clust_9="359.72251"></scales>
<clustering>
<clus scale="   81.357">  5  6 -1 -1</clus>
<clus scale="   91.322">  7  8 -1 -1</clus>
<clus scale="  132.681">  1  5  2 -1</clus>
<clus scale="  359.723">  2  9  1 -1</clus>
<clus scale="  359.723">  2  5  1 -1</clus>
</clustering>
</event>
<event>
 9    1  0.7835476E-005  0.1033421E+03  0.7546771E-02  0.1279668E+00
          1   -1    0    0  502    0 -0.00000000000E+00  0.00000000000E+00  0.16537345102E+03  0.16537345102E+03  0.00000000000E+00 0. -1.
         21   -1    0    0  501  502  0.00000000000E+00 -0.00000000000E+00 -0.37574942629E+03  0.37574942629E+03  0.00000000000E+00 0.  1.
        -24    2    1    2    0    0  0.21472452387E+02  0.37155791980E+02  0.10667662257E+03  0.14070607215E+03  0.81096719090E+02 0.  0.
         23    2    1    2    0    0 -0.76440720533E+02  0.26671950763E+00 -0.31083271590E+03  0.33362876881E+03  0.94063399947E+02 0.  0.
         13    1    3    3    0    0  0.35249504949E+02  0.30307952063E+02  0.16657818833E+02  0.49382005687E+02  0.00000000000E+00 0. -1.
        -14    1    3    3    0    0 -0.13777052562E+02  0.68478399168E+01  0.90018803735E+02  0.91324066459E+02  0.00000000000E+00 0.  1.
        -11    1    4    4    0    0 -0.24588897605E+02  0.75757684402E+01 -0.89553539415E+01  0.27243430715E+02  0.00000000000E+00 0. -1.
         11    1    4    4    0    0 -0.51851822928E+02 -0.73090489326E+01 -0.30187736196E+03  0.30638533810E+03  0.00000000000E+00 0.  1.
          2    1    1    2  501    0  0.54968268145E+02 -0.37422511487E+02 -0.62198819427E+01  0.66788036356E+02  0.00000000000E+00 0. -1.
<scales pt_clust_5="13000.00000" pt_clust_6="13000.00000" pt_clust_7="13000.00000" pt_clust_8="13000.00000" pt_clust_9="66.49781"></scales>
<clustering>
<clus scale="   66.498">  2  9  1 -1</clus>
<clus scale="   81.097">  5  6 -1 -1</clus>
<clus scale="   91.697">  1  5  2 -1</clus>
<clus scale="   94.063">  7  8 -1 -1</clus>
<clus scale="   66.498">  2  5  1 -1</clus>
</clustering>
</event>
<event>
 9    1  0.7835476E-005  0.7985758E+02  0.7546771E-02  0.1331765E+00
         21   -1    0    0  501  502  0.00000000000E+00  0.00000000000E+00  0.21707147130E+03  0.21707147130E+03  0.00000000000E+00 0.  1.
          1   -1    0    0  502    0 -0.00000000000E+00 -0.00000000000E+00 -0.14116971773E+03  0.14116971773E+03  0.00000000000E+00 0. -1.
         23    2    1    2    0    0  0.40795691754E+01 -0.66364835189E+00 -0.10632300158E+03  0.13293786690E+03  0.79691985016E+02 0.  0.
        -24    2    1    2    0    0 -0.10161473281E+02 -0.39695389114E+02  0.15000617613E+03  0.17330449238E+03  0.76508919376E+02 0.  0.
         11    1    4    4    0    0 -0.35715025692E+02  0.21472166279E+01  0.45615661646E+02  0.57973806041E+02  0.00000000000E+00 0. -1.
        -12    1    4    4    0    0  0.25553552412E+02 -0.41842605741E+02  0.10439051449E+03  0.11533068634E+03  0.00000000000E+00 0.  1.
        -11    1    3    3    0    0 -0.98196740841E+00  0.26986217721E+02 -0.10071784438E+03  0.10427513790E+03  0.00000000000E+00 0.  1.
         11    1    3    3    0    0  0.50615365838E+01 -0.27649866072E+02 -0.56051572016E+01  0.28662728999E+02  0.00000000000E+00 0. -1.
          2    1    1    2  501    0  0.60819041053E+01  0.40359037465E+02  0.32218579016E+02  0.51998829761E+02  0.00000000000E+00 0. -1.
<scales pt_clust_5="13000.00000" pt_clust_6="13000.00000" pt_clust_7="13000.00000" pt_clust_8="13000.00000" pt_clust_9="40.81472"></scales>
<clustering>
<clus scale="   40.815">  1  9  2 -1</clus>
<clus scale="   76.509">  5  6 -1 -1</clus>
<clus scale="   76.681">  1  5  2 -1</clus>
<clus scale="   79.692">  7  8 -1 -1</clus>
<clus scale="   40.815">  1  5  2 -1</clus>
</clustering>
</event>
<event>
 9    1  0.7835476E-005  0.1396445E+03  0.7546771E-02  0.1239988E+00
         -2   -1    0    0    0  501 -0.00000000000E+00  0.00000000000E+00  0.28861203453E+02  0.28861203453E+02  0.00000000000E+00 0.  1.
         21   -1    0    0  501  502  0.00000000000E+00 -0.00000000000E+00 -0.13227210064E+04  0.13227210064E+04  0.00000000000E+00 0.  1.
        -24    2    1    2    0    0  0.12776317134E+02 -0.46561688832E-01 -0.70688660671E+03  0.71152336511E+03  0.80084879386E+02 0.  0.
         23    2    1    2    0    0 -0.11232817631E+03  0.37243950546E+02 -0.29039476416E+03  0.32501442759E+03  0.85443127553E+02 0.  0.
         13    1    3    3    0    0  0.28643440436E+02  0.29010466472E+02 -0.23775281237E+03  0.24122282983E+03  0.00000000000E+00 0. -1.
        -14    1    3    3    0    0 -0.15867123302E+02 -0.29057028160E+02 -0.46913379434E+03  0.47030053528E+03  0.00000000000E+00 0.  1.
        -13    1    4    4    0    0 -0.56321120229E+02  0.54307547220E+02 -0.10736426595E+03  0.13284752114E+03  0.00000000000E+00 0.  1.
         13    1    4    4    0    0 -0.56007056081E+02 -0.17063596675E+02 -0.18303049820E+03  0.19216690645E+03  0.00000000000E+00 0. -1.
         -1    1    1    2    0  502  0.99551859176E+02 -0.37197388857E+02 -0.29657843208E+03  0.31504441715E+03  0.00000000000E+00 0.  1.
<scales pt_clust_5="13000.00000" pt_clust_6="13000.00000" pt_clust_7="13000.00000" pt_clust_8="13000.00000" pt_clust_9="110.45382"></scales>
<clustering>
<clus scale="   80.085">  5  6 -1 -1</clus>
<clus scale="   81.098">  1  5  2 -1</clus>
<clus scale="   85.443">  7  8 -1 -1</clus>
<clus scale="  110.454">  2  9  1 -1</clus>
<clus scale="  110.454">  2  5  1 -1</clus>
</clustering>
</event>
<event>
 9    1  0.7835476E-005  0.1462396E+03  0.7546771E-02  0.1207452E+00
         21   -1    0    0  501  502  0.00000000000E+00  0.00000000000E+00  0.97939036558E+02  0.97939036558E+02  0.00000000000E+00 0. -1.
          1   -1    0    0  502    0 -0.00000000000E+00 -0.00000000000E+00 -0.10458933438E+04  0.10458933438E+04  0.00000000000E+00 0. -1.
        -24    2    1    2    0    0 -0.54084024804E+02  0.12498952506E+03 -0.80633964882E+03  0.82169467761E+03  0.80318433962E+02 0.  0.
         23    2    1    2    0    0  0.27066101941E+02 -0.63648676396E+02 -0.20165204015E+03  0.23215350935E+03  0.91912886606E+02 0.  0.
         13    1    3    3    0    0 -0.10662690966E+02  0.11036199272E+03 -0.51760390776E+03  0.52934607559E+03  0.00000000000E+00 0. -1.
        -14    1    3    3    0    0 -0.43421333838E+02  0.14627532340E+02 -0.28873574106E+03  0.29234860202E+03  0.00000000000E+00 0.  1.
        -11    1    4    4    0    0  0.53466024047E+01 -0.84639671793E+02 -0.15035818124E+03  0.17262688917E+03  0.00000000000E+00 0. -1.
         11    1    4    4    0    0  0.21719499536E+02  0.20990995397E+02 -0.51293858908E+02  0.59526620176E+02  0.00000000000E+00 0.  1.
          2    1    1    2  501    0  0.27017922863E+02 -0.61340848664E+02  0.60037381685E+02  0.89984193447E+02  0.00000000000E+00 0. -1.
<scales pt_clust_5="13000.00000" pt_clust_6="13000.00000" pt_clust_7="13000.00000" pt_clust_8="13000.00000" pt_clust_9="67.02737"></scales>
<clustering>
<clus scale="   67.027">  1  9  2 -1</clus>
<clus scale="   80.318">  5  6 -1 -1</clus>
<clus scale="   91.913">  7  8 -1 -1</clus>
<clus scale="  139.245">  2  5  1 -1</clus>
<clus scale="   67.027">  1  5  2 -1</clus>
</clustering>
</event>
<event>
 9    1  0.7835476E-005  0.1048329E+03  0.7546771E-02  0.1275464E+00
          3   -1    0    0  502    0 -0.00000000000E+00  0.00000000000E+00  0.71540626977E+03  0.71540626977E+03  0.00000000000E+00 0. -1.
         21   -1    0    0  501  502  0.00000000000E+00 -0.00000000000E+00 -0.25823598994E+02  0.25823598994E+02  0.00000000000E+00 0. -1.
         23    2    1    2    0    0 -0.62830397829E+02 -0.35677308802E+02  0.45904144303E+03  0.47363316378E+03  0.91590382492E+02 0.  0.
        -24    2    1    2    0    0  0.18178162930E+02  0.71081986485E+01  0.14650384650E+03  0.16823726867E+03  0.80370575682E+02 0.  0.
         13    1    4    4    0    0  0.40286789186E+02 -0.21895613971E+01  0.13634696348E+03  0.14219111791E+03  0.00000000000E+00 0. -1.
        -14    1    4    4    0    0 -0.22108626255E+02  0.92977600456E+01  0.10156883015E+02  0.26046150759E+02  0.00000000000E+00 0.  1.
        -11    1    3    3    0    0 -0.36401005358E+01 -0.46725498021E+02  0.11205767906E+03  0.12146376387E+03  0.00000000000E+00 0.  1.
         11    1    3    3    0    0 -0.59190297293E+02  0.11048189220E+02  0.34698376397E+03  0.35216939991E+03  0.00000000000E+00 0. -1.
          4    1    1    2  501    0  0.44652234898E+02  0.28569110153E+02  0.84037381251E+02  0.99359436311E+02  0.00000000000E+00 0. -1.
<scales pt_clust_5="13000.00000" pt_clust_6="13000.00000" pt_clust_7="13000.00000" pt_clust_8="13000.00000" pt_clust_9="53.00959"></scales>
<clustering>
<clus scale="   53.010">  2  9  1 -1</clus>
<clus scale="   80.371">  5  6 -1 -1</clus>
<clus scale="   91.590">  7  8 -1 -1</clus>
<clus scale="   95.187">  2  5  1 -1</clus>
<clus scale="   53.010">  2  5  1 -1</clus>
</clustering>
</event>
<event>
 9    1  0.7835476E-005  0.1241673E+03  0.7546771E-02  0.1238407E+00
         21   -1    0    0  501  502  0.00000000000E+00  0.00000000000E+00  0.60175501522E+02  0.60175501522E+02  0.00000000000E+00 0. -1.
          1   -1    0    0  502    0 -0.00000000000E+00 -0.00000000000E+00 -0.80489844445E+03  0.80489844445E+03  0.00000000000E+00 0. -1.
         23    2    1    2    0    0 -0.89804617102E+02 -0.49752442141E+02 -0.57791480921E+03  0.59347961569E+03  0.87706058965E+02 0.  0.
        -24    2    1    2    0    0 -0.11398974729E+02  0.72595069706E+02 -0.68599430824E+02  0.12873460203E+03  0.80416012583E+02 0.  0.
         13    1    4    4    0    0 -0.36546719378E+02  0.43439714664E+02 -0.85602445545E+01  0.57410358771E+02  0.00000000000E+00 0. -1.
        -14    1    4    4    0    0  0.25147744649E+02  0.29155355042E+02 -0.60039186269E+02  0.71324243259E+02  0.00000000000E+00 0.  1.
        -11    1    3    3    0    0 -0.47380043051E+02  0.18198798406E+02 -0.15669385312E+03  0.16470892006E+03  0.00000000000E+00 0.  1.
         11    1    3    3    0    0 -0.42424574050E+02 -0.67951240546E+02 -0.42122095610E+03  0.42877069563E+03  0.00000000000E+00 0. -1.
          2    1    1    2  501    0  0.10120359183E+03 -0.22842627565E+02 -0.98208702894E+02  0.14285972826E+03  0.00000000000E+00 0. -1.
<scales pt_clust_5="13000.00000" pt_clust_6="13000.00000" pt_clust_7="13000.00000" pt_clust_8="13000.00000" pt_clust_9="103.74947"></scales>
<clustering>
<clus scale="   80.416">  5  6 -1 -1</clus>
<clus scale="   87.706">  7  8 -1 -1</clus>
<clus scale="  103.749">  1  9  2 -1</clus>
<clus scale="  119.130">  1  5  2 -1</clus>
<clus scale="  103.749">  1  5  2 -1</clus>
</clustering>
</event>
<event>
 9    1  0.7835476E-005  0.9598373E+02  0.7546771E-02  0.1295030E+00
          3   -1    0    0  502    0 -0.00000000000E+00  0.00000000000E+00  0.50155178461E+03  0.50155178461E+03  0.00000000000E+00 0. -1.
         21   -1    0    0  501  502  0.00000000000E+00 -0.00000000000E+00 -0.14233579016E+03  0.14233579016E+03  0.00000000000E+00 0. -1.
         23    2    1    2    0    0  0.24377174357E+02 -0.25742334737E+02  0.39448759884E+03  0.40676977746E+03  0.92651345314E+02 0.  0.
        -24    2    1    2    0    0 -0.12458635908E+02 -0.52529200497E+02  0.58598386312E+02  0.11431690178E+03  0.81975902812E+02 0.  0.
         11    1    4    4    0    0 -0.16099315712E+02 -0.74199258949E+02  0.48810777622E+02  0.90261896762E+02  0.00000000000E+00 0. -1.
        -12    1    4    4    0    0  0.36406798044E+01  0.21670058453E+02  0.97876086901E+01  0.24055005023E+02  0.00000000000E+00 0.  1.
        -13    1    3    3    0    0  0.45280746218E+01 -0.59013692508E+02  0.20558851369E+03  0.21393867421E+03  0.00000000000E+00 0. -1.
         13    1    3    3    0    0  0.19849099735E+02  0.33271357771E+02  0.18889908516E+03  0.19283110325E+03  0.00000000000E+00 0.  1.
          4    1    1    2  501    0 -0.11918538449E+02  0.78271535234E+02 -0.93869990703E+02  0.12280089552E+03  0.00000000000E+00 0. -1.
<scales pt_clust_5="13000.00000" pt_clust_6="13000.00000" pt_clust_7="13000.00000" pt_clust_8="13000.00000" pt_clust_9="79.17376"></scales>
<clustering>
<clus scale="   79.174">  2  9  1 -1</clus>
<clus scale="   81.976">  5  6 -1 -1</clus>
<clus scale="   85.724">  2  5  1 -1</clus>
<clus scale="   92.651">  7  8 -1 -1</clus>
<clus scale="   79.174">  2  5  1 -1</clus>
</clustering>
</event>
<event>
 9    1  0.7835476E-005  0.9917935E+02  0.7546771E-02  0.1287272E+00
         21   -1    0    0  501  502  0.00000000000E+00  0.00000000000E+00  0.66111791045E+02  0.66111791045E+02  0.00000000000E+00 0.  1.
          1   -1    0    0  502    0 -0.00000000000E+00 -0.00000000000E+00 -0.47854373673E+03  0.47854373673E+03  0.00000000000E+00 0. -1.
         23    2    1    2    0    0  0.11518173454E+01  0.35561830927E+02 -0.40036435203E+03  0.41224302859E+03  0.91579090083E+02 0.  0.
        -24    2    1    2    0    0  0.14306745943E+02 -0.53416572163E+02 -0.29899102432E+02  0.10281990435E+03  0.81363156552E+02 0.  0.
         11    1    4    4    0    0  0.70894256484E+01 -0.41950944770E+02 -0.57819514005E+02  0.71786056605E+02  0.00000000000E+00 0. -1.
        -12    1    4    4    0    0  0.72173202946E+01 -0.11465627393E+02  0.27920411573E+02  0.31033847750E+02  0.00000000000E+00 0.  1.
        -13    1    3    3    0    0  0.42892728035E+02  0.29522325774E+02 -0.27745562621E+03  0.28229944802E+03  0.00000000000E+00 0.  1.
         13    1    3    3    0    0 -0.41740910690E+02  0.60395051529E+01 -0.12290872582E+03  0.12994358057E+03  0.00000000000E+00 0. -1.
          2    1    1    2  501    0 -0.15458563288E+02  0.17854741237E+02  0.17831508778E+02  0.29592594832E+02  0.00000000000E+00 0. -1.
<scales pt_clust_5="13000.00000" pt_clust_6="13000.00000" pt_clust_7="13000.00000" pt_clust_8="13000.00000" pt_clust_9="23.61692"></scales>
<clustering>
<clus scale="   23.617">  1  9  2 -1</clus>
<clus scale="   81.363">  5  6 -1 -1</clus>
<clus scale="   89.832">  1  5  2 -1</clus>
<clus scale="   91.579">  7  8 -1 -1</clus>
<clus scale="   23.617">  1  5  2 -1</clus>
</clustering>
</event>
<event>
 9    1  0.7835476E-005  0.1240180E+03  0.7546771E-02  0.1242356E+00
         21   -1    0    0  501  502  0.00000000000E+00  0.00000000000E+00  0.62055459577E+02  0.62055459577E+02  0.00000000000E+00 0. -1.
          1   -1    0    0  502    0 -0.00000000000E+00 -0.00000000000E+00 -0.84740082643E+03  0.84740082643E+03  0.00000000000E+00 0. -1.
         23    2    1    2    0    0  0.44373495537E+02 -0.65192776118E+02 -0.40785489983E+03  0.42542094801E+03  0.91751068243E+02 0.  0.
        -24    2    1    2    0    0  0.11042030842E+02  0.98954942712E+02 -0.39752768759E+03  0.41612175566E+03  0.72215275430E+02 0.  0.
         13    1    4    4    0    0 -0.16975648572E+02  0.91468250661E+02 -0.32367640832E+03  0.33678038961E+03  0.00000000000E+00 0. -1.
        -14    1    4    4    0    0  0.28017679415E+02  0.74866920509E+01 -0.73851279264E+02  0.79341366050E+02  0.00000000000E+00 0.  1.
        -11    1    3    3    0    0  0.20395686501E+02  0.20745978908E+02 -0.14338800773E+03  0.14630960471E+03  0.00000000000E+00 0.  1.
         11    1    3    3    0    0  0.23977809035E+02 -0.85938755027E+02 -0.26446689210E+03  0.27911134330E+03  0.00000000000E+00 0. -1.
          2    1    1    2  501    0 -0.55415526379E+02 -0.33762166593E+02  0.20037220570E+02  0.67913582332E+02  0.00000000000E+00 0. -1.
<scales pt_clust_5="13000.00000" pt_clust_6="13000.00000" pt_clust_7="13000.00000" pt_clust_8="13000.00000" pt_clust_9="64.89040"></scales>
<clustering>
<clus scale="   64.890">  1  9  2 -1</clus>
<clus scale="   72.215">  5  6 -1 -1</clus>
<clus scale="   91.751">  7  8 -1 -1</clus>
<clus scale="  110.351">  1  5  2 -1</clus>
<clus scale="   64.890">  1  5  2 -1</clus>
</clustering>
</event>
<event>
 9    1  0.7835476E-005  0.1019674E+03  0.7546771E-02  0.1281698E+00
          3   -1    0    0  502    0 -0.00000000000E+00  0.00000000000E+00  0.15388976918E+03  0.15388976918E+03  0.00000000000E+00 0. -1.
         21   -1    0    0  501  502  0.00000000000E+00 -0.00000000000E+00 -0.17791280995E+03  0.17791280995E+03  0.00000000000E+00 0. -1.
         23    2    1    2    0    0 -0.29045150670E+02 -0.17507515544E+02  0.67697288612E+02  0.11944514806E+03  0.92380120327E+02 0.  0.
        -24    2    1    2    0    0  0.64529183640E+02  0.78545264356E+00  0.92561904092E+01  0.10402921900E+03  0.81066447237E+02 0.  0.
         13    1    4    4    0    0  0.56606662876E+02 -0.28704417813E+02  0.26707245407E+02  0.68858803658E+02  0.00000000000E+00 0. -1.
        -14    1    4    4    0    0  0.79225207641E+01  0.29489870456E+02 -0.17451054998E+02  0.35170415342E+02  0.00000000000E+00 0.  1.
        -11    1    3    3    0    0 -0.47847249767E+02 -0.40894660861E+02  0.26065990786E+02  0.68126121810E+02  0.00000000000E+00 0. -1.
         11    1    3    3    0    0  0.18802099097E+02  0.23387145318E+02  0.41631297825E+02  0.51319026249E+02  0.00000000000E+00 0.  1.
          4    1    1    2  501    0 -0.35484032970E+02  0.16722062900E+02 -0.10097651979E+03  0.10832821208E+03  0.00000000000E+00 0. -1.
<scales pt_clust_5="13000.00000" pt_clust_6="13000.00000" pt_clust_7="13000.00000" pt_clust_8="13000.00000" pt_clust_9="39.22683"></scales>
<clustering>
<clus scale="   39.227">  2  9  1 -1</clus>
<clus scale="   81.066">  5  6 -1 -1</clus>
<clus scale="   91.842">  2  5  1 -1</clus>
<clus scale="   92.380">  7  8 -1 -1</clus>
<clus scale="   39.227">  2  5  1 -1</clus>
</clustering>
</event>
<event>
 9    1  0.7835476E-005  0.9362001E+02  0.7546771E-02  0.1299321E+00
         21   -1    0    0  501  502  0.00000000000E+00  0.00000000000E+00  0.16264586075E+03  0.16264586075E+03  0.00000000000E+00 0.  1.
          1   -1    0    0  502    0 -0.00000000000E+00 -0.00000000000E+00 -0.82920262303E+02  0.82920262303E+02  0.00000000000E+00 0. -1.
        -24    2    1    2    0    0  0.28466682726E+02  0.40035510832E+01 -0.17518353761E+02  0.86455146024E+02  0.79631771981E+02 0.  0.
         23    2    1    2    0    0 -0.36252830452E+02  0.22393966932E+02  0.71914480867E+02  0.12170729844E+03  0.88460253583E+02 0.  0.
         13    1    3    3    0    0 -0.23045206201E+02  0.12669504200E+02  0.91001134417E+01  0.27828221829E+02  0.00000000000E+00 0. -1.
        -14    1    3    3    0    0  0.51511888927E+02 -0.86659531171E+01 -0.26618467203E+02  0.58626924195E+02  0.00000000000E+00 0.  1.
        -13    1    4    4    0    0 -0.11157918719E+02 -0.34246503357E+02  0.22560964652E+02  0.42500814914E+02  0.00000000000E+00 0.  1.
         13    1    4    4    0    0 -0.25094911734E+02  0.56640470289E+02  0.49353516215E+02  0.79206483524E+02  0.00000000000E+00 0. -1.
          2    1    1    2  501    0  0.77861477260E+01 -0.26397518015E+02  0.25329471342E+02  0.37403678593E+02  0.00000000000E+00 0. -1.
<scales pt_clust_5="13000.00000" pt_clust_6="13000.00000" pt_clust_7="13000.00000" pt_clust_8="13000.00000" pt_clust_9="27.52187"></scales>
<clustering>
<clus scale="   27.522">  1  9  2 -1</clus>
<clus scale="   79.632">  5  6 -1 -1</clus>
<clus scale="   85.327">  2  5  1 -1</clus>
<clus scale="   88.460">  7  8 -1 -1</clus>
<clus scale="   27.522">  1  5  2 -1</clus>
</clustering>
</event>
<event>
 9    1  0.7835476E-005  0.9977304E+02  0.7546771E-02  0.1286034E+00
         21   -1    0    0  501  502  0.00000000000E+00  0.00000000000E+00  0.16360228920E+03  0.16360228920E+03  0.00000000000E+00 0.  1.
          3   -1    0    0  502    0 -0.00000000000E+00 -0.00000000000E+00 -0.19716343909E+03  0.19716343909E+03  0.00000000000E+00 0. -1.
         23    2    1    2    0    0 -0.32977167688E+02  0.21084124526E+02 -0.14987790301E+03  0.17946384278E+03  0.90619264835E+02 0.  0.
        -24    2    1    2    0    0  0.64702573534E+02 -0.16031051664E+02  0.10302925423E+03  0.14653706784E+03  0.80091618684E+02 0.  0.
         13    1    4    4    0    0  0.10166132390E+02 -0.41644493482E+02  0.32621262389E+02  0.53867994626E+02  0.00000000000E+00 0. -1.
        -14    1    4    4    0    0  0.54536441144E+02  0.25613441819E+02  0.70407991846E+02  0.92669073213E+02  0.00000000000E+00 0.  1.
        -11    1    3    3    0    0  0.14400883725E+01 -0.27883749474E+02 -0.92229167022E+02  0.96362838215E+02  0.00000000000E+00 0.  1.
         11    1    3    3    0    0 -0.34417256061E+02  0.48967874000E+02 -0.57648735984E+02  0.83101004563E+02  0.00000000000E+00 0. -1.
          4    1    1    2  501    0 -0.31725405846E+02 -0.50530728627E+01  0.13287498883E+02  0.34764817675E+02  0.00000000000E+00 0. -1.
<scales pt_clust_5="13000.00000" pt_clust_6="13000.00000" pt_clust_7="13000.00000" pt_clust_8="13000.00000" pt_clust_9="32.12530"></scales>
<clustering>
<clus scale="   32.125">  1  9  2 -1</clus>
<clus scale="   80.092">  5  6 -1 -1</clus>
<clus scale="   90.319">  1  5  2 -1</clus>
<clus scale="   90.619">  7  8 -1 -1</clus>
<clus scale="   32.125">  1  5  2 -1</clus>
</clustering>
</event>
<event>
 9    1  0.7835476E-005  0.1006057E+03  0.7546771E-02  0.1282323E+00
         21   -1    0    0  501  502  0.00000000000E+00  0.00000000000E+00  0.12472425421E+03  0.12472425421E+03  0.00000000000E+00 0. -1.
          1   -1    0    0  502    0 -0.00000000000E+00 -0.00000000000E+00 -0.14764577982E+03  0.14764577982E+03  0.00000000000E+00 0. -1.
        -24    2    1    2    0    0 -0.37839025763E+02  0.15186820850E+02  0.22800224593E+01  0.90841952878E+02  0.81145736191E+02 0.  0.
         23    2    1    2    0    0  0.18055795382E+02 -0.69497621858E+02  0.94861355633E+01  0.11411684540E+03  0.88185806375E+02 0.  0.
         11    1    3    3    0    0 -0.28668784109E+01  0.43668565130E+02  0.10479770171E+02  0.44999868390E+02  0.00000000000E+00 0. -1.
        -12    1    3    3    0    0 -0.34972147352E+02 -0.28481744280E+02 -0.81997477114E+01  0.45842084488E+02  0.00000000000E+00 0.  1.
        -11    1    4    4    0    0  0.42102650507E+02 -0.41379524125E+02  0.35503210974E+02  0.68886690921E+02  0.00000000000E+00 0.  1.
         11    1    4    4    0    0 -0.24046855125E+02 -0.28118097733E+02 -0.26017075411E+02  0.45230154482E+02  0.00000000000E+00 0. -1.
          2    1    1    2  501    0  0.19783230381E+02  0.54310801008E+02 -0.34687683634E+02  0.67411235757E+02  0.00000000000E+00 0. -1.
<scales pt_clust_5="13000.00000" pt_clust_6="13000.00000" pt_clust_7="13000.00000" pt_clust_8="13000.00000" pt_clust_9="57.80175"></scales>
<clustering>
<clus scale="   57.802">  1  9  2 -1</clus>
<clus scale="   81.146">  5  6 -1 -1</clus>
<clus scale="   88.186">  7  8 -1 -1</clus>
<clus scale="   94.496">  2  5  1 -1</clus>
<clus scale="   57.802">  1  5  2 -1</clus>
</clustering>
</event>
<event>
 9    1  0.7835476E-005  0.1881675E+03  0.7546771E-02  0.1161083E+00
          1   -1    0    0  502    0 -0.00000000000E+00  0.00000000000E+00  0.40792360288E+03  0.40792360288E+03  0.00000000000E+00 0. -1.
         21   -1    0    0  501  502  0.00000000000E+00 -0.00000000000E+00 -0.28966890889E+03  0.28966890889E+03  0.00000000000E+00 0. -1.
         23    2    1    2    0    0  0.21641044238E+02 -0.16722871838E+03  0.31880706912E+03  0.37141180251E+03  0.88741200576E+02 0.  0.
        -24    2    1    2    0    0  0.18280247094E+02  0.14364524240E+03 -0.22064258547E+03  0.27564847804E+03  0.79566386279E+02 0.  0.
         11    1    4    4    0    0  0.30603188933E+02  0.13057747054E+03 -0.22002260765E+03  0.25767611233E+03  0.00000000000E+00 0. -1.
        -12    1    4    4    0    0 -0.12322941839E+02  0.13067771860E+02 -0.61997781957E+00  0.17972365716E+02  0.00000000000E+00 0.  1.
        -13    1    3    3    0    0  0.55200277832E+02 -0.11671123733E+03  0.20063648858E+03  0.23858663865E+03  0.00000000000E+00 0. -1.
         13    1    3    3    0    0 -0.33559233594E+02 -0.50517481050E+02  0.11817058054E+03  0.13282516386E+03  0.00000000000E+00 0.  1.
          2    1    1    2  501    0 -0.39921291332E+02  0.23583475973E+02  0.20090210338E+02  0.50532231220E+02  0.00000000000E+00 0. -1.
<scales pt_clust_5="13000.00000" pt_clust_6="13000.00000" pt_clust_7="13000.00000" pt_clust_8="13000.00000" pt_clust_9="46.36693"></scales>
<clustering>
<clus scale="   46.367">  2  9  1 -1</clus>
<clus scale="   79.566">  5  6 -1 -1</clus>
<clus scale="   88.741">  7  8 -1 -1</clus>
<clus scale="  184.018">  2  5  1 -1</clus>
<clus scale="   46.367">  2  5  1 -1</clus>
</clustering>
</event>
<event>
 9    1  0.7835476E-005  0.1114860E+03  0.7546771E-02  0.1262383E+00
          3   -1    0    0  502    0 -0.00000000000E+00  0.00000000000E+00  0.61709927860E+03  0.61709927860E+03  0.00000000000E+00 0. -1.
         21   -1    0    0  501  502  0.00000000000E+00 -0.00000000000E+00 -0.60020215225E+02  0.60020215225E+02  0.00000000000E+00 0.  1.
        -24    2    1    2    0    0 -0.55348648452E+02  0.20083983378E+02  0.44458808583E+03  0.45570363507E+03  0.80872725190E+02 0.  0.
         23    2    1    2    0    0  0.83611572903E+02 -0.38430672641E+02  0.32358639511E+02  0.13448723571E+03  0.92584681753E+02 0.  0.
         13    1    3    3    0    0 -0.72035896049E+02  0.26310585221E+02  0.28547159660E+03  0.29559338572E+03  0.00000000000E+00 0. -1.
        -14    1    3    3    0    0  0.16687247596E+02 -0.62266018427E+01  0.15911648923E+03  0.16011024935E+03  0.00000000000E+00 0.  1.
        -13    1    4    4    0    0  0.82920417109E+02 -0.62461112549E+02  0.36598989777E+02  0.11007575667E+03  0.00000000000E+00 0.  1.
         13    1    4    4    0    0  0.69115579426E+00  0.24030439908E+02 -0.42403502651E+01  0.24411479039E+02  0.00000000000E+00 0. -1.
          4    1    1    2  501    0 -0.28262924451E+02  0.18346689263E+02  0.80132338035E+02  0.86928623045E+02  0.00000000000E+00 0. -1.
<scales pt_clust_5="13000.00000" pt_clust_6="13000.00000" pt_clust_7="13000.00000" pt_clust_8="13000.00000" pt_clust_9="33.69562"></scales>
<clustering>
<clus scale="   33.696">  2  9  1 -1</clus>
<clus scale="   80.873">  5  6 -1 -1</clus>
<clus scale="   92.585">  7  8 -1 -1</clus>
<clus scale="  101.969">  1  5  2 -1</clus>
<clus scale="   33.696">  2  5  1 -1</clus>
</clustering>
</event>
<event>
 9    1  0.7835476E-005  0.1241762E+03  0.7546771E-02  0.1239052E+00
         21   -1    0    0  501  502  0.00000000000E+00  0.00000000000E+00  0.27283270944E+02  0.27283270944E+02  0.00000000000E+00 0. -1.
          1   -1    0    0  502    0 -0.00000000000E+00 -0.00000000000E+00 -0.11378135678E+04  0.11378135678E+04  0.00000000000E+00 0. -1.
        -24    2    1    2    0    0  0.79512154397E+01  0.83461842420E+02 -0.34712063473E+03  0.36605571113E+03  0.80467059287E+02 0.  0.
         23    2    1    2    0    0  0.62036036726E+02 -0.83775525001E+02 -0.29616576990E+03  0.32658460190E+03  0.89869519287E+02 0.  0.
         11    1    3    3    0    0  0.91723556162E+01  0.86237733112E+02 -0.35075789848E+03  0.36132005489E+03  0.00000000000E+00 0. -1.
        -12    1    3    3    0    0 -0.12211401765E+01 -0.27758906923E+01  0.36372637495E+01  0.47356562428E+01  0.00000000000E+00 0.  1.
        -11    1    4    4    0    0  0.66026719656E+02 -0.38822155466E+02 -0.10382758250E+03  0.12902268929E+03  0.00000000000E+00 0. -1.
         11    1    4    4    0    0 -0.39906829297E+01 -0.44953369535E+02 -0.19233818740E+03  0.19756191261E+03  0.00000000000E+00 0.  1.
          2    1    1    2  501    0 -0.69987252166E+02  0.31368258081E+00 -0.46724389219E+03  0.47245652567E+03  0.00000000000E+00 0. -1.
<scales pt_clust_5="13000.00000" pt_clust_6="13000.00000" pt_clust_7="13000.00000" pt_clust_8="13000.00000" pt_clust_9="69.98799"></scales>
<clustering>
<clus scale="   69.988">  1  9  2 -1</clus>
<clus scale="   80.467">  5  6 -1 -1</clus>
<clus scale="   89.870">  7  8 -1 -1</clus>
<clus scale="  117.551">  2  5  1 -1</clus>
<clus scale="   69.988">  1  5  2 -1</clus>
</clustering>
</event>
<event>
 9    1  0.7835476E-005  0.1165015E+03  0.7546771E-02  0.1251583E+00
          1   -1    0    0  502    0 -0.00000000000E+00  0.00000000000E+00  0.20202336651E+03  0.20202336651E+03  0.00000000000E+00 0. -1.
         21   -1    0    0  501  502  0.00000000000E+00 -0.00000000000E+00 -0.21843276697E+03  0.21843276697E+03  0.00000000000E+00 0. -1.
        -24    2    1    2    0    0  0.41276857635E+02  0.61710556907E+02  0.50979182492E+02  0.12178927690E+03  0.81986456870E+02 0.  0.
         23    2    1    2    0    0 -0.46576069351E+02  0.49923587631E+02 -0.12821629264E+03  0.17142584850E+03  0.91025869922E+02 0.  0.
         11    1    3    3    0    0  0.66288113841E+02  0.39894235741E+02  0.33985217782E+02  0.84502420733E+02  0.00000000000E+00 0. -1.
        -12    1    3    3    0    0 -0.25011256206E+02  0.21816321166E+02  0.16993964710E+02  0.37286856167E+02  0.00000000000E+00 0.  1.
        -11    1    4    4    0    0 -0.16721616037E+02  0.35049779455E+02  0.11129366910E+00  0.38834416038E+02  0.00000000000E+00 0.  1.
         11    1    4    4    0    0 -0.29854453315E+02  0.14873808176E+02 -0.12832758631E+03  0.13259143246E+03  0.00000000000E+00 0. -1.
          2    1    1    2  501    0  0.52992117165E+01 -0.11163414454E+03  0.60827709689E+02  0.12724100808E+03  0.00000000000E+00 0. -1.
<scales pt_clust_5="13000.00000" pt_clust_6="13000.00000" pt_clust_7="13000.00000" pt_clust_8="13000.00000" pt_clust_9="72.71110"></scales>
<clustering>
<clus scale="   81.986">  5  6 -1 -1</clus>
<clus scale="   91.026">  7  8 -1 -1</clus>
<clus scale="  110.606">  1  5  2 -1</clus>
<clus scale="   72.711">  2  9  1 -1</clus>
<clus scale="   72.711">  2  5  1 -1</clus>
</clustering>
</event>
<event>
 9    1  0.7835476E-005  0.1934730E+03  0.7546771E-02  0.1156146E+00
         21   -1    0    0  501  502  0.00000000000E+00  0.00000000000E+00  0.17009395482E+03  0.17009395482E+03  0.00000000000E+00 0. -1.
          3   -1    0    0  502    0 -0.00000000000E+00 -0.00000000000E+00 -0.47712521821E+03  0.47712521821E+03  0.00000000000E+00 0. -1.
         23    2    1    2    0    0  0.39462365312E+02  0.17605560313E+03 -0.30391160032E+03  0.36420883621E+03  0.87937261122E+02 0.  0.
        -24    2    1    2    0    0 -0.10397098605E+03 -0.11813795405E+03  0.47281263532E+02  0.18273038058E+03  0.79927041576E+02 0.  0.
         11    1    4    4    0    0 -0.90807399896E+02 -0.45540041077E+02  0.37573789391E+02  0.10831282872E+03  0.00000000000E+00 0. -1.
        -12    1    4    4    0    0 -0.13163586156E+02 -0.72597912978E+02  0.97074741419E+01  0.74417551851E+02  0.00000000000E+00 0.  1.
        -13    1    3    3    0    0 -0.19743703473E+02  0.92356377010E+01 -0.19702771623E+02  0.29382138115E+02  0.00000000000E+00 0.  1.
         13    1    3    3    0    0  0.59206068785E+02  0.16681996542E+03 -0.28420882870E+03  0.33482669809E+03  0.00000000000E+00 0. -1.
          4    1    1    2  501    0  0.64508620740E+02 -0.57917649071E+02 -0.50400926600E+02  0.10027995625E+03  0.00000000000E+00 0. -1.
<scales pt_clust_5="13000.00000" pt_clust_6="13000.00000" pt_clust_7="13000.00000" pt_clust_8="13000.00000" pt_clust_9="86.69385"></scales>
<clustering>
<clus scale="   79.927">  5  6 -1 -1</clus>
<clus scale="   86.694">  1  9  2 -1</clus>
<clus scale="   87.937">  7  8 -1 -1</clus>
<clus scale="  189.966">  1  5  2 -1</clus>
<clus scale="   86.694">  1  5  2 -1</clus>
</clustering>
</event>
<event>
 9    1  0.7835476E-005  0.2156800E+03  0.7546771E-02  0.1137970E+00
         21   -1    0    0  501  502  0.00000000000E+00  0.00000000000E+00  0.64801728216E+03  0.64801728216E+03  0.00000000000E+00 0. -1.
          1   -1    0    0  502    0 -0.00000000000E+00 -0.00000000000E+00 -0.15119895903E+03  0.15119895903E+03  0.00000000000E+00 0. -1.
         23    2    1    2    0    0 -0.16274842267E+03  0.60853977732E+02  0.79658689789E+02  0.21183582581E+03  0.91316233773E+02 0.  0.
        -24    2    1    2    0    0  0.25184914816E+03 -0.76842420214E+02  0.41345223498E+03  0.49678066716E+03  0.80718830989E+02 0.  0.
         11    1    4    4    0    0  0.12617833768E+03  0.30242898111E+01  0.20105095003E+03  0.23738492736E+03  0.00000000000E+00 0. -1.
        -12    1    4    4    0    0  0.12567081048E+03 -0.79866710026E+02  0.21240128495E+03  0.25939573980E+03  0.00000000000E+00 0.  1.
        -11    1    3    3    0    0 -0.90339467866E+02  0.69832780889E+02  0.16570129412E+02  0.11537939994E+03  0.00000000000E+00 0.  1.
         11    1    3    3    0    0 -0.72408954803E+02 -0.89788031563E+01  0.63088560377E+02  0.96456425873E+02  0.00000000000E+00 0. -1.
          2    1    1    2  501    0 -0.89100725487E+02  0.15988442482E+02  0.37073983564E+01  0.90599748222E+02  0.00000000000E+00 0. -1.
<scales pt_clust_5="13000.00000" pt_clust_6="13000.00000" pt_clust_7="13000.00000" pt_clust_8="13000.00000" pt_clust_9="90.52391"></scales>
<clustering>
<clus scale="   80.719">  5  6 -1 -1</clus>
<clus scale="   90.524">  1  9  2 -1</clus>
<clus scale="   91.316">  7  8 -1 -1</clus>
<clus scale="  211.411">  1  5  2 -1</clus>
<clus scale="   90.524">  1  5  2 -1</clus>
</clustering>
</event>
<event>
 9    1  0.7835476E-005  0.1253233E+03  0.7546771E-02  0.1236584E+00
         -4   -1    0    0    0  501 -0.00000000000E+00  0.00000000000E+00  0.49990241085E+03  0.49990241085E+03  0.00000000000E+00 0.  1.
         21   -1    0    0  501  502  0.00000000000E+00 -0.00000000000E+00 -0.29331060608E+03  0.29331060608E+03  0.00000000000E+00 0.  1.
         23    2    1    2    0    0 -0.61532732791E+02  0.66057637982E+02  0.44817680417E+03  0.46551272010E+03  0.87691254029E+02 0.  0.
        -24    2    1    2    0    0  0.10094049367E+03 -0.41734109068E+00 -0.20653954168E+03  0.24349932119E+03  0.80275648283E+02 0.  0.
         13    1    4    4    0    0  0.32995512652E+02  0.36153787779E+02 -0.56292422880E+02  0.74596495223E+02  0.00000000000E+00 0. -1.
        -14    1    4    4    0    0  0.67944981014E+02 -0.36571128869E+02 -0.15024711880E+03  0.16890282596E+03  0.00000000000E+00 0.  1.
        -11    1    3    3    0    0 -0.71053158212E+02  0.13461124977E+02  0.26623134058E+03  0.27587837880E+03  0.00000000000E+00 0.  1.
         11    1    3    3    0    0  0.95204254201E+01  0.52596513006E+02  0.18194546359E+03  0.18963434130E+03  0.00000000000E+00 0. -1.
         -3    1    1    2    0  502 -0.39407760874E+02 -0.65640296892E+02 -0.35045457723E+02  0.84200975649E+02  0.00000000000E+00 0.  1.
<scales pt_clust_5="13000.00000" pt_clust_6="13000.00000" pt_clust_7="13000.00000" pt_clust_8="13000.00000" pt_clust_9="76.56122"></scales>
<clustering>
<clus scale="   76.561">  2  9  1 -1</clus>
<clus scale="   80.276">  5  6 -1 -1</clus>
<clus scale="   87.691">  7  8 -1 -1</clus>
<clus scale="  120.251">  2  5  1 -1</clus>
<clus scale="   76.561">  2  5  1 -1</clus>
</clustering>
</event>
<event>
 9    1  0.7835476E-005  0.1290026E+03  0.7546771E-02  0.1232952E+00
         21   -1    0    0  501  502  0.00000000000E+00  0.00000000000E+00  0.74809266346E+03  0.74809266346E+03  0.00000000000E+00 0.  1.
          1   -1    0    0  502    0 -0.00000000000E+00 -0.00000000000E+00 -0.12233382770E+03  0.12233382770E+03  0.00000000000E+00 0. -1.
        -24    2    1    2    0    0 -0.85969918208E+02  0.15675037115E+02 -0.70611115639E+02  0.13703480041E+03  0.78460647752E+02 0.  0.
         23    2    1    2    0    0  0.10848802986E+03 -0.73089461498E+02  0.57816941651E+03  0.60006934482E+03  0.93228871053E+02 0.  0.
         11    1    3    3    0    0 -0.50673938659E+02 -0.24740561573E+02 -0.12156555405E+02  0.57686439355E+02  0.00000000000E+00 0. -1.
        -12    1    3    3    0    0 -0.35295979550E+02  0.40415598688E+02 -0.58454560234E+02  0.79348361053E+02  0.00000000000E+00 0.  1.
        -13    1    4    4    0    0  0.11118999240E+03 -0.28813246775E+02  0.37917163131E+03  0.39618751065E+03  0.00000000000E+00 0.  1.
         13    1    4    4    0    0 -0.27019625393E+01 -0.44276214723E+02  0.19899778520E+03  0.20388183417E+03  0.00000000000E+00 0. -1.
          2    1    1    2  501    0 -0.22518111656E+02  0.57414424383E+02  0.11820053489E+03  0.13332234594E+03  0.00000000000E+00 0. -1.
<scales pt_clust_5="13000.00000" pt_clust_6="13000.00000" pt_clust_7="13000.00000" pt_clust_8="13000.00000" pt_clust_9="61.67237"></scales>
<clustering>
<clus scale="   61.672">  1  9  2 -1</clus>
<clus scale="   78.461">  5  6 -1 -1</clus>
<clus scale="   93.229">  7  8 -1 -1</clus>
<clus scale="  118.769">  2  5  1 -1</clus>
<clus scale="   61.672">  1  5  2 -1</clus>
</clustering>
</event>
<event>
 9    1  0.7835476E-005  0.2148260E+03  0.7546771E-02  0.1163787E+00
         21   -1    0    0  501  502  0.00000000000E+00  0.00000000000E+00  0.92661924205E+02  0.92661924205E+02  0.00000000000E+00 0. -1.
          1   -1    0    0  502    0 -0.00000000000E+00 -0.00000000000E+00 -0.10539732214E+04  0.10539732214E+04  0.00000000000E+00 0. -1.
         23    2    1    2    0    0  0.68306842875E+02  0.32852390268E+02 -0.29044922009E+03  0.31281282142E+03  0.88011405303E+02 0.  0.
        -24    2    1    2    0    0  0.18341995175E+03 -0.22507000873E+02 -0.13350297384E+03  0.24033415069E+03  0.76079012707E+02 0.  0.
         11    1    4    4    0    0  0.59807131640E+02 -0.15151494985E+02 -0.50353916964E+01  0.61901663668E+02  0.00000000000E+00 0. -1.
        -12    1    4    4    0    0  0.12361282011E+03 -0.73555058880E+01 -0.12846758214E+03  0.17843248702E+03  0.00000000000E+00 0.  1.
        -11    1    3    3    0    0  0.56414812369E+02  0.55753521772E+02 -0.26482144188E+03  0.27644435665E+03  0.00000000000E+00 0. -1.
         11    1    3    3    0    0  0.11892030506E+02 -0.22901131504E+02 -0.25627778216E+02  0.36368464774E+02  0.00000000000E+00 0.  1.
          2    1    1    2  501    0 -0.25172679463E+03 -0.10345389395E+02 -0.53735910323E+03  0.59348817346E+03  0.00000000000E+00 0. -1.
<scales pt_clust_5="13000.00000" pt_clust_6="13000.00000" pt_clust_7="13000.00000" pt_clust_8="13000.00000" pt_clust_9="200.90359"></scales>
<clustering>
<clus scale="   76.079">  5  6 -1 -1</clus>
<clus scale="   88.011">  7  8 -1 -1</clus>
<clus scale="  116.151">  2  7  1 -1</clus>
<clus scale="  200.904">  1  9  2 -1</clus>
<clus scale="  200.904">  1  5  2 -1</clus>
</clustering>
</event>
<event>
 9    1  0.7835476E-005  0.3449537E+03  0.7546771E-02  0.1064705E+00
         21   -1    0    0  501  502  0.00000000000E+00  0.00000000000E+00  0.97025564163E+03  0.97025564163E+03  0.00000000000E+00 0.  1.
          3   -1    0    0  502    0 -0.00000000000E+00 -0.00000000000E+00 -0.95602774414E+02  0.95602774414E+02  0.00000000000E+00 0. -1.
        -24    2    1    2    0    0  0.20737790085E+03 -0.89064271417E+02  0.41851721716E+03  0.48227136331E+03  0.80566547663E+02 0.  0.
         23    2    1    2    0    0  0.70383112670E+01 -0.53588526769E+02  0.15854545152E+03  0.19003393166E+03  0.89749467724E+02 0.  0.
         13    1    3    3    0    0  0.95716076265E+02 -0.52710531621E+02  0.12438914632E+03  0.16556759079E+03  0.00000000000E+00 0. -1.
        -14    1    3    3    0    0  0.11166182458E+03 -0.36353739796E+02  0.29412807084E+03  0.31670377251E+03  0.00000000000E+00 0.  1.
        -13    1    4    4    0    0  0.36727720605E+02 -0.48198021029E+02  0.53815695332E+02  0.81043838483E+02  0.00000000000E+00 0.  1.
         13    1    4    4    0    0 -0.29689409338E+02 -0.53905057400E+01  0.10472975619E+03  0.10899009317E+03  0.00000000000E+00 0. -1.
          4    1    1    2  501    0 -0.21441621211E+03  0.14265279819E+03  0.29759019853E+03  0.39355312108E+03  0.00000000000E+00 0. -1.
<scales pt_clust_5="13000.00000" pt_clust_6="13000.00000" pt_clust_7="13000.00000" pt_clust_8="13000.00000" pt_clust_9="257.53485"></scales>
<clustering>
<clus scale="   80.567">  5  6 -1 -1</clus>
<clus scale="   89.749">  7  8 -1 -1</clus>
<clus scale="  104.580">  5  7 -1 -1</clus>
<clus scale="  257.535">  1  9  2 -1</clus>
<clus scale="  257.535">  1  5  2 -1</clus>
</clustering>
</event>
<event>
 9    1  0.7835476E-005  0.1154847E+03  0.7546771E-02  0.1257090E+00
          1   -1    0    0  502    0 -0.00000000000E+00  0.00000000000E+00  0.28384143732E+03  0.28384143732E+03  0.00000000000E+00 0. -1.
         21   -1    0    0  501  502  0.00000000000E+00 -0.00000000000E+00 -0.12458439524E+03  0.12458439524E+03  0.00000000000E+00 0.  1.
        -24    2    1    2    0    0 -0.25621736292E+02  0.60316400399E+02  0.21466810201E+03  0.23818853672E+03  0.79729815493E+02 0.  0.
         23    2    1    2    0    0  0.40067318141E+01 -0.55050426556E+02 -0.78160405039E+00  0.11125156579E+03  0.96590354700E+02 0.  0.
         11    1    3    3    0    0 -0.10849984841E+02  0.63887446794E+02  0.21330383394E+03  0.22293015409E+03  0.00000000000E+00 0. -1.
        -12    1    3    3    0    0 -0.14771751451E+02 -0.35710463943E+01  0.13642680708E+01  0.15258382636E+02  0.00000000000E+00 0.  1.
        -11    1    4    4    0    0  0.39483662387E+02  0.26498590924E+01 -0.14493834642E+02  0.42143238975E+02  0.00000000000E+00 0.  1.
         11    1    4    4    0    0 -0.35476930573E+02 -0.57700285648E+02  0.13712230592E+02  0.69108326810E+02  0.00000000000E+00 0. -1.
          2    1    1    2  501    0  0.21615004478E+02 -0.52659738435E+01 -0.54629455887E+02  0.58985730051E+02  0.00000000000E+00 0. -1.
<scales pt_clust_5="13000.00000" pt_clust_6="13000.00000" pt_clust_7="13000.00000" pt_clust_8="13000.00000" pt_clust_9="22.24722"></scales>
<clustering>
<clus scale="   22.247">  2  9  1 -1</clus>
<clus scale="   79.730">  5  6 -1 -1</clus>
<clus scale="   96.590">  7  8 -1 -1</clus>
<clus scale="  101.803">  1  5  2 -1</clus>
<clus scale="   22.247">  2  5  1 -1</clus>
</clustering>
</event>
<event>
 9    1  0.7835476E-005  0.9224905E+02  0.7546771E-02  0.1299205E+00
          1   -1    0    0  502    0 -0.00000000000E+00  0.00000000000E+00  0.59673973526E+03  0.59673973526E+03  0.00000000000E+00 0. -1.
         21   -1    0    0  501  502  0.00000000000E+00 -0.00000000000E+00 -0.24405534114E+02  0.24405534114E+02  0.00000000000E+00 0. -1.
        -24    2    1    2    0    0 -0.35197935571E+02  0.40296419431E+01  0.29420044011E+03  0.30839469642E+03  0.85429837499E+02 0.  0.
         23    2    1    2    0    0 -0.11086712602E+01 -0.34443514638E+02  0.20014258556E+03  0.22150476865E+03  0.88429198383E+02 0.  0.
         13    1    3    3    0    0 -0.60333743714E+02 -0.89236183387E+01  0.23503259819E+03  0.24281703772E+03  0.00000000000E+00 0. -1.
        -14    1    3    3    0    0  0.25135808143E+02  0.12953260282E+02  0.59167841923E+02  0.65577658701E+02  0.00000000000E+00 0.  1.
        -13    1    4    4    0    0 -0.20412473672E+02  0.19898650505E+02  0.27994144560E+02  0.39953691982E+02  0.00000000000E+00 0.  1.
         13    1    4    4    0    0  0.19303802412E+02 -0.54342165143E+02  0.17214844100E+03  0.18155107667E+03  0.00000000000E+00 0. -1.
          2    1    1    2  501    0  0.36306606831E+02  0.30413872695E+02  0.77991175479E+02  0.91245804312E+02  0.00000000000E+00 0. -1.
<scales pt_clust_5="13000.00000" pt_clust_6="13000.00000" pt_clust_7="13000.00000" pt_clust_8="13000.00000" pt_clust_9="47.36215"></scales>
<clustering>
<clus scale="   47.362">  2  9  1 -1</clus>
<clus scale="   85.430">  5  6 -1 -1</clus>
<clus scale="   88.429">  7  8 -1 -1</clus>
<clus scale="   89.378">  1  5  2 -1</clus>
<clus scale="   47.362">  2  5  1 -1</clus>
</clustering>
</event>
<event>
 9    1  0.7835476E-005  0.1061174E+03  0.7546771E-02  0.1271160E+00
          3   -1    0    0  502    0 -0.00000000000E+00  0.00000000000E+00  0.54226802275E+02  0.54226802275E+02  0.00000000000E+00 0. -1.
         21   -1    0    0  501  502  0.00000000000E+00 -0.00000000000E+00 -0.30150634861E+03  0.30150634861E+03  0.00000000000E+00 0. -1.
        -24    2    1    2    0    0  0.73724861425E+02  0.64350941521E+01 -0.86828953026E+02  0.14180301077E+03  0.84214376156E+02 0.  0.
         23    2    1    2    0    0 -0.31555872369E+02  0.58813525883E+01 -0.10302734491E+03  0.14162973932E+03  0.91727781349E+02 0.  0.
         13    1    3    3    0    0  0.31194100568E+02  0.66099579689E+01 -0.93467458258E+02  0.98756919797E+02  0.00000000000E+00 0. -1.
        -14    1    3    3    0    0  0.42530760857E+02 -0.17486381683E+00  0.66385052324E+01  0.43046090974E+02  0.00000000000E+00 0.  1.
        -13    1    4    4    0    0  0.29886573126E+02  0.16990732926E+02 -0.30827620597E+02  0.46176124245E+02  0.00000000000E+00 0.  1.
         13    1    4    4    0    0 -0.61442445495E+02 -0.11109380338E+02 -0.72199724309E+02  0.95453615072E+02  0.00000000000E+00 0. -1.
          4    1    1    2  501    0 -0.42168989056E+02 -0.12316446740E+02 -0.57423248405E+02  0.72300400799E+02  0.00000000000E+00 0. -1.
<scales pt_clust_5="13000.00000" pt_clust_6="13000.00000" pt_clust_7="13000.00000" pt_clust_8="13000.00000" pt_clust_9="43.93084"></scales>
<clustering>
<clus scale="   43.931">  2  9  1 -1</clus>
<clus scale="   84.214">  5  6 -1 -1</clus>
<clus scale="   91.728">  7  8 -1 -1</clus>
<clus scale="   99.694">  1  5  2 -1</clus>
<clus scale="   43.931">  2  5  1 -1</clus>
</clustering>
</event>
<event>
 9    1  0.7835476E-005  0.1573280E+03  0.7546771E-02  0.1196651E+00
          1   -1    0    0  502    0 -0.00000000000E+00  0.00000000000E+00  0.81348037977E+03  0.81348037977E+03  0.00000000000E+00 0. -1.
         21   -1    0    0  501  502  0.00000000000E+00 -0.00000000000E+00 -0.77672980783E+02  0.77672980783E+02  0.00000000000E+00 0.  1.
        -24    2    1    2    0    0 -0.45331705708E+02  0.10921941194E+03  0.67407626304E+03  0.68909830524E+03  0.80584256556E+02 0.  0.
         23    2    1    2    0    0  0.67228799193E+02 -0.77620037879E+02  0.26897476038E+02  0.15017647585E+03  0.10623049449E+03 0.  0.
         11    1    3    3    0    0 -0.51542265088E+02  0.34163656648E+02  0.20872509490E+03  0.21769227309E+03  0.00000000000E+00 0. -1.
        -12    1    3    3    0    0  0.62105593803E+01  0.75055755295E+02  0.46535116815E+03  0.47140603215E+03  0.00000000000E+00 0.  1.
        -13    1    4    4    0    0  0.32536837656E+02 -0.71102005480E+02 -0.29558626695E+02  0.83593381317E+02  0.00000000000E+00 0. -1.
         13    1    4    4    0    0  0.34691961537E+02 -0.65180323989E+01  0.56456102733E+02  0.66583094532E+02  0.00000000000E+00 0.  1.
          2    1    1    2  501    0 -0.21897093485E+02 -0.31599374064E+02  0.34833659905E+02  0.51878579459E+02  0.00000000000E+00 0. -1.
<scales pt_clust_5="13000.00000" pt_clust_6="13000.00000" pt_clust_7="13000.00000" pt_clust_8="13000.00000" pt_clust_9="38.44481"></scales>
<clustering>
<clus scale="   38.445">  2  9  1 -1</clus>
<clus scale="   80.584">  5  6 -1 -1</clus>
<clus scale="  106.230">  7  8 -1 -1</clus>
<clus scale="  141.283">  1  5  2 -1</clus>
<clus scale="   38.445">  2  5  1 -1</clus>
</clustering>
</event>
<event>
 9    1  0.7835476E-005  0.1338513E+03  0.7546771E-02  0.1227608E+00
         21   -1    0    0  501  502  0.00000000000E+00  0.00000000000E+00  0.51898079249E+02  0.51898079249E+02  0.00000000000E+00 0. -1.
          1   -1    0    0  502    0 -0.00000000000E+00 -0.00000000000E+00 -0.58337559133E+03  0.58337559133E+03  0.00000000000E+00 0. -1.
        -24    2    1    2    0    0  0.29943465192E+02  0.65459877395E+02 -0.22414042312E+03  0.24991063969E+03  0.83873666277E+02 0.  0.
         23    2    1    2    0    0  0.10947152343E+02 -0.10846934017E+03 -0.28407592696E+03  0.32162184995E+03  0.10419234225E+03 0.  0.
         11    1    3    3    0    0  0.51150140516E+02  0.59249571808E+02 -0.20885731781E+03  0.22304310758E+03  0.00000000000E+00 0. -1.
        -12    1    3    3    0    0 -0.21206675324E+02  0.62103055873E+01 -0.15283105315E+02  0.26867532113E+02  0.00000000000E+00 0.  1.
        -11    1    4    4    0    0 -0.32269626129E+02 -0.72839009362E+02 -0.92759722837E+02  0.12227516606E+03  0.00000000000E+00 0. -1.
         11    1    4    4    0    0  0.43216778471E+02 -0.35630330812E+02 -0.19131620412E+03  0.19934668388E+03  0.00000000000E+00 0.  1.
          2    1    1    2  501    0 -0.40890617535E+02  0.43009462780E+02 -0.23261162002E+02  0.63741180948E+02  0.00000000000E+00 0. -1.
<scales pt_clust_5="13000.00000" pt_clust_6="13000.00000" pt_clust_7="13000.00000" pt_clust_8="13000.00000" pt_clust_9="59.34523"></scales>
<clustering>
<clus scale="   59.345">  1  9  2 -1</clus>
<clus scale="   83.874">  5  6 -1 -1</clus>
<clus scale="  104.192">  7  8 -1 -1</clus>
<clus scale="  118.722">  2  5  1 -1</clus>
<clus scale="   59.345">  1  5  2 -1</clus>
</clustering>
</event>
<event>
 9    1  0.7835476E-005  0.1348172E+03  0.7546771E-02  0.1221980E+00
          1   -1    0    0  502    0 -0.00000000000E+00  0.00000000000E+00  0.90003210658E+03  0.90003210658E+03  0.00000000000E+00 0. -1.
         21   -1    0    0  501  502  0.00000000000E+00 -0.00000000000E+00 -0.30469975321E+02  0.30469975321E+02  0.00000000000E+00 0.  1.
         23    2    1    2    0    0 -0.60746905536E+02  0.76999546335E+02  0.52385028791E+03  0.54000528242E+03  0.86991173257E+02 0.  0.
        -24    2    1    2    0    0  0.96175629466E+02 -0.68108660438E+02  0.24680921961E+03  0.28506449270E+03  0.80364375100E+02 0.  0.
         11    1    4    4    0    0  0.57138230810E+02 -0.82403671950E+02  0.18760356465E+03  0.21272103808E+03  0.00000000000E+00 0. -1.
        -12    1    4    4    0    0  0.39037398655E+02  0.14295011512E+02  0.59205654957E+02  0.72343454623E+02  0.00000000000E+00 0.  1.
        -11    1    3    3    0    0 -0.72245710598E+02  0.25083123691E+02  0.26860047586E+03  0.27927552958E+03  0.00000000000E+00 0. -1.
         11    1    3    3    0    0  0.11498805062E+02  0.51916422644E+02  0.25524981206E+03  0.26072975283E+03  0.00000000000E+00 0.  1.
          2    1    1    2  501    0 -0.35428723929E+02 -0.88908858969E+01  0.98902623742E+02  0.10543230679E+03  0.00000000000E+00 0. -1.
<scales pt_clust_5="13000.00000" pt_clust_6="13000.00000" pt_clust_7="13000.00000" pt_clust_8="13000.00000" pt_clust_9="36.52730"></scales>
<clustering>
<clus scale="   36.527">  2  9  1 -1</clus>
<clus scale="   80.364">  5  6 -1 -1</clus>
<clus scale="   86.991">  7  8 -1 -1</clus>
<clus scale="  130.639">  2  5  1 -1</clus>
<clus scale="   36.527">  2  5  1 -1</clus>
</clustering>
</event>
<event>
 9    1  0.7835476E-005  0.9651838E+02  0.7546771E-02  0.1291731E+00
         21   -1    0    0  501  502  0.00000000000E+00  0.00000000000E+00  0.13320049323E+03  0.13320049323E+03  0.00000000000E+00 0. -1.
         -4   -1    0    0    0  501 -0.00000000000E+00 -0.00000000000E+00 -0.12951405455E+03  0.12951405455E+03  0.00000000000E+00 0.  1.
        -24    2    1    2    0    0 -0.21499104923E+02 -0.40909196056E+02 -0.43620400103E+02  0.10412036706E+03  0.82477498124E+02 0.  0.
         23    2    1    2    0    0  0.18136331752E+02 -0.63747626026E+01  0.59683150738E+02  0.10960179266E+03  0.89893883801E+02 0.  0.
         13    1    3    3    0    0  0.26168712755E+02 -0.37598618337E+02 -0.28723654874E+02  0.54069455124E+02  0.00000000000E+00 0. -1.
        -14    1    3    3    0    0 -0.47667817678E+02 -0.33105777188E+01 -0.14896745229E+02  0.50050911934E+02  0.00000000000E+00 0.  1.
        -13    1    4    4    0    0 -0.12205248858E+02 -0.39909952316E+02  0.11011619254E+02  0.43162809827E+02  0.00000000000E+00 0.  1.
         13    1    4    4    0    0  0.30341580610E+02  0.33535189714E+02  0.48671531484E+02  0.66438982834E+02  0.00000000000E+00 0. -1.
         -3    1    1    2    0  502  0.33627731704E+01  0.47283958658E+02 -0.12376311955E+02  0.48992388056E+02  0.00000000000E+00 0.  1.
<scales pt_clust_5="13000.00000" pt_clust_6="13000.00000" pt_clust_7="13000.00000" pt_clust_8="13000.00000" pt_clust_9="47.40341"></scales>
<clustering>
<clus scale="   47.403">  1  9  2 -1</clus>
<clus scale="   82.477">  5  6 -1 -1</clus>
<clus scale="   89.652">  2  5  1 -1</clus>
<clus scale="   89.894">  7  8 -1 -1</clus>
<clus scale="   47.403">  1  5  2 -1</clus>
</clustering>
</event>
<event>
 9    1  0.7835476E-005  0.1010609E+03  0.7546771E-02  0.1284906E+00
          1   -1    0    0  502    0 -0.00000000000E+00  0.00000000000E+00  0.12194503995E+03  0.12194503995E+03  0.00000000000E+00 0. -1.
         21   -1    0    0  501  502  0.00000000000E+00 -0.00000000000E+00 -0.28587597634E+03  0.28587597634E+03  0.00000000000E+00 0. -1.
         23    2    1    2    0    0  0.43847118147E+02 -0.78840343606E+01 -0.12651828400E+02  0.10225122504E+03  0.91162034276E+02 0.  0.
        -24    2    1    2    0    0 -0.41463256237E+02 -0.52658477785E+02 -0.20207369588E+03  0.22650545837E+03  0.77322876355E+02 0.  0.
         13    1    4    4    0    0 -0.49517183615E+02 -0.77968609807E+01 -0.14527553673E+03  0.15368059112E+03  0.00000000000E+00 0. -1.
        -14    1    4    4    0    0  0.80539273784E+01 -0.44861616804E+02 -0.56798159150E+02  0.72824867259E+02  0.00000000000E+00 0.  1.
        -13    1    3    3    0    0  0.28011338463E+02 -0.41582765583E+02 -0.32802032376E+02  0.59914395633E+02  0.00000000000E+00 0. -1.
         13    1    3    3    0    0  0.15835779685E+02  0.33698731223E+02  0.20150203977E+02  0.42336829410E+02  0.00000000000E+00 0.  1.
          2    1    1    2  501    0 -0.23838619104E+01  0.60542512145E+02  0.50794587878E+02  0.79064332870E+02  0.00000000000E+00 0. -1.
<scales pt_clust_5="13000.00000" pt_clust_6="13000.00000" pt_clust_7="13000.00000" pt_clust_8="13000.00000" pt_clust_9="60.58946"></scales>
<clustering>
<clus scale="   60.589">  2  9  1 -1</clus>
<clus scale="   77.323">  5  6 -1 -1</clus>
<clus scale="   88.778">  2  5  1 -1</clus>
<clus scale="   91.162">  7  8 -1 -1</clus>
<clus scale="   60.589">  2  5  1 -1</clus>
</clustering>
</event>
<event>
 9    1  0.9584544E-005  0.9541415E+02  0.7546771E-02  0.1297182E+00
         21   -1    0    0  501  502  0.00000000000E+00  0.00000000000E+00  0.18079256166E+03  0.18079256166E+03  0.00000000000E+00 0. -1.
          1   -1    0    0  502    0 -0.00000000000E+00 -0.00000000000E+00 -0.27071368905E+03  0.27071368905E+03  0.00000000000E+00 0. -1.
        -24    2    1    2    0    0  0.22584107615E+02  0.15042908382E+02 -0.22699661525E+03  0.24243988438E+03  0.80705038200E+02 0.  0.
         23    2    1    2    0    0  0.27086831780E+02  0.15380183116E+02  0.70013048448E+02  0.12023992040E+03  0.92658324052E+02 0.  0.
         11    1    3    3    0    0  0.36739449630E+02  0.14621702418E+02 -0.22462767536E+03  0.22808150709E+03  0.00000000000E+00 0. -1.
        -12    1    3    3    0    0 -0.14155342015E+02  0.42120596379E+00 -0.23689398961E+01  0.14358377285E+02  0.00000000000E+00 0.  1.
        -13    1    4    4    0    0  0.10740444735E+02 -0.39259810900E+02  0.30317011624E+02  0.50752449190E+02  0.00000000000E+00 0.  1.
         13    1    4    4    0    0  0.16346387045E+02  0.54639994016E+02  0.39696036824E+02  0.69487471209E+02  0.00000000000E+00 0. -1.
          2    1    1    2  501    0 -0.49670939394E+02 -0.30423091498E+02  0.67062439411E+02  0.88826445929E+02  0.00000000000E+00 0. -1.
<scales pt_clust_5="13000.00000" pt_clust_6="13000.00000" pt_clust_7="13000.00000" pt_clust_8="13000.00000" pt_clust_9="58.24746"></scales>
<clustering>
<clus scale="   58.247">  1  9  2 -1</clus>
<clus scale="   80.705">  5  6 -1 -1</clus>
<clus scale="   83.855">  2  5  1 -1</clus>
<clus scale="   92.658">  7  8 -1 -1</clus>
<clus scale="   58.247">  1  5  2 -1</clus>
</clustering>
</event>
<event>
 9    1  0.7835476E-005  0.1027363E+03  0.7546771E-02  0.1280579E+00
          1   -1    0    0  502    0 -0.00000000000E+00  0.00000000000E+00  0.13507243615E+03  0.13507243615E+03  0.00000000000E+00 0. -1.
         21   -1    0    0  501  502  0.00000000000E+00 -0.00000000000E+00 -0.13668752816E+03  0.13668752816E+03  0.00000000000E+00 0. -1.
        -24    2    1    2    0    0 -0.41339031870E+02  0.11501000570E+00  0.17380642467E+02  0.90738133877E+02  0.78882148955E+02 0.  0.
         23    2    1    2    0    0  0.59545045055E+02  0.22925859007E+02 -0.63031863649E+02  0.12809243185E+03  0.91451888230E+02 0.  0.
         11    1    3    3    0    0 -0.48191299521E+02  0.28305340621E+02  0.24252246162E+02  0.60924257083E+02  0.00000000000E+00 0. -1.
        -12    1    3    3    0    0  0.68522676516E+01 -0.28190330615E+02 -0.68716036946E+01  0.29813876794E+02  0.00000000000E+00 0.  1.
        -13    1    4    4    0    0  0.10871748690E+02  0.20457660070E+02  0.20792924122E+02  0.31129671837E+02  0.00000000000E+00 0.  1.
         13    1    4    4    0    0  0.48673296364E+02  0.24681989374E+01 -0.83824787771E+02  0.96962760015E+02  0.00000000000E+00 0. -1.
          2    1    1    2  501    0 -0.18206013185E+02 -0.23040869013E+02  0.44036129179E+02  0.52929398580E+02  0.00000000000E+00 0. -1.
<scales pt_clust_5="13000.00000" pt_clust_6="13000.00000" pt_clust_7="13000.00000" pt_clust_8="13000.00000" pt_clust_9="29.36565"></scales>
<clustering>
<clus scale="   29.366">  2  9  1 -1</clus>
<clus scale="   78.882">  5  6 -1 -1</clus>
<clus scale="   91.452">  7  8 -1 -1</clus>
<clus scale="   91.726">  1  5  2 -1</clus>
<clus scale="   29.366">  2  5  1 -1</clus>
</clustering>
</event>
<event>
 9    1  0.7835476E-005  0.1693814E+03  0.7546771E-02  0.1178806E+00
         21   -1    0    0  501  502  0.00000000000E+00  0.00000000000E+00  0.14530046629E+03  0.14530046629E+03  0.00000000000E+00 0. -1.
          1   -1    0    0  502    0 -0.00000000000E+00 -0.00000000000E+00 -0.27874076254E+03  0.27874076254E+03  0.00000000000E+00 0. -1.
         23    2    1    2    0    0 -0.13235265838E+03  0.79934973024E+02 -0.13754557447E+03  0.22160376287E+03  0.79262958356E+02 0.  0.
        -24    2    1    2    0    0  0.10967993528E+03 -0.91106972192E+02 -0.25074715325E+02  0.16383257040E+03  0.76695509593E+02 0.  0.
         11    1    4    4    0    0  0.11678024427E+03 -0.65180494932E+02 -0.28476277922E+02  0.13673704976E+03  0.00000000000E+00 0. -1.
        -12    1    4    4    0    0 -0.71003089955E+01 -0.25926477260E+02  0.34015625968E+01  0.27095520645E+02  0.00000000000E+00 0.  1.
        -13    1    3    3    0    0 -0.77906466700E+02  0.86426360249E+01 -0.92433033873E+02  0.12119397040E+03  0.00000000000E+00 0.  1.
         13    1    3    3    0    0 -0.54446191679E+02  0.71292336999E+02 -0.45112540596E+02  0.10040979246E+03  0.00000000000E+00 0. -1.
          2    1    1    2  501    0  0.22672723101E+02  0.11171999169E+02  0.29179993538E+02  0.38604895559E+02  0.00000000000E+00 0. -1.
<scales pt_clust_5="13000.00000" pt_clust_6="13000.00000" pt_clust_7="13000.00000" pt_clust_8="13000.00000" pt_clust_9="25.27580"></scales>
<clustering>
<clus scale="   25.276">  1  9  2 -1</clus>
<clus scale="   76.696">  5  6 -1 -1</clus>
<clus scale="   79.263">  7  8 -1 -1</clus>
<clus scale="  168.195">  1  5  2 -1</clus>
<clus scale="   25.276">  1  5  2 -1</clus>
</clustering>
</event>
<event>
 9    1  0.7835476E-005  0.1346479E+03  0.7546771E-02  0.1223713E+00
          1   -1    0    0  502    0 -0.00000000000E+00  0.00000000000E+00  0.11170606792E+04  0.11170606792E+04  0.00000000000E+00 0. -1.
         21   -1    0    0  501  502  0.00000000000E+00 -0.00000000000E+00 -0.41379171018E+02  0.41379171018E+02  0.00000000000E+00 0. -1.
        -24    2    1    2    0    0 -0.74736007103E+02 -0.55555585420E+02  0.57095241069E+03  0.58395817723E+03  0.79678125294E+02 0.  0.
         23    2    1    2    0    0  0.55103702012E+02  0.12436773731E+03  0.18752236749E+03  0.24930379981E+03  0.92108600193E+02 0.  0.
         11    1    3    3    0    0 -0.90390645800E+02 -0.49209665978E+02  0.43756814388E+03  0.44950855455E+03  0.00000000000E+00 0. -1.
        -12    1    3    3    0    0  0.15654638698E+02 -0.63459194422E+01  0.13338426681E+03  0.13444962268E+03  0.00000000000E+00 0.  1.
        -13    1    4    4    0    0 -0.23967385939E+02  0.34103300831E+02  0.30363007889E+02  0.51569205582E+02  0.00000000000E+00 0.  1.
         13    1    4    4    0    0  0.79071087951E+02  0.90264436478E+02  0.15715935961E+03  0.19773459423E+03  0.00000000000E+00 0. -1.
          2    1    1    2  501    0  0.19632305091E+02 -0.68812151889E+02  0.31720672998E+03  0.32517787316E+03  0.00000000000E+00 0. -1.
<scales pt_clust_5="13000.00000" pt_clust_6="13000.00000" pt_clust_7="13000.00000" pt_clust_8="13000.00000" pt_clust_9="71.55798"></scales>
<clustering>
<clus scale="   71.558">  2  9  1 -1</clus>
<clus scale="   79.678">  5  6 -1 -1</clus>
<clus scale="   92.109">  7  8 -1 -1</clus>
<clus scale="  126.470">  1  5  2 -1</clus>
<clus scale="   71.558">  2  5  1 -1</clus>
</clustering>
</event>
<event>
 9    1  0.7835476E-005  0.1168419E+03  0.7546771E-02  0.1252250E+00
         21   -1    0    0  501  502  0.00000000000E+00  0.00000000000E+00  0.14182577531E+03  0.14182577531E+03  0.00000000000E+00 0.  1.
          3   -1    0    0  502    0 -0.00000000000E+00 -0.00000000000E+00 -0.57634290274E+03  0.57634290274E+03  0.00000000000E+00 0. -1.
         23    2    1    2    0    0 -0.34554979715E+02 -0.60626799303E+02 -0.49694046987E+03  0.51010625625E+03  0.91590974732E+02 0.  0.
        -24    2    1    2    0    0  0.27743119778E+02  0.96433322193E+02 -0.80185788130E+01  0.12874929055E+03  0.80268399050E+02 0.  0.
         13    1    4    4    0    0  0.19051499560E+02  0.61390738147E+02 -0.43906195457E+02  0.77843023870E+02  0.00000000000E+00 0. -1.
        -14    1    4    4    0    0  0.86916202177E+01  0.35042584046E+02  0.35887616644E+02  0.50906266677E+02  0.00000000000E+00 0.  1.
        -13    1    3    3    0    0 -0.47238151643E+02  0.19370302422E+01 -0.28019354780E+03  0.28415421744E+03  0.00000000000E+00 0. -1.
         13    1    3    3    0    0  0.12683171928E+02 -0.62563829545E+02 -0.21674692207E+03  0.22595203881E+03  0.00000000000E+00 0.  1.
          4    1    1    2  501    0  0.68118599374E+01 -0.35806522891E+02  0.70441921258E+02  0.79313131245E+02  0.00000000000E+00 0. -1.
<scales pt_clust_5="13000.00000" pt_clust_6="13000.00000" pt_clust_7="13000.00000" pt_clust_8="13000.00000" pt_clust_9="36.44871"></scales>
<clustering>
<clus scale="   36.449">  1  9  2 -1</clus>
<clus scale="   80.268">  5  6 -1 -1</clus>
<clus scale="   91.591">  7  8 -1 -1</clus>
<clus scale="  108.195">  1  5  2 -1</clus>
<clus scale="   36.449">  1  5  2 -1</clus>
</clustering>
</event>
<event>
 9    1  0.7835476E-005  0.2178132E+03  0.7546771E-02  0.1136515E+00
         -4   -1    0    0    0  501 -0.00000000000E+00  0.00000000000E+00  0.70294031036E+03  0.70294031036E+03  0.00000000000E+00 0.  1.
         21   -1    0    0  501  502  0.00000000000E+00 -0.00000000000E+00 -0.99979868897E+02  0.99979868897E+02  0.00000000000E+00 0. -1.
         23    2    1    2    0    0  0.55418548406E+02  0.16315849295E+03  0.26362781664E+03  0.32839940831E+03  0.93030297958E+02 0.  0.
        -24    2    1    2    0    0 -0.10135629998E+03 -0.21881634653E+03  0.22553989028E+03  0.33977337722E+03  0.80149938868E+02 0.  0.
         13    1    4    4    0    0 -0.86254336847E+02 -0.21458666167E+03  0.22694991744E+03  0.32402702205E+03  0.00000000000E+00 0. -1.
        -14    1    4    4    0    0 -0.15101963135E+02 -0.42296848647E+01 -0.14100271556E+01  0.15746355170E+02  0.00000000000E+00 0.  1.
        -13    1    3    3    0    0  0.12423344447E+02  0.14925030545E+03  0.21494905420E+03  0.26197917678E+03  0.00000000000E+00 0.  1.
         13    1    3    3    0    0  0.42995203959E+02  0.13908187501E+02  0.48678762439E+02  0.66420231523E+02  0.00000000000E+00 0. -1.
         -3    1    1    2    0  502  0.45937751576E+02  0.55657853581E+02  0.11379273454E+03  0.13474739374E+03  0.00000000000E+00 0.  1.
<scales pt_clust_5="13000.00000" pt_clust_6="13000.00000" pt_clust_7="13000.00000" pt_clust_8="13000.00000" pt_clust_9="72.16702"></scales>
<clustering>
<clus scale="   72.167">  2  9  1 -1</clus>
<clus scale="   80.150">  5  6 -1 -1</clus>
<clus scale="   93.030">  7  8 -1 -1</clus>
<clus scale="  212.631">  2  5  1 -1</clus>
<clus scale="   72.167">  2  5  1 -1</clus>
</clustering>
</event>
<event>
 9    1  0.7835476E-005  0.1110264E+03  0.7546771E-02  0.1263617E+00
         21   -1    0    0  501  502  0.00000000000E+00  0.00000000000E+00  0.75273114078E+03  0.75273114078E+03  0.00000000000E+00 0. -1.
          1   -1    0    0  502    0 -0.00000000000E+00 -0.00000000000E+00 -0.40250469156E+02  0.40250469156E+02  0.00000000000E+00 0. -1.
         23    2    1    2    0    0  0.34314719326E+02  0.77260298108E+02  0.16858612797E+03  0.20979727950E+03  0.91907357235E+02 0.  0.
        -24    2    1    2    0    0  0.36725194722E+02 -0.23925947601E+02  0.42629618683E+03  0.43580524149E+03  0.79224861680E+02 0.  0.
         13    1    4    4    0    0  0.18189489021E+02 -0.52567357496E+02  0.29141415623E+03  0.29667557202E+03  0.00000000000E+00 0. -1.
        -14    1    4    4    0    0  0.18535705701E+02  0.28641409896E+02  0.13488203060E+03  0.13912966947E+03  0.00000000000E+00 0.  1.
        -13    1    3    3    0    0  0.12062668966E+02 -0.20781830052E+02  0.38613511082E+02  0.45479618303E+02  0.00000000000E+00 0.  1.
         13    1    3    3    0    0  0.22252050360E+02  0.98042128160E+02  0.12997261689E+03  0.16431766120E+03  0.00000000000E+00 0. -1.
          2    1    1    2  501    0 -0.71039914049E+02 -0.53334350507E+02  0.11759835682E+03  0.14737908895E+03  0.00000000000E+00 0. -1.
<scales pt_clust_5="13000.00000" pt_clust_6="13000.00000" pt_clust_7="13000.00000" pt_clust_8="13000.00000" pt_clust_9="88.83260"></scales>
<clustering>
<clus scale="   79.225">  5  6 -1 -1</clus>
<clus scale="   88.833">  1  9  2 -1</clus>
<clus scale="   91.907">  7  8 -1 -1</clus>
<clus scale="  100.779">  1  5  2 -1</clus>
<clus scale="   88.833">  1  5  2 -1</clus>
</clustering>
</event>
<event>
 9    1  0.7835476E-005  0.1184437E+03  0.7546771E-02  0.1261339E+00
         21   -1    0    0  501  502  0.00000000000E+00  0.00000000000E+00  0.11231994970E+03  0.11231994970E+03  0.00000000000E+00 0. -1.
          1   -1    0    0  502    0 -0.00000000000E+00 -0.00000000000E+00 -0.35938143421E+03  0.35938143421E+03  0.00000000000E+00 0. -1.
        -24    2    1    2    0    0 -0.14067744583E+02  0.30503143327E+02 -0.12137891194E+03  0.14921654268E+03  0.80027452516E+02 0.  0.
         23    2    1    2    0    0 -0.65362898359E+02  0.24891550687E+02  0.46624386363E+02  0.12482987099E+03  0.92286323528E+02 0.  0.
         13    1    3    3    0    0 -0.41995326151E+02  0.38075030164E+02 -0.91397848130E+02  0.10754943972E+03  0.00000000000E+00 0. -1.
        -14    1    3    3    0    0  0.27927581568E+02 -0.75718868366E+01 -0.29981063808E+02  0.41667102965E+02  0.00000000000E+00 0.  1.
        -13    1    4    4    0    0 -0.88536996250E+02  0.12203716785E+02  0.36262434090E+02  0.96450477109E+02  0.00000000000E+00 0. -1.
         13    1    4    4    0    0  0.23174097891E+02  0.12687833902E+02  0.10361952273E+02  0.28379393882E+02  0.00000000000E+00 0.  1.
          2    1    1    2  501    0  0.79430642942E+02 -0.55394694015E+02 -0.17230695893E+03  0.19765497024E+03  0.00000000000E+00 0. -1.
<scales pt_clust_5="13000.00000" pt_clust_6="13000.00000" pt_clust_7="13000.00000" pt_clust_8="13000.00000" pt_clust_9="74.24391"></scales>
<clustering>
<clus scale="   80.027">  5  6 -1 -1</clus>
<clus scale="   86.791">  2  5  1 -1</clus>
<clus scale="   74.244">  1  9  2 -1</clus>
<clus scale="   92.286">  7  8 -1 -1</clus>
<clus scale="   74.244">  1  5  2 -1</clus>
</clustering>
</event>
<event>
 9    1  0.7835476E-005  0.1184550E+03  0.7546771E-02  0.1249912E+00
         -2   -1    0    0    0  501 -0.00000000000E+00  0.00000000000E+00  0.24267292447E+03  0.24267292447E+03  0.00000000000E+00 0.  1.
         21   -1    0    0  501  502  0.00000000000E+00 -0.00000000000E+00 -0.21605183824E+03  0.21605183824E+03  0.00000000000E+00 0.  1.
         23    2    1    2    0    0  0.16675897011E+02 -0.75934808090E+02  0.19602864709E+03  0.22988852589E+03  0.91527718403E+02 0.  0.
        -24    2    1    2    0    0  0.19084629373E+02  0.64353192886E+02 -0.76474049577E+02  0.12858861052E+03  0.78620569730E+02 0.  0.
         13    1    4    4    0    0  0.14306893213E+02  0.82691545961E+02 -0.67093089916E+02  0.10744329519E+03  0.00000000000E+00 0. -1.
        -14    1    4    4    0    0  0.47777361601E+01 -0.18338353076E+02 -0.93809596617E+01  0.21145315333E+02  0.00000000000E+00 0.  1.
        -13    1    3    3    0    0 -0.30436492953E+02 -0.62944513923E+02  0.98386709378E+02  0.12069936420E+03  0.00000000000E+00 0.  1.
         13    1    3    3    0    0  0.47112389964E+02 -0.12990294168E+02  0.97641937714E+02  0.10918916169E+03  0.00000000000E+00 0. -1.
         -1    1    1    2    0  502 -0.35760526384E+02  0.11581615205E+02 -0.92933511284E+02  0.10024762629E+03  0.00000000000E+00 0.  1.
<scales pt_clust_5="13000.00000" pt_clust_6="13000.00000" pt_clust_7="13000.00000" pt_clust_8="13000.00000" pt_clust_9="37.58921"></scales>
<clustering>
<clus scale="   37.589">  2  9  1 -1</clus>
<clus scale="   78.621">  5  6 -1 -1</clus>
<clus scale="   91.528">  7  8 -1 -1</clus>
<clus scale="  108.791">  2  5  1 -1</clus>
<clus scale="   37.589">  2  5  1 -1</clus>
</clustering>
</event>
<event>
 9    1  0.7835476E-005  0.2240591E+03  0.7546771E-02  0.1167318E+00
         21   -1    0    0  501  502  0.00000000000E+00  0.00000000000E+00  0.25492823987E+03  0.25492823987E+03  0.00000000000E+00 0. -1.
          1   -1    0    0  502    0 -0.00000000000E+00 -0.00000000000E+00 -0.49922992723E+03  0.49922992723E+03  0.00000000000E+00 0. -1.
        -24    2    1    2    0    0  0.48114600894E+02  0.54371546842E+01 -0.25246063248E+03  0.26952267231E+03  0.81003225043E+02 0.  0.
         23    2    1    2    0    0  0.10923140050E+03 -0.15231071219E+03 -0.11585374535E+03  0.23622302842E+03  0.85142098506E+02 0.  0.
         11    1    3    3    0    0 -0.20214060391E+02 -0.11411426207E+02 -0.48654527891E+02  0.53908180918E+02  0.00000000000E+00 0. -1.
        -12    1    3    3    0    0  0.68328661285E+02  0.16848580891E+02 -0.20380610459E+03  0.21561449140E+03  0.00000000000E+00 0.  1.
        -13    1    4    4    0    0 -0.14425566354E+02 -0.20493244246E+02 -0.16015080570E+02  0.29741432885E+02  0.00000000000E+00 0.  1.
         13    1    4    4    0    0  0.12365696686E+03 -0.13181746795E+03 -0.99838664777E+02  0.20648159553E+03  0.00000000000E+00 0. -1.
          2    1    1    2  501    0 -0.15734600140E+03  0.14687355751E+03  0.12401269046E+03  0.24841246637E+03  0.00000000000E+00 0. -1.
<scales pt_clust_5="13000.00000" pt_clust_6="13000.00000" pt_clust_7="13000.00000" pt_clust_8="13000.00000" pt_clust_9="207.25174"></scales>
<clustering>
<clus scale="   81.003">  5  6 -1 -1</clus>
<clus scale="   85.142">  7  8 -1 -1</clus>
<clus scale="   94.372">  2  5  1 -1</clus>
<clus scale="  207.252">  1  9  2 -1</clus>
<clus scale="  207.252">  1  5  2 -1</clus>
</clustering>
</event>
<event>
 9    1  0.7835476E-005  0.1342269E+03  0.7546771E-02  0.1223335E+00
         -4   -1    0    0    0  501 -0.00000000000E+00  0.00000000000E+00  0.44569617224E+03  0.44569617224E+03  0.00000000000E+00 0.  1.
         21   -1    0    0  501  502  0.00000000000E+00 -0.00000000000E+00 -0.11043291505E+03  0.11043291505E+03  0.00000000000E+00 0. -1.
         23    2    1    2    0    0  0.20350769574E+02  0.95157246672E+02  0.36697934161E+03  0.39043480434E+03  0.91084816814E+02 0.  0.
        -24    2    1    2    0    0 -0.86803122461E-01 -0.10939961971E+03 -0.21099214020E+02  0.13874634308E+03  0.82686677019E+02 0.  0.
         11    1    4    4    0    0  0.37725517259E+02 -0.54812445741E+02 -0.27573457188E+02  0.72027178216E+02  0.00000000000E+00 0. -1.
        -12    1    4    4    0    0 -0.37812320381E+02 -0.54587173973E+02  0.64742431673E+01  0.66719164860E+02  0.00000000000E+00 0.  1.
        -13    1    3    3    0    0  0.36344624738E+02  0.20611525492E+02  0.53857474501E+02  0.68164465010E+02  0.00000000000E+00 0. -1.
         13    1    3    3    0    0 -0.15993855164E+02  0.74545721179E+02  0.31312186711E+03  0.32227033933E+03  0.00000000000E+00 0.  1.
         -3    1    1    2    0  502 -0.20263966451E+02  0.14242373042E+02 -0.10616870397E+02  0.26947939870E+02  0.00000000000E+00 0.  1.
<scales pt_clust_5="13000.00000" pt_clust_6="13000.00000" pt_clust_7="13000.00000" pt_clust_8="13000.00000" pt_clust_9="24.76840"></scales>
<clustering>
<clus scale="   24.768">  2  9  1 -1</clus>
<clus scale="   82.687">  5  6 -1 -1</clus>
<clus scale="   91.085">  7  8 -1 -1</clus>
<clus scale="  128.676">  2  5  1 -1</clus>
<clus scale="   24.768">  2  5  1 -1</clus>
</clustering>
</event>
<event>
 9    1  0.7835476E-005  0.1762957E+03  0.7546771E-02  0.1172180E+00
          3   -1    0    0  502    0 -0.00000000000E+00  0.00000000000E+00  0.26070255622E+03  0.26070255622E+03  0.00000000000E+00 0. -1.
         21   -1    0    0  501  502  0.00000000000E+00 -0.00000000000E+00 -0.17508351294E+03  0.17508351294E+03  0.00000000000E+00 0. -1.
        -24    2    1    2    0    0  0.53272787251E+02  0.14283386872E+03  0.15142431777E+03  0.23563561960E+03  0.96722889214E+02 0.  0.
         23    2    1    2    0    0 -0.39764337380E+02 -0.12633350448E+03 -0.74358364620E+02  0.17717447105E+03  0.91215513590E+02 0.  0.
         13    1    3    3    0    0  0.56661749908E+02  0.69579250930E+02  0.13228313577E+03  0.15984571959E+03  0.00000000000E+00 0. -1.
        -14    1    3    3    0    0 -0.33889626577E+01  0.73254617787E+02  0.19141182001E+02  0.75789900009E+02  0.00000000000E+00 0.  1.
        -11    1    4    4    0    0 -0.61774286786E+02 -0.11441894799E+03 -0.78379089318E+02  0.15182568890E+03  0.00000000000E+00 0. -1.
         11    1    4    4    0    0  0.22009949406E+02 -0.11914556488E+02  0.40207246975E+01  0.25348782145E+02  0.00000000000E+00 0.  1.
          4    1    1    2  501    0 -0.13508449870E+02 -0.16500364235E+02  0.85530901418E+01  0.22975978516E+02  0.00000000000E+00 0. -1.
<scales pt_clust_5="13000.00000" pt_clust_6="13000.00000" pt_clust_7="13000.00000" pt_clust_8="13000.00000" pt_clust_9="21.32465"></scales>
<clustering>
<clus scale="   21.325">  2  9  1 -1</clus>
<clus scale="   91.216">  7  8 -1 -1</clus>
<clus scale="   96.723">  5  6 -1 -1</clus>
<clus scale="  173.335">  2  7  1 -1</clus>
<clus scale="   21.325">  2  5  1 -1</clus>
</clustering>
</event>
<event>
 9    1  0.7835476E-005  0.2053008E+03  0.7546771E-02  0.1181477E+00
         21   -1    0    0  501  502  0.00000000000E+00  0.00000000000E+00  0.11560876317E+03  0.11560876317E+03  0.00000000000E+00 0. -1.
          1   -1    0    0  502    0 -0.00000000000E+00 -0.00000000000E+00 -0.70641656352E+03  0.70641656352E+03  0.00000000000E+00 0. -1.
        -24    2    1    2    0    0 -0.18212479984E+02 -0.33629968822E+02 -0.92654405838E+02  0.12844371088E+03  0.80313627191E+02 0.  0.
         23    2    1    2    0    0 -0.14632872633E+03 -0.61005037807E+02 -0.46650031518E+03  0.50114588503E+03  0.91602091844E+02 0.  0.
         11    1    3    3    0    0 -0.68903177127E+01 -0.42541306149E+02 -0.10236613418E+03  0.11106783798E+03  0.00000000000E+00 0. -1.
        -12    1    3    3    0    0 -0.11322162272E+02  0.89113373270E+01  0.97117283424E+01  0.17375872895E+02  0.00000000000E+00 0.  1.
        -11    1    4    4    0    0 -0.76267599653E+02 -0.52957666478E+02 -0.37092017669E+03  0.38236505943E+03  0.00000000000E+00 0. -1.
         11    1    4    4    0    0 -0.70061126676E+02 -0.80473713291E+01 -0.95580138491E+02  0.11878082560E+03  0.00000000000E+00 0.  1.
          2    1    1    2  501    0  0.16454120631E+03  0.94635006629E+02 -0.31653079332E+02  0.19243573079E+03  0.00000000000E+00 0. -1.
<scales pt_clust_5="13000.00000" pt_clust_6="13000.00000" pt_clust_7="13000.00000" pt_clust_8="13000.00000" pt_clust_9="183.73203"></scales>
<clustering>
<clus scale="   80.314">  5  6 -1 -1</clus>
<clus scale="   88.955">  2  5  1 -1</clus>
<clus scale="   91.602">  7  8 -1 -1</clus>
<clus scale="  183.732">  1  9  2 -1</clus>
<clus scale="  183.732">  1  5  2 -1</clus>
</clustering>
</event>
<event>
 9    1  0.7835476E-005  0.1065098E+03  0.7546771E-02  0.1275374E+00
         -4   -1    0    0    0  501 -0.00000000000E+00  0.00000000000E+00  0.23289245001E+03  0.23289245001E+03  0.00000000000E+00 0.  1.
         21   -1    0    0  501  502  0.00000000000E+00 -0.00000000000E+00 -0.13483024003E+03  0.13483024003E+03  0.00000000000E+00 0.  1.
        -24    2    1    2    0    0  0.69273411128E+01  0.38622948421E+02  0.91963927495E+02  0.12305197201E+03  0.71726589599E+02 0.  0.
         23    2    1    2    0    0 -0.52943900687E+01 -0.97606999354E+02  0.75778265470E+02  0.15336307967E+03  0.90679279876E+02 0.  0.
         13    1    3    3    0    0 -0.28162868436E+02  0.37109415703E+02  0.50305924585E+02  0.68563415469E+02  0.00000000000E+00 0. -1.
        -14    1    3    3    0    0  0.35090209549E+02  0.15135327183E+01  0.41658002909E+02  0.54488556541E+02  0.00000000000E+00 0.  1.
        -13    1    4    4    0    0  0.27150261781E+02 -0.83057091504E+02  0.78816062387E+02  0.11767577854E+03  0.00000000000E+00 0.  1.
         13    1    4    4    0    0 -0.32444651849E+02 -0.14549907850E+02 -0.30377969169E+01  0.35687301134E+02  0.00000000000E+00 0. -1.
         -3    1    1    2    0  502 -0.16329510441E+01  0.58984050933E+02 -0.69679982984E+02  0.91307638357E+02  0.00000000000E+00 0.  1.
<scales pt_clust_5="13000.00000" pt_clust_6="13000.00000" pt_clust_7="13000.00000" pt_clust_8="13000.00000" pt_clust_9="59.00665"></scales>
<clustering>
<clus scale="   59.007">  2  9  1 -1</clus>
<clus scale="   71.727">  5  6 -1 -1</clus>
<clus scale="   90.679">  7  8 -1 -1</clus>
<clus scale="   90.919">  1  5  2 -1</clus>
<clus scale="   59.007">  2  5  1 -1</clus>
</clustering>
</event>
<event>
 9    1  0.7835476E-005  0.1288017E+03  0.7546771E-02  0.1233376E+00
         -2   -1    0    0    0  501 -0.00000000000E+00  0.00000000000E+00  0.50722091416E+03  0.50722091416E+03  0.00000000000E+00 0.  1.
         21   -1    0    0  501  502  0.00000000000E+00 -0.00000000000E+00 -0.68961881732E+02  0.68961881732E+02  0.00000000000E+00 0. -1.
        -24    2    1    2    0    0  0.52556554150E+02  0.64352506829E+02  0.38411283788E+03  0.40124736624E+03  0.80952703295E+02 0.  0.
         23    2    1    2    0    0 -0.66376356956E+02 -0.82706645696E+02  0.41574029393E+02  0.14874534184E+03  0.95658594975E+02 0.  0.
         11    1    3    3    0    0  0.35663105860E+02  0.64171080411E+02  0.15494550611E+03  0.17145814226E+03  0.00000000000E+00 0. -1.
        -12    1    3    3    0    0  0.16893448290E+02  0.18142641753E+00  0.22916733176E+03  0.22978922398E+03  0.00000000000E+00 0.  1.
        -13    1    4    4    0    0 -0.22316019137E+02 -0.93733399243E+02  0.36535442609E+02  0.10304752986E+03  0.00000000000E+00 0.  1.
         13    1    4    4    0    0 -0.44060337818E+02  0.11026753547E+02  0.50385867844E+01  0.45697811974E+02  0.00000000000E+00 0. -1.
         -1    1    1    2    0  502  0.13819802805E+02  0.18354138868E+02  0.12572165155E+02  0.26190087817E+02  0.00000000000E+00 0.  1.
<scales pt_clust_5="13000.00000" pt_clust_6="13000.00000" pt_clust_7="13000.00000" pt_clust_8="13000.00000" pt_clust_9="22.97523"></scales>
<clustering>
<clus scale="   22.975">  2  9  1 -1</clus>
<clus scale="   80.953">  5  6 -1 -1</clus>
<clus scale="   95.659">  7  8 -1 -1</clus>
<clus scale="  118.291">  1  5  2 -1</clus>
<clus scale="   22.975">  2  5  1 -1</clus>
</clustering>
</event>
<event>
 9    1  0.7835476E-005  0.1960050E+03  0.7546771E-02  0.1185472E+00
         21   -1    0    0  501  502  0.00000000000E+00  0.00000000000E+00  0.80958433652E+03  0.80958433652E+03  0.00000000000E+00 0. -1.
         -4   -1    0    0    0  501 -0.00000000000E+00 -0.00000000000E+00 -0.10124632522E+03  0.10124632522E+03  0.00000000000E+00 0.  1.
         23    2    1    2    0    0 -0.22088787310E+02 -0.38441235956E+02  0.15347991693E+03  0.17971364461E+03  0.82312004047E+02 0.  0.
        -24    2    1    2    0    0 -0.16646667723E+03  0.54766187804E+02  0.49644643704E+03  0.53304736025E+03  0.83486127424E+02 0.  0.
         13    1    4    4    0    0 -0.14373270610E+03  0.38444744011E+02  0.47509124702E+03  0.49784413438E+03  0.00000000000E+00 0. -1.
        -14    1    4    4    0    0 -0.22733971138E+02  0.16321443793E+02  0.21355190017E+02  0.35203225873E+02  0.00000000000E+00 0.  1.
        -13    1    3    3    0    0 -0.21489850391E+02 -0.63510290999E+02  0.12437670853E+03  0.14129733316E+03  0.00000000000E+00 0. -1.
         13    1    3    3    0    0 -0.59893691925E+00  0.25069055043E+02  0.29103208402E+02  0.38416311450E+02  0.00000000000E+00 0.  1.
         -3    1    1    2    0  502  0.18855546454E+03 -0.16324951848E+02  0.58411657324E+02  0.19806965687E+03  0.00000000000E+00 0.  1.
<scales pt_clust_5="13000.00000" pt_clust_6="13000.00000" pt_clust_7="13000.00000" pt_clust_8="13000.00000" pt_clust_9="177.33598"></scales>
<clustering>
<clus scale="   82.312">  7  8 -1 -1</clus>
<clus scale="   83.486">  5  6 -1 -1</clus>
<clus scale="   93.493">  2  7  1 -1</clus>
<clus scale="  177.336">  1  9  2 -1</clus>
<clus scale="  177.336">  1  5  2 -1</clus>
</clustering>
</event>
<event>
 9    1  0.7835476E-005  0.1297181E+03  0.7546771E-02  0.1230268E+00
         21   -1    0    0  501  502  0.00000000000E+00  0.00000000000E+00  0.18612898772E+03  0.18612898772E+03  0.00000000000E+00 0.  1.
         -4   -1    0    0    0  501 -0.00000000000E+00 -0.00000000000E+00 -0.18903501536E+03  0.18903501536E+03  0.00000000000E+00 0.  1.
         23    2    1    2    0    0 -0.97307624783E+01 -0.74742176239E+02 -0.59389146114E-01  0.11891328589E+03  0.91974373528E+02 0.  0.
        -24    2    1    2    0    0 -0.88048483293E+02  0.97728041100E+02 -0.78090244035E+01  0.15568354482E+03  0.82904039932E+02 0.  0.
         11    1    4    4    0    0 -0.42807877648E+02 -0.46595985249E+01  0.33536056267E+01  0.43191120821E+02  0.00000000000E+00 0. -1.
        -12    1    4    4    0    0 -0.45240605645E+02  0.10238763962E+03 -0.11162630030E+02  0.11249242399E+03  0.00000000000E+00 0.  1.
        -11    1    3    3    0    0 -0.31206234990E+02 -0.28507502249E+02 -0.36825878232E+02  0.56059362236E+02  0.00000000000E+00 0.  1.
         11    1    3    3    0    0  0.21475472511E+02 -0.46234673990E+02  0.36766489086E+02  0.62853923650E+02  0.00000000000E+00 0. -1.
         -3    1    1    2    0  502  0.97779245771E+02 -0.22985864860E+02  0.49623859129E+01  0.10056717238E+03  0.00000000000E+00 0.  1.
<scales pt_clust_5="13000.00000" pt_clust_6="13000.00000" pt_clust_7="13000.00000" pt_clust_8="13000.00000" pt_clust_9="100.44467"></scales>
<clustering>
<clus scale="   82.904">  5  6 -1 -1</clus>
<clus scale="   91.974">  7  8 -1 -1</clus>
<clus scale="  100.445">  1  9  2 -1</clus>
<clus scale="  123.453">  1  5  2 -1</clus>
<clus scale="  100.445">  1  5  2 -1</clus>
</clustering>
</event>
<event>
 9    1  0.7835476E-005  0.1357213E+03  0.7546771E-02  0.1221388E+00
          3   -1    0    0  502    0 -0.00000000000E+00  0.00000000000E+00  0.17210401708E+03  0.17210401708E+03  0.00000000000E+00 0. -1.
         21   -1    0    0  501  502  0.00000000000E+00 -0.00000000000E+00 -0.33008243388E+03  0.33008243388E+03  0.00000000000E+00 0. -1.
         23    2    1    2    0    0 -0.11095909318E+03 -0.14786936953E+02  0.56148181561E+02  0.15402506928E+03  0.89669001383E+02 0.  0.
        -24    2    1    2    0    0  0.40908598994E+02  0.57723936056E+02 -0.23940495405E+03  0.26219829138E+03  0.80172599538E+02 0.  0.
         11    1    4    4    0    0  0.36326295782E+02  0.64282548544E+01 -0.17926238226E+03  0.18301891684E+03  0.00000000000E+00 0. -1.
        -12    1    4    4    0    0  0.45823032115E+01  0.51295681202E+02 -0.60142571783E+02  0.79179374545E+02  0.00000000000E+00 0.  1.
        -11    1    3    3    0    0 -0.11232603783E+03  0.15233204442E+02  0.43309996428E+02  0.12134638472E+03  0.00000000000E+00 0. -1.
         11    1    3    3    0    0  0.13669446531E+01 -0.30020141395E+02  0.12838185133E+02  0.32678684560E+02  0.00000000000E+00 0.  1.
          4    1    1    2  501    0  0.70050494186E+02 -0.42936999103E+02  0.25278355693E+02  0.85963090302E+02  0.00000000000E+00 0. -1.
<scales pt_clust_5="13000.00000" pt_clust_6="13000.00000" pt_clust_7="13000.00000" pt_clust_8="13000.00000" pt_clust_9="82.16243"></scales>
<clustering>
<clus scale="   80.173">  5  6 -1 -1</clus>
<clus scale="   82.162">  2  9  1 -1</clus>
<clus scale="   89.669">  7  8 -1 -1</clus>
<clus scale="  129.643">  2  5  1 -1</clus>
<clus scale="   82.162">  2  5  1 -1</clus>
</clustering>
</event>
<event>
 9    1  0.7835476E-005  0.1052161E+03  0.7546771E-02  0.1272338E+00
         21   -1    0    0  501  502  0.00000000000E+00  0.00000000000E+00  0.18220524215E+03  0.18220524215E+03  0.00000000000E+00 0.  1.
          3   -1    0    0  502    0 -0.00000000000E+00 -0.00000000000E+00 -0.86594451774E+02  0.86594451774E+02  0.00000000000E+00 0. -1.
         23    2    1    2    0    0 -0.51122547968E+02  0.15690627531E+02 -0.22875787360E+01  0.10993754796E+03  0.96027708146E+02 0.  0.
        -24    2    1    2    0    0  0.26915902298E+02  0.87935687621E+00  0.63227949077E+02  0.11344668490E+03  0.90261496255E+02 0.  0.
         11    1    4    4    0    0  0.14588553044E+02 -0.39829418133E+02  0.70752103918E+01  0.43003104897E+02  0.00000000000E+00 0. -1.
        -12    1    4    4    0    0  0.12327349254E+02  0.40708775009E+02  0.56152738685E+02  0.70443580007E+02  0.00000000000E+00 0.  1.
        -11    1    3    3    0    0  0.22086263504E+02  0.37758941871E+01 -0.23820759473E+02  0.32703042585E+02  0.00000000000E+00 0.  1.
         11    1    3    3    0    0 -0.73208811472E+02  0.11914733344E+02  0.21533180737E+02  0.77234505374E+02  0.00000000000E+00 0. -1.
          4    1    1    2  501    0  0.24206645670E+02 -0.16569984407E+02  0.34670420033E+02  0.45415461058E+02  0.00000000000E+00 0. -1.
<scales pt_clust_5="13000.00000" pt_clust_6="13000.00000" pt_clust_7="13000.00000" pt_clust_8="13000.00000" pt_clust_9="29.33472"></scales>
<clustering>
<clus scale="   29.335">  1  9  2 -1</clus>
<clus scale="   90.261">  5  6 -1 -1</clus>
<clus scale="   96.028">  7  8 -1 -1</clus>
<clus scale="   99.981">  1  5  2 -1</clus>
<clus scale="   29.335">  1  5  2 -1</clus>
</clustering>
</event>
<event>
 9    1  0.7835476E-005  0.1091271E+03  0.7546771E-02  0.1264033E+00
         21   -1    0    0  501  502  0.00000000000E+00  0.00000000000E+00  0.61914566072E+02  0.61914566072E+02  0.00000000000E+00 0.  1.
          1   -1    0    0  502    0 -0.00000000000E+00 -0.00000000000E+00 -0.41849124091E+03  0.41849124091E+03  0.00000000000E+00 0. -1.
         23    2    1    2    0    0  0.22948458369E+02 -0.50536065000E+02 -0.28098809454E+03  0.30036681870E+03  0.90473150108E+02 0.  0.
        -24    2    1    2    0    0 -0.53262819046E+01  0.82872664288E+02 -0.78826312505E+02  0.14307035744E+03  0.85786315165E+02 0.  0.
         11    1    4    4    0    0  0.23082042342E+02  0.66711731977E+01 -0.52256373627E+02  0.57515335478E+02  0.00000000000E+00 0. -1.
        -12    1    4    4    0    0 -0.28408324247E+02  0.76201491090E+02 -0.26569938879E+02  0.85555021962E+02  0.00000000000E+00 0.  1.
        -11    1    3    3    0    0  0.17308155304E+02 -0.73039706336E+02 -0.15450414216E+03  0.17177281766E+03  0.00000000000E+00 0. -1.
         11    1    3    3    0    0  0.56403030652E+01  0.22503641336E+02 -0.12648395238E+03  0.12859400103E+03  0.00000000000E+00 0.  1.
          2    1    1    2  501    0 -0.17622176464E+02 -0.32336599288E+02  0.32377322119E+01  0.36968630847E+02  0.00000000000E+00 0. -1.
<scales pt_clust_5="13000.00000" pt_clust_6="13000.00000" pt_clust_7="13000.00000" pt_clust_8="13000.00000" pt_clust_9="36.82658"></scales>
<clustering>
<clus scale="   36.827">  1  9  2 -1</clus>
<clus scale="   85.786">  5  6 -1 -1</clus>
<clus scale="   90.473">  7  8 -1 -1</clus>
<clus scale="  105.274">  1  5  2 -1</clus>
<clus scale="   36.827">  1  5  2 -1</clus>
</clustering>
</event>
<event>
 9    1  0.7835476E-005  0.1702923E+03  0.7546771E-02  0.1192987E+00
         21   -1    0    0  501  502  0.00000000000E+00  0.00000000000E+00  0.23088857255E+03  0.23088857255E+03  0.00000000000E+00 0. -1.
          1   -1    0    0  502    0 -0.00000000000E+00 -0.00000000000E+00 -0.47900543076E+03  0.47900543076E+03  0.00000000000E+00 0. -1.
         23    2    1    2    0    0 -0.24888383579E+02 -0.76896994381E+02  0.14450641579E+03  0.18829823807E+03  0.89674650105E+02 0.  0.
        -24    2    1    2    0    0 -0.11989859831E+03  0.10697029326E+03 -0.13422112254E+03  0.22387215968E+03  0.79278727458E+02 0.  0.
         11    1    4    4    0    0 -0.12694119305E+03  0.10993866972E+03 -0.13591933857E+03  0.21604315354E+03  0.00000000000E+00 0. -1.
        -12    1    4    4    0    0  0.70425947420E+01 -0.29683764607E+01  0.16982160287E+01  0.78290061434E+01  0.00000000000E+00 0.  1.
        -11    1    3    3    0    0 -0.17935491840E+02 -0.32499047471E+02  0.16192491230E+00  0.37120023892E+02  0.00000000000E+00 0.  1.
         11    1    3    3    0    0 -0.69528917393E+01 -0.44397946911E+02  0.14434449088E+03  0.15117821417E+03  0.00000000000E+00 0. -1.
          2    1    1    2  501    0  0.14478698189E+03 -0.30073298882E+02 -0.25840215146E+03  0.29772360556E+03  0.00000000000E+00 0. -1.
<scales pt_clust_5="13000.00000" pt_clust_6="13000.00000" pt_clust_7="13000.00000" pt_clust_8="13000.00000" pt_clust_9="150.71292"></scales>
<clustering>
<clus scale="   79.279">  5  6 -1 -1</clus>
<clus scale="   89.675">  7  8 -1 -1</clus>
<clus scale="  120.723">  2  7  1 -1</clus>
<clus scale="  150.713">  1  9  2 -1</clus>
<clus scale="  150.713">  1  5  2 -1</clus>
</clustering>
</event>
<event>
 9    1  0.7835476E-005  0.3148297E+03  0.7546771E-02  0.1113218E+00
         21   -1    0    0  501  502  0.00000000000E+00  0.00000000000E+00  0.16802598550E+03  0.16802598550E+03  0.00000000000E+00 0. -1.
          1   -1    0    0  502    0 -0.00000000000E+00 -0.00000000000E+00 -0.10776124353E+04  0.10776124353E+04  0.00000000000E+00 0. -1.
         23    2    1    2    0    0  0.35718032441E+02 -0.78550765845E+02 -0.72412911587E+02  0.14485338960E+03  0.91065218697E+02 0.  0.
        -24    2    1    2    0    0 -0.33135192897E+03  0.54591880522E+02 -0.68588710379E+03  0.76782705457E+03  0.79642277255E+02 0.  0.
         11    1    4    4    0    0 -0.12012243734E+03  0.93423822504E+00 -0.17360654232E+03  0.21111490779E+03  0.00000000000E+00 0. -1.
        -12    1    4    4    0    0 -0.21122949163E+03  0.53657642297E+02 -0.51228056147E+03  0.55671214678E+03  0.00000000000E+00 0.  1.
        -13    1    3    3    0    0  0.31130740407E+02  0.12719019458E+01  0.72474548985E+01  0.31988534436E+02  0.00000000000E+00 0.  1.
         13    1    3    3    0    0  0.45872920338E+01 -0.79822667791E+02 -0.79660366486E+02  0.11286485516E+03  0.00000000000E+00 0. -1.
          2    1    1    2  501    0  0.29563389653E+03  0.23958885323E+02 -0.15128643443E+03  0.33295797664E+03  0.00000000000E+00 0. -1.
<scales pt_clust_5="13000.00000" pt_clust_6="13000.00000" pt_clust_7="13000.00000" pt_clust_8="13000.00000" pt_clust_9="304.58968"></scales>
<clustering>
<clus scale="   79.642">  5  6 -1 -1</clus>
<clus scale="   91.065">  7  8 -1 -1</clus>
<clus scale="  125.455">  2  7  1 -1</clus>
<clus scale="  304.590">  1  9  2 -1</clus>
<clus scale="  304.590">  1  5  2 -1</clus>
</clustering>
</event>
<event>
 9    1  0.7835476E-005  0.2060896E+03  0.7546771E-02  0.1164261E+00
         21   -1    0    0  501  502  0.00000000000E+00  0.00000000000E+00  0.43218132998E+02  0.43218132998E+02  0.00000000000E+00 0. -1.
          1   -1    0    0  502    0 -0.00000000000E+00 -0.00000000000E+00 -0.19175322797E+04  0.19175322797E+04  0.00000000000E+00 0. -1.
        -24    2    1    2    0    0  0.10186889631E+03 -0.20801251569E+02 -0.46931085262E+03  0.48701626697E+03  0.78244512920E+02 0.  0.
         23    2    1    2    0    0 -0.29522058033E+02  0.19063714533E+03 -0.41715169729E+03  0.46878187169E+03  0.92340844594E+02 0.  0.
         13    1    3    3    0    0  0.10211230588E+03 -0.25614391718E+02 -0.30542398507E+03  0.32305855619E+03  0.00000000000E+00 0. -1.
        -14    1    3    3    0    0 -0.24340957058E+00  0.48131401499E+01 -0.16388686755E+03  0.16395771077E+03  0.00000000000E+00 0.  1.
        -13    1    4    4    0    0  0.32037169607E+02  0.93205753041E+02 -0.18659503794E+03  0.21102464506E+03  0.00000000000E+00 0.  1.
         13    1    4    4    0    0 -0.61559227640E+02  0.97431392292E+02 -0.23055665935E+03  0.25775722663E+03  0.00000000000E+00 0. -1.
          2    1    1    2  501    0 -0.72346838273E+02 -0.16983589376E+03 -0.98785159684E+03  0.10049522741E+04  0.00000000000E+00 0. -1.
<scales pt_clust_5="13000.00000" pt_clust_6="13000.00000" pt_clust_7="13000.00000" pt_clust_8="13000.00000" pt_clust_9="184.24471"></scales>
<clustering>
<clus scale="   78.245">  5  6 -1 -1</clus>
<clus scale="   92.341">  7  8 -1 -1</clus>
<clus scale="  130.124">  2  5  1 -1</clus>
<clus scale="  184.245">  1  9  2 -1</clus>
<clus scale="  184.245">  1  5  2 -1</clus>
</clustering>
</event>
<event>
 9    1  0.7835476E-005  0.1293573E+03  0.7546771E-02  0.1230286E+00
         21   -1    0    0  501  502  0.00000000000E+00  0.00000000000E+00  0.47936817675E+02  0.47936817675E+02  0.00000000000E+00 0.  1.
          1   -1    0    0  502    0 -0.00000000000E+00 -0.00000000000E+00 -0.68853019425E+03  0.68853019425E+03  0.00000000000E+00 0. -1.
        -24    2    1    2    0    0  0.70204124648E+02 -0.65967138678E+02 -0.54832941201E+03  0.56271137498E+03  0.81845372185E+02 0.  0.
         23    2    1    2    0    0 -0.68021203678E+02  0.44501284675E+02 -0.59464849657E+02  0.13449586147E+03  0.89139328695E+02 0.  0.
         11    1    3    3    0    0  0.22672916010E+02 -0.62538096572E+02 -0.19173398638E+03  0.20294579615E+03  0.00000000000E+00 0. -1.
        -12    1    3    3    0    0  0.47531208638E+02 -0.34290421061E+01 -0.35659542564E+03  0.35976557883E+03  0.00000000000E+00 0.  1.
        -11    1    4    4    0    0 -0.57017213411E+02  0.15351911669E+02  0.85695047328E+01  0.59666407872E+02  0.00000000000E+00 0.  1.
         11    1    4    4    0    0 -0.11003990267E+02  0.29149373006E+02 -0.68034354390E+02  0.74829453597E+02  0.00000000000E+00 0. -1.
          2    1    1    2  501    0 -0.21829209701E+01  0.21465854003E+02 -0.32799114908E+02  0.39259775481E+02  0.00000000000E+00 0. -1.
<scales pt_clust_5="13000.00000" pt_clust_6="13000.00000" pt_clust_7="13000.00000" pt_clust_8="13000.00000" pt_clust_9="21.57656"></scales>
<clustering>
<clus scale="   21.577">  1  9  2 -1</clus>
<clus scale="   81.845">  5  6 -1 -1</clus>
<clus scale="   89.139">  7  8 -1 -1</clus>
<clus scale="  124.443">  2  5  1 -1</clus>
<clus scale="   21.577">  1  5  2 -1</clus>
</clustering>
</event>
<event>
 9    1  0.7835476E-005  0.1124651E+03  0.7546771E-02  0.1263799E+00
          3   -1    0    0  502    0 -0.00000000000E+00  0.00000000000E+00  0.24289799315E+03  0.24289799315E+03  0.00000000000E+00 0. -1.
         21   -1    0    0  501  502  0.00000000000E+00 -0.00000000000E+00 -0.15684663603E+03  0.15684663603E+03  0.00000000000E+00 0. -1.
        -24    2    1    2    0    0 -0.14712194127E+02 -0.77403619553E+02  0.18509775419E+03  0.21129429170E+03  0.64624531923E+02 0.  0.
         23    2    1    2    0    0  0.21073160919E+02  0.37196033323E+02 -0.18619024624E+02  0.98307816281E+02  0.86545569834E+02 0.  0.
         11    1    3    3    0    0  0.33202529427E+01 -0.72972127164E+02  0.97943315937E+02  0.12218366732E+03  0.00000000000E+00 0. -1.
        -12    1    3    3    0    0 -0.18032447069E+02 -0.44314923888E+01  0.87154438249E+02  0.89110624387E+02  0.00000000000E+00 0.  1.
        -13    1    4    4    0    0  0.73070637341E+01 -0.28156407355E+02 -0.10952339767E+02  0.31082635054E+02  0.00000000000E+00 0. -1.
         13    1    4    4    0    0  0.13766097185E+02  0.65352440678E+02 -0.76666848570E+01  0.67225181227E+02  0.00000000000E+00 0.  1.
          4    1    1    2  501    0 -0.63609667923E+01  0.40207586230E+02 -0.80427372441E+02  0.90142521192E+02  0.00000000000E+00 0. -1.
<scales pt_clust_5="13000.00000" pt_clust_6="13000.00000" pt_clust_7="13000.00000" pt_clust_8="13000.00000" pt_clust_9="40.70764"></scales>
<clustering>
<clus scale="   40.708">  2  9  1 -1</clus>
<clus scale="   64.625">  5  6 -1 -1</clus>
<clus scale="   86.546">  7  8 -1 -1</clus>
<clus scale="   96.616">  1  5  2 -1</clus>
<clus scale="   40.708">  2  5  1 -1</clus>
</clustering>
</event>
<event>
 9    1  0.7835476E-005  0.1317749E+03  0.7546771E-02  0.1230291E+00
          1   -1    0    0  502    0 -0.00000000000E+00  0.00000000000E+00  0.10818179366E+03  0.10818179366E+03  0.00000000000E+00 0. -1.
         21   -1    0    0  501  502  0.00000000000E+00 -0.00000000000E+00 -0.37117030660E+03  0.37117030660E+03  0.00000000000E+00 0. -1.
         23    2    1    2    0    0  0.54393991946E+02  0.68857995836E+02 -0.61740310234E+01  0.13289467348E+03  0.99612979223E+02 0.  0.
        -24    2    1    2    0    0 -0.70785304143E+02 -0.44903342701E+02 -0.28396142835E+03  0.30671504106E+03  0.80082171269E+02 0.  0.
         11    1    4    4    0    0 -0.72599488326E+02 -0.23702715978E+01 -0.16207898941E+03  0.17761166262E+03  0.00000000000E+00 0. -1.
        -12    1    4    4    0    0  0.18141841833E+01 -0.42533071104E+02 -0.12188243894E+03  0.12910337844E+03  0.00000000000E+00 0.  1.
        -13    1    3    3    0    0  0.24227678710E+02  0.82584904992E+02  0.22623027946E+02  0.88989034952E+02  0.00000000000E+00 0. -1.
         13    1    3    3    0    0  0.30166313236E+02 -0.13726909156E+02 -0.28797058969E+02  0.43905638527E+02  0.00000000000E+00 0.  1.
          2    1    1    2  501    0  0.16391312197E+02 -0.23954653135E+02  0.27146946424E+02  0.39742385717E+02  0.00000000000E+00 0. -1.
<scales pt_clust_5="13000.00000" pt_clust_6="13000.00000" pt_clust_7="13000.00000" pt_clust_8="13000.00000" pt_clust_9="29.02587"></scales>
<clustering>
<clus scale="   29.026">  2  9  1 -1</clus>
<clus scale="   80.082">  5  6 -1 -1</clus>
<clus scale="   99.613">  7  8 -1 -1</clus>
<clus scale="  117.707">  2  5  1 -1</clus>
<clus scale="   29.026">  2  5  1 -1</clus>
</clustering>
</event>
<event>
 9    1  0.7835476E-005  0.9886159E+02  0.7546771E-02  0.1285990E+00
         21   -1    0    0  501  502  0.00000000000E+00  0.00000000000E+00  0.53416829535E+02  0.53416829535E+02  0.00000000000E+00 0.  1.
          3   -1    0    0  502    0 -0.00000000000E+00 -0.00000000000E+00 -0.40814597541E+03  0.40814597541E+03  0.00000000000E+00 0. -1.
         23    2    1    2    0    0 -0.42938371281E+02  0.61295400098E+01 -0.28785560771E+03  0.30505559972E+03  0.91196453029E+02 0.  0.
        -24    2    1    2    0    0  0.25427256477E+02  0.26811463965E+02 -0.74157411031E+02  0.11849663184E+03  0.84715584013E+02 0.  0.
         13    1    4    4    0    0  0.12642255542E+00 -0.26974420182E+02 -0.44577597249E+02  0.52103718709E+02  0.00000000000E+00 0. -1.
        -14    1    4    4    0    0  0.25300833922E+02  0.53785884147E+02 -0.29579813782E+02  0.66392913131E+02  0.00000000000E+00 0.  1.
        -13    1    3    3    0    0  0.24919959261E+02 -0.77024507127E+01 -0.13131105243E+03  0.13387652747E+03  0.00000000000E+00 0. -1.
         13    1    3    3    0    0 -0.67858330542E+02  0.13831990722E+02 -0.15654455527E+03  0.17117907225E+03  0.00000000000E+00 0.  1.
          4    1    1    2  501    0  0.17511114803E+02 -0.32941003974E+02  0.72838728690E+01  0.38010573377E+02  0.00000000000E+00 0. -1.
<scales pt_clust_5="13000.00000" pt_clust_6="13000.00000" pt_clust_7="13000.00000" pt_clust_8="13000.00000" pt_clust_9="37.30615"></scales>
<clustering>
<clus scale="   37.306">  1  9  2 -1</clus>
<clus scale="   84.716">  5  6 -1 -1</clus>
<clus scale="   91.196">  7  8 -1 -1</clus>
<clus scale="   92.917">  1  5  2 -1</clus>
<clus scale="   37.306">  1  5  2 -1</clus>
</clustering>
</event>
<event>
 9    1  0.8422141E-005  0.2380441E+03  0.7546771E-02  0.1121753E+00
         21   -1    0    0  501  502  0.00000000000E+00  0.00000000000E+00  0.13753824823E+04  0.13753824823E+04  0.00000000000E+00 0. -1.
          1   -1    0    0  502    0 -0.00000000000E+00 -0.00000000000E+00 -0.26147236741E+03  0.26147236741E+03  0.00000000000E+00 0. -1.
        -24    2    1    2    0    0  0.39596984397E+00 -0.22069341090E+03 -0.18839136702E+03  0.30070385091E+03  0.78903487724E+02 0.  0.
         23    2    1    2    0    0 -0.25425870810E+02  0.21640881420E+03  0.12824605689E+04  0.13039249916E+04  0.89643869040E+02 0.  0.
         11    1    3    3    0    0  0.36149216307E+01 -0.16808319963E+03 -0.18174010973E+03  0.24757725489E+03  0.00000000000E+00 0. -1.
        -12    1    3    3    0    0 -0.32189517867E+01 -0.52610211273E+02 -0.66512572957E+01  0.53126596017E+02  0.00000000000E+00 0.  1.
        -13    1    4    4    0    0  0.24146135480E+02  0.30668236932E+02  0.13730678647E+03  0.14274708483E+03  0.00000000000E+00 0.  1.
         13    1    4    4    0    0 -0.49572006289E+02  0.18574057727E+03  0.11451537824E+04  0.11611779068E+04  0.00000000000E+00 0. -1.
          2    1    1    2  501    0  0.25029900966E+02  0.42845967006E+01  0.19840913083E+02  0.32226007249E+02  0.00000000000E+00 0. -1.
<scales pt_clust_5="13000.00000" pt_clust_6="13000.00000" pt_clust_7="13000.00000" pt_clust_8="13000.00000" pt_clust_9="25.39398"></scales>
<clustering>
<clus scale="   25.394">  1  9  2 -1</clus>
<clus scale="   78.903">  5  6 -1 -1</clus>
<clus scale="   89.644">  7  8 -1 -1</clus>
<clus scale="  234.211">  2  5  1 -1</clus>
<clus scale="   25.394">  1  5  2 -1</clus>
</clustering>
</event>
<event>
 9    1  0.7835476E-005  0.1563286E+03  0.7546771E-02  0.1194515E+00
          1   -1    0    0  502    0 -0.00000000000E+00  0.00000000000E+00  0.13453754802E+04  0.13453754802E+04  0.00000000000E+00 0. -1.
         21   -1    0    0  501  502  0.00000000000E+00 -0.00000000000E+00 -0.28435739107E+02  0.28435739107E+02  0.00000000000E+00 0. -1.
         23    2    1    2    0    0  0.13381035423E+03 -0.26953699559E+02  0.56808560033E+03  0.59125105322E+03  0.90690935628E+02 0.  0.
        -24    2    1    2    0    0 -0.96681688636E+02  0.78103066463E+02  0.37275745157E+03  0.40118959151E+03  0.80978594205E+02 0.  0.
         13    1    4    4    0    0 -0.37558437124E+02  0.57195626686E+02  0.28642371779E+03  0.29448348345E+03  0.00000000000E+00 0. -1.
        -14    1    4    4    0    0 -0.59123251511E+02  0.20907439777E+02  0.86333733780E+02  0.10670610805E+03  0.00000000000E+00 0.  1.
        -13    1    3    3    0    0  0.50711278117E+02 -0.51767984810E+02  0.32996989629E+03  0.33783382074E+03  0.00000000000E+00 0.  1.
         13    1    3    3    0    0  0.83099076111E+02  0.24814285251E+02  0.23811570404E+03  0.25341723247E+03  0.00000000000E+00 0. -1.
          2    1    1    2  501    0 -0.37128665592E+02 -0.51149366904E+02  0.37609668915E+03  0.38137057455E+03  0.00000000000E+00 0. -1.
<scales pt_clust_5="13000.00000" pt_clust_6="13000.00000" pt_clust_7="13000.00000" pt_clust_8="13000.00000" pt_clust_9="63.20443"></scales>
<clustering>
<clus scale="   63.204">  2  9  1 -1</clus>
<clus scale="   80.979">  5  6 -1 -1</clus>
<clus scale="   90.691">  7  8 -1 -1</clus>
<clus scale="  150.902">  2  5  1 -1</clus>
<clus scale="   63.204">  2  5  1 -1</clus>
</clustering>
</event>
<event>
 9    1  0.7835476E-005  0.1483853E+03  0.7546771E-02  0.1204649E+00
         21   -1    0    0  501  502  0.00000000000E+00  0.00000000000E+00  0.37683949276E+02  0.37683949276E+02  0.00000000000E+00 0.  1.
          3   -1    0    0  502    0 -0.00000000000E+00 -0.00000000000E+00 -0.79442822535E+03  0.79442822535E+03  0.00000000000E+00 0. -1.
         23    2    1    2    0    0 -0.21581617113E+02  0.13626412375E+03 -0.47023121416E+03  0.49851773897E+03  0.91481493645E+02 0.  0.
        -24    2    1    2    0    0  0.27102365911E+02 -0.87510927437E+02 -0.19655099344E+03  0.23112235857E+03  0.79953429884E+02 0.  0.
         13    1    4    4    0    0 -0.11547338785E+02 -0.17714881604E+02 -0.11539804779E+03  0.11731951030E+03  0.00000000000E+00 0. -1.
        -14    1    4    4    0    0  0.38649704696E+02 -0.69796045834E+02 -0.81152945652E+02  0.11380284827E+03  0.00000000000E+00 0.  1.
        -13    1    3    3    0    0 -0.36921053912E+02  0.12787153606E+02 -0.81967257254E+02  0.90803671627E+02  0.00000000000E+00 0. -1.
         13    1    3    3    0    0  0.15339436799E+02  0.12347697014E+03 -0.38826395691E+03  0.40771406735E+03  0.00000000000E+00 0.  1.
          4    1    1    2  501    0 -0.55207487982E+01 -0.48753196311E+02 -0.89962068473E+02  0.10247207708E+03  0.00000000000E+00 0. -1.
<scales pt_clust_5="13000.00000" pt_clust_6="13000.00000" pt_clust_7="13000.00000" pt_clust_8="13000.00000" pt_clust_9="49.06478"></scales>
<clustering>
<clus scale="   49.065">  1  9  2 -1</clus>
<clus scale="   79.953">  5  6 -1 -1</clus>
<clus scale="   91.481">  7  8 -1 -1</clus>
<clus scale="  141.569">  1  5  2 -1</clus>
<clus scale="   49.065">  1  5  2 -1</clus>
</clustering>
</event>
<event>
 9    1  0.7835476E-005  0.1592796E+03  0.7546771E-02  0.1191497E+00
         21   -1    0    0  501  502  0.00000000000E+00  0.00000000000E+00  0.57977606333E+02  0.57977606333E+02  0.00000000000E+00 0.  1.
          1   -1    0    0  502    0 -0.00000000000E+00 -0.00000000000E+00 -0.83280263222E+03  0.83280263222E+03  0.00000000000E+00 0. -1.
        -24    2    1    2    0    0 -0.62117040867E+02 -0.14435373872E+03 -0.45274789442E+03  0.48599371883E+03  0.80701364252E+02 0.  0.
         23    2    1    2    0    0  0.38351799251E+02  0.61677430102E+02 -0.67159182239E+02  0.13574503676E+03  0.92959095068E+02 0.  0.
         13    1    3    3    0    0 -0.45651576468E+02 -0.13103064344E+03 -0.43979938148E+03  0.46116872391E+03  0.00000000000E+00 0. -1.
        -14    1    3    3    0    0 -0.16465464399E+02 -0.13323095279E+02 -0.12948512932E+02  0.24824994921E+02  0.00000000000E+00 0.  1.
        -11    1    4    4    0    0  0.16266929794E+02 -0.22697913096E+02 -0.43423580345E+01  0.28260649977E+02  0.00000000000E+00 0.  1.
         11    1    4    4    0    0  0.22084869457E+02  0.84375343198E+02 -0.62816824204E+02  0.10748438678E+03  0.00000000000E+00 0. -1.
          2    1    1    2  501    0  0.23765241616E+02  0.82676308622E+02 -0.25491794923E+03  0.26904148296E+03  0.00000000000E+00 0. -1.
<scales pt_clust_5="13000.00000" pt_clust_6="13000.00000" pt_clust_7="13000.00000" pt_clust_8="13000.00000" pt_clust_9="86.02422"></scales>
<clustering>
<clus scale="   80.701">  5  6 -1 -1</clus>
<clus scale="   86.024">  1  9  2 -1</clus>
<clus scale="   92.959">  7  8 -1 -1</clus>
<clus scale="  152.451">  2  5  1 -1</clus>
<clus scale="   86.024">  1  5  2 -1</clus>
</clustering>
</event>
<event>
 9    1  0.7835476E-005  0.1119369E+03  0.7546771E-02  0.1263090E+00
         21   -1    0    0  501  502  0.00000000000E+00  0.00000000000E+00  0.42153801933E+02  0.42153801933E+02  0.00000000000E+00 0.  1.
          1   -1    0    0  502    0 -0.00000000000E+00 -0.00000000000E+00 -0.58834219847E+03  0.58834219847E+03  0.00000000000E+00 0. -1.
        -24    2    1    2    0    0 -0.57974909941E+02  0.68746017579E+01 -0.31313275149E+03  0.32825692713E+03  0.79323009408E+02 0.  0.
         23    2    1    2    0    0  0.61220207526E+02 -0.35687906246E+02 -0.71588316163E+02  0.13818896883E+03  0.94603190392E+02 0.  0.
         13    1    3    3    0    0 -0.71185277529E+02  0.10527109041E+01 -0.16873278898E+03  0.18313712353E+03  0.00000000000E+00 0. -1.
        -14    1    3    3    0    0  0.13210367588E+02  0.58218908537E+01 -0.14439996251E+03  0.14511980360E+03  0.00000000000E+00 0.  1.
        -11    1    4    4    0    0  0.38996132987E+02  0.17472155092E+02  0.42534306715E+01  0.42942592656E+02  0.00000000000E+00 0.  1.
         11    1    4    4    0    0  0.22224074538E+02 -0.53160061338E+02 -0.75841746834E+02  0.95246376170E+02  0.00000000000E+00 0. -1.
          2    1    1    2  501    0 -0.32452975844E+01  0.28813304488E+02 -0.16146732889E+03  0.16405010445E+03  0.00000000000E+00 0. -1.
<scales pt_clust_5="13000.00000" pt_clust_6="13000.00000" pt_clust_7="13000.00000" pt_clust_8="13000.00000" pt_clust_9="28.99551"></scales>
<clustering>
<clus scale="   28.996">  1  9  2 -1</clus>
<clus scale="   79.323">  5  6 -1 -1</clus>
<clus scale="   94.603">  7  8 -1 -1</clus>
<clus scale="   99.359">  2  5  1 -1</clus>
<clus scale="   28.996">  1  5  2 -1</clus>
</clustering>
</event>
<event>
 9    1  0.7835476E-005  0.3642299E+03  0.7546771E-02  0.1057220E+00
          1   -1    0    0  502    0 -0.00000000000E+00  0.00000000000E+00  0.33448951727E+03  0.33448951727E+03  0.00000000000E+00 0. -1.
         21   -1    0    0  501  502  0.00000000000E+00 -0.00000000000E+00 -0.88893648173E+03  0.88893648173E+03  0.00000000000E+00 0. -1.
        -24    2    1    2    0    0 -0.96651765538E+01 -0.38276599328E+03 -0.27670052306E+03  0.47887083121E+03  0.78427496877E+02 0.  0.
         23    2    1    2    0    0  0.13632703194E+03  0.30041708075E+03 -0.41670100920E+03  0.53929206610E+03  0.91436969778E+02 0.  0.
         11    1    3    3    0    0 -0.31775000278E+02 -0.20815120044E+03 -0.11530573353E+03  0.24006662632E+03  0.00000000000E+00 0. -1.
        -12    1    3    3    0    0  0.22109823724E+02 -0.17461479285E+03 -0.16139478953E+03  0.23880420489E+03  0.00000000000E+00 0.  1.
        -13    1    4    4    0    0 -0.38432188849E+01  0.24291809204E+02 -0.67025018704E+01  0.25490897535E+02  0.00000000000E+00 0.  1.
         13    1    4    4    0    0  0.14017025083E+03  0.27612527155E+03 -0.40999850733E+03  0.51380116856E+03  0.00000000000E+00 0. -1.
          2    1    1    2  501    0 -0.12666185539E+03  0.82348912532E+02  0.13895456780E+03  0.20526310169E+03  0.00000000000E+00 0. -1.
<scales pt_clust_5="13000.00000" pt_clust_6="13000.00000" pt_clust_7="13000.00000" pt_clust_8="13000.00000" pt_clust_9="151.07810"></scales>
<clustering>
<clus scale="   78.427">  5  6 -1 -1</clus>
<clus scale="   91.437">  7  8 -1 -1</clus>
<clus scale="  151.078">  2  9  1 -1</clus>
<clus scale="  361.184">  1  5  2 -1</clus>
<clus scale="  151.078">  2  5  1 -1</clus>
</clustering>
</event>
<event>
 9    1  0.7835476E-005  0.2694471E+03  0.7546771E-02  0.1138291E+00
         21   -1    0    0  501  502  0.00000000000E+00  0.00000000000E+00  0.85085454764E+02  0.85085454764E+02  0.00000000000E+00 0. -1.
          1   -1    0    0  502    0 -0.00000000000E+00 -0.00000000000E+00 -0.13753281963E+04  0.13753281963E+04  0.00000000000E+00 0. -1.
        -24    2    1    2    0    0  0.53003292688E+02 -0.45740417042E+02 -0.88434411190E+02  0.13926985849E+03  0.81694024349E+02 0.  0.
         23    2    1    2    0    0  0.21479197687E+03  0.11301848464E+03 -0.43853632295E+03  0.50946355870E+03  0.91270147928E+02 0.  0.
         11    1    3    3    0    0  0.40691340349E+02 -0.69529501977E+02 -0.70307769235E+02  0.10692670031E+03  0.00000000000E+00 0. -1.
        -12    1    3    3    0    0  0.12311952339E+02  0.23789084935E+02 -0.18126641955E+02  0.32343158179E+02  0.00000000000E+00 0.  1.
        -13    1    4    4    0    0  0.67890323955E+02  0.39414207719E+02 -0.66963394430E+02  0.10318271197E+03  0.00000000000E+00 0.  1.
         13    1    4    4    0    0  0.14690165291E+03  0.73604276924E+02 -0.37157292852E+03  0.40628084673E+03  0.00000000000E+00 0. -1.
          2    1    1    2  501    0 -0.26779526956E+03 -0.67278067601E+02 -0.76327200736E+03  0.81168023383E+03  0.00000000000E+00 0. -1.
<scales pt_clust_5="13000.00000" pt_clust_6="13000.00000" pt_clust_7="13000.00000" pt_clust_8="13000.00000" pt_clust_9="253.51840"></scales>
<clustering>
<clus scale="   81.694">  5  6 -1 -1</clus>
<clus scale="   91.270">  7  8 -1 -1</clus>
<clus scale="  107.589">  2  5  1 -1</clus>
<clus scale="  253.518">  1  9  2 -1</clus>
<clus scale="  253.518">  1  5  2 -1</clus>
</clustering>
</event>
<event>
 9    1  0.7835476E-005  0.1142580E+03  0.7546771E-02  0.1259145E+00
         21   -1    0    0  501  502  0.00000000000E+00  0.00000000000E+00  0.36660476242E+02  0.36660476242E+02  0.00000000000E+00 0.  1.
          1   -1    0    0  502    0 -0.00000000000E+00 -0.00000000000E+00 -0.47808965458E+03  0.47808965458E+03  0.00000000000E+00 0. -1.
        -24    2    1    2    0    0  0.27211256874E+02  0.69130651460E+02 -0.18898242259E+03  0.21829728772E+03  0.80123968381E+02 0.  0.
         23    2    1    2    0    0 -0.79678924260E+01 -0.43568502855E+02 -0.11977909043E+03  0.15998145438E+03  0.96360435296E+02 0.  0.
         11    1    3    3    0    0  0.55655160445E+02  0.50717804144E+02 -0.12627406328E+03  0.14702017412E+03  0.00000000000E+00 0. -1.
        -12    1    3    3    0    0 -0.28443903571E+02  0.18412847315E+02 -0.62708359309E+02  0.71277113605E+02  0.00000000000E+00 0.  1.
        -13    1    4    4    0    0 -0.12527597465E+02  0.20536743075E+02 -0.81948647460E+02  0.85406553231E+02  0.00000000000E+00 0. -1.
         13    1    4    4    0    0  0.45597050390E+01 -0.64105245930E+02 -0.37830442966E+02  0.74574901145E+02  0.00000000000E+00 0.  1.
          2    1    1    2  501    0 -0.19243364448E+02 -0.25562148604E+02 -0.13266766533E+03  0.13647138872E+03  0.00000000000E+00 0. -1.
<scales pt_clust_5="13000.00000" pt_clust_6="13000.00000" pt_clust_7="13000.00000" pt_clust_8="13000.00000" pt_clust_9="31.99581"></scales>
<clustering>
<clus scale="   31.996">  1  9  2 -1</clus>
<clus scale="   80.124">  5  6 -1 -1</clus>
<clus scale="   96.360">  7  8 -1 -1</clus>
<clus scale="  100.943">  2  5  1 -1</clus>
<clus scale="   31.996">  1  5  2 -1</clus>
</clustering>
</event>
<event>
 9    1  0.7835476E-005  0.1061502E+03  0.7546771E-02  0.1273970E+00
         21   -1    0    0  501  502  0.00000000000E+00  0.00000000000E+00  0.28544915753E+03  0.28544915753E+03  0.00000000000E+00 0. -1.
          1   -1    0    0  502    0 -0.00000000000E+00 -0.00000000000E+00 -0.68899269208E+02  0.68899269208E+02  0.00000000000E+00 0. -1.
        -24    2    1    2    0    0 -0.42736201137E+02 -0.39077275329E+02  0.65284131086E+01  0.98217850864E+02  0.79061430014E+02 0.  0.
         23    2    1    2    0    0 -0.68471805246E+00  0.44172935584E+02  0.14320110857E+03  0.17627881712E+03  0.92822124493E+02 0.  0.
         13    1    3    3    0    0 -0.55391331808E+02 -0.54429364327E+02  0.13945691851E+01  0.77670458758E+02  0.00000000000E+00 0. -1.
        -14    1    3    3    0    0  0.12655130672E+02  0.15352088998E+02  0.51338439235E+01  0.20547392106E+02  0.00000000000E+00 0.  1.
        -13    1    4    4    0    0  0.31827140900E+02 -0.13373065379E+02  0.32888180707E+02  0.47680585207E+02  0.00000000000E+00 0.  1.
         13    1    4    4    0    0 -0.32511858952E+02  0.57546000963E+02  0.11031292786E+03  0.12859823192E+03  0.00000000000E+00 0. -1.
          2    1    1    2  501    0  0.43420919189E+02 -0.50956602553E+01  0.66820366652E+02  0.79851758754E+02  0.00000000000E+00 0. -1.
<scales pt_clust_5="13000.00000" pt_clust_6="13000.00000" pt_clust_7="13000.00000" pt_clust_8="13000.00000" pt_clust_9="43.71890"></scales>
<clustering>
<clus scale="   43.719">  1  9  2 -1</clus>
<clus scale="   79.061">  5  6 -1 -1</clus>
<clus scale="   92.822">  7  8 -1 -1</clus>
<clus scale="   94.354">  2  5  1 -1</clus>
<clus scale="   43.719">  1  5  2 -1</clus>
</clustering>
</event>
<event>
 9    1  0.7835476E-005  0.1806485E+03  0.7546771E-02  0.1168304E+00
         21   -1    0    0  501  502  0.00000000000E+00  0.00000000000E+00  0.12273372505E+03  0.12273372505E+03  0.00000000000E+00 0. -1.
          1   -1    0    0  502    0 -0.00000000000E+00 -0.00000000000E+00 -0.11630083703E+04  0.11630083703E+04  0.00000000000E+00 0. -1.
        -24    2    1    2    0    0 -0.11532889658E+02 -0.14227375142E+03 -0.56944287365E+03  0.59268734708E+03  0.81475623024E+02 0.  0.
         23    2    1    2    0    0 -0.30519752527E+02  0.17668601364E+03 -0.55643953068E+03  0.59165791926E+03  0.91020543854E+02 0.  0.
         11    1    3    3    0    0 -0.45297260724E+02 -0.92866450065E+02 -0.39382185425E+03  0.40715067514E+03  0.00000000000E+00 0. -1.
        -12    1    3    3    0    0  0.33764371066E+02 -0.49407301354E+02 -0.17562101940E+03  0.18553667194E+03  0.00000000000E+00 0.  1.
        -13    1    4    4    0    0  0.31649675574E+02  0.49890396856E+02 -0.14121306490E+03  0.15307476396E+03  0.00000000000E+00 0.  1.
         13    1    4    4    0    0 -0.62169428100E+02  0.12679561678E+03 -0.41522646579E+03  0.43858315530E+03  0.00000000000E+00 0. -1.
          2    1    1    2  501    0  0.42052642184E+02 -0.34412262217E+02  0.85607759118E+02  0.10139682898E+03  0.00000000000E+00 0. -1.
<scales pt_clust_5="13000.00000" pt_clust_6="13000.00000" pt_clust_7="13000.00000" pt_clust_8="13000.00000" pt_clust_9="54.33809"></scales>
<clustering>
<clus scale="   54.338">  1  9  2 -1</clus>
<clus scale="   81.476">  5  6 -1 -1</clus>
<clus scale="   91.021">  7  8 -1 -1</clus>
<clus scale="  176.032">  2  5  1 -1</clus>
<clus scale="   54.338">  1  5  2 -1</clus>
</clustering>
</event>
<event>
 9    1  0.7835476E-005  0.1013328E+03  0.7546771E-02  0.1283551E+00
          1   -1    0    0  502    0 -0.00000000000E+00  0.00000000000E+00  0.68141094650E+02  0.68141094650E+02  0.00000000000E+00 0. -1.
         21   -1    0    0  501  502  0.00000000000E+00 -0.00000000000E+00 -0.51170323919E+03  0.51170323919E+03  0.00000000000E+00 0. -1.
        -24    2    1    2    0    0  0.32244703917E+02  0.27659949448E+02  0.80707813056E+01  0.90022266368E+02  0.78956172634E+02 0.  0.
         23    2    1    2    0    0 -0.73812002928E+02  0.15954986158E+02 -0.21344910303E+03  0.24413601495E+03  0.91318677443E+02 0.  0.
         13    1    3    3    0    0  0.53313854093E+02  0.31197947490E+02  0.20769035346E+02  0.65169254983E+02  0.00000000000E+00 0. -1.
        -14    1    3    3    0    0 -0.21069150175E+02 -0.35379980421E+01 -0.12698254040E+02  0.24853011385E+02  0.00000000000E+00 0.  1.
        -13    1    4    4    0    0 -0.54832808879E+01  0.40900284684E+02 -0.47356265320E+02  0.62813338723E+02  0.00000000000E+00 0.  1.
         13    1    4    4    0    0 -0.68328722040E+02 -0.24945298525E+02 -0.16609283771E+03  0.18132267622E+03  0.00000000000E+00 0. -1.
          2    1    1    2  501    0  0.41567299010E+02 -0.43614935607E+02 -0.23818382281E+03  0.24568605252E+03  0.00000000000E+00 0. -1.
<scales pt_clust_5="13000.00000" pt_clust_6="13000.00000" pt_clust_7="13000.00000" pt_clust_8="13000.00000" pt_clust_9="60.25034"></scales>
<clustering>
<clus scale="   60.250">  2  9  1 -1</clus>
<clus scale="   78.956">  5  6 -1 -1</clus>
<clus scale="   90.351">  1  5  2 -1</clus>
<clus scale="   91.319">  7  8 -1 -1</clus>
<clus scale="   60.250">  2  5  1 -1</clus>
</clustering>
</event>
<event>
 9    1  0.7835476E-005  0.1360122E+03  0.7546771E-02  0.1221669E+00
         21   -1    0    0  501  502  0.00000000000E+00  0.00000000000E+00  0.59980053648E+02  0.59980053648E+02  0.00000000000E+00 0.  1.
          1   -1    0    0  502    0 -0.00000000000E+00 -0.00000000000E+00 -0.76715945019E+03  0.76715945019E+03  0.00000000000E+00 0. -1.
        -24    2    1    2    0    0 -0.53375434564E+01 -0.10179742120E+03 -0.65266729445E+03  0.66556048244E+03  0.81270869355E+02 0.  0.
         23    2    1    2    0    0 -0.69714561356E+01  0.81291747543E+02 -0.58956961371E+02  0.13725309085E+03  0.93303473864E+02 0.  0.
         13    1    3    3    0    0  0.22151398307E+02  0.26645138296E+01 -0.10564966369E+03  0.10797979218E+03  0.00000000000E+00 0. -1.
        -14    1    3    3    0    0 -0.27488941763E+02 -0.10446193503E+03 -0.54701763076E+03  0.55758069026E+03  0.00000000000E+00 0.  1.
        -11    1    4    4    0    0 -0.27978068743E+02  0.35751801979E+02  0.15073235451E+02  0.47834779212E+02  0.00000000000E+00 0.  1.
         11    1    4    4    0    0  0.21006612607E+02  0.45539945564E+02 -0.74030196821E+02  0.89418311640E+02  0.00000000000E+00 0. -1.
          2    1    1    2  501    0  0.12308999592E+02  0.20505673658E+02  0.44448592766E+01  0.24325930550E+02  0.00000000000E+00 0. -1.
<scales pt_clust_5="13000.00000" pt_clust_6="13000.00000" pt_clust_7="13000.00000" pt_clust_8="13000.00000" pt_clust_9="23.91640"></scales>
<clustering>
<clus scale="   23.916">  1  9  2 -1</clus>
<clus scale="   81.271">  5  6 -1 -1</clus>
<clus scale="   93.303">  7  8 -1 -1</clus>
<clus scale="  128.058">  2  5  1 -1</clus>
<clus scale="   23.916">  1  5  2 -1</clus>
</clustering>
</event>
<event>
 9    1  0.7835476E-005  0.8836643E+02  0.7546771E-02  0.1306956E+00
         -2   -1    0    0    0  501 -0.00000000000E+00  0.00000000000E+00  0.50380960587E+02  0.50380960587E+02  0.00000000000E+00 0.  1.
         21   -1    0    0  501  502  0.00000000000E+00 -0.00000000000E+00 -0.41675251438E+03  0.41675251438E+03  0.00000000000E+00 0. -1.
        -24    2    1    2    0    0  0.11530141808E+02  0.25369423438E+02 -0.30706364608E+02  0.89569737343E+02  0.79393357433E+02 0.  0.
         23    2    1    2    0    0 -0.34077583694E+02 -0.77297888709E+02 -0.23792247408E+03  0.26460980455E+03  0.79214895578E+02 0.  0.
         11    1    3    3    0    0 -0.13151453737E+02  0.41807328875E+02  0.38946981964E+01  0.43999797240E+02  0.00000000000E+00 0. -1.
        -12    1    3    3    0    0  0.24681595545E+02 -0.16437905437E+02 -0.34601062804E+02  0.45569940103E+02  0.00000000000E+00 0.  1.
        -11    1    4    4    0    0 -0.20391052002E+02  0.11405466164E+02 -0.75576810819E+02  0.79105840453E+02  0.00000000000E+00 0.  1.
         11    1    4    4    0    0 -0.13686531692E+02 -0.88703354873E+02 -0.16234566326E+03  0.18550396409E+03  0.00000000000E+00 0. -1.
         -1    1    1    2    0  502  0.22547441885E+02  0.51928465271E+02 -0.97742715103E+02  0.11295393307E+03  0.00000000000E+00 0.  1.
<scales pt_clust_5="13000.00000" pt_clust_6="13000.00000" pt_clust_7="13000.00000" pt_clust_8="13000.00000" pt_clust_9="56.61230"></scales>
<clustering>
<clus scale="   56.612">  2  9  1 -1</clus>
<clus scale="   79.215">  7  8 -1 -1</clus>
<clus scale="   79.393">  5  6 -1 -1</clus>
<clus scale="   88.206">  2  7  1 -1</clus>
<clus scale="   56.612">  2  5  1 -1</clus>
</clustering>
</event>
<event>
 9    1  0.7835476E-005  0.1946272E+03  0.7546771E-02  0.1173101E+00
         -4   -1    0    0    0  501 -0.00000000000E+00  0.00000000000E+00  0.31848265487E+03  0.31848265487E+03  0.00000000000E+00 0.  1.
         21   -1    0    0  501  502  0.00000000000E+00 -0.00000000000E+00 -0.20464121415E+03  0.20464121415E+03  0.00000000000E+00 0.  1.
        -24    2    1    2    0    0  0.14778350277E+02  0.95746737376E+02  0.40563772229E+02  0.13251154632E+03  0.80796367090E+02 0.  0.
         23    2    1    2    0    0  0.81891825303E+02 -0.20460558375E+03  0.36674204557E+02  0.24049508567E+03  0.89012207027E+02 0.  0.
         13    1    3    3    0    0  0.19789935004E+02  0.16143814823E+02 -0.19938119119E+02  0.32400507380E+02  0.00000000000E+00 0. -1.
        -14    1    3    3    0    0 -0.50115847267E+01  0.79602922553E+02  0.60501891348E+02  0.10011103894E+03  0.00000000000E+00 0.  1.
        -13    1    4    4    0    0  0.49082131595E+01 -0.94746677978E+02  0.47141312747E+02  0.10594020442E+03  0.00000000000E+00 0. -1.
         13    1    4    4    0    0  0.76983612144E+02 -0.10985890577E+03 -0.10467108190E+02  0.13455488126E+03  0.00000000000E+00 0.  1.
         -3    1    1    2    0  502 -0.96670175581E+02  0.10885884638E+03  0.36603463934E+02  0.15011723703E+03  0.00000000000E+00 0.  1.
<scales pt_clust_5="13000.00000" pt_clust_6="13000.00000" pt_clust_7="13000.00000" pt_clust_8="13000.00000" pt_clust_9="173.07970"></scales>
<clustering>
<clus scale="   80.796">  5  6 -1 -1</clus>
<clus scale="   89.012">  7  8 -1 -1</clus>
<clus scale="  126.150">  1  5  2 -1</clus>
<clus scale="  173.080">  2  9  1 -1</clus>
<clus scale="  173.080">  2  5  1 -1</clus>
</clustering>
</event>
<event>
 9    1  0.7835476E-005  0.9799169E+02  0.7546771E-02  0.1290428E+00
         21   -1    0    0  501  502  0.00000000000E+00  0.00000000000E+00  0.16967700334E+03  0.16967700334E+03  0.00000000000E+00 0.  1.
         -2   -1    0    0    0  501 -0.00000000000E+00 -0.00000000000E+00 -0.21273184072E+03  0.21273184072E+03  0.00000000000E+00 0.  1.
        -24    2    1    2    0    0  0.16171824987E+02  0.30448170893E+02 -0.17141756259E+03  0.19262027794E+03  0.80808240153E+02 0.  0.
         23    2    1    2    0    0 -0.34284482119E+02 -0.18028919960E+02  0.56273738301E+02  0.11442857557E+03  0.91797045793E+02 0.  0.
         13    1    3    3    0    0 -0.15827329404E+02  0.33138632609E+02 -0.29472586851E+02  0.47088286260E+02  0.00000000000E+00 0. -1.
        -14    1    3    3    0    0  0.31999154390E+02 -0.26904617155E+01 -0.14194497573E+03  0.14553199168E+03  0.00000000000E+00 0.  1.
        -11    1    4    4    0    0  0.14783754523E+02 -0.42169826177E+02  0.21181307455E+02  0.49452011315E+02  0.00000000000E+00 0. -1.
         11    1    4    4    0    0 -0.49068236642E+02  0.24140906217E+02  0.35092430846E+02  0.64976564258E+02  0.00000000000E+00 0.  1.
         -1    1    1    2    0  502  0.18112657132E+02 -0.12419250933E+02  0.72088986907E+02  0.75359990548E+02  0.00000000000E+00 0.  1.
<scales pt_clust_5="13000.00000" pt_clust_6="13000.00000" pt_clust_7="13000.00000" pt_clust_8="13000.00000" pt_clust_9="21.96147"></scales>
<clustering>
<clus scale="   21.961">  1  9  2 -1</clus>
<clus scale="   80.808">  5  6 -1 -1</clus>
<clus scale="   87.782">  2  5  1 -1</clus>
<clus scale="   91.797">  7  8 -1 -1</clus>
<clus scale="   21.961">  1  5  2 -1</clus>
</clustering>
</event>
<event>
 9    1  0.7835476E-005  0.1053452E+03  0.7546771E-02  0.1272893E+00
          1   -1    0    0  502    0 -0.00000000000E+00  0.00000000000E+00  0.37646191057E+03  0.37646191057E+03  0.00000000000E+00 0. -1.
         21   -1    0    0  501  502  0.00000000000E+00 -0.00000000000E+00 -0.12608488641E+03  0.12608488641E+03  0.00000000000E+00 0.  1.
        -24    2    1    2    0    0  0.48947203160E+02 -0.18078606256E+02  0.60524022980E+02  0.11438305299E+03  0.81839237244E+02 0.  0.
         23    2    1    2    0    0 -0.46809383189E+02  0.53749912707E+02 -0.64294822065E+02  0.13151587542E+03  0.89902335184E+02 0.  0.
         11    1    3    3    0    0  0.53472055639E+02 -0.78716915186E+01  0.77245548593E+02  0.94276715254E+02  0.00000000000E+00 0. -1.
        -12    1    3    3    0    0 -0.45248524786E+01 -0.10206914738E+02 -0.16721525613E+02  0.20106337738E+02  0.00000000000E+00 0.  1.
        -11    1    4    4    0    0 -0.44851288522E+02 -0.12037077659E+02 -0.13448111083E+02  0.48346468458E+02  0.00000000000E+00 0. -1.
         11    1    4    4    0    0 -0.19580946675E+01  0.65786990366E+02 -0.50846710982E+02  0.83169406958E+02  0.00000000000E+00 0.  1.
          2    1    1    2  501    0 -0.21378199710E+01 -0.35671306451E+02  0.25414782324E+03  0.25664786856E+03  0.00000000000E+00 0. -1.
<scales pt_clust_5="13000.00000" pt_clust_6="13000.00000" pt_clust_7="13000.00000" pt_clust_8="13000.00000" pt_clust_9="35.73533"></scales>
<clustering>
<clus scale="   35.735">  2  9  1 -1</clus>
<clus scale="   81.839">  5  6 -1 -1</clus>
<clus scale="   89.902">  7  8 -1 -1</clus>
<clus scale="   98.554">  1  5  2 -1</clus>
<clus scale="   35.735">  2  5  1 -1</clus>
</clustering>
</event>
<event>
 9    1  0.7835476E-005  0.1434200E+03  0.7546771E-02  0.1229606E+00
         21   -1    0    0  501  502  0.00000000000E+00  0.00000000000E+00  0.91474312069E+02  0.91474312069E+02  0.00000000000E+00 0. -1.
          1   -1    0    0  502    0 -0.00000000000E+00 -0.00000000000E+00 -0.40374929999E+03  0.40374929999E+03  0.00000000000E+00 0. -1.
        -24    2    1    2    0    0 -0.21286734598E+02 -0.45907701581E+02 -0.16924349637E+03  0.19292055004E+03  0.77552146509E+02 0.  0.
         23    2    1    2    0    0  0.56663819952E+02 -0.79216688581E+02 -0.52359706339E+02  0.14378169496E+03  0.91899753624E+02 0.  0.
         11    1    3    3    0    0  0.19422189963E+02 -0.43983840633E+02 -0.63902425828E+02  0.79970742940E+02  0.00000000000E+00 0. -1.
        -12    1    3    3    0    0 -0.40708924561E+02 -0.19238609489E+01 -0.10534107055E+03  0.11294980710E+03  0.00000000000E+00 0.  1.
        -13    1    4    4    0    0  0.36082119593E+02  0.72784153227E+01 -0.39422259733E+02  0.53935231959E+02  0.00000000000E+00 0.  1.
         13    1    4    4    0    0  0.20581700359E+02 -0.86495103904E+02 -0.12937446605E+02  0.89846463000E+02  0.00000000000E+00 0. -1.
          2    1    1    2  501    0 -0.35377085355E+02  0.12512439016E+03 -0.90671785206E+02  0.15852136706E+03  0.00000000000E+00 0. -1.
<scales pt_clust_5="13000.00000" pt_clust_6="13000.00000" pt_clust_7="13000.00000" pt_clust_8="13000.00000" pt_clust_9="110.10785"></scales>
<clustering>
<clus scale="   77.552">  5  6 -1 -1</clus>
<clus scale="   91.900">  7  8 -1 -1</clus>
<clus scale="   92.601">  2  5  1 -1</clus>
<clus scale="  110.108">  1  9  2 -1</clus>
<clus scale="  110.108">  1  5  2 -1</clus>
</clustering>
</event>
<event>
 9    1  0.7835476E-005  0.1034890E+03  0.7546771E-02  0.1278653E+00
          3   -1    0    0  502    0 -0.00000000000E+00  0.00000000000E+00  0.40353194554E+02  0.40353194554E+02  0.00000000000E+00 0. -1.
         21   -1    0    0  501  502  0.00000000000E+00 -0.00000000000E+00 -0.40948750403E+03  0.40948750403E+03  0.00000000000E+00 0.  1.
        -24    2    1    2    0    0 -0.81607892573E+01  0.39779385590E+02 -0.64258838481E+02  0.11044491057E+03  0.80124165819E+02 0.  0.
         23    2    1    2    0    0 -0.10728431693E+02 -0.68058483848E+02 -0.22794255450E+03  0.25528167680E+03  0.91999292849E+02 0.  0.
         11    1    3    3    0    0  0.31002353225E+02  0.39988857547E+02 -0.38288478154E+02  0.63452834394E+02  0.00000000000E+00 0. -1.
        -12    1    3    3    0    0 -0.39163142482E+02 -0.20947195651E+00 -0.25970360327E+02  0.46992076173E+02  0.00000000000E+00 0.  1.
        -11    1    4    4    0    0  0.30300118592E+02 -0.58553937410E+02 -0.93571081311E+02  0.11446487684E+03  0.00000000000E+00 0. -1.
         11    1    4    4    0    0 -0.41028550286E+02 -0.95045464378E+01 -0.13437147319E+03  0.14081679995E+03  0.00000000000E+00 0.  1.
          4    1    1    2  501    0  0.18889220951E+02  0.28279098258E+02 -0.76932916494E+02  0.84114111222E+02  0.00000000000E+00 0. -1.
<scales pt_clust_5="13000.00000" pt_clust_6="13000.00000" pt_clust_7="13000.00000" pt_clust_8="13000.00000" pt_clust_9="34.00750"></scales>
<clustering>
<clus scale="   34.008">  2  9  1 -1</clus>
<clus scale="   80.124">  5  6 -1 -1</clus>
<clus scale="   91.999">  7  8 -1 -1</clus>
<clus scale="   93.091">  1  5  2 -1</clus>
<clus scale="   34.008">  2  5  1 -1</clus>
</clustering>
</event>
<event>
 9    1  0.7835476E-005  0.9160007E+02  0.7546771E-02  0.1304876E+00
         21   -1    0    0  501  502  0.00000000000E+00  0.00000000000E+00  0.24113082271E+03  0.24113082271E+03  0.00000000000E+00 0.  1.
          1   -1    0    0  502    0 -0.00000000000E+00 -0.00000000000E+00 -0.11417401403E+03  0.11417401403E+03  0.00000000000E+00 0. -1.
        -24    2    1    2    0    0  0.15587965255E+02  0.12729987296E+02 -0.41111852364E+02  0.93428059938E+02  0.81446797000E+02 0.  0.
         23    2    1    2    0    0  0.34269740444E+02  0.33218363263E+02  0.16460619288E+03  0.19398693645E+03  0.90872757255E+02 0.  0.
         11    1    3    3    0    0 -0.32219692179E+02  0.67615957853E+01 -0.51819275991E+01  0.33326867769E+02  0.00000000000E+00 0. -1.
        -12    1    3    3    0    0  0.47807657433E+02  0.59683915104E+01 -0.35929924765E+02  0.60101192169E+02  0.00000000000E+00 0.  1.
        -13    1    4    4    0    0 -0.22112248039E+02  0.33720069225E+02  0.38064386939E+02  0.55451709938E+02  0.00000000000E+00 0. -1.
         13    1    4    4    0    0  0.56381988484E+02 -0.50170596240E+00  0.12654180594E+03  0.13853522652E+03  0.00000000000E+00 0.  1.
          2    1    1    2  501    0 -0.49857705699E+02 -0.45948350559E+02  0.34624681547E+01  0.67889840347E+02  0.00000000000E+00 0. -1.
<scales pt_clust_5="13000.00000" pt_clust_6="13000.00000" pt_clust_7="13000.00000" pt_clust_8="13000.00000" pt_clust_9="67.80152"></scales>
<clustering>
<clus scale="   67.802">  1  9  2 -1</clus>
<clus scale="   81.447">  5  6 -1 -1</clus>
<clus scale="   82.257">  2  5  1 -1</clus>
<clus scale="   90.873">  7  8 -1 -1</clus>
<clus scale="   67.802">  1  5  2 -1</clus>
</clustering>
</event>
<event>
 9    1  0.7835476E-005  0.1302299E+03  0.7546771E-02  0.1229965E+00
          1   -1    0    0  502    0 -0.00000000000E+00  0.00000000000E+00  0.49153183120E+03  0.49153183120E+03  0.00000000000E+00 0. -1.
         21   -1    0    0  501  502  0.00000000000E+00 -0.00000000000E+00 -0.77344903468E+02  0.77344903468E+02  0.00000000000E+00 0.  1.
         23    2    1    2    0    0  0.42629232943E+02  0.80394738507E+02  0.38109519252E+03  0.40222035088E+03  0.90923591128E+02 0.  0.
        -24    2    1    2    0    0 -0.28657069639E+02 -0.10391344147E+03  0.17855234893E+02  0.13534342036E+03  0.79873656877E+02 0.  0.
         11    1    4    4    0    0 -0.21939073476E+02  0.66882470773E+01 -0.93991654571E+00  0.22955152734E+02  0.00000000000E+00 0. -1.
        -12    1    4    4    0    0 -0.67179961633E+01 -0.11060168855E+03  0.18795151439E+02  0.11238826763E+03  0.00000000000E+00 0.  1.
        -13    1    3    3    0    0  0.43191080817E+02 -0.46474126864E+01  0.11970611837E+03  0.12734450393E+03  0.00000000000E+00 0.  1.
         13    1    3    3    0    0 -0.56184787394E+00  0.85042151194E+02  0.26138907415E+03  0.27487584695E+03  0.00000000000E+00 0. -1.
          2    1    1    2  501    0 -0.13972163304E+02  0.23518702965E+02  0.15236500325E+02  0.31312963428E+02  0.00000000000E+00 0. -1.
<scales pt_clust_5="13000.00000" pt_clust_6="13000.00000" pt_clust_7="13000.00000" pt_clust_8="13000.00000" pt_clust_9="27.35600"></scales>
<clustering>
<clus scale="   27.356">  2  9  1 -1</clus>
<clus scale="   79.874">  5  6 -1 -1</clus>
<clus scale="   90.924">  7  8 -1 -1</clus>
<clus scale="  122.770">  2  5  1 -1</clus>
<clus scale="   27.356">  2  5  1 -1</clus>
</clustering>
</event>
<event>
 9    1  0.7835476E-005  0.1339599E+03  0.7546771E-02  0.1223987E+00
         21   -1    0    0  501  502  0.00000000000E+00  0.00000000000E+00  0.53851101904E+03  0.53851101904E+03  0.00000000000E+00 0. -1.
         -4   -1    0    0    0  501 -0.00000000000E+00 -0.00000000000E+00 -0.72220761159E+02  0.72220761159E+02  0.00000000000E+00 0.  1.
        -24    2    1    2    0    0  0.32191212015E+02 -0.10356199718E+03  0.21142898109E+02  0.13698384824E+03  0.80970310288E+02 0.  0.
         23    2    1    2    0    0 -0.31061899368E+02  0.58735190643E+02  0.25935172862E+03  0.28261778131E+03  0.90525283557E+02 0.  0.
         13    1    3    3    0    0 -0.25710772985E+02 -0.46495624927E+02  0.61184372213E+00  0.53134370586E+02  0.00000000000E+00 0. -1.
        -14    1    3    3    0    0  0.57901985000E+02 -0.57066372250E+02  0.20531054387E+02  0.83849477654E+02  0.00000000000E+00 0.  1.
        -13    1    4    4    0    0 -0.41122602620E+02  0.21517573802E+02  0.44378070790E+02  0.64214387762E+02  0.00000000000E+00 0.  1.
         13    1    4    4    0    0  0.10060703252E+02  0.37217616840E+02  0.21497365783E+03  0.21840339355E+03  0.00000000000E+00 0. -1.
         -3    1    1    2    0  502 -0.11293126469E+01  0.44826806534E+02  0.18579563116E+03  0.19113015065E+03  0.00000000000E+00 0.  1.
<scales pt_clust_5="13000.00000" pt_clust_6="13000.00000" pt_clust_7="13000.00000" pt_clust_8="13000.00000" pt_clust_9="44.84103"></scales>
<clustering>
<clus scale="   44.841">  1  9  2 -1</clus>
<clus scale="   80.970">  5  6 -1 -1</clus>
<clus scale="   90.525">  7  8 -1 -1</clus>
<clus scale="  127.697">  2  5  1 -1</clus>
<clus scale="   44.841">  1  5  2 -1</clus>
</clustering>
</event>
<event>
 9    1  0.7835476E-005  0.1103899E+03  0.7546771E-02  0.1263910E+00
         21   -1    0    0  501  502  0.00000000000E+00  0.00000000000E+00  0.49202069515E+02  0.49202069515E+02  0.00000000000E+00 0.  1.
         -2   -1    0    0    0  501 -0.00000000000E+00 -0.00000000000E+00 -0.57845520798E+03  0.57845520798E+03  0.00000000000E+00 0.  1.
        -24    2    1    2    0    0  0.57283811786E+02 -0.18523340978E+02 -0.44236220570E+03  0.45352326324E+03  0.79840340789E+02 0.  0.
         23    2    1    2    0    0 -0.73474190254E+02  0.37354084260E+02 -0.85549535723E+02  0.14926385958E+03  0.90372520540E+02 0.  0.
         13    1    3    3    0    0  0.13354917160E+02 -0.37262341484E+02 -0.95347262340E+02  0.10323728174E+03  0.00000000000E+00 0. -1.
        -14    1    3    3    0    0  0.43928894627E+02  0.18739000505E+02 -0.34701494336E+03  0.35028598150E+03  0.00000000000E+00 0.  1.
        -13    1    4    4    0    0 -0.54696065066E+02  0.59736811713E+02 -0.88416849852E+02  0.11990698706E+03  0.00000000000E+00 0.  1.
         13    1    4    4    0    0 -0.18778125188E+02 -0.22382727453E+02  0.28673141286E+01  0.29356872520E+02  0.00000000000E+00 0. -1.
         -1    1    1    2    0  502  0.16190378468E+02 -0.18830743281E+02 -0.13413970391E+01  0.24870154673E+02  0.00000000000E+00 0.  1.
<scales pt_clust_5="13000.00000" pt_clust_6="13000.00000" pt_clust_7="13000.00000" pt_clust_8="13000.00000" pt_clust_9="24.83395"></scales>
<clustering>
<clus scale="   24.834">  1  9  2 -1</clus>
<clus scale="   79.840">  5  6 -1 -1</clus>
<clus scale="   90.373">  7  8 -1 -1</clus>
<clus scale="  101.947">  2  5  1 -1</clus>
<clus scale="   24.834">  1  5  2 -1</clus>
</clustering>
</event>
<event>
 9    1  0.7835476E-005  0.1229336E+03  0.7546771E-02  0.1242480E+00
         21   -1    0    0  501  502  0.00000000000E+00  0.00000000000E+00  0.43887143109E+03  0.43887143109E+03  0.00000000000E+00 0. -1.
          1   -1    0    0  502    0 -0.00000000000E+00 -0.00000000000E+00 -0.85197386917E+02  0.85197386917E+02  0.00000000000E+00 0. -1.
         23    2    1    2    0    0 -0.10053917695E+03 -0.28460062317E+02  0.10424436736E+02  0.14001631529E+03  0.92616404694E+02 0.  0.
        -24    2    1    2    0    0  0.16847094279E+02  0.34395507652E+02  0.15957553723E+03  0.18212242006E+03  0.78976884428E+02 0.  0.
         13    1    4    4    0    0 -0.11778219841E+02  0.44940707294E+02  0.13555290911E+03  0.14329335227E+03  0.00000000000E+00 0. -1.
        -14    1    4    4    0    0  0.28625314120E+02 -0.10545199643E+02  0.24022628112E+02  0.38829067789E+02  0.00000000000E+00 0.  1.
        -13    1    3    3    0    0 -0.80567871489E+00 -0.37550271299E+02  0.13255535914E+02  0.39829401517E+02  0.00000000000E+00 0.  1.
         13    1    3    3    0    0 -0.99733498236E+02  0.90902089825E+01 -0.28310991779E+01  0.10018691378E+03  0.00000000000E+00 0. -1.
          2    1    1    2  501    0  0.83692082672E+02 -0.59354453350E+01  0.18367407021E+03  0.20193008265E+03  0.00000000000E+00 0. -1.
<scales pt_clust_5="13000.00000" pt_clust_6="13000.00000" pt_clust_7="13000.00000" pt_clust_8="13000.00000" pt_clust_9="83.90229"></scales>
<clustering>
<clus scale="   78.977">  5  6 -1 -1</clus>
<clus scale="   83.902">  1  9  2 -1</clus>
<clus scale="   92.616">  7  8 -1 -1</clus>
<clus scale="  113.014">  1  5  2 -1</clus>
<clus scale="   83.902">  1  5  2 -1</clus>
</clustering>
</event>
<event>
 9    1  0.7835476E-005  0.1209882E+03  0.7546771E-02  0.1243858E+00
          1   -1    0    0  502    0 -0.00000000000E+00  0.00000000000E+00  0.71501995657E+03  0.71501995657E+03  0.00000000000E+00 0. -1.
         21   -1    0    0  501  502  0.00000000000E+00 -0.00000000000E+00 -0.55511466171E+02  0.55511466171E+02  0.00000000000E+00 0. -1.
        -24    2    1    2    0    0  0.48803914257E+02  0.51782574480E+02  0.59239762568E+03  0.60473199358E+03  0.98501675537E+02 0.  0.
         23    2    1    2    0    0 -0.20081794136E+02 -0.69029787842E+02  0.62345579068E+02  0.13195959316E+03  0.91421949951E+02 0.  0.
         11    1    3    3    0    0  0.27990269544E+02  0.71276604092E+02  0.25809381161E+03  0.26921408780E+03  0.00000000000E+00 0. -1.
        -12    1    3    3    0    0  0.20813644713E+02 -0.19494029612E+02  0.33430381407E+03  0.33551790578E+03  0.00000000000E+00 0.  1.
        -13    1    4    4    0    0  0.12177578187E+02 -0.59814262719E+02  0.74466278691E+02  0.96287414012E+02  0.00000000000E+00 0. -1.
         13    1    4    4    0    0 -0.32259372322E+02 -0.92155251228E+01 -0.12120699622E+02  0.35672179149E+02  0.00000000000E+00 0.  1.
          2    1    1    2  501    0 -0.28722120122E+02  0.17247213361E+02  0.47652856501E+01  0.33839835998E+02  0.00000000000E+00 0. -1.
<scales pt_clust_5="13000.00000" pt_clust_6="13000.00000" pt_clust_7="13000.00000" pt_clust_8="13000.00000" pt_clust_9="33.50264"></scales>
<clustering>
<clus scale="   33.503">  2  9  1 -1</clus>
<clus scale="   91.422">  7  8 -1 -1</clus>
<clus scale="   98.502">  5  6 -1 -1</clus>
<clus scale="  115.298">  2  7  1 -1</clus>
<clus scale="   33.503">  2  5  1 -1</clus>
</clustering>
</event>
<event>
 9    1  0.7835476E-005  0.1136416E+03  0.7546771E-02  0.1257939E+00
         21   -1    0    0  501  502  0.00000000000E+00  0.00000000000E+00  0.10931470341E+03  0.10931470341E+03  0.00000000000E+00 0. -1.
          1   -1    0    0  502    0 -0.00000000000E+00 -0.00000000000E+00 -0.53552798271E+03  0.53552798271E+03  0.00000000000E+00 0. -1.
        -24    2    1    2    0    0 -0.35065626547E+02 -0.56661907519E+02 -0.47382442712E+03  0.48549385967E+03  0.82185948419E+02 0.  0.
         23    2    1    2    0    0  0.42359869686E+02  0.37332561602E+02  0.13953771253E+01  0.10872544195E+03  0.92904229909E+02 0.  0.
         13    1    3    3    0    0  0.14709649092E+02 -0.53928019362E+02 -0.25836915374E+03  0.26434678862E+03  0.00000000000E+00 0. -1.
        -14    1    3    3    0    0 -0.49775275639E+02 -0.27338881568E+01 -0.21545527338E+03  0.22114707106E+03  0.00000000000E+00 0.  1.
        -11    1    4    4    0    0  0.21527437057E+01  0.52700751267E+02  0.26360955923E+02  0.58965273566E+02  0.00000000000E+00 0.  1.
         11    1    4    4    0    0  0.40207125980E+02 -0.15368189665E+02 -0.24965578798E+02  0.49760168387E+02  0.00000000000E+00 0. -1.
          2    1    1    2  501    0 -0.72942431388E+01  0.19329345917E+02  0.46215770691E+02  0.50623384489E+02  0.00000000000E+00 0. -1.
<scales pt_clust_5="13000.00000" pt_clust_6="13000.00000" pt_clust_7="13000.00000" pt_clust_8="13000.00000" pt_clust_9="20.65985"></scales>
<clustering>
<clus scale="   20.660">  1  9  2 -1</clus>
<clus scale="   82.186">  5  6 -1 -1</clus>
<clus scale="   92.904">  7  8 -1 -1</clus>
<clus scale="  105.061">  2  5  1 -1</clus>
<clus scale="   20.660">  1  5  2 -1</clus>
</clustering>
</event>
<event>
 9    1  0.7835476E-005  0.1291311E+03  0.7546771E-02  0.1231181E+00
         21   -1    0    0  501  502  0.00000000000E+00  0.00000000000E+00  0.27885056081E+03  0.27885056081E+03  0.00000000000E+00 0.  1.
          1   -1    0    0  502    0 -0.00000000000E+00 -0.00000000000E+00 -0.13107208031E+03  0.13107208031E+03  0.00000000000E+00 0. -1.
        -24    2    1    2    0    0 -0.59942773328E+00 -0.95975165515E+02 -0.32871615320E+02  0.13034810852E+03  0.81844331458E+02 0.  0.
         23    2    1    2    0    0 -0.63866743602E+01  0.71166725384E+02  0.21044855783E+03  0.24017640241E+03  0.91052821873E+02 0.  0.
         11    1    3    3    0    0 -0.33116136851E+02 -0.75302987869E+02 -0.39492846805E+02  0.91251868204E+02  0.00000000000E+00 0. -1.
        -12    1    3    3    0    0  0.32516709118E+02 -0.20672177646E+02  0.66212314858E+01  0.39096240317E+02  0.00000000000E+00 0.  1.
        -13    1    4    4    0    0  0.24751378099E+02  0.32320583329E+02  0.17341006779E+03  0.17812440157E+03  0.00000000000E+00 0.  1.
         13    1    4    4    0    0 -0.31138052459E+02  0.38846142055E+02  0.37038490037E+02  0.62052000836E+02  0.00000000000E+00 0. -1.
          2    1    1    2  501    0  0.69861020935E+01  0.24808440131E+02 -0.29798462014E+02  0.39398130192E+02  0.00000000000E+00 0. -1.
<scales pt_clust_5="13000.00000" pt_clust_6="13000.00000" pt_clust_7="13000.00000" pt_clust_8="13000.00000" pt_clust_9="25.77334"></scales>
<clustering>
<clus scale="   25.773">  1  9  2 -1</clus>
<clus scale="   81.844">  5  6 -1 -1</clus>
<clus scale="   91.053">  7  8 -1 -1</clus>
<clus scale="  122.812">  2  5  1 -1</clus>
<clus scale="   25.773">  1  5  2 -1</clus>
</clustering>
</event>
<event>
 9    1  0.7835476E-005  0.1496743E+03  0.7546771E-02  0.1216374E+00
         -2   -1    0    0    0  501 -0.00000000000E+00  0.00000000000E+00  0.12960779633E+03  0.12960779633E+03  0.00000000000E+00 0.  1.
         21   -1    0    0  501  502  0.00000000000E+00 -0.00000000000E+00 -0.84087776860E+03  0.84087776860E+03  0.00000000000E+00 0.  1.
        -24    2    1    2    0    0 -0.42657160038E+02 -0.60461369893E+02  0.66955307517E+02  0.12657432836E+03  0.77864220555E+02 0.  0.
         23    2    1    2    0    0  0.22653060543E+02 -0.76066212903E+02 -0.10247728876E+03  0.15421906449E+03  0.83562522954E+02 0.  0.
         13    1    3    3    0    0  0.21294272191E+02 -0.24415235253E+02  0.10803397787E+02  0.34150595080E+02  0.00000000000E+00 0. -1.
        -14    1    3    3    0    0 -0.63951432228E+02 -0.36046134639E+02  0.56151909730E+02  0.92423733277E+02  0.00000000000E+00 0.  1.
        -13    1    4    4    0    0 -0.18194952269E+02 -0.12003702559E+02  0.52245783820E+01  0.22415204270E+02  0.00000000000E+00 0. -1.
         13    1    4    4    0    0  0.40848012812E+02 -0.64062510344E+02 -0.10770186714E+03  0.13180386022E+03  0.00000000000E+00 0.  1.
         -1    1    1    2    0  502  0.20004099495E+02  0.13652758280E+03 -0.67574799103E+03  0.68969217209E+03  0.00000000000E+00 0.  1.
<scales pt_clust_5="13000.00000" pt_clust_6="13000.00000" pt_clust_7="13000.00000" pt_clust_8="13000.00000" pt_clust_9="124.17612"></scales>
<clustering>
<clus scale="   77.864">  5  6 -1 -1</clus>
<clus scale="   83.563">  7  8 -1 -1</clus>
<clus scale="  107.415">  1  5  2 -1</clus>
<clus scale="  124.176">  2  9  1 -1</clus>
<clus scale="  124.176">  2  5  1 -1</clus>
</clustering>
</event>
<event>
 9    1  0.7835476E-005  0.2071359E+03  0.7546771E-02  0.1143987E+00
         21   -1    0    0  501  502  0.00000000000E+00  0.00000000000E+00  0.12772290065E+03  0.12772290065E+03  0.00000000000E+00 0.  1.
         -2   -1    0    0    0  501 -0.00000000000E+00 -0.00000000000E+00 -0.11131562684E+04  0.11131562684E+04  0.00000000000E+00 0.  1.
        -24    2    1    2    0    0 -0.20486202319E+03 -0.39345651493E+02 -0.92959282092E+03  0.95622141716E+03  0.81853876347E+02 0.  0.
         23    2    1    2    0    0  0.12967406843E+03  0.22956737302E+02 -0.10976562969E+03  0.19069105779E+03  0.83499761983E+02 0.  0.
         13    1    3    3    0    0 -0.25056310150E+02  0.71246207592E+01 -0.42112427086E+02  0.49518031205E+02  0.00000000000E+00 0. -1.
        -14    1    3    3    0    0 -0.17980571304E+03 -0.46470272252E+02 -0.88748039384E+03  0.90670338595E+03  0.00000000000E+00 0.  1.
        -13    1    4    4    0    0  0.10391072445E+03 -0.19749570906E+02 -0.69142892699E+02  0.12636543759E+03  0.00000000000E+00 0.  1.
         13    1    4    4    0    0  0.25763343973E+02  0.42706308208E+02 -0.40622736991E+02  0.64325620200E+02  0.00000000000E+00 0. -1.
         -1    1    1    2    0  502  0.75187954768E+02  0.16388914190E+02  0.53925082825E+02  0.93966694143E+02  0.00000000000E+00 0.  1.
<scales pt_clust_5="13000.00000" pt_clust_6="13000.00000" pt_clust_7="13000.00000" pt_clust_8="13000.00000" pt_clust_9="76.95340"></scales>
<clustering>
<clus scale="   76.953">  1  9  2 -1</clus>
<clus scale="   81.854">  5  6 -1 -1</clus>
<clus scale="   83.500">  7  8 -1 -1</clus>
<clus scale="  206.478">  2  5  1 -1</clus>
<clus scale="   76.953">  1  5  2 -1</clus>
</clustering>
</event>
<event>
 9    1  0.7835476E-005  0.1607036E+03  0.7546771E-02  0.1212086E+00
         21   -1    0    0  501  502  0.00000000000E+00  0.00000000000E+00  0.65477561265E+02  0.65477561265E+02  0.00000000000E+00 0. -1.
          1   -1    0    0  502    0 -0.00000000000E+00 -0.00000000000E+00 -0.96835897573E+03  0.96835897573E+03  0.00000000000E+00 0. -1.
        -24    2    1    2    0    0  0.41931353533E+02 -0.28193897159E+02 -0.98302232680E+02  0.13673299660E+03  0.80495025707E+02 0.  0.
         23    2    1    2    0    0 -0.39161879072E+02  0.15677069633E+03 -0.71928199648E+03  0.74278156174E+03  0.90813842592E+02 0.  0.
         13    1    3    3    0    0  0.36334284523E+02 -0.54702732815E+02 -0.55030411639E+02  0.85679142237E+02  0.00000000000E+00 0. -1.
        -14    1    3    3    0    0  0.55970690097E+01  0.26508835655E+02 -0.43271821040E+02  0.51053854364E+02  0.00000000000E+00 0.  1.
        -11    1    4    4    0    0  0.24431902403E+02  0.38895445477E+02 -0.11498238500E+03  0.12381729441E+03  0.00000000000E+00 0.  1.
         11    1    4    4    0    0 -0.63593781474E+02  0.11787525085E+03 -0.60429961148E+03  0.61896426734E+03  0.00000000000E+00 0. -1.
          2    1    1    2  501    0 -0.27694744615E+01 -0.12857679917E+03 -0.85297185310E+02  0.15432197865E+03  0.00000000000E+00 0. -1.
<scales pt_clust_5="13000.00000" pt_clust_6="13000.00000" pt_clust_7="13000.00000" pt_clust_8="13000.00000" pt_clust_9="132.58394"></scales>
<clustering>
<clus scale="   80.495">  5  6 -1 -1</clus>
<clus scale="   90.814">  7  8 -1 -1</clus>
<clus scale="   95.040">  2  5  1 -1</clus>
<clus scale="  132.584">  1  9  2 -1</clus>
<clus scale="  132.584">  1  5  2 -1</clus>
</clustering>
</event>
<event>
 9    1  0.7835476E-005  0.1117662E+03  0.7546771E-02  0.1263031E+00
          1   -1    0    0  502    0 -0.00000000000E+00  0.00000000000E+00  0.19724531020E+03  0.19724531020E+03  0.00000000000E+00 0. -1.
         21   -1    0    0  501  502  0.00000000000E+00 -0.00000000000E+00 -0.23179568320E+03  0.23179568320E+03  0.00000000000E+00 0.  1.
         23    2    1    2    0    0  0.67886241874E+02  0.25556811239E+02  0.14685960512E+03  0.18663959944E+03  0.89470129247E+02 0.  0.
        -24    2    1    2    0    0 -0.22866870838E+02 -0.52707737546E+02 -0.63438873423E+02  0.11324606843E+03  0.74156469538E+02 0.  0.
         11    1    4    4    0    0 -0.49910639328E+02 -0.30259509761E+02 -0.35194463878E+02  0.68156878866E+02  0.00000000000E+00 0. -1.
        -12    1    4    4    0    0  0.27043768491E+02 -0.22448227785E+02 -0.28244409546E+02  0.45089189563E+02  0.00000000000E+00 0.  1.
        -13    1    3    3    0    0  0.87636118649E+02  0.67291968859E+01  0.11185383222E+03  0.14225558395E+03  0.00000000000E+00 0. -1.
         13    1    3    3    0    0 -0.19749876775E+02  0.18827614353E+02  0.35005772903E+02  0.44384015494E+02  0.00000000000E+00 0.  1.
          2    1    1    2  501    0 -0.45019371036E+02  0.27150926306E+02 -0.11797110470E+03  0.12915532552E+03  0.00000000000E+00 0. -1.
<scales pt_clust_5="13000.00000" pt_clust_6="13000.00000" pt_clust_7="13000.00000" pt_clust_8="13000.00000" pt_clust_9="52.57296"></scales>
<clustering>
<clus scale="   52.573">  2  9  1 -1</clus>
<clus scale="   74.156">  5  6 -1 -1</clus>
<clus scale="   89.470">  7  8 -1 -1</clus>
<clus scale="   99.930">  2  5  1 -1</clus>
<clus scale="   52.573">  2  5  1 -1</clus>
</clustering>
</event>
<event>
 9    1  0.7835476E-005  0.1197484E+03  0.7546771E-02  0.1246629E+00
         21   -1    0    0  501  502  0.00000000000E+00  0.00000000000E+00  0.46083265161E+02  0.46083265161E+02  0.00000000000E+00 0. -1.
          1   -1    0    0  502    0 -0.00000000000E+00 -0.00000000000E+00 -0.62773764611E+03  0.62773764611E+03  0.00000000000E+00 0. -1.
         23    2    1    2    0    0  0.81158107214E+02 -0.13795131073E+02 -0.35284560109E+03  0.37369945100E+03  0.91511296898E+02 0.  0.
        -24    2    1    2    0    0 -0.60858978397E+02  0.48219973772E+00 -0.39561779762E+02  0.10932388215E+03  0.81746737076E+02 0.  0.
         13    1    4    4    0    0  0.15882141148E+02 -0.13869178508E+02  0.14511295690E+01  0.21135332904E+02  0.00000000000E+00 0. -1.
        -14    1    4    4    0    0 -0.76741119545E+02  0.14351378246E+02 -0.41012909331E+02  0.88188549247E+02  0.00000000000E+00 0.  1.
        -13    1    3    3    0    0 -0.25073262188E+01 -0.30432882291E+02 -0.15913311094E+03  0.16203639717E+03  0.00000000000E+00 0.  1.
         13    1    3    3    0    0  0.83665433433E+02  0.16637751218E+02 -0.19371249015E+03  0.21166305383E+03  0.00000000000E+00 0. -1.
          2    1    1    2  501    0 -0.20299128817E+02  0.13312931335E+02 -0.18924700009E+03  0.19079757812E+03  0.00000000000E+00 0. -1.
<scales pt_clust_5="13000.00000" pt_clust_6="13000.00000" pt_clust_7="13000.00000" pt_clust_8="13000.00000" pt_clust_9="24.27528"></scales>
<clustering>
<clus scale="   24.275">  1  9  2 -1</clus>
<clus scale="   81.747">  5  6 -1 -1</clus>
<clus scale="   91.511">  7  8 -1 -1</clus>
<clus scale="  112.463">  1  5  2 -1</clus>
<clus scale="   24.275">  1  5  2 -1</clus>
</clustering>
</event>
<event>
 9    1  0.7835476E-005  0.1162624E+03  0.7546771E-02  0.1254556E+00
          3   -1    0    0  502    0 -0.00000000000E+00  0.00000000000E+00  0.77160764315E+03  0.77160764315E+03  0.00000000000E+00 0. -1.
         21   -1    0    0  501  502  0.00000000000E+00 -0.00000000000E+00 -0.36123221788E+02  0.36123221788E+02  0.00000000000E+00 0.  1.
        -24    2    1    2    0    0 -0.59156070262E+02 -0.34047290388E+02  0.44649330228E+03  0.46346973071E+03  0.10387138044E+03 0.  0.
         23    2    1    2    0    0  0.20884999131E+02 -0.20770942028E+02  0.79493937886E+02  0.12435483050E+03  0.90979242061E+02 0.  0.
         13    1    3    3    0    0 -0.35184765393E+01  0.31489177867E+02  0.63743452291E+02  0.71184097310E+02  0.00000000000E+00 0. -1.
        -14    1    3    3    0    0 -0.55637593723E+02 -0.65536468255E+02  0.38274984999E+03  0.39228563340E+03  0.00000000000E+00 0.  1.
        -11    1    4    4    0    0  0.20537630668E+02  0.30223561916E+02  0.95034921700E+01  0.37756778620E+02  0.00000000000E+00 0.  1.
         11    1    4    4    0    0  0.34736846349E+00 -0.50994503945E+02  0.69990445716E+02  0.86598051877E+02  0.00000000000E+00 0. -1.
          4    1    1    2  501    0  0.38271071131E+02  0.54818232416E+02  0.20949718120E+03  0.21990630373E+03  0.00000000000E+00 0. -1.
<scales pt_clust_5="13000.00000" pt_clust_6="13000.00000" pt_clust_7="13000.00000" pt_clust_8="13000.00000" pt_clust_9="66.85595"></scales>
<clustering>
<clus scale="   66.856">  2  9  1 -1</clus>
<clus scale="   90.979">  7  8 -1 -1</clus>
<clus scale="  103.871">  5  6 -1 -1</clus>
<clus scale="  104.904">  2  7  1 -1</clus>
<clus scale="   66.856">  2  5  1 -1</clus>
</clustering>
</event>
<event>
 9    1  0.7835476E-005  0.1688452E+03  0.7546771E-02  0.1181468E+00
         21   -1    0    0  501  502  0.00000000000E+00  0.00000000000E+00  0.86515410090E+03  0.86515410090E+03  0.00000000000E+00 0. -1.
          1   -1    0    0  502    0 -0.00000000000E+00 -0.00000000000E+00 -0.18936078432E+03  0.18936078432E+03  0.00000000000E+00 0. -1.
         23    2    1    2    0    0 -0.70966062754E+02 -0.12317703734E+03 -0.12743169753E+03  0.21145110941E+03  0.90906377910E+02 0.  0.
        -24    2    1    2    0    0  0.10133227794E+03  0.10836860033E+03  0.78943854495E+03  0.80657455050E+03  0.73056862600E+02 0.  0.
         11    1    4    4    0    0  0.10480159955E+03  0.11395007929E+03  0.77903480369E+03  0.79426898542E+03  0.00000000000E+00 0. -1.
        -12    1    4    4    0    0 -0.34693216114E+01 -0.55814789571E+01  0.10403741263E+02  0.12305565085E+02  0.00000000000E+00 0.  1.
        -11    1    3    3    0    0  0.23295717262E+01 -0.86396285522E+02 -0.59036541686E+02  0.10466641443E+03  0.00000000000E+00 0.  1.
         11    1    3    3    0    0 -0.73295634480E+02 -0.36780751821E+02 -0.68395155847E+02  0.10678469498E+03  0.00000000000E+00 0. -1.
          2    1    1    2  501    0 -0.30366215189E+02  0.14808437012E+02  0.13786469162E+02  0.36489225308E+02  0.00000000000E+00 0. -1.
<scales pt_clust_5="13000.00000" pt_clust_6="13000.00000" pt_clust_7="13000.00000" pt_clust_8="13000.00000" pt_clust_9="33.78458"></scales>
<clustering>
<clus scale="   33.785">  1  9  2 -1</clus>
<clus scale="   73.057">  5  6 -1 -1</clus>
<clus scale="   90.906">  7  8 -1 -1</clus>
<clus scale="  159.944">  1  5  2 -1</clus>
<clus scale="   33.785">  1  5  2 -1</clus>
</clustering>
</event>
<event>
 9    1  0.7835476E-005  0.1986571E+03  0.7546771E-02  0.1151876E+00
         21   -1    0    0  501  502  0.00000000000E+00  0.00000000000E+00  0.16663338877E+03  0.16663338877E+03  0.00000000000E+00 0.  1.
          3   -1    0    0  502    0 -0.00000000000E+00 -0.00000000000E+00 -0.60972682242E+03  0.60972682242E+03  0.00000000000E+00 0. -1.
         23    2    1    2    0    0  0.16729836708E+03  0.41290517828E+02 -0.41203960881E+03  0.45575974660E+03  0.90811105644E+02 0.  0.
        -24    2    1    2    0    0 -0.19500090721E+03  0.47606469204E+01 -0.99825419345E+02  0.23332118460E+03  0.80160110172E+02 0.  0.
         11    1    4    4    0    0 -0.49245062412E+02  0.28303630232E+02 -0.54894344224E+02  0.78990889880E+02  0.00000000000E+00 0. -1.
        -12    1    4    4    0    0 -0.14575584480E+03 -0.23542983312E+02 -0.44931075121E+02  0.15433029472E+03  0.00000000000E+00 0.  1.
        -11    1    3    3    0    0  0.82680204742E+02  0.59058438728E+01 -0.96761536664E+02  0.12741149958E+03  0.00000000000E+00 0.  1.
         11    1    3    3    0    0  0.84618162340E+02  0.35384673955E+02 -0.31527807214E+03  0.32834824702E+03  0.00000000000E+00 0. -1.
          4    1    1    2  501    0  0.27702540128E+02 -0.46051164748E+02  0.68771594506E+02  0.87279279988E+02  0.00000000000E+00 0. -1.
<scales pt_clust_5="13000.00000" pt_clust_6="13000.00000" pt_clust_7="13000.00000" pt_clust_8="13000.00000" pt_clust_9="53.74142"></scales>
<clustering>
<clus scale="   53.741">  1  9  2 -1</clus>
<clus scale="   80.160">  5  6 -1 -1</clus>
<clus scale="   90.811">  7  8 -1 -1</clus>
<clus scale="  194.020">  1  5  2 -1</clus>
<clus scale="   53.741">  1  5  2 -1</clus>
</clustering>
</event>
<event>
 9    1  0.7835476E-005  0.2438162E+03  0.7546771E-02  0.1117298E+00
         21   -1    0    0  501  502  0.00000000000E+00  0.00000000000E+00  0.53080895601E+02  0.53080895601E+02  0.00000000000E+00 0.  1.
          1   -1    0    0  502    0 -0.00000000000E+00 -0.00000000000E+00 -0.18649359862E+04  0.18649359862E+04  0.00000000000E+00 0. -1.
        -24    2    1    2    0    0  0.87767139938E+02 -0.20662676106E+03 -0.13811210390E+04  0.14021722682E+04  0.90521025004E+02 0.  0.
         23    2    1    2    0    0 -0.61458447178E+02  0.22595572158E+03 -0.38245532187E+03  0.45756432731E+03  0.90884055598E+02 0.  0.
         11    1    3    3    0    0  0.57856314005E+02 -0.15322265487E+03 -0.72834056318E+03  0.74652830556E+03  0.00000000000E+00 0. -1.
        -12    1    3    3    0    0  0.29910825933E+02 -0.53404106192E+02 -0.65278047585E+03  0.65564396262E+03  0.00000000000E+00 0.  1.
        -13    1    4    4    0    0 -0.12632716953E+02  0.18934956313E+03 -0.27816988240E+03  0.33673628565E+03  0.00000000000E+00 0. -1.
         13    1    4    4    0    0 -0.48825730225E+02  0.36606158442E+02 -0.10428543947E+03  0.12082804167E+03  0.00000000000E+00 0.  1.
          2    1    1    2  501    0 -0.26308692760E+02 -0.19328960517E+02 -0.48278729653E+02  0.58280286258E+02  0.00000000000E+00 0. -1.
<scales pt_clust_5="13000.00000" pt_clust_6="13000.00000" pt_clust_7="13000.00000" pt_clust_8="13000.00000" pt_clust_9="32.64592"></scales>
<clustering>
<clus scale="   32.646">  1  9  2 -1</clus>
<clus scale="   90.521">  5  6 -1 -1</clus>
<clus scale="   90.884">  7  8 -1 -1</clus>
<clus scale="  243.681">  2  5  1 -1</clus>
<clus scale="   32.646">  1  5  2 -1</clus>
</clustering>
</event>
<event>
 9    1  0.7835476E-005  0.1962979E+03  0.7546771E-02  0.1172188E+00
         21   -1    0    0  501  502  0.00000000000E+00  0.00000000000E+00  0.85836094163E+02  0.85836094163E+02  0.00000000000E+00 0. -1.
          1   -1    0    0  502    0 -0.00000000000E+00 -0.00000000000E+00 -0.77447880974E+03  0.77447880974E+03  0.00000000000E+00 0. -1.
         23    2    1    2    0    0 -0.46948916635E+02 -0.71623114010E+02 -0.16254977609E+03  0.20538513501E+03  0.91796256685E+02 0.  0.
        -24    2    1    2    0    0 -0.14851037261E+03  0.22433841655E+02 -0.34003530741E+03  0.38062818173E+03  0.81824167696E+02 0.  0.
         11    1    4    4    0    0 -0.10949935780E+03  0.15958352828E+02 -0.31488688903E+03  0.33376418511E+03  0.00000000000E+00 0. -1.
        -12    1    4    4    0    0 -0.39011014805E+02  0.64754888273E+01 -0.25148418382E+02  0.46863996616E+02  0.00000000000E+00 0.  1.
        -13    1    3    3    0    0 -0.74713260791E+02 -0.57452336888E+02 -0.12596680123E+03  0.15732284438E+03  0.00000000000E+00 0. -1.
         13    1    3    3    0    0  0.27764344156E+02 -0.14170777122E+02 -0.36582974861E+02  0.48062290628E+02  0.00000000000E+00 0.  1.
          2    1    1    2  501    0  0.19545928924E+03  0.49189272355E+02 -0.18605763207E+03  0.27430158716E+03  0.00000000000E+00 0. -1.
<scales pt_clust_5="13000.00000" pt_clust_6="13000.00000" pt_clust_7="13000.00000" pt_clust_8="13000.00000" pt_clust_9="178.43112"></scales>
<clustering>
<clus scale="   81.824">  5  6 -1 -1</clus>
<clus scale="   91.796">  7  8 -1 -1</clus>
<clus scale="  125.541">  2  7  1 -1</clus>
<clus scale="  178.431">  1  9  2 -1</clus>
<clus scale="  178.431">  1  5  2 -1</clus>
</clustering>
</event>
<event>
 9    1  0.9506288E-005  0.1201032E+03  0.7546771E-02  0.1246015E+00
         -2   -1    0    0    0  501 -0.00000000000E+00  0.00000000000E+00  0.61838476798E+03  0.61838476798E+03  0.00000000000E+00 0.  1.
         21   -1    0    0  501  502  0.00000000000E+00 -0.00000000000E+00 -0.13097979938E+03  0.13097979938E+03  0.00000000000E+00 0.  1.
        -24    2    1    2    0    0 -0.75725937084E+02  0.25442254662E+02  0.57054553402E+03  0.58196611380E+03  0.82344552683E+02 0.  0.
         23    2    1    2    0    0  0.29969718853E+02 -0.22627062118E+02 -0.59001664876E+02  0.11558876977E+03  0.92029339069E+02 0.  0.
         11    1    3    3    0    0 -0.34391794173E+02 -0.17917552004E+02  0.94219550387E+02  0.10188796716E+03  0.00000000000E+00 0. -1.
        -12    1    3    3    0    0 -0.41334142911E+02  0.43359806666E+02  0.47632598363E+03  0.48007814664E+03  0.00000000000E+00 0.  1.
        -13    1    4    4    0    0 -0.30344354146E+02  0.81491805869E+01 -0.14838253243E+02  0.34747125523E+02  0.00000000000E+00 0.  1.
         13    1    4    4    0    0  0.60314072999E+02 -0.30776242705E+02 -0.44163411633E+02  0.80841644242E+02  0.00000000000E+00 0. -1.
         -1    1    1    2    0  502  0.45756218231E+02 -0.28151925446E+01 -0.24138900540E+02  0.51809683797E+02  0.00000000000E+00 0.  1.
<scales pt_clust_5="13000.00000" pt_clust_6="13000.00000" pt_clust_7="13000.00000" pt_clust_8="13000.00000" pt_clust_9="45.84274"></scales>
<clustering>
<clus scale="   45.843">  2  9  1 -1</clus>
<clus scale="   82.345">  5  6 -1 -1</clus>
<clus scale="   92.029">  7  8 -1 -1</clus>
<clus scale="  112.854">  1  5  2 -1</clus>
<clus scale="   45.843">  2  5  1 -1</clus>
</clustering>
</event>
<event>
 9    1  0.7835476E-005  0.9740748E+02  0.7546771E-02  0.1292939E+00
         21   -1    0    0  501  502  0.00000000000E+00  0.00000000000E+00  0.51103453520E+03  0.51103453520E+03  0.00000000000E+00 0. -1.
          3   -1    0    0  502    0 -0.00000000000E+00 -0.00000000000E+00 -0.52139013014E+02  0.52139013014E+02  0.00000000000E+00 0. -1.
        -24    2    1    2    0    0 -0.24448101118E+02  0.12306164960E+02  0.14150849876E+02  0.84431959612E+02  0.78608892037E+02 0.  0.
         23    2    1    2    0    0  0.72025633751E+02  0.14424610620E+02  0.24524704471E+03  0.27191446419E+03  0.91627515452E+02 0.  0.
         13    1    3    3    0    0  0.23746695400E+02 -0.13491982782E+02 -0.21272632489E+01  0.27394605139E+02  0.00000000000E+00 0. -1.
        -14    1    3    3    0    0 -0.48194796518E+02  0.25798147742E+02  0.16278113125E+02  0.57037354473E+02  0.00000000000E+00 0.  1.
        -11    1    4    4    0    0  0.48071397968E+02 -0.36374651376E+02  0.14449684607E+03  0.15656727975E+03  0.00000000000E+00 0.  1.
         11    1    4    4    0    0  0.23954235783E+02  0.50799261996E+02  0.10075019864E+03  0.11534718444E+03  0.00000000000E+00 0. -1.
          4    1    1    2  501    0 -0.47577532633E+02 -0.26730775580E+02  0.19949762760E+03  0.20682712442E+03  0.00000000000E+00 0. -1.
<scales pt_clust_5="13000.00000" pt_clust_6="13000.00000" pt_clust_7="13000.00000" pt_clust_8="13000.00000" pt_clust_9="54.57248"></scales>
<clustering>
<clus scale="   54.572">  1  9  2 -1</clus>
<clus scale="   78.609">  5  6 -1 -1</clus>
<clus scale="   85.276">  2  5  1 -1</clus>
<clus scale="   91.628">  7  8 -1 -1</clus>
<clus scale="   54.572">  1  5  2 -1</clus>
</clustering>
</event>
<event>
 9    1  0.7835476E-005  0.1510328E+03  0.7546771E-02  0.1201022E+00
         21   -1    0    0  501  502  0.00000000000E+00  0.00000000000E+00  0.20930921537E+03  0.20930921537E+03  0.00000000000E+00 0. -1.
          1   -1    0    0  502    0 -0.00000000000E+00 -0.00000000000E+00 -0.16189187533E+03  0.16189187533E+03  0.00000000000E+00 0. -1.
         23    2    1    2    0    0  0.77455303033E+02 -0.12200989196E+03 -0.27169275056E+02  0.17312504007E+03  0.91369427537E+02 0.  0.
        -24    2    1    2    0    0 -0.68091076884E+02  0.64112964354E+02  0.41461922922E+02  0.13071888183E+03  0.81372403580E+02 0.  0.
         11    1    4    4    0    0 -0.75952459233E+02  0.19213505844E+02  0.24574360422E+02  0.82108672261E+02  0.00000000000E+00 0. -1.
        -12    1    4    4    0    0  0.78613823489E+01  0.44899458509E+02  0.16887562500E+02  0.48610209566E+02  0.00000000000E+00 0.  1.
        -13    1    3    3    0    0  0.59816755153E+02 -0.18839631429E+02 -0.27449041784E+02  0.68457474423E+02  0.00000000000E+00 0. -1.
         13    1    3    3    0    0  0.17638547880E+02 -0.10317026053E+03  0.27976672800E+00  0.10466756565E+03  0.00000000000E+00 0.  1.
          2    1    1    2  501    0 -0.93642261490E+01  0.57896927606E+02  0.33124692169E+02  0.67357168801E+02  0.00000000000E+00 0. -1.
<scales pt_clust_5="13000.00000" pt_clust_6="13000.00000" pt_clust_7="13000.00000" pt_clust_8="13000.00000" pt_clust_9="58.64932"></scales>
<clustering>
<clus scale="   58.649">  1  9  2 -1</clus>
<clus scale="   81.372">  5  6 -1 -1</clus>
<clus scale="   91.369">  7  8 -1 -1</clus>
<clus scale="  145.203">  1  5  2 -1</clus>
<clus scale="   58.649">  1  5  2 -1</clus>
</clustering>
</event>
<event>
 9    1  0.7835476E-005  0.1218434E+03  0.7546771E-02  0.1243846E+00
         21   -1    0    0  501  502  0.00000000000E+00  0.00000000000E+00  0.67272192124E+02  0.67272192124E+02  0.00000000000E+00 0. -1.
          1   -1    0    0  502    0 -0.00000000000E+00 -0.00000000000E+00 -0.67298665902E+03  0.67298665902E+03  0.00000000000E+00 0. -1.
        -24    2    1    2    0    0 -0.44899726104E+02 -0.65017730499E+02 -0.35797345506E+03  0.37476741261E+03  0.77860955208E+02 0.  0.
         23    2    1    2    0    0 -0.43998648620E+02  0.12417197807E+03 -0.17099137646E+03  0.23398990788E+03  0.90325328385E+02 0.  0.
         13    1    3    3    0    0 -0.67330341661E+02 -0.46730411634E+02 -0.26846715374E+03  0.28069862650E+03  0.00000000000E+00 0. -1.
        -14    1    3    3    0    0  0.22430615557E+02 -0.18287318864E+02 -0.89506301311E+02  0.94068786109E+02  0.00000000000E+00 0.  1.
        -13    1    4    4    0    0 -0.39426428503E+02  0.33051757128E+02 -0.11740353164E+03  0.12818132140E+03  0.00000000000E+00 0.  1.
         13    1    4    4    0    0 -0.45722201170E+01  0.91120220940E+02 -0.53587844824E+02  0.10580858648E+03  0.00000000000E+00 0. -1.
          2    1    1    2  501    0  0.88898374724E+02 -0.59154247570E+02 -0.76749635381E+02  0.13150153066E+03  0.00000000000E+00 0. -1.
<scales pt_clust_5="13000.00000" pt_clust_6="13000.00000" pt_clust_7="13000.00000" pt_clust_8="13000.00000" pt_clust_9="106.78083"></scales>
<clustering>
<clus scale="   77.861">  5  6 -1 -1</clus>
<clus scale="   90.325">  7  8 -1 -1</clus>
<clus scale="  106.781">  1  9  2 -1</clus>
<clus scale="  112.914">  2  5  1 -1</clus>
<clus scale="  106.781">  1  5  2 -1</clus>
</clustering>
</event>
<event>
 9    1  0.7835476E-005  0.9950776E+02  0.7546771E-02  0.1289736E+00
         21   -1    0    0  501  502  0.00000000000E+00  0.00000000000E+00  0.45015819136E+03  0.45015819136E+03  0.00000000000E+00 0. -1.
         -2   -1    0    0    0  501 -0.00000000000E+00 -0.00000000000E+00 -0.18841257729E+03  0.18841257729E+03  0.00000000000E+00 0.  1.
         23    2    1    2    0    0 -0.34243636796E+02 -0.15656229234E+02 -0.16671586828E+03  0.19406895494E+03  0.91928419775E+02 0.  0.
        -24    2    1    2    0    0  0.34406033217E+02  0.40557486575E+02  0.31567563310E+03  0.32899966317E+03  0.75901173864E+02 0.  0.
         11    1    4    4    0    0  0.48457275431E+02  0.11096840744E+02  0.25784792749E+03  0.26259627021E+03  0.00000000000E+00 0. -1.
        -12    1    4    4    0    0 -0.14051242214E+02  0.29460645831E+02  0.57827705605E+02  0.66403392956E+02  0.00000000000E+00 0.  1.
        -11    1    3    3    0    0 -0.23994889589E+02  0.11731724470E+02 -0.20073320561E+01  0.26784649846E+02  0.00000000000E+00 0. -1.
         11    1    3    3    0    0 -0.10248747207E+02 -0.27387953704E+02 -0.16470853622E+03  0.16728430510E+03  0.00000000000E+00 0.  1.
         -1    1    1    2    0  502 -0.16239642133E+00 -0.24901257341E+02  0.11278584924E+03  0.11550215054E+03  0.00000000000E+00 0.  1.
<scales pt_clust_5="13000.00000" pt_clust_6="13000.00000" pt_clust_7="13000.00000" pt_clust_8="13000.00000" pt_clust_9="24.90179"></scales>
<clustering>
<clus scale="   24.902">  1  9  2 -1</clus>
<clus scale="   75.901">  5  6 -1 -1</clus>
<clus scale="   84.923">  1  5  2 -1</clus>
<clus scale="   91.928">  7  8 -1 -1</clus>
<clus scale="   24.902">  1  5  2 -1</clus>
</clustering>
</event>
<event>
 9    1  0.7835476E-005  0.1314105E+03  0.7546771E-02  0.1228042E+00
         -2   -1    0    0    0  501 -0.00000000000E+00  0.00000000000E+00  0.12300790416E+03  0.12300790416E+03  0.00000000000E+00 0.  1.
         21   -1    0    0  501  502  0.00000000000E+00 -0.00000000000E+00 -0.28902091078E+03  0.28902091078E+03  0.00000000000E+00 0.  1.
        -24    2    1    2    0    0  0.46245492930E+02  0.75829287054E+02  0.38942070301E+02  0.12642219652E+03  0.81100928126E+02 0.  0.
         23    2    1    2    0    0 -0.79012669121E+02 -0.93798027908E+02 -0.19309401408E+03  0.24639886031E+03  0.91575259586E+02 0.  0.
         13    1    3    3    0    0  0.16979681660E+01  0.74845433894E+02  0.31610539021E+02  0.81264680199E+02  0.00000000000E+00 0. -1.
        -14    1    3    3    0    0  0.44547524764E+02  0.98385316009E+00  0.73315312796E+01  0.45157516324E+02  0.00000000000E+00 0.  1.
        -13    1    4    4    0    0 -0.46609388123E+02 -0.19484743830E+02 -0.14163710393E+03  0.15037672530E+03  0.00000000000E+00 0. -1.
         13    1    4    4    0    0 -0.32403280998E+02 -0.74313284078E+02 -0.51456910158E+02  0.96022135015E+02  0.00000000000E+00 0.  1.
         -1    1    1    2    0  502  0.32767176191E+02  0.17968740854E+02 -0.11861062834E+02  0.39207758097E+02  0.00000000000E+00 0.  1.
<scales pt_clust_5="13000.00000" pt_clust_6="13000.00000" pt_clust_7="13000.00000" pt_clust_8="13000.00000" pt_clust_9="37.37064"></scales>
<clustering>
<clus scale="   37.371">  2  9  1 -1</clus>
<clus scale="   81.101">  5  6 -1 -1</clus>
<clus scale="   91.575">  7  8 -1 -1</clus>
<clus scale="  124.338">  1  5  2 -1</clus>
<clus scale="   37.371">  2  5  1 -1</clus>
</clustering>
</event>
<event>
 9    1  0.7835476E-005  0.1810766E+03  0.7546771E-02  0.1185131E+00
          1   -1    0    0  502    0 -0.00000000000E+00  0.00000000000E+00  0.77539963050E+03  0.77539963050E+03  0.00000000000E+00 0. -1.
         21   -1    0    0  501  502  0.00000000000E+00 -0.00000000000E+00 -0.85256607729E+02  0.85256607729E+02  0.00000000000E+00 0.  1.
        -24    2    1    2    0    0  0.75523043176E+02 -0.46231971672E+02  0.23172477084E+03  0.26071289359E+03  0.80210461953E+02 0.  0.
         23    2    1    2    0    0 -0.15412983655E+03 -0.77189905379E+02  0.10927762912E+03  0.22137873695E+03  0.85747635188E+02 0.  0.
         11    1    3    3    0    0  0.27100322448E+02 -0.41147552429E+02  0.19095423886E+03  0.19720818920E+03  0.00000000000E+00 0. -1.
        -12    1    3    3    0    0  0.48422720729E+02 -0.50844192431E+01  0.40770531979E+02  0.63504704390E+02  0.00000000000E+00 0.  1.
        -13    1    4    4    0    0 -0.47460397470E+02 -0.65310465411E+02  0.70739487962E+02  0.10734067904E+03  0.00000000000E+00 0. -1.
         13    1    4    4    0    0 -0.10666943908E+03 -0.11879439968E+02  0.38538141162E+02  0.11403805791E+03  0.00000000000E+00 0.  1.
          2    1    1    2  501    0  0.78606793375E+02  0.12342187705E+03  0.34914062280E+03  0.37856460768E+03  0.00000000000E+00 0. -1.
<scales pt_clust_5="13000.00000" pt_clust_6="13000.00000" pt_clust_7="13000.00000" pt_clust_8="13000.00000" pt_clust_9="159.48697"></scales>
<clustering>
<clus scale="   80.210">  5  6 -1 -1</clus>
<clus scale="   85.748">  7  8 -1 -1</clus>
<clus scale="  119.477">  1  5  2 -1</clus>
<clus scale="  159.487">  2  9  1 -1</clus>
<clus scale="  159.487">  2  5  1 -1</clus>
</clustering>
</event>
<event>
 9    1  0.7835476E-005  0.3547084E+03  0.7546771E-02  0.1111117E+00
         -4   -1    0    0    0  501 -0.00000000000E+00  0.00000000000E+00  0.26628850102E+03  0.26628850102E+03  0.00000000000E+00 0.  1.
         21   -1    0    0  501  502  0.00000000000E+00 -0.00000000000E+00 -0.10804644754E+04  0.10804644754E+04  0.00000000000E+00 0. -1.
        -24    2    1    2    0    0 -0.44470205875E+02 -0.20547448394E+01 -0.46135043068E+02  0.10338737196E+03  0.81109095018E+02 0.  0.
         23    2    1    2    0    0  0.70612734946E+01  0.34409009149E+03 -0.82169139672E+03  0.89513295377E+03  0.87397945275E+02 0.  0.
         11    1    3    3    0    0 -0.40460648714E+02  0.25116975028E+02 -0.56622999455E+02  0.73987097498E+02  0.00000000000E+00 0. -1.
        -12    1    3    3    0    0 -0.40095571609E+01 -0.27171719868E+02  0.10487956386E+02  0.29400274461E+02  0.00000000000E+00 0.  1.
        -11    1    4    4    0    0  0.41349344689E+02  0.95373012294E+02 -0.24850903224E+03  0.26937430999E+03  0.00000000000E+00 0.  1.
         11    1    4    4    0    0 -0.34288071194E+02  0.24871707919E+03 -0.57318236448E+03  0.62575864378E+03  0.00000000000E+00 0. -1.
         -3    1    1    2    0  502  0.37408932380E+02 -0.34203534665E+03  0.53650465395E+02  0.34823265070E+03  0.00000000000E+00 0.  1.
<scales pt_clust_5="13000.00000" pt_clust_6="13000.00000" pt_clust_7="13000.00000" pt_clust_8="13000.00000" pt_clust_9="343.77284"></scales>
<clustering>
<clus scale="   81.109">  5  6 -1 -1</clus>
<clus scale="   87.398">  7  8 -1 -1</clus>
<clus scale="   92.523">  1  5  2 -1</clus>
<clus scale="  343.773">  2  9  1 -1</clus>
<clus scale="  343.773">  2  5  1 -1</clus>
</clustering>
</event>
<event>
 9    1  0.7835476E-005  0.9625699E+02  0.7546771E-02  0.1296711E+00
         -2   -1    0    0    0  501 -0.00000000000E+00  0.00000000000E+00  0.78672689344E+02  0.78672689344E+02  0.00000000000E+00 0.  1.
         21   -1    0    0  501  502  0.00000000000E+00 -0.00000000000E+00 -0.21485684047E+03  0.21485684047E+03  0.00000000000E+00 0.  1.
        -24    2    1    2    0    0 -0.93755245920E+01 -0.17981847301E+01  0.18022689347E+02  0.83635496898E+02  0.81110696461E+02 0.  0.
         23    2    1    2    0    0  0.34894215215E+02 -0.24743328635E+02 -0.12548777219E+03  0.16319884702E+03  0.95167453115E+02 0.  0.
         11    1    3    3    0    0  0.26696032364E+02  0.24400594469E+02  0.18622932265E+01  0.36215125162E+02  0.00000000000E+00 0. -1.
        -12    1    3    3    0    0 -0.36071556956E+02 -0.26198779199E+02  0.16160396121E+02  0.47420371736E+02  0.00000000000E+00 0.  1.
        -11    1    4    4    0    0  0.40324940995E+02  0.27445697393E+02 -0.40891328330E+02  0.63651142206E+02  0.00000000000E+00 0. -1.
         11    1    4    4    0    0 -0.54307257793E+01 -0.52189026028E+02 -0.84596443856E+02  0.99547704812E+02  0.00000000000E+00 0.  1.
         -1    1    1    2    0  502 -0.25518690623E+02  0.26541513365E+02 -0.28719068292E+02  0.46695185902E+02  0.00000000000E+00 0.  1.
<scales pt_clust_5="13000.00000" pt_clust_6="13000.00000" pt_clust_7="13000.00000" pt_clust_8="13000.00000" pt_clust_9="36.81923"></scales>
<clustering>
<clus scale="   36.819">  2  9  1 -1</clus>
<clus scale="   81.111">  5  6 -1 -1</clus>
<clus scale="   82.386">  1  5  2 -1</clus>
<clus scale="   95.167">  7  8 -1 -1</clus>
<clus scale="   36.819">  2  5  1 -1</clus>
</clustering>
</event>
<event>
 9    1  0.7835476E-005  0.1210042E+03  0.7546771E-02  0.1245248E+00
         21   -1    0    0  501  502  0.00000000000E+00  0.00000000000E+00  0.10214311974E+03  0.10214311974E+03  0.00000000000E+00 0.  1.
         -2   -1    0    0    0  501 -0.00000000000E+00 -0.00000000000E+00 -0.69533414745E+03  0.69533414745E+03  0.00000000000E+00 0.  1.
        -24    2    1    2    0    0  0.91082976395E+02 -0.13728718776E+02 -0.55531479465E+03  0.56872238700E+03  0.81154457775E+02 0.  0.
         23    2    1    2    0    0 -0.15667119215E+02 -0.50475380415E+02 -0.66032594413E+02  0.12578644546E+03  0.93105873515E+02 0.  0.
         11    1    3    3    0    0 -0.96751191943E+01 -0.19533086746E+02 -0.10425980918E+03  0.10651411746E+03  0.00000000000E+00 0. -1.
        -12    1    3    3    0    0  0.10075809559E+03  0.58043679702E+01 -0.45105498547E+03  0.46220826954E+03  0.00000000000E+00 0.  1.
        -11    1    4    4    0    0 -0.14083878972E+02 -0.75671073018E+02 -0.31868995320E+02  0.83307261396E+02  0.00000000000E+00 0.  1.
         11    1    4    4    0    0 -0.15832402435E+01  0.25195692603E+02 -0.34163599093E+02  0.42479184060E+02  0.00000000000E+00 0. -1.
         -1    1    1    2    0  502 -0.75415857180E+02  0.64204099191E+02  0.28156361343E+02  0.10296843473E+03  0.00000000000E+00 0.  1.
<scales pt_clust_5="13000.00000" pt_clust_6="13000.00000" pt_clust_7="13000.00000" pt_clust_8="13000.00000" pt_clust_9="99.04402"></scales>
<clustering>
<clus scale="   81.154">  5  6 -1 -1</clus>
<clus scale="   93.106">  7  8 -1 -1</clus>
<clus scale="   99.044">  1  9  2 -1</clus>
<clus scale="  112.069">  2  5  1 -1</clus>
<clus scale="   99.044">  1  5  2 -1</clus>
</clustering>
</event>
<event>
 9    1  0.7835476E-005  0.1352674E+03  0.7546771E-02  0.1222750E+00
          1   -1    0    0  502    0 -0.00000000000E+00  0.00000000000E+00  0.46938366285E+03  0.46938366285E+03  0.00000000000E+00 0. -1.
         21   -1    0    0  501  502  0.00000000000E+00 -0.00000000000E+00 -0.10160017174E+03  0.10160017174E+03  0.00000000000E+00 0. -1.
        -24    2    1    2    0    0 -0.78046284802E+02 -0.23849799549E+02  0.14818104876E+03  0.18595161519E+03  0.77203267214E+02 0.  0.
         23    2    1    2    0    0  0.99397915016E+02  0.77880418118E+02  0.26790460604E+03  0.30947893441E+03  0.89772088486E+02 0.  0.
         11    1    3    3    0    0 -0.24866994403E+02 -0.35562588031E+02  0.11319354050E+03  0.12122641086E+03  0.00000000000E+00 0. -1.
        -12    1    3    3    0    0 -0.53179290399E+02  0.11712788482E+02  0.34987508263E+02  0.64725204332E+02  0.00000000000E+00 0.  1.
        -13    1    4    4    0    0  0.30055503325E+02 -0.19173809444E+02  0.60995831203E+02  0.70650263077E+02  0.00000000000E+00 0.  1.
         13    1    4    4    0    0  0.69342411691E+02  0.97054227562E+02  0.20690877483E+03  0.23882867133E+03  0.00000000000E+00 0. -1.
          2    1    1    2  501    0 -0.21351630214E+02 -0.54030618569E+02 -0.48302163693E+02  0.75553284993E+02  0.00000000000E+00 0. -1.
<scales pt_clust_5="13000.00000" pt_clust_6="13000.00000" pt_clust_7="13000.00000" pt_clust_8="13000.00000" pt_clust_9="58.09647"></scales>
<clustering>
<clus scale="   58.096">  2  9  1 -1</clus>
<clus scale="   77.203">  5  6 -1 -1</clus>
<clus scale="   89.772">  7  8 -1 -1</clus>
<clus scale="  127.274">  1  5  2 -1</clus>
<clus scale="   58.096">  2  5  1 -1</clus>
</clustering>
</event>
<event>
 9    1  0.7835476E-005  0.1528807E+03  0.7546771E-02  0.1204830E+00
         21   -1    0    0  501  502  0.00000000000E+00  0.00000000000E+00  0.79726772624E+02  0.79726772624E+02  0.00000000000E+00 0.  1.
          3   -1    0    0  502    0 -0.00000000000E+00 -0.00000000000E+00 -0.59719186787E+03  0.59719186787E+03  0.00000000000E+00 0. -1.
         23    2    1    2    0    0  0.89936387649E+02  0.12013801766E+02 -0.10883938657E+03  0.16873560026E+03  0.91612256104E+02 0.  0.
        -24    2    1    2    0    0  0.41355343391E+02 -0.93282004074E+02 -0.27478564045E+03  0.30384214074E+03  0.80006884569E+02 0.  0.
         11    1    4    4    0    0  0.36008753648E+02 -0.85227740325E+02 -0.27851467740E+03  0.29348053358E+03  0.00000000000E+00 0. -1.
        -12    1    4    4    0    0  0.53465897430E+01 -0.80542637495E+01  0.37290369484E+01  0.10361607162E+02  0.00000000000E+00 0.  1.
        -11    1    3    3    0    0  0.79034685434E+02 -0.29437692989E+02 -0.58607762644E+02  0.10270311150E+03  0.00000000000E+00 0.  1.
         11    1    3    3    0    0  0.10901702215E+02  0.41451494755E+02 -0.50231623926E+02  0.66032488753E+02  0.00000000000E+00 0. -1.
          4    1    1    2  501    0 -0.13129173104E+03  0.81268202308E+02 -0.13384006822E+03  0.20434089950E+03  0.00000000000E+00 0. -1.
<scales pt_clust_5="13000.00000" pt_clust_6="13000.00000" pt_clust_7="13000.00000" pt_clust_8="13000.00000" pt_clust_9="130.27436"></scales>
<clustering>
<clus scale="   80.007">  5  6 -1 -1</clus>
<clus scale="   91.612">  7  8 -1 -1</clus>
<clus scale="  128.941">  2  7  1 -1</clus>
<clus scale="  130.274">  1  9  2 -1</clus>
<clus scale="  130.274">  1  5  2 -1</clus>
</clustering>
</event>
<event>
 9    1  0.7835476E-005  0.1261576E+03  0.7546771E-02  0.1236384E+00
         -2   -1    0    0    0  501 -0.00000000000E+00  0.00000000000E+00  0.30387053469E+03  0.30387053469E+03  0.00000000000E+00 0.  1.
         21   -1    0    0  501  502  0.00000000000E+00 -0.00000000000E+00 -0.14841188388E+03  0.14841188388E+03  0.00000000000E+00 0.  1.
        -24    2    1    2    0    0  0.71923049896E+02 -0.66916161244E+02  0.23565760021E+03  0.26789771479E+03  0.81141748253E+02 0.  0.
         23    2    1    2    0    0 -0.19564161934E+02  0.31704545183E+02 -0.30178245369E+02  0.10386525342E+03  0.92137558884E+02 0.  0.
         13    1    3    3    0    0  0.57854088467E+02 -0.50553270112E-01  0.89718807901E+02  0.10675468420E+03  0.00000000000E+00 0. -1.
        -14    1    3    3    0    0  0.14068961429E+02 -0.66865607974E+02  0.14593879231E+03  0.16114303059E+03  0.00000000000E+00 0.  1.
        -11    1    4    4    0    0  0.28186520518E+02  0.41451399671E+02 -0.99825327385E+01  0.51111147839E+02  0.00000000000E+00 0.  1.
         11    1    4    4    0    0 -0.47750682451E+02 -0.97468544885E+01 -0.20195712631E+02  0.52754105581E+02  0.00000000000E+00 0. -1.
         -1    1    1    2    0  502 -0.52358887962E+02  0.35211616062E+02 -0.50020704037E+02  0.80519450362E+02  0.00000000000E+00 0.  1.
<scales pt_clust_5="13000.00000" pt_clust_6="13000.00000" pt_clust_7="13000.00000" pt_clust_8="13000.00000" pt_clust_9="63.09763"></scales>
<clustering>
<clus scale="   63.098">  2  9  1 -1</clus>
<clus scale="   81.142">  5  6 -1 -1</clus>
<clus scale="   92.138">  7  8 -1 -1</clus>
<clus scale="  118.365">  1  5  2 -1</clus>
<clus scale="   63.098">  2  5  1 -1</clus>
</clustering>
</event>
<event>
 9    1  0.7835476E-005  0.1400571E+03  0.7546771E-02  0.1216343E+00
          1   -1    0    0  502    0 -0.00000000000E+00  0.00000000000E+00  0.21632211702E+04  0.21632211702E+04  0.00000000000E+00 0. -1.
         21   -1    0    0  501  502  0.00000000000E+00 -0.00000000000E+00 -0.27083071336E+02  0.27083071336E+02  0.00000000000E+00 0. -1.
        -24    2    1    2    0    0  0.23939458414E+01 -0.10415575720E+03  0.79755142447E+03  0.80826793358E+03  0.79715902147E+02 0.  0.
         23    2    1    2    0    0 -0.10679285756E+03  0.18728544181E+02  0.26935361584E+03  0.30432749987E+03  0.91150337483E+02 0.  0.
         13    1    3    3    0    0  0.24779827295E+02 -0.88808230169E+02  0.43299956200E+03  0.44270708406E+03  0.00000000000E+00 0. -1.
        -14    1    3    3    0    0 -0.22385881454E+02 -0.15347527028E+02  0.36455186247E+03  0.36556084952E+03  0.00000000000E+00 0.  1.
        -13    1    4    4    0    0  0.40370891898E+01  0.27779702162E+02  0.34492024412E+02  0.44471448025E+02  0.00000000000E+00 0.  1.
         13    1    4    4    0    0 -0.11082994675E+03 -0.90511579814E+01  0.23486159142E+03  0.25985605185E+03  0.00000000000E+00 0. -1.
          2    1    1    2  501    0  0.10439891172E+03  0.85427213017E+02  0.10692330585E+04  0.10777088081E+04  0.00000000000E+00 0. -1.
<scales pt_clust_5="13000.00000" pt_clust_6="13000.00000" pt_clust_7="13000.00000" pt_clust_8="13000.00000" pt_clust_9="106.33731"></scales>
<clustering>
<clus scale="   79.716">  5  6 -1 -1</clus>
<clus scale="   91.150">  7  8 -1 -1</clus>
<clus scale="  131.182">  1  5  2 -1</clus>
<clus scale="  106.337">  2  9  1 -1</clus>
<clus scale="  106.337">  2  5  1 -1</clus>
</clustering>
</event>
<event>
 9    1  0.7835476E-005  0.1071082E+03  0.7546771E-02  0.1271270E+00
         -4   -1    0    0    0  501 -0.00000000000E+00  0.00000000000E+00  0.13386113508E+03  0.13386113508E+03  0.00000000000E+00 0.  1.
         21   -1    0    0  501  502  0.00000000000E+00 -0.00000000000E+00 -0.12857376928E+03  0.12857376928E+03  0.00000000000E+00 0. -1.
        -24    2    1    2    0    0  0.41877103444E+02  0.30028000206E+02  0.41408199629E+02  0.10397281670E+03  0.80251697967E+02 0.  0.
         23    2    1    2    0    0 -0.65630405537E+02 -0.91028133073E+01 -0.49534629450E+02  0.12408167579E+03  0.92479032279E+02 0.  0.
         13    1    3    3    0    0  0.10827476271E+00 -0.25702259597E+02  0.10144375905E+02  0.27631978473E+02  0.00000000000E+00 0. -1.
        -14    1    3    3    0    0  0.41768828681E+02  0.55730259803E+02  0.31263823724E+02  0.76340838226E+02  0.00000000000E+00 0.  1.
        -11    1    4    4    0    0  0.48812880549E+01  0.21924552870E+02 -0.40770618062E+02  0.46548429498E+02  0.00000000000E+00 0. -1.
         11    1    4    4    0    0 -0.70511693592E+02 -0.31027366177E+02 -0.87640113882E+01  0.77533246293E+02  0.00000000000E+00 0.  1.
         -3    1    1    2    0  502  0.23753302093E+02 -0.20925186899E+02  0.13413795621E+02  0.34380411866E+02  0.00000000000E+00 0.  1.
<scales pt_clust_5="13000.00000" pt_clust_6="13000.00000" pt_clust_7="13000.00000" pt_clust_8="13000.00000" pt_clust_9="31.65571"></scales>
<clustering>
<clus scale="   31.656">  2  9  1 -1</clus>
<clus scale="   80.252">  5  6 -1 -1</clus>
<clus scale="   92.479">  7  8 -1 -1</clus>
<clus scale="   96.748">  1  5  2 -1</clus>
<clus scale="   31.656">  2  5  1 -1</clus>
</clustering>
</event>
<event>
 9    1  0.7835476E-005  0.1217535E+03  0.7546771E-02  0.1243459E+00
         21   -1    0    0  501  502  0.00000000000E+00  0.00000000000E+00  0.19633903692E+03  0.19633903692E+03  0.00000000000E+00 0. -1.
          1   -1    0    0  502    0 -0.00000000000E+00 -0.00000000000E+00 -0.33962484691E+03  0.33962484691E+03  0.00000000000E+00 0. -1.
         23    2    1    2    0    0  0.65746761695E+02  0.51136732160E+02 -0.29665545640E+03  0.32138688659E+03  0.91364484418E+02 0.  0.
        -24    2    1    2    0    0 -0.33211960566E+02 -0.52862945824E+02  0.66674425512E+02  0.12196190979E+03  0.80818952337E+02 0.  0.
         11    1    4    4    0    0  0.98319120637E+01 -0.30063602575E+02  0.66067546244E+02  0.73248941026E+02  0.00000000000E+00 0. -1.
        -12    1    4    4    0    0 -0.43043872630E+02 -0.22799343249E+02  0.60687926751E+00  0.48712968766E+02  0.00000000000E+00 0.  1.
        -11    1    3    3    0    0  0.31607293695E+02  0.68448358887E+02 -0.12899031655E+03  0.14940783317E+03  0.00000000000E+00 0.  1.
         11    1    3    3    0    0  0.34139468000E+02 -0.17311626727E+02 -0.16766513985E+03  0.17197905342E+03  0.00000000000E+00 0. -1.
          2    1    1    2  501    0 -0.32534801129E+02  0.17262136639E+01  0.86695220889E+02  0.92615087448E+02  0.00000000000E+00 0. -1.
<scales pt_clust_5="13000.00000" pt_clust_6="13000.00000" pt_clust_7="13000.00000" pt_clust_8="13000.00000" pt_clust_9="32.58056"></scales>
<clustering>
<clus scale="   32.581">  1  9  2 -1</clus>
<clus scale="   80.819">  5  6 -1 -1</clus>
<clus scale="   91.364">  7  8 -1 -1</clus>
<clus scale="  114.053">  1  5  2 -1</clus>
<clus scale="   32.581">  1  5  2 -1</clus>
</clustering>
</event>
<event>
 9    1  0.7835476E-005  0.1279955E+03  0.7546771E-02  0.1242530E+00
         21   -1    0    0  501  502  0.00000000000E+00  0.00000000000E+00  0.33392597870E+02  0.33392597870E+02  0.00000000000E+00 0.  1.
         -2   -1    0    0    0  501 -0.00000000000E+00 -0.00000000000E+00 -0.90832145566E+03  0.90832145566E+03  0.00000000000E+00 0.  1.
        -24    2    1    2    0    0 -0.39811837787E+02 -0.47723755693E+02 -0.39835124295E+03  0.41071805409E+03  0.78377725878E+02 0.  0.
         23    2    1    2    0    0  0.44050421226E+02 -0.56322416443E+02 -0.34237598034E+03  0.36113237700E+03  0.89903434841E+02 0.  0.
         11    1    3    3    0    0 -0.50056628686E+02 -0.56319486775E+01 -0.14058648592E+03  0.14933835724E+03  0.00000000000E+00 0. -1.
        -12    1    3    3    0    0  0.10244790898E+02 -0.42091807016E+02 -0.25776475703E+03  0.26137969685E+03  0.00000000000E+00 0.  1.
        -11    1    4    4    0    0  0.40196603245E+02 -0.29770908798E+00 -0.53886928623E+02  0.67228391470E+02  0.00000000000E+00 0.  1.
         11    1    4    4    0    0  0.38538179808E+01 -0.56024707355E+02 -0.28848905172E+03  0.29390398553E+03  0.00000000000E+00 0. -1.
         -1    1    1    2    0  502 -0.42385834388E+01  0.10404617214E+03 -0.13420163450E+03  0.16986362244E+03  0.00000000000E+00 0.  1.
<scales pt_clust_5="13000.00000" pt_clust_6="13000.00000" pt_clust_7="13000.00000" pt_clust_8="13000.00000" pt_clust_9="91.10558"></scales>
<clustering>
<clus scale="   78.378">  5  6 -1 -1</clus>
<clus scale="   89.903">  7  8 -1 -1</clus>
<clus scale="  100.028">  2  5  1 -1</clus>
<clus scale="   91.106">  1  9  2 -1</clus>
<clus scale="   91.106">  1  5  2 -1</clus>
</clustering>
</event>
<event>
 9    1  0.7835476E-005  0.9250737E+02  0.7546771E-02  0.1303283E+00
         -2   -1    0    0    0  501 -0.00000000000E+00  0.00000000000E+00  0.83911998144E+02  0.83911998144E+02  0.00000000000E+00 0.  1.
         21   -1    0    0  501  502  0.00000000000E+00 -0.00000000000E+00 -0.21341187193E+03  0.21341187193E+03  0.00000000000E+00 0.  1.
        -24    2    1    2    0    0  0.81683320164E+00 -0.15588899057E+02  0.30582849050E+02  0.88408456326E+02  0.81468174790E+02 0.  0.
         23    2    1    2    0    0 -0.21187388124E+02 -0.15897704815E+02 -0.12669857256E+03  0.15870717517E+03  0.91835705086E+02 0.  0.
         13    1    3    3    0    0 -0.20397756036E+02  0.99437011855E+01 -0.18415037113E+02  0.29224291889E+02  0.00000000000E+00 0. -1.
        -14    1    3    3    0    0  0.21214589237E+02 -0.25532600242E+02  0.48997886163E+02  0.59184164436E+02  0.00000000000E+00 0.  1.
        -13    1    4    4    0    0 -0.57040231104E+02 -0.17060529650E+02 -0.74411692087E+02  0.95298213811E+02  0.00000000000E+00 0.  1.
         13    1    4    4    0    0  0.35852842980E+02  0.11628248358E+01 -0.52286880476E+02  0.63408961364E+02  0.00000000000E+00 0. -1.
         -1    1    1    2    0  502  0.20370554922E+02  0.31486603871E+02 -0.33384150271E+02  0.50208238572E+02  0.00000000000E+00 0.  1.
<scales pt_clust_5="13000.00000" pt_clust_6="13000.00000" pt_clust_7="13000.00000" pt_clust_8="13000.00000" pt_clust_9="37.50154"></scales>
<clustering>
<clus scale="   37.502">  2  9  1 -1</clus>
<clus scale="   81.468">  5  6 -1 -1</clus>
<clus scale="   82.225">  1  5  2 -1</clus>
<clus scale="   91.836">  7  8 -1 -1</clus>
<clus scale="   37.502">  2  5  1 -1</clus>
</clustering>
</event>
<event>
 9    1  0.7835476E-005  0.9330352E+02  0.7546771E-02  0.1301435E+00
         21   -1    0    0  501  502  0.00000000000E+00  0.00000000000E+00  0.30844602580E+03  0.30844602580E+03  0.00000000000E+00 0.  1.
          3   -1    0    0  502    0 -0.00000000000E+00 -0.00000000000E+00 -0.79160357563E+02  0.79160357563E+02  0.00000000000E+00 0. -1.
         23    2    1    2    0    0  0.17347534911E+02  0.14007649538E+01  0.29515311896E+01  0.91004888031E+02  0.89276419055E+02 0.  0.
        -24    2    1    2    0    0 -0.13536791349E+02 -0.54404162678E+02  0.42599113247E+02  0.10533612756E+03  0.78345119081E+02 0.  0.
         13    1    4    4    0    0 -0.88796195188E+01 -0.37553974485E+02 -0.17771706253E+02  0.42485081917E+02  0.00000000000E+00 0. -1.
        -14    1    4    4    0    0 -0.46571718303E+01 -0.16850188194E+02  0.60370819501E+02  0.62851045646E+02  0.00000000000E+00 0.  1.
        -13    1    3    3    0    0  0.35103182777E+02 -0.29044770845E+02 -0.19129683581E+02  0.49414339502E+02  0.00000000000E+00 0.  1.
         13    1    3    3    0    0 -0.17755647866E+02  0.30445535799E+02  0.22081214770E+02  0.41590548529E+02  0.00000000000E+00 0. -1.
          4    1    1    2  501    0 -0.38107435618E+01  0.53003397725E+02  0.18373502380E+03  0.19126536776E+03  0.00000000000E+00 0. -1.
<scales pt_clust_5="13000.00000" pt_clust_6="13000.00000" pt_clust_7="13000.00000" pt_clust_8="13000.00000" pt_clust_9="53.14021"></scales>
<clustering>
<clus scale="   53.140">  1  9  2 -1</clus>
<clus scale="   78.345">  5  6 -1 -1</clus>
<clus scale="   82.905">  1  5  2 -1</clus>
<clus scale="   89.276">  7  8 -1 -1</clus>
<clus scale="   53.140">  1  5  2 -1</clus>
</clustering>
</event>
<event>
 9    1  0.7835476E-005  0.1204001E+03  0.7546771E-02  0.1245555E+00
         21   -1    0    0  501  502  0.00000000000E+00  0.00000000000E+00  0.15766191570E+03  0.15766191570E+03  0.00000000000E+00 0.  1.
         -4   -1    0    0    0  501 -0.00000000000E+00 -0.00000000000E+00 -0.22465103686E+03  0.22465103686E+03  0.00000000000E+00 0.  1.
         23    2    1    2    0    0 -0.50267343799E+02 -0.55872253979E+02 -0.99789314667E+02  0.15509533144E+03  0.91913763364E+02 0.  0.
        -24    2    1    2    0    0 -0.10275068826E+02  0.10402885638E+03 -0.18807137161E+02  0.13422429524E+03  0.82066272153E+02 0.  0.
         11    1    4    4    0    0  0.21036931329E+02  0.64621667939E+02 -0.40833032078E+02  0.79283346017E+02  0.00000000000E+00 0. -1.
        -12    1    4    4    0    0 -0.31312000155E+02  0.39407188439E+02  0.22025894917E+02  0.54940949221E+02  0.00000000000E+00 0.  1.
        -13    1    3    3    0    0 -0.54211052228E+02 -0.75581125149E+02 -0.97688022873E+02  0.13488622789E+03  0.00000000000E+00 0.  1.
         13    1    3    3    0    0  0.39437084290E+01  0.19708871170E+02 -0.21012917933E+01  0.20209103547E+02  0.00000000000E+00 0. -1.
         -3    1    1    2    0  502  0.60542412624E+02 -0.48156602399E+02  0.51607330668E+02  0.92993325888E+02  0.00000000000E+00 0.  1.
<scales pt_clust_5="13000.00000" pt_clust_6="13000.00000" pt_clust_7="13000.00000" pt_clust_8="13000.00000" pt_clust_9="77.35918"></scales>
<clustering>
<clus scale="   77.359">  1  9  2 -1</clus>
<clus scale="   82.066">  5  6 -1 -1</clus>
<clus scale="   91.914">  7  8 -1 -1</clus>
<clus scale="  113.062">  1  5  2 -1</clus>
<clus scale="   77.359">  1  5  2 -1</clus>
</clustering>
</event>
<event>
 9    1  0.7835476E-005  0.3382617E+03  0.7546771E-02  0.1110499E+00
          1   -1    0    0  502    0 -0.00000000000E+00  0.00000000000E+00  0.13066766093E+04  0.13066766093E+04  0.00000000000E+00 0. -1.
         21   -1    0    0  501  502  0.00000000000E+00 -0.00000000000E+00 -0.23892555609E+03  0.23892555609E+03  0.00000000000E+00 0. -1.
         23    2    1    2    0    0 -0.48989583818E+02  0.15949965970E+02  0.69470377009E+02  0.12873015444E+03  0.95346413900E+02 0.  0.
        -24    2    1    2    0    0 -0.25093454734E+03  0.13281632506E+03  0.10385474453E+04  0.10796668709E+04  0.80569428248E+02 0.  0.
         13    1    4    4    0    0 -0.24989054117E+03  0.11125124699E+03  0.96266347903E+03  0.10007712508E+04  0.00000000000E+00 0. -1.
        -14    1    4    4    0    0 -0.10440061769E+01  0.21565078064E+02  0.75883966259E+02  0.78895620132E+02  0.00000000000E+00 0.  1.
        -13    1    3    3    0    0 -0.68455919587E+02 -0.12849551227E+02  0.61837315576E+02  0.93140632867E+02  0.00000000000E+00 0. -1.
         13    1    3    3    0    0  0.19466335769E+02  0.28799517197E+02  0.76330614330E+01  0.35589521574E+02  0.00000000000E+00 0.  1.
          2    1    1    2  501    0  0.29992413116E+03 -0.14876629103E+03 -0.40266769063E+02  0.33720514007E+03  0.00000000000E+00 0. -1.
<scales pt_clust_5="13000.00000" pt_clust_6="13000.00000" pt_clust_7="13000.00000" pt_clust_8="13000.00000" pt_clust_9="328.52635"></scales>
<clustering>
<clus scale="   80.569">  5  6 -1 -1</clus>
<clus scale="   95.346">  7  8 -1 -1</clus>
<clus scale="  108.376">  1  7  2 -1</clus>
<clus scale="  328.526">  2  9  1 -1</clus>
<clus scale="  328.526">  2  5  1 -1</clus>
</clustering>
</event>
<event>
 9    1  0.7835476E-005  0.1262666E+03  0.7546771E-02  0.1236551E+00
         21   -1    0    0  501  502  0.00000000000E+00  0.00000000000E+00  0.22729897786E+02  0.22729897786E+02  0.00000000000E+00 0. -1.
          1   -1    0    0  502    0 -0.00000000000E+00 -0.00000000000E+00 -0.12265961429E+04  0.12265961429E+04  0.00000000000E+00 0. -1.
        -24    2    1    2    0    0 -0.56637864877E+02 -0.22883556490E+02 -0.24506312233E+03  0.26428361852E+03  0.77835674326E+02 0.  0.
         23    2    1    2    0    0  0.91004865859E+02  0.79211186261E+02 -0.52338476305E+03  0.54465277580E+03  0.90325734726E+02 0.  0.
         13    1    3    3    0    0 -0.76124920168E+02 -0.14833642707E+02 -0.20073692081E+03  0.21519840102E+03  0.00000000000E+00 0. -1.
        -14    1    3    3    0    0  0.19487055291E+02 -0.80499137829E+01 -0.44326201524E+02  0.49085217503E+02  0.00000000000E+00 0.  1.
        -11    1    4    4    0    0  0.36552539085E+02  0.83326807460E+02 -0.39099341272E+03  0.40144151971E+03  0.00000000000E+00 0.  1.
         11    1    4    4    0    0  0.54452326774E+02 -0.41156211990E+01 -0.13239135033E+03  0.14321125609E+03  0.00000000000E+00 0. -1.
          2    1    1    2  501    0 -0.34367000982E+02 -0.56327629771E+02 -0.43541835975E+03  0.44038964638E+03  0.00000000000E+00 0. -1.
<scales pt_clust_5="13000.00000" pt_clust_6="13000.00000" pt_clust_7="13000.00000" pt_clust_8="13000.00000" pt_clust_9="65.98407"></scales>
<clustering>
<clus scale="   65.984">  1  9  2 -1</clus>
<clus scale="   77.836">  5  6 -1 -1</clus>
<clus scale="   90.326">  7  8 -1 -1</clus>
<clus scale="  117.656">  2  5  1 -1</clus>
<clus scale="   65.984">  1  5  2 -1</clus>
</clustering>
</event>
<event>
 9    1  0.7835476E-005  0.1231038E+03  0.7546771E-02  0.1243023E+00
         21   -1    0    0  501  502  0.00000000000E+00  0.00000000000E+00  0.25312406420E+03  0.25312406420E+03  0.00000000000E+00 0. -1.
         -2   -1    0    0    0  501 -0.00000000000E+00 -0.00000000000E+00 -0.13355442653E+03  0.13355442653E+03  0.00000000000E+00 0.  1.
         23    2    1    2    0    0 -0.41009155483E+01  0.80008364835E+02 -0.58392596847E+02  0.13642945822E+03  0.93729108348E+02 0.  0.
        -24    2    1    2    0    0 -0.16865455714E+02 -0.79244414546E+02  0.53971565907E+02  0.12449586854E+03  0.77602645082E+02 0.  0.
         11    1    4    4    0    0 -0.16230157316E+02 -0.89213601196E+02  0.25310825736E+02  0.94144158312E+02  0.00000000000E+00 0. -1.
        -12    1    4    4    0    0 -0.63529839838E+00  0.99691866505E+01  0.28660740172E+02  0.30351710227E+02  0.00000000000E+00 0.  1.
        -11    1    3    3    0    0  0.15265871054E+02  0.94162301817E+02 -0.31650817355E+02  0.10050552294E+03  0.00000000000E+00 0.  1.
         11    1    3    3    0    0 -0.19366786603E+02 -0.14153936983E+02 -0.26741779493E+02  0.35923935278E+02  0.00000000000E+00 0. -1.
         -1    1    1    2    0  502  0.20966371263E+02 -0.76395028927E+00  0.12399066862E+03  0.12575316397E+03  0.00000000000E+00 0.  1.
<scales pt_clust_5="13000.00000" pt_clust_6="13000.00000" pt_clust_7="13000.00000" pt_clust_8="13000.00000" pt_clust_9="20.98028"></scales>
<clustering>
<clus scale="   20.980">  1  9  2 -1</clus>
<clus scale="   77.603">  5  6 -1 -1</clus>
<clus scale="   93.729">  7  8 -1 -1</clus>
<clus scale="  111.317">  1  5  2 -1</clus>
<clus scale="   20.980">  1  5  2 -1</clus>
</clustering>
</event>
<event>
 9    1  0.7835476E-005  0.1986309E+03  0.7546771E-02  0.1152365E+00
          3   -1    0    0  502    0 -0.00000000000E+00  0.00000000000E+00  0.35385286906E+03  0.35385286906E+03  0.00000000000E+00 0. -1.
         21   -1    0    0  501  502  0.00000000000E+00 -0.00000000000E+00 -0.17662432896E+03  0.17662432896E+03  0.00000000000E+00 0. -1.
        -24    2    1    2    0    0 -0.14074793467E+03  0.75472839634E+02  0.35267861714E+02  0.18280642649E+03  0.81659272947E+02 0.  0.
         23    2    1    2    0    0  0.13958874531E+03 -0.13697015162E+03  0.30266400773E+02  0.22016047881E+03  0.96481817780E+02 0.  0.
         11    1    3    3    0    0 -0.43508800431E+02  0.92745169995E+01 -0.24578342921E+02  0.50824475612E+02  0.00000000000E+00 0. -1.
        -12    1    3    3    0    0 -0.97239134240E+02  0.66198322634E+02  0.59846204634E+02  0.13198195087E+03  0.00000000000E+00 0.  1.
        -13    1    4    4    0    0  0.48804016783E+02 -0.11368175969E+03  0.25497574280E+02  0.12631508554E+03  0.00000000000E+00 0.  1.
         13    1    4    4    0    0  0.90784728523E+02 -0.23288391928E+02  0.47688264934E+01  0.93845393268E+02  0.00000000000E+00 0. -1.
          4    1    1    2  501    0  0.11591893657E+01  0.61497311982E+02  0.11169427761E+03  0.12751029273E+03  0.00000000000E+00 0. -1.
<scales pt_clust_5="13000.00000" pt_clust_6="13000.00000" pt_clust_7="13000.00000" pt_clust_8="13000.00000" pt_clust_9="61.50827"></scales>
<clustering>
<clus scale="   61.508">  2  9  1 -1</clus>
<clus scale="   81.659">  5  6 -1 -1</clus>
<clus scale="   96.482">  7  8 -1 -1</clus>
<clus scale="  191.869">  1  5  2 -1</clus>
<clus scale="   61.508">  2  5  1 -1</clus>
</clustering>
</event>
<event>
 9    1  0.7835476E-005  0.9424068E+02  0.7546771E-02  0.1299382E+00
         21   -1    0    0  501  502  0.00000000000E+00  0.00000000000E+00  0.11041430299E+03  0.11041430299E+03  0.00000000000E+00 0. -1.
          1   -1    0    0  502    0 -0.00000000000E+00 -0.00000000000E+00 -0.28274549587E+03  0.28274549587E+03  0.00000000000E+00 0. -1.
         23    2    1    2    0    0 -0.29526625726E+01  0.49772135664E+01 -0.16915410017E+03  0.19249840254E+03  0.91700787918E+02 0.  0.
        -24    2    1    2    0    0  0.12878509562E+02 -0.79400430611E+02 -0.34896708198E+02  0.11915390168E+03  0.80682015676E+02 0.  0.
         11    1    4    4    0    0  0.25333702823E+02 -0.91582629596E+02 -0.36197656445E+02  0.10168306090E+03  0.00000000000E+00 0. -1.
        -12    1    4    4    0    0 -0.12455193261E+02  0.12182198984E+02  0.13009482466E+01  0.17470840781E+02  0.00000000000E+00 0.  1.
        -11    1    3    3    0    0  0.34807147368E+02 -0.13106978479E+02 -0.12985557784E+03  0.13507702058E+03  0.00000000000E+00 0.  1.
         11    1    3    3    0    0 -0.37759809941E+02  0.18084192046E+02 -0.39298522332E+02  0.57421381960E+02  0.00000000000E+00 0. -1.
          2    1    1    2  501    0 -0.99258469892E+01  0.74423217045E+02  0.31719615491E+02  0.81507494629E+02  0.00000000000E+00 0. -1.
<scales pt_clust_5="13000.00000" pt_clust_6="13000.00000" pt_clust_7="13000.00000" pt_clust_8="13000.00000" pt_clust_9="75.08221"></scales>
<clustering>
<clus scale="   75.082">  1  9  2 -1</clus>
<clus scale="   80.682">  5  6 -1 -1</clus>
<clus scale="   83.558">  1  5  2 -1</clus>
<clus scale="   91.701">  7  8 -1 -1</clus>
<clus scale="   75.082">  1  5  2 -1</clus>
</clustering>
</event>
<event>
 9    1  0.7835476E-005  0.1226739E+03  0.7546771E-02  0.1242959E+00
         -2   -1    0    0    0  501 -0.00000000000E+00  0.00000000000E+00  0.10265889135E+03  0.10265889135E+03  0.00000000000E+00 0.  1.
         21   -1    0    0  501  502  0.00000000000E+00 -0.00000000000E+00 -0.34108824926E+03  0.34108824926E+03  0.00000000000E+00 0. -1.
         23    2    1    2    0    0 -0.41770342410E+02  0.82692132000E+02 -0.11363002566E+02  0.12949918290E+03  0.89767312235E+02 0.  0.
        -24    2    1    2    0    0  0.72048851853E+02 -0.19173480968E+02 -0.21909821815E+03  0.24343201054E+03  0.75474864252E+02 0.  0.
         11    1    4    4    0    0  0.18510436873E+02  0.22067813935E+02 -0.12051061264E+03  0.12390493309E+03  0.00000000000E+00 0. -1.
        -12    1    4    4    0    0  0.53538414979E+02 -0.41241294903E+02 -0.98587605506E+02  0.11952707745E+03  0.00000000000E+00 0.  1.
        -11    1    3    3    0    0 -0.49796297181E+02  0.41204551048E+01 -0.26013293471E+01  0.50034151113E+02  0.00000000000E+00 0.  1.
         11    1    3    3    0    0  0.80259547712E+01  0.78571676895E+02 -0.87616732185E+01  0.79465031792E+02  0.00000000000E+00 0. -1.
         -1    1    1    2    0  502 -0.30278509443E+02 -0.63518651033E+02 -0.79681372006E+01  0.70815947170E+02  0.00000000000E+00 0.  1.
<scales pt_clust_5="13000.00000" pt_clust_6="13000.00000" pt_clust_7="13000.00000" pt_clust_8="13000.00000" pt_clust_9="70.36627"></scales>
<clustering>
<clus scale="   70.366">  2  9  1 -1</clus>
<clus scale="   75.475">  5  6 -1 -1</clus>
<clus scale="   89.767">  7  8 -1 -1</clus>
<clus scale="  112.637">  2  5  1 -1</clus>
<clus scale="   70.366">  2  5  1 -1</clus>
</clustering>
</event>
<event>
 9    1  0.7835476E-005  0.2014055E+03  0.7546771E-02  0.1149378E+00
          1   -1    0    0  502    0 -0.00000000000E+00  0.00000000000E+00  0.13707970909E+04  0.13707970909E+04  0.00000000000E+00 0. -1.
         21   -1    0    0  501  502  0.00000000000E+00 -0.00000000000E+00 -0.35578570073E+02  0.35578570073E+02  0.00000000000E+00 0. -1.
         23    2    1    2    0    0 -0.14132583119E+03  0.13115235424E+03  0.75716160940E+03  0.78654117143E+03  0.90439930482E+02 0.  0.
        -24    2    1    2    0    0  0.10454125777E+03 -0.12724226654E+03  0.43787390633E+03  0.47485287503E+03  0.81438480522E+02 0.  0.
         11    1    4    4    0    0  0.68086943448E+02 -0.25471371074E+02  0.13605303160E+03  0.15425644239E+03  0.00000000000E+00 0. -1.
        -12    1    4    4    0    0  0.36454314323E+02 -0.10177089547E+03  0.30182087473E+03  0.32059643264E+03  0.00000000000E+00 0.  1.
        -13    1    3    3    0    0 -0.12102415756E+03  0.14072899169E+03  0.71588424799E+03  0.73955510433E+03  0.00000000000E+00 0. -1.
         13    1    3    3    0    0 -0.20301673632E+02 -0.95766374512E+01  0.41277361405E+02  0.46986067102E+02  0.00000000000E+00 0.  1.
          2    1    1    2  501    0  0.36784573421E+02 -0.39100876988E+01  0.14018300511E+03  0.14498161452E+03  0.00000000000E+00 0. -1.
<scales pt_clust_5="13000.00000" pt_clust_6="13000.00000" pt_clust_7="13000.00000" pt_clust_8="13000.00000" pt_clust_9="36.99182"></scales>
<clustering>
<clus scale="   36.992">  2  9  1 -1</clus>
<clus scale="   81.438">  5  6 -1 -1</clus>
<clus scale="   90.440">  7  8 -1 -1</clus>
<clus scale="  197.527">  2  5  1 -1</clus>
<clus scale="   36.992">  2  5  1 -1</clus>
</clustering>
</event>
<event>
 9    1  0.7835476E-005  0.1841187E+03  0.7546771E-02  0.1165839E+00
         21   -1    0    0  501  502  0.00000000000E+00  0.00000000000E+00  0.20933446620E+03  0.20933446620E+03  0.00000000000E+00 0.  1.
          1   -1    0    0  502    0 -0.00000000000E+00 -0.00000000000E+00 -0.33283646485E+03  0.33283646485E+03  0.00000000000E+00 0. -1.
        -24    2    1    2    0    0 -0.13577641571E+03 -0.62823814366E+02 -0.16796352347E+03  0.23829389019E+03  0.78677609076E+02 0.  0.
         23    2    1    2    0    0  0.16983473683E+03  0.94452992589E+02  0.93891945715E+02  0.23602617010E+03  0.95537688166E+02 0.  0.
         11    1    3    3    0    0 -0.80060925027E+02 -0.68070269847E+02 -0.14185973634E+03  0.17654319060E+03  0.00000000000E+00 0. -1.
        -12    1    3    3    0    0 -0.55715490684E+02  0.52464554807E+01 -0.26103787137E+02  0.61750699593E+02  0.00000000000E+00 0.  1.
        -13    1    4    4    0    0  0.23431349129E+02  0.36015189256E+02  0.61620529571E+02  0.75121312847E+02  0.00000000000E+00 0.  1.
         13    1    4    4    0    0  0.14640338770E+03  0.58437803333E+02  0.32271416144E+02  0.16090485726E+03  0.00000000000E+00 0. -1.
          2    1    1    2  501    0 -0.34058321118E+02 -0.31629178223E+02 -0.49430420890E+02  0.67850870752E+02  0.00000000000E+00 0. -1.
<scales pt_clust_5="13000.00000" pt_clust_6="13000.00000" pt_clust_7="13000.00000" pt_clust_8="13000.00000" pt_clust_9="46.47985"></scales>
<clustering>
<clus scale="   46.480">  1  9  2 -1</clus>
<clus scale="   78.678">  5  6 -1 -1</clus>
<clus scale="   95.538">  7  8 -1 -1</clus>
<clus scale="  175.961">  2  5  1 -1</clus>
<clus scale="   46.480">  1  5  2 -1</clus>
</clustering>
</event>
<event>
 9    1  0.7835476E-005  0.1146781E+03  0.7546771E-02  0.1264756E+00
          1   -1    0    0  502    0 -0.00000000000E+00  0.00000000000E+00  0.94336878843E+03  0.94336878843E+03  0.00000000000E+00 0. -1.
         21   -1    0    0  501  502  0.00000000000E+00 -0.00000000000E+00 -0.18987635037E+02  0.18987635037E+02  0.00000000000E+00 0.  1.
         23    2    1    2    0    0 -0.35278188385E+02 -0.50008845966E+02  0.49169288683E+03  0.50692642579E+03  0.10708441042E+03 0.  0.
        -24    2    1    2    0    0  0.47101511180E+01  0.16125569300E+02  0.16536120158E+03  0.18423589558E+03  0.79475271144E+02 0.  0.
         13    1    4    4    0    0 -0.37134502462E+01  0.41046952926E+02  0.14563619282E+03  0.15135568280E+03  0.00000000000E+00 0. -1.
        -14    1    4    4    0    0  0.84236013642E+01 -0.24921383626E+02  0.19725008760E+02  0.32880212778E+02  0.00000000000E+00 0.  1.
        -13    1    3    3    0    0  0.19072487666E+02 -0.60644216870E+02  0.19475810993E+03  0.20487118443E+03  0.00000000000E+00 0. -1.
         13    1    3    3    0    0 -0.54350676051E+02  0.10635370904E+02  0.29693477690E+03  0.30205524136E+03  0.00000000000E+00 0.  1.
          2    1    1    2  501    0  0.30568037267E+02  0.33883276666E+02  0.26732706499E+03  0.27119410210E+03  0.00000000000E+00 0. -1.
<scales pt_clust_5="13000.00000" pt_clust_6="13000.00000" pt_clust_7="13000.00000" pt_clust_8="13000.00000" pt_clust_9="45.63424"></scales>
<clustering>
<clus scale="   45.634">  2  9  1 -1</clus>
<clus scale="   79.475">  5  6 -1 -1</clus>
<clus scale="   89.444">  2  5  1 -1</clus>
<clus scale="  107.084">  7  8 -1 -1</clus>
<clus scale="   45.634">  2  5  1 -1</clus>
</clustering>
</event>
<event>
 9    1  0.7835476E-005  0.1392472E+03  0.7546771E-02  0.1217572E+00
          1   -1    0    0  502    0 -0.00000000000E+00  0.00000000000E+00  0.55811531680E+03  0.55811531680E+03  0.00000000000E+00 0. -1.
         21   -1    0    0  501  502  0.00000000000E+00 -0.00000000000E+00 -0.55987510437E+02  0.55987510437E+02  0.00000000000E+00 0. -1.
         23    2    1    2    0    0 -0.37930384125E+02 -0.99710729701E+02  0.21882185273E+03  0.26074704790E+03  0.93408115820E+02 0.  0.
        -24    2    1    2    0    0 -0.78355370875E+01  0.10383866154E+03  0.10063952170E+03  0.16499818134E+03  0.79071001304E+02 0.  0.
         13    1    4    4    0    0 -0.36305620947E+02  0.22001270769E+02  0.21222193328E+02  0.47460884078E+02  0.00000000000E+00 0. -1.
        -14    1    4    4    0    0  0.28470083860E+02  0.81837390768E+02  0.79417328370E+02  0.11753729726E+03  0.00000000000E+00 0.  1.
        -11    1    3    3    0    0 -0.46204813437E+02 -0.28110389271E+02  0.15608930144E+03  0.16519367056E+03  0.00000000000E+00 0.  1.
         11    1    3    3    0    0  0.82744293116E+01 -0.71600340430E+02  0.62732551289E+02  0.95553377341E+02  0.00000000000E+00 0. -1.
          2    1    1    2  501    0  0.45765921213E+02 -0.41279318360E+01  0.18266643194E+03  0.18835759799E+03  0.00000000000E+00 0. -1.
<scales pt_clust_5="13000.00000" pt_clust_6="13000.00000" pt_clust_7="13000.00000" pt_clust_8="13000.00000" pt_clust_9="45.95173"></scales>
<clustering>
<clus scale="   45.952">  2  9  1 -1</clus>
<clus scale="   79.071">  5  6 -1 -1</clus>
<clus scale="   93.408">  7  8 -1 -1</clus>
<clus scale="  130.065">  2  5  1 -1</clus>
<clus scale="   45.952">  2  5  1 -1</clus>
</clustering>
</event>
<event>
 9    1  0.7918674E-005  0.1016829E+03  0.7546771E-02  0.1284493E+00
          1   -1    0    0  502    0 -0.00000000000E+00  0.00000000000E+00  0.44051760634E+03  0.44051760634E+03  0.00000000000E+00 0. -1.
         21   -1    0    0  501  502  0.00000000000E+00 -0.00000000000E+00 -0.90006625956E+02  0.90006625956E+02  0.00000000000E+00 0.  1.
         23    2    1    2    0    0  0.48449487278E+02 -0.43655721888E+01  0.39281825590E+03  0.40594958180E+03  0.90124745543E+02 0.  0.
        -24    2    1    2    0    0 -0.31678279915E+02 -0.19497557812E+02 -0.46502096695E+02  0.95107399279E+02  0.74157293785E+02 0.  0.
         13    1    4    4    0    0 -0.21103685630E+02  0.15336697128E+02  0.99619723804E+01  0.27925270270E+02  0.00000000000E+00 0. -1.
        -14    1    4    4    0    0 -0.10574594285E+02 -0.34834254940E+02 -0.56464069075E+02  0.67182129008E+02  0.00000000000E+00 0.  1.
        -13    1    3    3    0    0  0.51166555448E+01  0.39610780644E+02  0.17865080352E+03  0.18306092894E+03  0.00000000000E+00 0.  1.
         13    1    3    3    0    0  0.43332831733E+02 -0.43976352833E+02  0.21416745238E+03  0.22288865286E+03  0.00000000000E+00 0. -1.
          2    1    1    2  501    0 -0.16771207363E+02  0.23863130001E+02  0.41948211862E+01  0.29467251223E+02  0.00000000000E+00 0. -1.
<scales pt_clust_5="13000.00000" pt_clust_6="13000.00000" pt_clust_7="13000.00000" pt_clust_8="13000.00000" pt_clust_9="29.16715"></scales>
<clustering>
<clus scale="   29.167">  2  9  1 -1</clus>
<clus scale="   74.157">  5  6 -1 -1</clus>
<clus scale="   87.842">  2  5  1 -1</clus>
<clus scale="   90.125">  7  8 -1 -1</clus>
<clus scale="   29.167">  2  5  1 -1</clus>
</clustering>
</event>
<event>
 9    1  0.7835476E-005  0.1558372E+03  0.7546771E-02  0.1212101E+00
         21   -1    0    0  501  502  0.00000000000E+00  0.00000000000E+00  0.56973930586E+03  0.56973930586E+03  0.00000000000E+00 0. -1.
          1   -1    0    0  502    0 -0.00000000000E+00 -0.00000000000E+00 -0.10153469429E+03  0.10153469429E+03  0.00000000000E+00 0. -1.
        -24    2    1    2    0    0 -0.52813914763E+02 -0.22282467453E+02 -0.59347234148E+01  0.10436091282E+03  0.87006673500E+02 0.  0.
         23    2    1    2    0    0 -0.10423295681E+03  0.32407785798E+02  0.29845602726E+03  0.33105112228E+03  0.92758134361E+02 0.  0.
         11    1    3    3    0    0 -0.41808468861E+02 -0.13534964343E+02 -0.44966882668E+02  0.62874190771E+02  0.00000000000E+00 0. -1.
        -12    1    3    3    0    0 -0.11005445902E+02 -0.87475031098E+01  0.39032159253E+02  0.41486722046E+02  0.00000000000E+00 0.  1.
        -11    1    4    4    0    0 -0.71564100708E+02 -0.19586148899E+02  0.10871015651E+03  0.13161662458E+03  0.00000000000E+00 0. -1.
         11    1    4    4    0    0 -0.32668856100E+02  0.51993934698E+02  0.18974587075E+03  0.19943449770E+03  0.00000000000E+00 0.  1.
          2    1    1    2  501    0  0.15704687157E+03 -0.10125318346E+02  0.17568330773E+03  0.23586196505E+03  0.00000000000E+00 0. -1.
<scales pt_clust_5="13000.00000" pt_clust_6="13000.00000" pt_clust_7="13000.00000" pt_clust_8="13000.00000" pt_clust_9="125.22452"></scales>
<clustering>
<clus scale="   87.007">  5  6 -1 -1</clus>
<clus scale="   92.758">  7  8 -1 -1</clus>
<clus scale="  104.192">  2  5  1 -1</clus>
<clus scale="  125.225">  1  9  2 -1</clus>
<clus scale="  125.225">  1  5  2 -1</clus>
</clustering>
</event>
<event>
 9    1  0.7835476E-005  0.1168434E+03  0.7546771E-02  0.1253906E+00
         -4   -1    0    0    0  501 -0.00000000000E+00  0.00000000000E+00  0.26584251252E+03  0.26584251252E+03  0.00000000000E+00 0.  1.
         21   -1    0    0  501  502  0.00000000000E+00 -0.00000000000E+00 -0.13031572417E+03  0.13031572417E+03  0.00000000000E+00 0. -1.
         23    2    1    2    0    0 -0.74971081518E+02  0.19963209604E+02  0.21387399508E+03  0.24437573324E+03  0.89208858430E+02 0.  0.
        -24    2    1    2    0    0  0.54028594956E+02 -0.41629565253E+02 -0.55855952219E+02  0.11418097103E+03  0.72562366080E+02 0.  0.
         11    1    4    4    0    0  0.63662470918E+02 -0.27115738046E+02 -0.16492178439E+02  0.71134839585E+02  0.00000000000E+00 0. -1.
        -12    1    4    4    0    0 -0.96338759619E+01 -0.14513827207E+02 -0.39363773779E+02  0.43046131445E+02  0.00000000000E+00 0.  1.
        -13    1    3    3    0    0 -0.63380726907E+02  0.41713813814E+02  0.20430091239E+03  0.21793581993E+03  0.00000000000E+00 0.  1.
         13    1    3    3    0    0 -0.11590354612E+02 -0.21750604211E+02  0.95730826940E+01  0.26439913310E+02  0.00000000000E+00 0. -1.
         -3    1    1    2    0  502  0.20942486562E+02  0.21666355649E+02 -0.22491254515E+02  0.37601532419E+02  0.00000000000E+00 0.  1.
<scales pt_clust_5="13000.00000" pt_clust_6="13000.00000" pt_clust_7="13000.00000" pt_clust_8="13000.00000" pt_clust_9="30.13335"></scales>
<clustering>
<clus scale="   30.133">  2  9  1 -1</clus>
<clus scale="   72.562">  5  6 -1 -1</clus>
<clus scale="   89.209">  7  8 -1 -1</clus>
<clus scale="  104.687">  2  5  1 -1</clus>
<clus scale="   30.133">  2  5  1 -1</clus>
</clustering>
</event>
<event>
 9    1  0.7835476E-005  0.1306809E+03  0.7546771E-02  0.1229120E+00
          1   -1    0    0  502    0 -0.00000000000E+00  0.00000000000E+00  0.52892470051E+03  0.52892470051E+03  0.00000000000E+00 0. -1.
         21   -1    0    0  501  502  0.00000000000E+00 -0.00000000000E+00 -0.23462620314E+03  0.23462620314E+03  0.00000000000E+00 0. -1.
         23    2    1    2    0    0 -0.12332143706E+02 -0.88593038441E+02  0.44170478629E+03  0.45977909377E+03  0.91065298605E+02 0.  0.
        -24    2    1    2    0    0 -0.95707144038E+00  0.16709498159E+03 -0.94925512689E+02  0.20841254084E+03  0.80642949864E+02 0.  0.
         11    1    4    4    0    0  0.37950019040E+02  0.98680390957E+02 -0.43076714150E+02  0.11416491057E+03  0.00000000000E+00 0. -1.
        -12    1    4    4    0    0 -0.38907090480E+02  0.68414590636E+02 -0.51848798540E+02  0.94247630270E+02  0.00000000000E+00 0.  1.
        -11    1    3    3    0    0 -0.33947927345E+02  0.11396874658E+01  0.91029306777E+02  0.97160153102E+02  0.00000000000E+00 0.  1.
         11    1    3    3    0    0  0.21615783639E+02 -0.89732725907E+02  0.35067547951E+03  0.36261894067E+03  0.00000000000E+00 0. -1.
          2    1    1    2  501    0  0.13289215147E+02 -0.78501943151E+02 -0.52480776231E+02  0.95359269038E+02  0.00000000000E+00 0. -1.
<scales pt_clust_5="13000.00000" pt_clust_6="13000.00000" pt_clust_7="13000.00000" pt_clust_8="13000.00000" pt_clust_9="79.61883"></scales>
<clustering>
<clus scale="   79.619">  2  9  1 -1</clus>
<clus scale="   80.643">  5  6 -1 -1</clus>
<clus scale="   91.065">  7  8 -1 -1</clus>
<clus scale="  123.644">  2  5  1 -1</clus>
<clus scale="   79.619">  2  5  1 -1</clus>
</clustering>
</event>
<event>
 9    1  0.9513592E-005  0.1153254E+03  0.7546771E-02  0.1254785E+00
         21   -1    0    0  501  502  0.00000000000E+00  0.00000000000E+00  0.26324566302E+03  0.26324566302E+03  0.00000000000E+00 0. -1.
          1   -1    0    0  502    0 -0.00000000000E+00 -0.00000000000E+00 -0.39880592768E+03  0.39880592768E+03  0.00000000000E+00 0. -1.
         23    2    1    2    0    0 -0.45093507961E+02 -0.54677347466E+02 -0.36983966264E+03  0.38753281715E+03  0.91527435895E+02 0.  0.
        -24    2    1    2    0    0  0.12339715744E+02  0.57095906562E+02  0.21357579629E+03  0.23569481889E+03  0.80778807637E+02 0.  0.
         11    1    4    4    0    0 -0.19055526628E+02  0.39658450288E+02  0.18395138630E+03  0.18914020804E+03  0.00000000000E+00 0. -1.
        -12    1    4    4    0    0  0.31395242373E+02  0.17437456274E+02  0.29624409983E+02  0.46554610855E+02  0.00000000000E+00 0.  1.
        -11    1    3    3    0    0 -0.62776267462E+01 -0.62801976127E+02 -0.13086317164E+03  0.14528821870E+03  0.00000000000E+00 0.  1.
         11    1    3    3    0    0 -0.38815881215E+02  0.81246286610E+01 -0.23897649100E+03  0.24224459845E+03  0.00000000000E+00 0. -1.
          2    1    1    2  501    0  0.32753792216E+02 -0.24185590960E+01  0.20703601694E+02  0.38823954664E+02  0.00000000000E+00 0. -1.
<scales pt_clust_5="13000.00000" pt_clust_6="13000.00000" pt_clust_7="13000.00000" pt_clust_8="13000.00000" pt_clust_9="32.84296"></scales>
<clustering>
<clus scale="   32.843">  1  9  2 -1</clus>
<clus scale="   80.779">  5  6 -1 -1</clus>
<clus scale="   91.527">  7  8 -1 -1</clus>
<clus scale="  106.995">  1  5  2 -1</clus>
<clus scale="   32.843">  1  5  2 -1</clus>
</clustering>
</event>
<event>
 9    1  0.7835476E-005  0.1344890E+03  0.7546771E-02  0.1225549E+00
         21   -1    0    0  501  502  0.00000000000E+00  0.00000000000E+00  0.74198356703E+02  0.74198356703E+02  0.00000000000E+00 0. -1.
          1   -1    0    0  502    0 -0.00000000000E+00 -0.00000000000E+00 -0.46511805100E+03  0.46511805100E+03  0.00000000000E+00 0. -1.
        -24    2    1    2    0    0  0.41835491759E+02 -0.89718876679E+02 -0.28754553880E+03  0.31432080963E+03  0.79469801041E+02 0.  0.
         23    2    1    2    0    0 -0.76552455292E+02  0.38209870363E+02 -0.38586079222E+02  0.13524070898E+03  0.97369868296E+02 0.  0.
         13    1    3    3    0    0  0.55384505625E+02 -0.68831635629E+02 -0.14636508109E+03  0.17096190947E+03  0.00000000000E+00 0. -1.
        -14    1    3    3    0    0 -0.13549013866E+02 -0.20887241050E+02 -0.14118045771E+03  0.14335890016E+03  0.00000000000E+00 0.  1.
        -13    1    4    4    0    0 -0.20818337684E+02  0.57685324301E+02  0.54777384656E+01  0.61571141311E+02  0.00000000000E+00 0.  1.
         13    1    4    4    0    0 -0.55734117608E+02 -0.19475453939E+02 -0.44063817688E+02  0.73669567671E+02  0.00000000000E+00 0. -1.
          2    1    1    2  501    0  0.34716963533E+02  0.51509006316E+02 -0.64788076275E+02  0.89754889093E+02  0.00000000000E+00 0. -1.
<scales pt_clust_5="13000.00000" pt_clust_6="13000.00000" pt_clust_7="13000.00000" pt_clust_8="13000.00000" pt_clust_9="62.11639"></scales>
<clustering>
<clus scale="   62.116">  1  9  2 -1</clus>
<clus scale="   79.470">  5  6 -1 -1</clus>
<clus scale="   97.370">  7  8 -1 -1</clus>
<clus scale="  122.155">  2  5  1 -1</clus>
<clus scale="   62.116">  1  5  2 -1</clus>
</clustering>
</event>
<event>
 9    1  0.7835476E-005  0.1590025E+03  0.7546771E-02  0.1214325E+00
          3   -1    0    0  502    0 -0.00000000000E+00  0.00000000000E+00  0.12692431894E+03  0.12692431894E+03  0.00000000000E+00 0. -1.
         21   -1    0    0  501  502  0.00000000000E+00 -0.00000000000E+00 -0.47411651126E+03  0.47411651126E+03  0.00000000000E+00 0. -1.
        -24    2    1    2    0    0  0.12823760398E+02 -0.21736323692E+02  0.52228957425E+02  0.10715722846E+03  0.90099339727E+02 0.  0.
         23    2    1    2    0    0 -0.68959082763E+02 -0.10146791846E+03 -0.18499315686E+03  0.24028978510E+03  0.92008799390E+02 0.  0.
         13    1    3    3    0    0 -0.35091616980E+02 -0.21589911395E+02  0.80445940741E+01  0.41979296685E+02  0.00000000000E+00 0. -1.
        -14    1    3    3    0    0  0.47915377378E+02 -0.14641229683E+00  0.44184363351E+02  0.65177931776E+02  0.00000000000E+00 0.  1.
        -13    1    4    4    0    0 -0.30790936189E+02  0.70947138766E+01 -0.73752687399E+02  0.80236373391E+02  0.00000000000E+00 0.  1.
         13    1    4    4    0    0 -0.38168146573E+02 -0.10856263234E+03 -0.11124046946E+03  0.16005341171E+03  0.00000000000E+00 0. -1.
          4    1    1    2  501    0  0.56135322365E+02  0.12320424215E+03 -0.21442799289E+03  0.25359381664E+03  0.00000000000E+00 0. -1.
<scales pt_clust_5="13000.00000" pt_clust_6="13000.00000" pt_clust_7="13000.00000" pt_clust_8="13000.00000" pt_clust_9="129.67725"></scales>
<clustering>
<clus scale="   90.099">  5  6 -1 -1</clus>
<clus scale="   92.009">  7  8 -1 -1</clus>
<clus scale="   93.567">  1  5  2 -1</clus>
<clus scale="  129.677">  2  9  1 -1</clus>
<clus scale="  129.677">  2  5  1 -1</clus>
</clustering>
</event>
<event>
 9    1  0.7835476E-005  0.4178261E+03  0.7546771E-02  0.1045413E+00
          1   -1    0    0  502    0 -0.00000000000E+00  0.00000000000E+00  0.20779557894E+04  0.20779557894E+04  0.00000000000E+00 0. -1.
         21   -1    0    0  501  502  0.00000000000E+00 -0.00000000000E+00 -0.25992029144E+03  0.25992029144E+03  0.00000000000E+00 0. -1.
        -24    2    1    2    0    0 -0.22226586964E+03  0.23726281963E+03  0.10601572220E+04  0.11117700157E+04  0.80021685121E+02 0.  0.
         23    2    1    2    0    0 -0.31385102506E+03 -0.21803237588E+03  0.16427030217E+03  0.42600509569E+03  0.91951218113E+02 0.  0.
         13    1    3    3    0    0 -0.15668229398E+03  0.11686299613E+03  0.68513282851E+03  0.71246985467E+03  0.00000000000E+00 0. -1.
        -14    1    3    3    0    0 -0.65583575662E+02  0.12039982350E+03  0.37502439351E+03  0.39930016106E+03  0.00000000000E+00 0.  1.
        -11    1    4    4    0    0 -0.23465366427E+03 -0.18870316154E+03  0.92020440356E+02  0.31486344147E+03  0.00000000000E+00 0. -1.
         11    1    4    4    0    0 -0.79197360799E+02 -0.29329214337E+02  0.72249861812E+02  0.11114165422E+03  0.00000000000E+00 0.  1.
          2    1    1    2  501    0  0.53611689470E+03 -0.19230443748E+02  0.59360797378E+03  0.80010096943E+03  0.00000000000E+00 0. -1.
<scales pt_clust_5="13000.00000" pt_clust_6="13000.00000" pt_clust_7="13000.00000" pt_clust_8="13000.00000" pt_clust_9="407.58285"></scales>
<clustering>
<clus scale="   80.022">  5  6 -1 -1</clus>
<clus scale="   91.951">  7  8 -1 -1</clus>
<clus scale="  334.812">  1  5  2 -1</clus>
<clus scale="  407.583">  2  9  1 -1</clus>
<clus scale="  407.583">  2  5  1 -1</clus>
</clustering>
</event>
<event>
 9    1  0.7835476E-005  0.1279010E+03  0.7546771E-02  0.1233958E+00
         21   -1    0    0  501  502  0.00000000000E+00  0.00000000000E+00  0.54452226029E+02  0.54452226029E+02  0.00000000000E+00 0.  1.
         -2   -1    0    0    0  501 -0.00000000000E+00 -0.00000000000E+00 -0.40612452248E+03  0.40612452248E+03  0.00000000000E+00 0.  1.
        -24    2    1    2    0    0  0.44373199646E+02  0.82037020783E+02 -0.26500816002E+03  0.29221247318E+03  0.80372576064E+02 0.  0.
         23    2    1    2    0    0 -0.47023537451E+02 -0.59383592932E+02 -0.61818508410E+02  0.13463732296E+03  0.92563797283E+02 0.  0.
         13    1    3    3    0    0  0.49388866579E+02  0.52242089605E+02 -0.24652365211E+03  0.25679253711E+03  0.00000000000E+00 0. -1.
        -14    1    3    3    0    0 -0.50156669328E+01  0.29794931178E+02 -0.18484507910E+02  0.35419936072E+02  0.00000000000E+00 0.  1.
        -11    1    4    4    0    0  0.10801062071E+02  0.18178902790E+02 -0.28488111827E+01  0.21336615796E+02  0.00000000000E+00 0.  1.
         11    1    4    4    0    0 -0.57824599522E+02 -0.77562495721E+02 -0.58969697227E+02  0.11330070716E+03  0.00000000000E+00 0. -1.
         -1    1    1    2    0  502  0.26503378049E+01 -0.22653427851E+02 -0.24845628023E+02  0.33726952364E+02  0.00000000000E+00 0.  1.
<scales pt_clust_5="13000.00000" pt_clust_6="13000.00000" pt_clust_7="13000.00000" pt_clust_8="13000.00000" pt_clust_9="22.80794"></scales>
<clustering>
<clus scale="   22.808">  1  9  2 -1</clus>
<clus scale="   80.373">  5  6 -1 -1</clus>
<clus scale="   92.564">  7  8 -1 -1</clus>
<clus scale="  119.375">  2  5  1 -1</clus>
<clus scale="   22.808">  1  5  2 -1</clus>
</clustering>
</event>
<event>
 9    1  0.7835476E-005  0.1350464E+03  0.7546771E-02  0.1222078E+00
          1   -1    0    0  502    0 -0.00000000000E+00  0.00000000000E+00  0.11635413388E+03  0.11635413388E+03  0.00000000000E+00 0. -1.
         21   -1    0    0  501  502  0.00000000000E+00 -0.00000000000E+00 -0.26453471455E+03  0.26453471455E+03  0.00000000000E+00 0.  1.
        -24    2    1    2    0    0 -0.90611289559E+02  0.60063703758E+02 -0.72391347572E+02  0.15325835507E+03  0.80184548958E+02 0.  0.
         23    2    1    2    0    0  0.47585363209E+02 -0.88747868877E+02 -0.10309836008E+03  0.16915143656E+03  0.88557244875E+02 0.  0.
         11    1    3    3    0    0 -0.89132913321E+02  0.24712463671E+02 -0.28304389551E+02  0.96729109195E+02  0.00000000000E+00 0. -1.
        -12    1    3    3    0    0 -0.14783762381E+01  0.35351240087E+02 -0.44086958021E+02  0.56529245878E+02  0.00000000000E+00 0.  1.
        -13    1    4    4    0    0  0.49467050064E+02 -0.36700845833E+02 -0.99402687431E+02  0.11693945183E+03  0.00000000000E+00 0.  1.
         13    1    4    4    0    0 -0.18816868550E+01 -0.52047023044E+02 -0.36956726439E+01  0.52211984730E+02  0.00000000000E+00 0. -1.
          2    1    1    2  501    0  0.43025926351E+02  0.28684165120E+02  0.27309126982E+02  0.58479056794E+02  0.00000000000E+00 0. -1.
<scales pt_clust_5="13000.00000" pt_clust_6="13000.00000" pt_clust_7="13000.00000" pt_clust_8="13000.00000" pt_clust_9="51.71087"></scales>
<clustering>
<clus scale="   51.711">  2  9  1 -1</clus>
<clus scale="   80.185">  5  6 -1 -1</clus>
<clus scale="   88.557">  7  8 -1 -1</clus>
<clus scale="  129.710">  1  5  2 -1</clus>
<clus scale="   51.711">  2  5  1 -1</clus>
</clustering>
</event>
<event>
 9    1  0.7835476E-005  0.1080843E+03  0.7546771E-02  0.1268935E+00
         -2   -1    0    0    0  501 -0.00000000000E+00  0.00000000000E+00  0.25146774224E+03  0.25146774224E+03  0.00000000000E+00 0.  1.
         21   -1    0    0  501  502  0.00000000000E+00 -0.00000000000E+00 -0.60155208156E+02  0.60155208156E+02  0.00000000000E+00 0.  1.
        -24    2    1    2    0    0 -0.51806429057E+02  0.59007178059E+01  0.11997409525E+03  0.15366195651E+03  0.80619407007E+02 0.  0.
         23    2    1    2    0    0  0.60765665071E+02 -0.29275020290E+02  0.67570098872E+02  0.13264644643E+03  0.92086202138E+02 0.  0.
         13    1    3    3    0    0 -0.29701703203E+01  0.37613138489E+02  0.49655023567E+02  0.62363382399E+02  0.00000000000E+00 0. -1.
        -14    1    3    3    0    0 -0.48836258737E+02 -0.31712420683E+02  0.70319071681E+02  0.91298574113E+02  0.00000000000E+00 0.  1.
        -13    1    4    4    0    0 -0.24118985705E+02 -0.15236646757E+01  0.20525669281E+02  0.31707256660E+02  0.00000000000E+00 0. -1.
         13    1    4    4    0    0  0.84884650775E+02 -0.27751355615E+02  0.47044429591E+02  0.10093918977E+03  0.00000000000E+00 0.  1.
         -1    1    1    2    0  502 -0.89592360132E+01  0.23374302485E+02  0.37683399593E+01  0.25314547451E+02  0.00000000000E+00 0.  1.
<scales pt_clust_5="13000.00000" pt_clust_6="13000.00000" pt_clust_7="13000.00000" pt_clust_8="13000.00000" pt_clust_9="25.03250"></scales>
<clustering>
<clus scale="   25.032">  2  9  1 -1</clus>
<clus scale="   80.619">  5  6 -1 -1</clus>
<clus scale="   92.086">  7  8 -1 -1</clus>
<clus scale="   98.498">  1  5  2 -1</clus>
<clus scale="   25.032">  2  5  1 -1</clus>
</clustering>
</event>
<event>
 9    1  0.7835476E-005  0.9657257E+02  0.7546771E-02  0.1297290E+00
         -4   -1    0    0    0  501 -0.00000000000E+00  0.00000000000E+00  0.49703020675E+02  0.49703020675E+02  0.00000000000E+00 0.  1.
         21   -1    0    0  501  502  0.00000000000E+00 -0.00000000000E+00 -0.26552097835E+03  0.26552097835E+03  0.00000000000E+00 0. -1.
        -24    2    1    2    0    0  0.12548855201E+02 -0.43932030176E+01 -0.30788320003E+02  0.85511242807E+02  0.78660523760E+02 0.  0.
         23    2    1    2    0    0 -0.16906416996E+02  0.25878137299E+02 -0.97586779530E+02  0.13956374521E+03  0.94864927722E+02 0.  0.
         13    1    3    3    0    0  0.11084827155E+02 -0.39195000634E+02 -0.30142988792E+02  0.50672687329E+02  0.00000000000E+00 0. -1.
        -14    1    3    3    0    0  0.14640280458E+01  0.34801797617E+02 -0.64533121078E+00  0.34838555479E+02  0.00000000000E+00 0.  1.
        -11    1    4    4    0    0  0.21455524953E+02 -0.25638561557E+02 -0.47632866024E+02  0.58194203451E+02  0.00000000000E+00 0. -1.
         11    1    4    4    0    0 -0.38361941949E+02  0.51516698856E+02 -0.49953913506E+02  0.81369541757E+02  0.00000000000E+00 0.  1.
         -3    1    1    2    0  502  0.43575617946E+01 -0.21484934282E+02 -0.87442858140E+02  0.90149011008E+02  0.00000000000E+00 0.  1.
<scales pt_clust_5="13000.00000" pt_clust_6="13000.00000" pt_clust_7="13000.00000" pt_clust_8="13000.00000" pt_clust_9="21.92238"></scales>
<clustering>
<clus scale="   21.922">  2  9  1 -1</clus>
<clus scale="   78.661">  5  6 -1 -1</clus>
<clus scale="   80.712">  1  5  2 -1</clus>
<clus scale="   94.865">  7  8 -1 -1</clus>
<clus scale="   21.922">  2  5  1 -1</clus>
</clustering>
</event>
<event>
 9    1  0.7835476E-005  0.1069820E+03  0.7546771E-02  0.1273525E+00
         21   -1    0    0  501  502  0.00000000000E+00  0.00000000000E+00  0.16704961251E+03  0.16704961251E+03  0.00000000000E+00 0. -1.
         -2   -1    0    0    0  501 -0.00000000000E+00 -0.00000000000E+00 -0.10181324497E+03  0.10181324497E+03  0.00000000000E+00 0.  1.
        -24    2    1    2    0    0  0.17577349676E+02  0.55959167452E+02 -0.32572847634E+02  0.10062301466E+03  0.74990726315E+02 0.  0.
         23    2    1    2    0    0  0.39047867953E+01 -0.48428082016E+02  0.49964024412E+02  0.11525530059E+03  0.91797898073E+02 0.  0.
         11    1    3    3    0    0  0.37611623549E+02  0.40071003562E+02 -0.46066973322E+02  0.71711125940E+02  0.00000000000E+00 0. -1.
        -12    1    3    3    0    0 -0.20034273874E+02  0.15888163889E+02  0.13494125688E+02  0.28911888722E+02  0.00000000000E+00 0.  1.
        -11    1    4    4    0    0  0.12239308277E+02 -0.70059715439E+02  0.14028120675E+02  0.72491051615E+02  0.00000000000E+00 0.  1.
         11    1    4    4    0    0 -0.83345214820E+01  0.21631633424E+02  0.35935903737E+02  0.42764248974E+02  0.00000000000E+00 0. -1.
         -1    1    1    2    0  502 -0.21482136471E+02 -0.75310854360E+01  0.47845190764E+02  0.52984542221E+02  0.00000000000E+00 0.  1.
<scales pt_clust_5="13000.00000" pt_clust_6="13000.00000" pt_clust_7="13000.00000" pt_clust_8="13000.00000" pt_clust_9="22.76399"></scales>
<clustering>
<clus scale="   22.764">  1  9  2 -1</clus>
<clus scale="   74.991">  5  6 -1 -1</clus>
<clus scale="   91.798">  7  8 -1 -1</clus>
<clus scale="   92.962">  2  5  1 -1</clus>
<clus scale="   22.764">  1  5  2 -1</clus>
</clustering>
</event>
<event>
 9    1  0.7835476E-005  0.1223568E+03  0.7546771E-02  0.1242031E+00
         21   -1    0    0  501  502  0.00000000000E+00  0.00000000000E+00  0.42204831744E+02  0.42204831744E+02  0.00000000000E+00 0.  1.
          3   -1    0    0  502    0 -0.00000000000E+00 -0.00000000000E+00 -0.59115723938E+03  0.59115723938E+03  0.00000000000E+00 0. -1.
         23    2    1    2    0    0  0.73545220153E+02  0.55323357400E+02 -0.44334782445E+03  0.46166135482E+03  0.90024106806E+02 0.  0.
        -24    2    1    2    0    0 -0.40398168361E+02 -0.42439459847E+02 -0.74945016912E+02  0.12474615462E+03  0.80695277276E+02 0.  0.
         13    1    4    4    0    0 -0.22493736906E+02 -0.11640480551E+02 -0.84209770845E+02  0.87936081862E+02  0.00000000000E+00 0. -1.
        -14    1    4    4    0    0 -0.17904431455E+02 -0.30798979295E+02  0.92647539327E+01  0.36810072763E+02  0.00000000000E+00 0.  1.
        -11    1    3    3    0    0  0.66333778863E+02 -0.62763872054E+01 -0.22101809983E+03  0.23084315825E+03  0.00000000000E+00 0.  1.
         11    1    3    3    0    0  0.72114412900E+01  0.61599744605E+02 -0.22232972462E+03  0.23081819657E+03  0.00000000000E+00 0. -1.
          4    1    1    2  501    0 -0.33147051793E+02 -0.12883897553E+02 -0.30659566275E+02  0.46954561683E+02  0.00000000000E+00 0. -1.
<scales pt_clust_5="13000.00000" pt_clust_6="13000.00000" pt_clust_7="13000.00000" pt_clust_8="13000.00000" pt_clust_9="35.56293"></scales>
<clustering>
<clus scale="   35.563">  1  9  2 -1</clus>
<clus scale="   80.695">  5  6 -1 -1</clus>
<clus scale="   90.024">  7  8 -1 -1</clus>
<clus scale="  115.666">  1  5  2 -1</clus>
<clus scale="   35.563">  1  5  2 -1</clus>
</clustering>
</event>
<event>
 9    1  0.7835476E-005  0.1010334E+03  0.7546771E-02  0.1279990E+00
         21   -1    0    0  501  502  0.00000000000E+00  0.00000000000E+00  0.20323062871E+03  0.20323062871E+03  0.00000000000E+00 0. -1.
          1   -1    0    0  502    0 -0.00000000000E+00 -0.00000000000E+00 -0.76630274638E+02  0.76630274638E+02  0.00000000000E+00 0. -1.
        -24    2    1    2    0    0 -0.51907757608E+02 -0.28501096527E+02  0.40482633072E+02  0.10861602933E+03  0.81558999769E+02 0.  0.
         23    2    1    2    0    0  0.23142230283E+02  0.44466412909E+02  0.94729131378E+02  0.13723747368E+03  0.85718674451E+02 0.  0.
         11    1    3    3    0    0 -0.27875387278E+02 -0.40923324595E+02  0.58096273940E+02  0.76334348477E+02  0.00000000000E+00 0. -1.
        -12    1    3    3    0    0 -0.24032370331E+02  0.12422228068E+02 -0.17613640868E+02  0.32281680850E+02  0.00000000000E+00 0.  1.
        -13    1    4    4    0    0 -0.20807558701E+02  0.27530504893E+02  0.36514040881E+01  0.34701814803E+02  0.00000000000E+00 0.  1.
         13    1    4    4    0    0  0.43949788984E+02  0.16935908015E+02  0.91077727290E+02  0.10253565887E+03  0.00000000000E+00 0. -1.
          2    1    1    2  501    0  0.28765527325E+02 -0.15965316382E+02 -0.86114103790E+01  0.34007400344E+02  0.00000000000E+00 0. -1.
<scales pt_clust_5="13000.00000" pt_clust_6="13000.00000" pt_clust_7="13000.00000" pt_clust_8="13000.00000" pt_clust_9="32.89906"></scales>
<clustering>
<clus scale="   32.899">  1  9  2 -1</clus>
<clus scale="   81.559">  5  6 -1 -1</clus>
<clus scale="   85.719">  7  8 -1 -1</clus>
<clus scale="   97.529">  2  5  1 -1</clus>
<clus scale="   32.899">  1  5  2 -1</clus>
</clustering>
</event>
<event>
 9    1  0.7835476E-005  0.1126310E+03  0.7546771E-02  0.1259706E+00
         -2   -1    0    0    0  501 -0.00000000000E+00  0.00000000000E+00  0.73109277447E+02  0.73109277447E+02  0.00000000000E+00 0.  1.
         21   -1    0    0  501  502  0.00000000000E+00 -0.00000000000E+00 -0.46265141744E+03  0.46265141744E+03  0.00000000000E+00 0. -1.
        -24    2    1    2    0    0 -0.64403456897E+02 -0.20672968656E+02 -0.13022974105E+01  0.10512395330E+03  0.80462243847E+02 0.  0.
         23    2    1    2    0    0  0.68675020337E+02 -0.22801244879E+02 -0.15753582607E+03  0.19583342660E+03  0.91088085343E+02 0.  0.
         11    1    3    3    0    0 -0.10445615743E+02  0.17768187066E+02 -0.27082854335E+02  0.34033811993E+02  0.00000000000E+00 0. -1.
        -12    1    3    3    0    0 -0.53957841154E+02 -0.38441155722E+02  0.25780556924E+02  0.71090141303E+02  0.00000000000E+00 0.  1.
        -13    1    4    4    0    0  0.36448768470E+02  0.32687494336E+02 -0.46123090408E+02  0.67263098930E+02  0.00000000000E+00 0.  1.
         13    1    4    4    0    0  0.32226251867E+02 -0.55488739215E+02 -0.11141273566E+03  0.12857032767E+03  0.00000000000E+00 0. -1.
         -1    1    1    2    0  502 -0.42715634403E+01  0.43474213534E+02 -0.23070401652E+03  0.23480331500E+03  0.00000000000E+00 0.  1.
<scales pt_clust_5="13000.00000" pt_clust_6="13000.00000" pt_clust_7="13000.00000" pt_clust_8="13000.00000" pt_clust_9="43.68356"></scales>
<clustering>
<clus scale="   43.684">  2  9  1 -1</clus>
<clus scale="   80.462">  5  6 -1 -1</clus>
<clus scale="   91.088">  7  8 -1 -1</clus>
<clus scale="  104.225">  1  5  2 -1</clus>
<clus scale="   43.684">  2  5  1 -1</clus>
</clustering>
</event>
<event>
 9    1  0.7835476E-005  0.1082938E+03  0.7546771E-02  0.1267805E+00
          3   -1    0    0  502    0 -0.00000000000E+00  0.00000000000E+00  0.40705841539E+03  0.40705841539E+03  0.00000000000E+00 0. -1.
         21   -1    0    0  501  502  0.00000000000E+00 -0.00000000000E+00 -0.19823338652E+03  0.19823338652E+03  0.00000000000E+00 0.  1.
        -24    2    1    2    0    0  0.97797752858E+01  0.59381144784E+02 -0.78192744292E+01  0.10040157050E+03  0.79984810720E+02 0.  0.
         23    2    1    2    0    0  0.55800218624E+02  0.16436592950E+02 -0.11563145792E+03  0.15782215963E+03  0.90296035481E+02 0.  0.
         11    1    3    3    0    0  0.41208541287E+02  0.29920234712E+02  0.12997449059E+02  0.52557568459E+02  0.00000000000E+00 0. -1.
        -12    1    3    3    0    0 -0.31428766002E+02  0.29460910072E+02 -0.20816723488E+02  0.47844002042E+02  0.00000000000E+00 0.  1.
        -13    1    4    4    0    0 -0.14007375373E+02  0.16378490449E+02  0.13518029065E+01  0.21593723285E+02  0.00000000000E+00 0. -1.
         13    1    4    4    0    0  0.69807593997E+02  0.58102500271E-01 -0.11698326083E+03  0.13622843635E+03  0.00000000000E+00 0.  1.
          4    1    1    2  501    0 -0.65579993910E+02 -0.75817737733E+02  0.33227576122E+03  0.34706807178E+03  0.00000000000E+00 0. -1.
<scales pt_clust_5="13000.00000" pt_clust_6="13000.00000" pt_clust_7="13000.00000" pt_clust_8="13000.00000" pt_clust_9="59.78441"></scales>
<clustering>
<clus scale="   79.985">  5  6 -1 -1</clus>
<clus scale="   90.296">  7  8 -1 -1</clus>
<clus scale="  100.097">  1  5  2 -1</clus>
<clus scale="   59.784">  2  9  1 -1</clus>
<clus scale="   59.784">  2  5  1 -1</clus>
</clustering>
</event>
<event>
 9    1  0.7835476E-005  0.4927741E+03  0.7546771E-02  0.1015682E+00
          1   -1    0    0  502    0 -0.00000000000E+00  0.00000000000E+00  0.10791568005E+04  0.10791568005E+04  0.00000000000E+00 0. -1.
         21   -1    0    0  501  502  0.00000000000E+00 -0.00000000000E+00 -0.20175737150E+03  0.20175737150E+03  0.00000000000E+00 0. -1.
        -24    2    1    2    0    0  0.20416726726E+03 -0.20424489603E+03  0.31919493801E+03  0.43796431936E+03  0.80790383110E+02 0.  0.
         23    2    1    2    0    0  0.21523404948E+02 -0.16917229524E+03  0.20600542588E+03  0.28221742114E+03  0.90143856487E+02 0.  0.
         11    1    3    3    0    0  0.19029817011E+03 -0.14583415654E+03  0.25086766740E+03  0.34700948303E+03  0.00000000000E+00 0. -1.
        -12    1    3    3    0    0  0.13869097154E+02 -0.58410739493E+02  0.68327270607E+02  0.90954836334E+02  0.00000000000E+00 0.  1.
        -13    1    4    4    0    0  0.78949220730E+01 -0.13770877846E+03  0.98817806942E+02  0.16967909839E+03  0.00000000000E+00 0. -1.
         13    1    4    4    0    0  0.13628482875E+02 -0.31463516779E+02  0.10718761894E+03  0.11253832275E+03  0.00000000000E+00 0.  1.
          2    1    1    2  501    0 -0.22569067221E+03  0.37341719127E+03  0.35219906506E+03  0.56073243146E+03  0.00000000000E+00 0. -1.
<scales pt_clust_5="13000.00000" pt_clust_6="13000.00000" pt_clust_7="13000.00000" pt_clust_8="13000.00000" pt_clust_9="436.32176"></scales>
<clustering>
<clus scale="   80.790">  5  6 -1 -1</clus>
<clus scale="   90.144">  7  8 -1 -1</clus>
<clus scale="  142.467">  5  7 -1 -1</clus>
<clus scale="  436.322">  2  9  1 -1</clus>
<clus scale="  436.322">  2  5  1 -1</clus>
</clustering>
</event>
<event>
 9    1  0.7835476E-005  0.1688618E+03  0.7546771E-02  0.1180364E+00
          1   -1    0    0  502    0 -0.00000000000E+00  0.00000000000E+00  0.35169957084E+02  0.35169957084E+02  0.00000000000E+00 0. -1.
         21   -1    0    0  501  502  0.00000000000E+00 -0.00000000000E+00 -0.14116740494E+04  0.14116740494E+04  0.00000000000E+00 0. -1.
         23    2    1    2    0    0  0.98834166080E+00 -0.13066973951E+03 -0.27153023131E+03  0.31478239357E+03  0.91015005045E+02 0.  0.
        -24    2    1    2    0    0 -0.23061597531E+02  0.17619574940E+03 -0.86514400741E+03  0.88695305559E+03  0.81454219422E+02 0.  0.
         11    1    4    4    0    0 -0.17820730777E+02  0.14638064891E+03 -0.52059466995E+03  0.54107641161E+03  0.00000000000E+00 0. -1.
        -12    1    4    4    0    0 -0.52408667537E+01  0.29815100496E+02 -0.34454933747E+03  0.34587664398E+03  0.00000000000E+00 0.  1.
        -13    1    3    3    0    0 -0.24514078645E+02 -0.12988347469E+03 -0.20952025526E+03  0.24772846913E+03  0.00000000000E+00 0. -1.
         13    1    3    3    0    0  0.25502420306E+02 -0.78626481441E+00 -0.62009976045E+02  0.67053924441E+02  0.00000000000E+00 0.  1.
          2    1    1    2  501    0  0.22073255870E+02 -0.45526009895E+02 -0.23982985363E+03  0.24510855736E+03  0.00000000000E+00 0. -1.
<scales pt_clust_5="13000.00000" pt_clust_6="13000.00000" pt_clust_7="13000.00000" pt_clust_8="13000.00000" pt_clust_9="50.59492"></scales>
<clustering>
<clus scale="   50.595">  2  9  1 -1</clus>
<clus scale="   81.454">  5  6 -1 -1</clus>
<clus scale="   91.015">  7  8 -1 -1</clus>
<clus scale="  163.907">  2  5  1 -1</clus>
<clus scale="   50.595">  2  5  1 -1</clus>
</clustering>
</event>
<event>
 9    1  0.7835476E-005  0.4041843E+03  0.7546771E-02  0.1042340E+00
         21   -1    0    0  501  502  0.00000000000E+00  0.00000000000E+00  0.19644981344E+03  0.19644981344E+03  0.00000000000E+00 0. -1.
          1   -1    0    0  502    0 -0.00000000000E+00 -0.00000000000E+00 -0.71332818862E+03  0.71332818862E+03  0.00000000000E+00 0. -1.
        -24    2    1    2    0    0  0.20713245817E+03 -0.31783503655E+02 -0.19797175479E+03  0.29913916540E+03  0.79858488922E+02 0.  0.
         23    2    1    2    0    0  0.11696764334E+03 -0.37231691933E+02 -0.72611904233E+00  0.15124488322E+03  0.88356431451E+02 0.  0.
         11    1    3    3    0    0  0.56483207660E+02  0.26925555270E+02 -0.55369674667E+02  0.83553211470E+02  0.00000000000E+00 0. -1.
        -12    1    3    3    0    0  0.15064925051E+03 -0.58709058925E+02 -0.14260208012E+03  0.21558595393E+03  0.00000000000E+00 0.  1.
        -13    1    4    4    0    0  0.33726495849E+02 -0.15653420206E+02 -0.41802042776E+02  0.55945659944E+02  0.00000000000E+00 0. -1.
         13    1    4    4    0    0  0.83241147492E+02 -0.21578271726E+02  0.41075923734E+02  0.95299223276E+02  0.00000000000E+00 0.  1.
          2    1    1    2  501    0 -0.32410010151E+03  0.69015195587E+02 -0.31818050134E+03  0.45939395344E+03  0.00000000000E+00 0. -1.
<scales pt_clust_5="13000.00000" pt_clust_6="13000.00000" pt_clust_7="13000.00000" pt_clust_8="13000.00000" pt_clust_9="331.36699"></scales>
<clustering>
<clus scale="   79.858">  5  6 -1 -1</clus>
<clus scale="   88.356">  7  8 -1 -1</clus>
<clus scale="  148.685">  5  7 -1 -1</clus>
<clus scale="  331.367">  1  9  2 -1</clus>
<clus scale="  331.367">  1  5  2 -1</clus>
</clustering>
</event>
<event>
 9    1  0.7835476E-005  0.1372188E+03  0.7546771E-02  0.1222194E+00
         21   -1    0    0  501  502  0.00000000000E+00  0.00000000000E+00  0.40672521769E+03  0.40672521769E+03  0.00000000000E+00 0.  1.
          1   -1    0    0  502    0 -0.00000000000E+00 -0.00000000000E+00 -0.23531160010E+03  0.23531160010E+03  0.00000000000E+00 0. -1.
        -24    2    1    2    0    0  0.89593779060E+02 -0.44178920764E+02 -0.17981364577E+03  0.21748078061E+03  0.70612466623E+02 0.  0.
         23    2    1    2    0    0 -0.74935072553E+02  0.11506172840E+03  0.25594982782E+03  0.30490220391E+03  0.92739275102E+02 0.  0.
         13    1    3    3    0    0  0.77250391414E+02 -0.39499825126E+02 -0.18416673107E+03  0.20358105017E+03  0.00000000000E+00 0. -1.
        -14    1    3    3    0    0  0.12343387646E+02 -0.46790956385E+01  0.43530852945E+01  0.13899730435E+02  0.00000000000E+00 0.  1.
        -13    1    4    4    0    0 -0.62488034521E+02  0.14323235821E+02  0.94420389322E+02  0.11412764548E+03  0.00000000000E+00 0.  1.
         13    1    4    4    0    0 -0.12447038031E+02  0.10073849258E+03  0.16152943850E+03  0.19077455843E+03  0.00000000000E+00 0. -1.
          2    1    1    2  501    0 -0.14658706507E+02 -0.70882807636E+02  0.95277435541E+02  0.11965383328E+03  0.00000000000E+00 0. -1.
<scales pt_clust_5="13000.00000" pt_clust_6="13000.00000" pt_clust_7="13000.00000" pt_clust_8="13000.00000" pt_clust_9="72.38266"></scales>
<clustering>
<clus scale="   70.612">  5  6 -1 -1</clus>
<clus scale="   72.383">  1  9  2 -1</clus>
<clus scale="   92.739">  7  8 -1 -1</clus>
<clus scale="  123.347">  2  5  1 -1</clus>
<clus scale="   72.383">  1  5  2 -1</clus>
</clustering>
</event>
<event>
 9    1  0.7835476E-005  0.1005804E+03  0.7546771E-02  0.1282386E+00
         21   -1    0    0  501  502  0.00000000000E+00  0.00000000000E+00  0.28109628363E+03  0.28109628363E+03  0.00000000000E+00 0.  1.
          1   -1    0    0  502    0 -0.00000000000E+00 -0.00000000000E+00 -0.13618065845E+03  0.13618065845E+03  0.00000000000E+00 0. -1.
         23    2    1    2    0    0  0.62990072471E+02  0.11627818727E+02 -0.60217436908E+02  0.12692447818E+03  0.91546316447E+02 0.  0.
        -24    2    1    2    0    0  0.26064204201E+02 -0.43107596982E+02  0.46480595757E+02  0.10571160790E+03  0.80479131487E+02 0.  0.
         11    1    4    4    0    0  0.52638173481E+02 -0.22337202691E+02  0.13964405677E+02  0.58861978878E+02  0.00000000000E+00 0. -1.
        -12    1    4    4    0    0 -0.26573969280E+02 -0.20770394292E+02  0.32516190080E+02  0.46849629024E+02  0.00000000000E+00 0.  1.
        -11    1    3    3    0    0  0.27309517776E+02  0.47353098761E+02 -0.52601072535E+02  0.75861706778E+02  0.00000000000E+00 0.  1.
         11    1    3    3    0    0  0.35680554695E+02 -0.35725280034E+02 -0.76163643731E+01  0.51062771401E+02  0.00000000000E+00 0. -1.
          2    1    1    2  501    0 -0.89054276672E+02  0.31479778256E+02  0.15865246633E+03  0.18464085600E+03  0.00000000000E+00 0. -1.
<scales pt_clust_5="13000.00000" pt_clust_6="13000.00000" pt_clust_7="13000.00000" pt_clust_8="13000.00000" pt_clust_9="94.45444"></scales>
<clustering>
<clus scale="   80.479">  5  6 -1 -1</clus>
<clus scale="   91.546">  7  8 -1 -1</clus>
<clus scale="   94.454">  1  9  2 -1</clus>
<clus scale="   94.454">  1  5  2 -1</clus>
<clus scale="   94.454">  1  5  2 -1</clus>
</clustering>
</event>
<event>
 9    1  0.7835476E-005  0.3625298E+03  0.7546771E-02  0.1057864E+00
         21   -1    0    0  501  502  0.00000000000E+00  0.00000000000E+00  0.38937918336E+03  0.38937918336E+03  0.00000000000E+00 0.  1.
         -4   -1    0    0    0  501 -0.00000000000E+00 -0.00000000000E+00 -0.55481043237E+03  0.55481043237E+03  0.00000000000E+00 0.  1.
         23    2    1    2    0    0  0.23730748272E+03 -0.19758889663E+03 -0.98384691105E+02  0.33696452857E+03  0.92246044079E+02 0.  0.
        -24    2    1    2    0    0 -0.37461177600E+03  0.22110645676E+03  0.20221968364E+02  0.44284339637E+03  0.80494085294E+02 0.  0.
         13    1    4    4    0    0 -0.64248695533E+02  0.29625811529E+02 -0.25725804899E+02  0.75282140141E+02  0.00000000000E+00 0. -1.
        -14    1    4    4    0    0 -0.31036308047E+03  0.19148064523E+03  0.45947773263E+02  0.36756125623E+03  0.00000000000E+00 0.  1.
        -11    1    3    3    0    0  0.18513676602E+03 -0.15293235784E+03 -0.33448371670E+02  0.24245148334E+03  0.00000000000E+00 0.  1.
         11    1    3    3    0    0  0.52170716701E+02 -0.44656538781E+02 -0.64936319434E+02  0.94513045230E+02  0.00000000000E+00 0. -1.
         -3    1    1    2    0  502  0.13730429328E+03 -0.23517560130E+02 -0.87268526272E+02  0.16438169079E+03  0.00000000000E+00 0.  1.
<scales pt_clust_5="13000.00000" pt_clust_6="13000.00000" pt_clust_7="13000.00000" pt_clust_8="13000.00000" pt_clust_9="139.30385"></scales>
<clustering>
<clus scale="   80.494">  5  6 -1 -1</clus>
<clus scale="   92.246">  7  8 -1 -1</clus>
<clus scale="  139.304">  1  9  2 -1</clus>
<clus scale="  359.719">  1  5  2 -1</clus>
<clus scale="  139.304">  1  5  2 -1</clus>
</clustering>
</event>
<event>
 9    1  0.7835476E-005  0.1038017E+03  0.7546771E-02  0.1275565E+00
         21   -1    0    0  501  502  0.00000000000E+00  0.00000000000E+00  0.11866259636E+03  0.11866259636E+03  0.00000000000E+00 0. -1.
         -2   -1    0    0    0  501 -0.00000000000E+00 -0.00000000000E+00 -0.24493289834E+03  0.24493289834E+03  0.00000000000E+00 0.  1.
         23    2    1    2    0    0  0.46103247997E+02 -0.34258349500E+02 -0.17663949799E+03  0.20656223132E+03  0.90373110886E+02 0.  0.
        -24    2    1    2    0    0  0.57674396044E+00  0.44017539374E+02  0.10665430648E+02  0.94979638016E+02  0.83483554193E+02 0.  0.
         11    1    4    4    0    0 -0.25594707277E+02  0.45924096165E+02  0.31661979542E+02  0.61372572031E+02  0.00000000000E+00 0. -1.
        -12    1    4    4    0    0  0.26171451238E+02 -0.19065567915E+01 -0.20996548894E+02  0.33607065985E+02  0.00000000000E+00 0.  1.
        -11    1    3    3    0    0  0.71529157986E+02 -0.36276850914E+02 -0.11868055234E+03  0.14323932371E+03  0.00000000000E+00 0.  1.
         11    1    3    3    0    0 -0.25425909988E+02  0.20185014138E+01 -0.57958945658E+02  0.63322907612E+02  0.00000000000E+00 0. -1.
         -1    1    1    2    0  502 -0.46679991958E+02 -0.97591898740E+01  0.39703765370E+02  0.62053625363E+02  0.00000000000E+00 0.  1.
<scales pt_clust_5="13000.00000" pt_clust_6="13000.00000" pt_clust_7="13000.00000" pt_clust_8="13000.00000" pt_clust_9="47.68924"></scales>
<clustering>
<clus scale="   47.689">  1  9  2 -1</clus>
<clus scale="   83.484">  5  6 -1 -1</clus>
<clus scale="   90.373">  7  8 -1 -1</clus>
<clus scale="   97.862">  1  5  2 -1</clus>
<clus scale="   47.689">  1  5  2 -1</clus>
</clustering>
</event>
<event>
 9    1  0.7835476E-005  0.1724301E+03  0.7546771E-02  0.1186712E+00
         21   -1    0    0  501  502  0.00000000000E+00  0.00000000000E+00  0.23519426957E+03  0.23519426957E+03  0.00000000000E+00 0. -1.
          1   -1    0    0  502    0 -0.00000000000E+00 -0.00000000000E+00 -0.83252818399E+03  0.83252818399E+03  0.00000000000E+00 0. -1.
         23    2    1    2    0    0 -0.94333481305E+02  0.17829598504E+02  0.44437131805E+02  0.14078345629E+03  0.92890379503E+02 0.  0.
        -24    2    1    2    0    0  0.10740456332E+03 -0.15631040261E+03 -0.73092444591E+03  0.76172363791E+03  0.10001836194E+03 0.  0.
         13    1    4    4    0    0  0.81626974593E+02 -0.15085394830E+03 -0.70176856099E+03  0.72242576774E+03  0.00000000000E+00 0. -1.
        -14    1    4    4    0    0  0.25777588723E+02 -0.54564543106E+01 -0.29155884925E+02  0.39297870169E+02  0.00000000000E+00 0.  1.
        -11    1    3    3    0    0 -0.35755195295E+02 -0.51292770665E+01 -0.27364477934E+02  0.45316201589E+02  0.00000000000E+00 0.  1.
         11    1    3    3    0    0 -0.58578286010E+02  0.22958875570E+02  0.71801609739E+02  0.95467254702E+02  0.00000000000E+00 0. -1.
          2    1    1    2  501    0 -0.13071082011E+02  0.13848080411E+03  0.89153399694E+02  0.16521535936E+03  0.00000000000E+00 0. -1.
<scales pt_clust_5="13000.00000" pt_clust_6="13000.00000" pt_clust_7="13000.00000" pt_clust_8="13000.00000" pt_clust_9="140.45804"></scales>
<clustering>
<clus scale="   92.890">  7  8 -1 -1</clus>
<clus scale="  100.018">  5  6 -1 -1</clus>
<clus scale="  133.586">  2  7  1 -1</clus>
<clus scale="  140.458">  1  9  2 -1</clus>
<clus scale="  140.458">  1  5  2 -1</clus>
</clustering>
</event>
<event>
 9    1  0.7835476E-005  0.1081083E+03  0.7546771E-02  0.1268803E+00
          1   -1    0    0  502    0 -0.00000000000E+00  0.00000000000E+00  0.14557818076E+03  0.14557818076E+03  0.00000000000E+00 0. -1.
         21   -1    0    0  501  502  0.00000000000E+00 -0.00000000000E+00 -0.13958102442E+03  0.13958102442E+03  0.00000000000E+00 0. -1.
         23    2    1    2    0    0 -0.19340904435E+02 -0.63005567131E+02  0.82801371324E+02  0.14009193642E+03  0.91792763787E+02 0.  0.
        -24    2    1    2    0    0  0.21460292428E+02  0.28997185608E+02 -0.47772642343E+02  0.10030239380E+03  0.80479586989E+02 0.  0.
         13    1    4    4    0    0  0.14619687752E+02 -0.22411475532E+02 -0.39611340424E+02  0.47802382741E+02  0.00000000000E+00 0. -1.
        -14    1    4    4    0    0  0.68406046763E+01  0.51408661140E+02 -0.81613019189E+01  0.52500011063E+02  0.00000000000E+00 0.  1.
        -13    1    3    3    0    0  0.23698465553E+02 -0.25547142784E+02 -0.51796236351E+01  0.35229281499E+02  0.00000000000E+00 0.  1.
         13    1    3    3    0    0 -0.43039369988E+02 -0.37458424347E+02  0.87980994959E+02  0.10486265492E+03  0.00000000000E+00 0. -1.
          2    1    1    2  501    0 -0.21193879930E+01  0.34008381523E+02 -0.29031572649E+02  0.44764874955E+02  0.00000000000E+00 0. -1.
<scales pt_clust_5="13000.00000" pt_clust_6="13000.00000" pt_clust_7="13000.00000" pt_clust_8="13000.00000" pt_clust_9="34.07436"></scales>
<clustering>
<clus scale="   34.074">  2  9  1 -1</clus>
<clus scale="   80.480">  5  6 -1 -1</clus>
<clus scale="   91.793">  7  8 -1 -1</clus>
<clus scale="   98.684">  2  5  1 -1</clus>
<clus scale="   34.074">  2  5  1 -1</clus>
</clustering>
</event>
<event>
 9    1  0.7835476E-005  0.1196252E+03  0.7546771E-02  0.1249584E+00
          1   -1    0    0  502    0 -0.00000000000E+00  0.00000000000E+00  0.91457951944E+03  0.91457951944E+03  0.00000000000E+00 0. -1.
         21   -1    0    0  501  502  0.00000000000E+00 -0.00000000000E+00 -0.27422192521E+02  0.27422192521E+02  0.00000000000E+00 0. -1.
        -24    2    1    2    0    0 -0.71607240549E+02 -0.37930021696E+02  0.53099970116E+03  0.54318303106E+03  0.80751712982E+02 0.  0.
         23    2    1    2    0    0  0.10875405247E+02  0.53413753950E+02  0.18049708980E+03  0.21231204382E+03  0.97600722202E+02 0.  0.
         13    1    3    3    0    0 -0.80941803091E+02 -0.42561694637E+02  0.34572452193E+03  0.35761504219E+03  0.00000000000E+00 0. -1.
        -14    1    3    3    0    0  0.93345625423E+01  0.46316729406E+01  0.18527517924E+03  0.18556798887E+03  0.00000000000E+00 0.  1.
        -13    1    4    4    0    0  0.28976057244E+02  0.33369916019E+02  0.18220170052E+02  0.47803114807E+02  0.00000000000E+00 0. -1.
         13    1    4    4    0    0 -0.18100651998E+02  0.20043837931E+02  0.16227691975E+03  0.16450892902E+03  0.00000000000E+00 0.  1.
          2    1    1    2  501    0  0.60731835302E+02 -0.15483732253E+02  0.17566053595E+03  0.18650663707E+03  0.00000000000E+00 0. -1.
<scales pt_clust_5="13000.00000" pt_clust_6="13000.00000" pt_clust_7="13000.00000" pt_clust_8="13000.00000" pt_clust_9="62.67460"></scales>
<clustering>
<clus scale="   62.675">  2  9  1 -1</clus>
<clus scale="   80.752">  5  6 -1 -1</clus>
<clus scale="   97.601">  7  8 -1 -1</clus>
<clus scale="  106.326">  1  5  2 -1</clus>
<clus scale="   62.675">  2  5  1 -1</clus>
</clustering>
</event>
<event>
 9    1  0.7835476E-005  0.9794391E+02  0.7546771E-02  0.1290238E+00
         21   -1    0    0  501  502  0.00000000000E+00  0.00000000000E+00  0.97778441107E+02  0.97778441107E+02  0.00000000000E+00 0. -1.
         -2   -1    0    0    0  501 -0.00000000000E+00 -0.00000000000E+00 -0.14075030049E+03  0.14075030049E+03  0.00000000000E+00 0.  1.
        -24    2    1    2    0    0  0.11182914474E+02 -0.23403771774E+02 -0.27147792099E+02  0.87200685676E+02  0.78703004118E+02 0.  0.
         23    2    1    2    0    0 -0.13343726267E+02  0.63182119177E+02 -0.72126997346E+01  0.11057095003E+03  0.89464388103E+02 0.  0.
         13    1    3    3    0    0 -0.17112927366E+02 -0.29929116440E+02  0.13687006832E+02  0.37093644334E+02  0.00000000000E+00 0. -1.
        -14    1    3    3    0    0  0.28295841840E+02  0.65253446663E+01 -0.40834798930E+02  0.50107041343E+02  0.00000000000E+00 0.  1.
        -13    1    4    4    0    0 -0.45849976358E+02  0.26330214891E+02 -0.24772220112E+02  0.58388041905E+02  0.00000000000E+00 0.  1.
         13    1    4    4    0    0  0.32506250091E+02  0.36851904286E+02  0.17559520377E+02  0.52182908125E+02  0.00000000000E+00 0. -1.
         -1    1    1    2    0  502  0.21608117935E+01 -0.39778347403E+02 -0.86113675525E+01  0.40757105894E+02  0.00000000000E+00 0.  1.
<scales pt_clust_5="13000.00000" pt_clust_6="13000.00000" pt_clust_7="13000.00000" pt_clust_8="13000.00000" pt_clust_9="39.83701"></scales>
<clustering>
<clus scale="   39.837">  1  9  2 -1</clus>
<clus scale="   78.703">  5  6 -1 -1</clus>
<clus scale="   88.223">  2  5  1 -1</clus>
<clus scale="   89.464">  7  8 -1 -1</clus>
<clus scale="   39.837">  1  5  2 -1</clus>
</clustering>
</event>
<event>
 9    1  0.7835476E-005  0.9537307E+02  0.7546771E-02  0.1295681E+00
          1   -1    0    0  502    0 -0.00000000000E+00  0.00000000000E+00  0.80231597447E+02  0.80231597447E+02  0.00000000000E+00 0. -1.
         21   -1    0    0  501  502  0.00000000000E+00 -0.00000000000E+00 -0.21710745612E+03  0.21710745612E+03  0.00000000000E+00 0.  1.
         23    2    1    2    0    0 -0.32703430625E+02  0.85034239361E+01  0.26306741779E+02  0.99805839842E+02  0.90151752120E+02 0.  0.
        -24    2    1    2    0    0  0.14248145847E+02 -0.19412176004E+02 -0.15115493898E+03  0.17295145120E+03  0.80526682907E+02 0.  0.
         13    1    4    4    0    0  0.24140430490E+02 -0.47872306970E+02 -0.89549866873E+02  0.10437287395E+03  0.00000000000E+00 0. -1.
        -14    1    4    4    0    0 -0.98922846434E+01  0.28460130966E+02 -0.61605072102E+02  0.68578577258E+02  0.00000000000E+00 0.  1.
        -11    1    3    3    0    0 -0.85028971118E+01 -0.40616772693E+02  0.10308664440E+02  0.42758508461E+02  0.00000000000E+00 0.  1.
         11    1    3    3    0    0 -0.24200533513E+02  0.49120196629E+02  0.15998077338E+02  0.57047331381E+02  0.00000000000E+00 0. -1.
          2    1    1    2  501    0  0.18455284778E+02  0.10908752068E+02 -0.12027661476E+02  0.24581762518E+02  0.00000000000E+00 0. -1.
<scales pt_clust_5="13000.00000" pt_clust_6="13000.00000" pt_clust_7="13000.00000" pt_clust_8="13000.00000" pt_clust_9="21.43825"></scales>
<clustering>
<clus scale="   21.438">  2  9  1 -1</clus>
<clus scale="   80.527">  5  6 -1 -1</clus>
<clus scale="   86.332">  2  5  1 -1</clus>
<clus scale="   90.152">  7  8 -1 -1</clus>
<clus scale="   21.438">  2  5  1 -1</clus>
</clustering>
</event>
<event>
 9    1  0.7835476E-005  0.2978479E+03  0.7546771E-02  0.1086696E+00
          1   -1    0    0  502    0 -0.00000000000E+00  0.00000000000E+00  0.17107335813E+03  0.17107335813E+03  0.00000000000E+00 0. -1.
         21   -1    0    0  501  502  0.00000000000E+00 -0.00000000000E+00 -0.14150336255E+04  0.14150336255E+04  0.00000000000E+00 0. -1.
         23    2    1    2    0    0 -0.21892911375E+03 -0.19893122384E+03 -0.14227671351E+02  0.31005354153E+03  0.91799691283E+02 0.  0.
        -24    2    1    2    0    0  0.11836799377E+03  0.19155399541E+03 -0.83988208400E+03  0.87337443337E+03  0.81713344867E+02 0.  0.
         11    1    4    4    0    0  0.49642373329E+02  0.14692263061E+03 -0.60690373603E+03  0.62640463713E+03  0.00000000000E+00 0. -1.
        -12    1    4    4    0    0  0.68725620444E+02  0.44631364798E+02 -0.23297834797E+03  0.24696979623E+03  0.00000000000E+00 0.  1.
        -11    1    3    3    0    0 -0.46851075592E+02 -0.17934836573E+02 -0.32290299244E+02  0.59660247001E+02  0.00000000000E+00 0.  1.
         11    1    3    3    0    0 -0.17207803815E+03 -0.18099638727E+03  0.18062627893E+02  0.25039329453E+03  0.00000000000E+00 0. -1.
          2    1    1    2  501    0  0.10056111997E+03  0.73772284337E+01 -0.38985051206E+03  0.40267900877E+03  0.00000000000E+00 0. -1.
<scales pt_clust_5="13000.00000" pt_clust_6="13000.00000" pt_clust_7="13000.00000" pt_clust_8="13000.00000" pt_clust_9="100.83136"></scales>
<clustering>
<clus scale="   81.713">  5  6 -1 -1</clus>
<clus scale="   91.800">  7  8 -1 -1</clus>
<clus scale="  100.831">  2  9  1 -1</clus>
<clus scale="  294.895">  2  5  1 -1</clus>
<clus scale="  100.831">  2  5  1 -1</clus>
</clustering>
</event>
<event>
 9    1  0.7835476E-005  0.9191373E+02  0.7546771E-02  0.1298652E+00
         21   -1    0    0  501  502  0.00000000000E+00  0.00000000000E+00  0.26316000153E+02  0.26316000153E+02  0.00000000000E+00 0. -1.
          1   -1    0    0  502    0 -0.00000000000E+00 -0.00000000000E+00 -0.85975877077E+03  0.85975877077E+03  0.00000000000E+00 0. -1.
         23    2    1    2    0    0  0.18848333048E+02 -0.21774726755E+02 -0.34618933668E+03  0.35906553251E+03  0.90838325748E+02 0.  0.
        -24    2    1    2    0    0  0.28147953889E+02 -0.57581746852E+02 -0.30630332849E+03  0.32391063784E+03  0.83596694835E+02 0.  0.
         13    1    4    4    0    0  0.33556567102E+02 -0.74097408940E+02 -0.28519797684E+03  0.29657099521E+03  0.00000000000E+00 0. -1.
        -14    1    4    4    0    0 -0.54086132129E+01  0.16515662089E+02 -0.21105351651E+02  0.27339642636E+02  0.00000000000E+00 0.  1.
        -11    1    3    3    0    0  0.35678337407E+02  0.23774299737E+02 -0.21368669870E+03  0.21794532867E+03  0.00000000000E+00 0.  1.
         11    1    3    3    0    0 -0.16830004359E+02 -0.45549026491E+02 -0.13250263797E+03  0.14112020384E+03  0.00000000000E+00 0. -1.
          2    1    1    2  501    0 -0.46996286937E+02  0.79356473606E+02 -0.18095010545E+03  0.20309860057E+03  0.00000000000E+00 0. -1.
<scales pt_clust_5="13000.00000" pt_clust_6="13000.00000" pt_clust_7="13000.00000" pt_clust_8="13000.00000" pt_clust_9="92.22853"></scales>
<clustering>
<clus scale="   83.597">  5  6 -1 -1</clus>
<clus scale="   90.838">  7  8 -1 -1</clus>
<clus scale="   92.229">  1  9  2 -1</clus>
<clus scale="   92.229">  1  5  2 -1</clus>
<clus scale="   91.914">  1  5  2 -1</clus>
</clustering>
</event>
<event>
 9    1  0.7835476E-005  0.1439592E+03  0.7546771E-02  0.1214183E+00
         21   -1    0    0  501  502  0.00000000000E+00  0.00000000000E+00  0.97472429808E+02  0.97472429808E+02  0.00000000000E+00 0. -1.
          1   -1    0    0  502    0 -0.00000000000E+00 -0.00000000000E+00 -0.42991704426E+03  0.42991704426E+03  0.00000000000E+00 0. -1.
        -24    2    1    2    0    0  0.19882099052E+02 -0.97972244117E+02 -0.57770063890E+02  0.13902320796E+03  0.77435221890E+02 0.  0.
         23    2    1    2    0    0  0.99217684343E+02  0.34596983710E+02 -0.14591321127E+03  0.20187051674E+03  0.91760231788E+02 0.  0.
         13    1    3    3    0    0  0.16375396736E+02 -0.45134671337E+02 -0.69800939744E+02  0.84719911262E+02  0.00000000000E+00 0. -1.
        -14    1    3    3    0    0  0.35067023160E+01 -0.52837572779E+02  0.12030875854E+02  0.54303296697E+02  0.00000000000E+00 0.  1.
        -11    1    4    4    0    0  0.20955543762E+02 -0.22236857310E+02 -0.77764330584E+02  0.83551802784E+02  0.00000000000E+00 0.  1.
         11    1    4    4    0    0  0.78262140582E+02  0.56833841019E+02 -0.68148880685E+02  0.11831871396E+03  0.00000000000E+00 0. -1.
          2    1    1    2  501    0 -0.11909978340E+03  0.63375260407E+02 -0.12876133929E+03  0.18649574937E+03  0.00000000000E+00 0. -1.
<scales pt_clust_5="13000.00000" pt_clust_6="13000.00000" pt_clust_7="13000.00000" pt_clust_8="13000.00000" pt_clust_9="110.92487"></scales>
<clustering>
<clus scale="   77.435">  5  6 -1 -1</clus>
<clus scale="   91.760">  7  8 -1 -1</clus>
<clus scale="  126.452">  2  5  1 -1</clus>
<clus scale="  110.925">  1  9  2 -1</clus>
<clus scale="  110.925">  1  5  2 -1</clus>
</clustering>
</event>
<event>
 9    1  0.7835476E-005  0.8996570E+02  0.7546771E-02  0.1304641E+00
         -2   -1    0    0    0  501 -0.00000000000E+00  0.00000000000E+00  0.57309153933E+03  0.57309153933E+03  0.00000000000E+00 0.  1.
         21   -1    0    0  501  502  0.00000000000E+00 -0.00000000000E+00 -0.25690493285E+02  0.25690493285E+02  0.00000000000E+00 0.  1.
        -24    2    1    2    0    0  0.40785338744E+02 -0.96469964219E+01  0.28159716139E+03  0.29600038013E+03  0.81010834716E+02 0.  0.
         23    2    1    2    0    0 -0.34210766453E+02 -0.38393501634E+02  0.14329899970E+03  0.17102975954E+03  0.77923923318E+02 0.  0.
         11    1    3    3    0    0  0.25176389513E+02 -0.43953676398E+02  0.19661459483E+03  0.20303466491E+03  0.00000000000E+00 0. -1.
        -12    1    3    3    0    0  0.15608949231E+02  0.34306679976E+02  0.84982566559E+02  0.92965715218E+02  0.00000000000E+00 0.  1.
        -11    1    4    4    0    0  0.93841847748E+01  0.17811071658E+02  0.48501756895E+02  0.52513975468E+02  0.00000000000E+00 0. -1.
         11    1    4    4    0    0 -0.43594951228E+02 -0.56204573293E+02  0.94797242807E+02  0.11851578408E+03  0.00000000000E+00 0.  1.
         -1    1    1    2    0  502 -0.65745722903E+01  0.48040498056E+02  0.12250488496E+03  0.13175189294E+03  0.00000000000E+00 0.  1.
<scales pt_clust_5="13000.00000" pt_clust_6="13000.00000" pt_clust_7="13000.00000" pt_clust_8="13000.00000" pt_clust_9="48.48832"></scales>
<clustering>
<clus scale="   48.488">  2  9  1 -1</clus>
<clus scale="   77.924">  7  8 -1 -1</clus>
<clus scale="   81.011">  5  6 -1 -1</clus>
<clus scale="   87.196">  2  7  1 -1</clus>
<clus scale="   48.488">  2  5  1 -1</clus>
</clustering>
</event>
<event>
 9    1  0.7835476E-005  0.1294381E+03  0.7546771E-02  0.1228473E+00
         21   -1    0    0  501  502  0.00000000000E+00  0.00000000000E+00  0.14763531391E+03  0.14763531391E+03  0.00000000000E+00 0. -1.
          1   -1    0    0  502    0 -0.00000000000E+00 -0.00000000000E+00 -0.54211334006E+03  0.54211334006E+03  0.00000000000E+00 0. -1.
         23    2    1    2    0    0 -0.41482686887E+02  0.77591395064E+02 -0.38116027977E+03  0.40041743971E+03  0.85496954651E+02 0.  0.
        -24    2    1    2    0    0  0.52634644753E+02 -0.13697378432E+03 -0.89863805142E+02  0.19181232671E+03  0.84759906700E+02 0.  0.
         11    1    4    4    0    0  0.63777417810E+02 -0.76946960800E+02 -0.83862582400E+02  0.13046580596E+03  0.00000000000E+00 0. -1.
        -12    1    4    4    0    0 -0.11142773057E+02 -0.60026823517E+02 -0.60012227418E+01  0.61346520744E+02  0.00000000000E+00 0.  1.
        -11    1    3    3    0    0  0.24971661479E+02  0.28814884533E+02 -0.88396832054E+02  0.96269836215E+02  0.00000000000E+00 0. -1.
         11    1    3    3    0    0 -0.66454348367E+02  0.48776510531E+02 -0.29276344771E+03  0.30414760350E+03  0.00000000000E+00 0.  1.
          2    1    1    2  501    0 -0.11151957866E+02  0.59382389253E+02  0.76546058758E+02  0.97518887550E+02  0.00000000000E+00 0. -1.
<scales pt_clust_5="13000.00000" pt_clust_6="13000.00000" pt_clust_7="13000.00000" pt_clust_8="13000.00000" pt_clust_9="60.42048"></scales>
<clustering>
<clus scale="   60.420">  1  9  2 -1</clus>
<clus scale="   84.760">  5  6 -1 -1</clus>
<clus scale="   85.497">  7  8 -1 -1</clus>
<clus scale="  128.952">  1  5  2 -1</clus>
<clus scale="   60.420">  1  5  2 -1</clus>
</clustering>
</event>
<event>
 9    1  0.7835476E-005  0.2436922E+03  0.7546771E-02  0.1157814E+00
         21   -1    0    0  501  502  0.00000000000E+00  0.00000000000E+00  0.11832767394E+03  0.11832767394E+03  0.00000000000E+00 0.  1.
          1   -1    0    0  502    0 -0.00000000000E+00 -0.00000000000E+00 -0.12182595623E+04  0.12182595623E+04  0.00000000000E+00 0. -1.
         23    2    1    2    0    0 -0.11992318603E+02 -0.45206112304E+01 -0.15244015421E+03  0.17775324858E+03  0.90520523276E+02 0.  0.
        -24    2    1    2    0    0 -0.16705353803E+03 -0.15570676402E+03 -0.74172994049E+02  0.25306588689E+03  0.79932653712E+02 0.  0.
         13    1    4    4    0    0 -0.84063011053E+02 -0.26140121618E+02 -0.24479685439E+02  0.91373687595E+02  0.00000000000E+00 0. -1.
        -14    1    4    4    0    0 -0.82990526979E+02 -0.12956664240E+03 -0.49693308609E+02  0.16169219929E+03  0.00000000000E+00 0.  1.
        -13    1    3    3    0    0 -0.10316264881E+02 -0.38757078669E+02 -0.28606910072E+02  0.49263493298E+02  0.00000000000E+00 0. -1.
         13    1    3    3    0    0 -0.16760537216E+01  0.34236467439E+02 -0.12383324414E+03  0.12848975529E+03  0.00000000000E+00 0.  1.
          2    1    1    2  501    0  0.17904585663E+03  0.16022737525E+03 -0.87331874005E+03  0.90576810072E+03  0.00000000000E+00 0. -1.
<scales pt_clust_5="13000.00000" pt_clust_6="13000.00000" pt_clust_7="13000.00000" pt_clust_8="13000.00000" pt_clust_9="230.21011"></scales>
<clustering>
<clus scale="   79.933">  5  6 -1 -1</clus>
<clus scale="   90.521">  7  8 -1 -1</clus>
<clus scale="   91.423">  2  7  1 -1</clus>
<clus scale="  230.210">  1  9  2 -1</clus>
<clus scale="  230.210">  1  5  2 -1</clus>
</clustering>
</event>
<event>
 9    1  0.7835476E-005  0.4478708E+03  0.7546771E-02  0.1051419E+00
          1   -1    0    0  502    0 -0.00000000000E+00  0.00000000000E+00  0.35629070892E+03  0.35629070892E+03  0.00000000000E+00 0. -1.
         21   -1    0    0  501  502  0.00000000000E+00 -0.00000000000E+00 -0.13819250536E+04  0.13819250536E+04  0.00000000000E+00 0. -1.
        -24    2    1    2    0    0  0.16949647474E+03 -0.13074518285E+03 -0.16860737662E+02  0.22953498899E+03  0.81108994010E+02 0.  0.
         23    2    1    2    0    0 -0.46600915225E+03 -0.53752056109E+02 -0.10532851187E+04  0.11566292521E+04  0.91257174440E+02 0.  0.
         13    1    3    3    0    0  0.24346767153E+02 -0.49892612712E+02  0.20600355983E+02  0.59214968890E+02  0.00000000000E+00 0. -1.
        -14    1    3    3    0    0  0.14514970759E+03 -0.80852570136E+02 -0.37461093645E+02  0.17032002010E+03  0.00000000000E+00 0.  1.
        -11    1    4    4    0    0 -0.37437491391E+03 -0.43426132964E+02 -0.74587946635E+03  0.83569048308E+03  0.00000000000E+00 0. -1.
         11    1    4    4    0    0 -0.91634238347E+02 -0.10325923145E+02 -0.30740565239E+03  0.32093876900E+03  0.00000000000E+00 0.  1.
          2    1    1    2  501    0  0.29651267751E+03  0.18449723896E+03  0.44511511689E+02  0.35205152149E+03  0.00000000000E+00 0. -1.
<scales pt_clust_5="13000.00000" pt_clust_6="13000.00000" pt_clust_7="13000.00000" pt_clust_8="13000.00000" pt_clust_9="438.47530"></scales>
<clustering>
<clus scale="   81.109">  5  6 -1 -1</clus>
<clus scale="   91.257">  7  8 -1 -1</clus>
<clus scale="  228.915">  1  5  2 -1</clus>
<clus scale="  438.475">  2  9  1 -1</clus>
<clus scale="  438.475">  2  5  1 -1</clus>
</clustering>
</event>
<event>
 9    1  0.7835476E-005  0.1085398E+03  0.7546771E-02  0.1268880E+00
         21   -1    0    0  501  502  0.00000000000E+00  0.00000000000E+00  0.74806420808E+02  0.74806420808E+02  0.00000000000E+00 0.  1.
          1   -1    0    0  502    0 -0.00000000000E+00 -0.00000000000E+00 -0.51899622010E+03  0.51899622010E+03  0.00000000000E+00 0. -1.
        -24    2    1    2    0    0 -0.49950731663E+02 -0.29445164885E+02 -0.43432551025E+03  0.44547790805E+03  0.80310798637E+02 0.  0.
         23    2    1    2    0    0  0.85751540400E+01  0.33837623671E+02  0.13262520641E+02  0.10072135647E+03  0.93543461301E+02 0.  0.
         11    1    3    3    0    0 -0.67155951797E+02 -0.29371263592E+01 -0.30930802824E+03  0.31652804758E+03  0.00000000000E+00 0. -1.
        -12    1    3    3    0    0  0.17205220133E+02 -0.26508038526E+02 -0.12501748201E+03  0.12894986047E+03  0.00000000000E+00 0.  1.
        -13    1    4    4    0    0  0.37179418870E+02  0.10130903315E+02  0.39543315996E+02  0.55214293706E+02  0.00000000000E+00 0.  1.
         13    1    4    4    0    0 -0.28604264830E+02  0.23706720356E+02 -0.26280795356E+02  0.45507062760E+02  0.00000000000E+00 0. -1.
          2    1    1    2  501    0  0.41375577623E+02 -0.43924587863E+01 -0.23126809684E+02  0.47603376393E+02  0.00000000000E+00 0. -1.
<scales pt_clust_5="13000.00000" pt_clust_6="13000.00000" pt_clust_7="13000.00000" pt_clust_8="13000.00000" pt_clust_9="41.60808"></scales>
<clustering>
<clus scale="   41.608">  1  9  2 -1</clus>
<clus scale="   80.311">  5  6 -1 -1</clus>
<clus scale="   93.543">  7  8 -1 -1</clus>
<clus scale="   97.367">  2  5  1 -1</clus>
<clus scale="   41.608">  1  5  2 -1</clus>
</clustering>
</event>
<event>
 9    1  0.7835476E-005  0.1147990E+03  0.7546771E-02  0.1256188E+00
         21   -1    0    0  501  502  0.00000000000E+00  0.00000000000E+00  0.21329373292E+03  0.21329373292E+03  0.00000000000E+00 0.  1.
         -2   -1    0    0    0  501 -0.00000000000E+00 -0.00000000000E+00 -0.16449513895E+03  0.16449513895E+03  0.00000000000E+00 0.  1.
         23    2    1    2    0    0 -0.84864908920E+02 -0.32754025648E+01 -0.75337243670E+02  0.14576104145E+03  0.91421003557E+02 0.  0.
        -24    2    1    2    0    0  0.47787572430E+02 -0.25129695372E+02 -0.35057552173E+01  0.96108903501E+02  0.79432218554E+02 0.  0.
         11    1    4    4    0    0  0.45400845008E+02 -0.29723959235E+02  0.30135418785E+02  0.62071683926E+02  0.00000000000E+00 0. -1.
        -12    1    4    4    0    0  0.23867274222E+01  0.45942638633E+01 -0.33641174002E+02  0.34037219576E+02  0.00000000000E+00 0.  1.
        -13    1    3    3    0    0 -0.71567129658E+02  0.36369287722E+02 -0.34714812639E+02  0.87462548291E+02  0.00000000000E+00 0. -1.
         13    1    3    3    0    0 -0.13297779262E+02 -0.39644690287E+02 -0.40622431031E+02  0.58298493154E+02  0.00000000000E+00 0.  1.
         -1    1    1    2    0  502  0.37077336490E+02  0.28405097936E+02  0.12764159286E+03  0.13591892693E+03  0.00000000000E+00 0.  1.
<scales pt_clust_5="13000.00000" pt_clust_6="13000.00000" pt_clust_7="13000.00000" pt_clust_8="13000.00000" pt_clust_9="46.70737"></scales>
<clustering>
<clus scale="   46.707">  1  9  2 -1</clus>
<clus scale="   79.432">  5  6 -1 -1</clus>
<clus scale="   91.421">  7  8 -1 -1</clus>
<clus scale="  105.501">  1  5  2 -1</clus>
<clus scale="   46.707">  1  5  2 -1</clus>
</clustering>
</event>
<event>
 9    1  0.7835476E-005  0.1291629E+03  0.7546771E-02  0.1247754E+00
         21   -1    0    0  501  502  0.00000000000E+00  0.00000000000E+00  0.22470392508E+03  0.22470392508E+03  0.00000000000E+00 0. -1.
          1   -1    0    0  502    0 -0.00000000000E+00 -0.00000000000E+00 -0.11578069502E+03  0.11578069502E+03  0.00000000000E+00 0. -1.
        -24    2    1    2    0    0 -0.26702781056E+02  0.24397511891E+02  0.67325505049E+02  0.11049885030E+03  0.79805984642E+02 0.  0.
         23    2    1    2    0    0  0.92385997764E+02  0.33627823209E+02  0.46924223278E+02  0.14218146435E+03  0.91365655466E+02 0.  0.
         11    1    3    3    0    0 -0.44580735166E+02  0.39364272558E+02  0.63268860769E+02  0.86832808575E+02  0.00000000000E+00 0. -1.
        -12    1    3    3    0    0  0.17877954111E+02 -0.14966760667E+02  0.40566442801E+01  0.23666041724E+02  0.00000000000E+00 0.  1.
        -11    1    4    4    0    0  0.69601494608E+02 -0.18627769673E+02  0.65966955746E+01  0.72352458473E+02  0.00000000000E+00 0.  1.
         11    1    4    4    0    0  0.22784503155E+02  0.52255592882E+02  0.40327527704E+02  0.69829005880E+02  0.00000000000E+00 0. -1.
          2    1    1    2  501    0 -0.65683216708E+02 -0.58025335100E+02 -0.53264982678E+01  0.87804305443E+02  0.00000000000E+00 0. -1.
<scales pt_clust_5="13000.00000" pt_clust_6="13000.00000" pt_clust_7="13000.00000" pt_clust_8="13000.00000" pt_clust_9="91.29837"></scales>
<clustering>
<clus scale="   79.806">  5  6 -1 -1</clus>
<clus scale="   87.620">  2  5  1 -1</clus>
<clus scale="   91.298">  1  9  2 -1</clus>
<clus scale="   91.366">  7  8 -1 -1</clus>
<clus scale="   91.298">  1  5  2 -1</clus>
</clustering>
</event>
<event>
 9    1  0.7835476E-005  0.1946787E+03  0.7546771E-02  0.1155175E+00
         21   -1    0    0  501  502  0.00000000000E+00  0.00000000000E+00  0.19644889655E+03  0.19644889655E+03  0.00000000000E+00 0. -1.
          1   -1    0    0  502    0 -0.00000000000E+00 -0.00000000000E+00 -0.45128231199E+03  0.45128231199E+03  0.00000000000E+00 0. -1.
        -24    2    1    2    0    0  0.13439337484E+03  0.11512943853E+03 -0.33832518674E+03  0.39028607725E+03  0.80888338437E+02 0.  0.
         23    2    1    2    0    0 -0.14248671693E+03 -0.71650976658E+02  0.25904768710E+02  0.18483561608E+03  0.89759795973E+02 0.  0.
         11    1    3    3    0    0  0.11640115895E+03  0.83971619410E+02 -0.19267923679E+03  0.24026183833E+03  0.00000000000E+00 0. -1.
        -12    1    3    3    0    0  0.17992215896E+02  0.31157819116E+02 -0.14564594995E+03  0.15002423891E+03  0.00000000000E+00 0.  1.
        -13    1    4    4    0    0 -0.95765916879E+02  0.12257629126E+01  0.57076645824E+01  0.95943685386E+02  0.00000000000E+00 0. -1.
         13    1    4    4    0    0 -0.46720800051E+02 -0.72876739571E+02  0.20197104127E+02  0.88891930697E+02  0.00000000000E+00 0.  1.
          2    1    1    2  501    0  0.80933420886E+01 -0.43478461867E+02  0.57587002586E+02  0.72609515212E+02  0.00000000000E+00 0. -1.
<scales pt_clust_5="13000.00000" pt_clust_6="13000.00000" pt_clust_7="13000.00000" pt_clust_8="13000.00000" pt_clust_9="44.22532"></scales>
<clustering>
<clus scale="   44.225">  1  9  2 -1</clus>
<clus scale="   80.888">  5  6 -1 -1</clus>
<clus scale="   89.760">  7  8 -1 -1</clus>
<clus scale="  190.751">  2  5  1 -1</clus>
<clus scale="   44.225">  1  5  2 -1</clus>
</clustering>
</event>
<event>
 9    1  0.7835476E-005  0.1243912E+03  0.7546771E-02  0.1237210E+00
         21   -1    0    0  501  502  0.00000000000E+00  0.00000000000E+00  0.40414301830E+03  0.40414301830E+03  0.00000000000E+00 0. -1.
          1   -1    0    0  502    0 -0.00000000000E+00 -0.00000000000E+00 -0.57028093980E+02  0.57028093980E+02  0.00000000000E+00 0. -1.
         23    2    1    2    0    0 -0.96787170431E+02  0.15902387607E+02  0.97049565095E+02  0.15996163166E+03  0.80922575501E+02 0.  0.
        -24    2    1    2    0    0  0.78847120054E+02  0.21197097878E+02  0.22166620756E+03  0.25116221251E+03  0.85325049766E+02 0.  0.
         13    1    4    4    0    0  0.93778612649E+02  0.32340924961E+02  0.19242750769E+03  0.21649182279E+03  0.00000000000E+00 0. -1.
        -14    1    4    4    0    0 -0.14931492596E+02 -0.11143827083E+02  0.29238699872E+02  0.34670389721E+02  0.00000000000E+00 0.  1.
        -11    1    3    3    0    0 -0.11697534109E+02  0.35202084569E+02  0.14436595992E+02  0.39804954039E+02  0.00000000000E+00 0.  1.
         11    1    3    3    0    0 -0.85089636322E+02 -0.19299696962E+02  0.82612969103E+02  0.12015667762E+03  0.00000000000E+00 0. -1.
          2    1    1    2  501    0  0.17940050377E+02 -0.37099485485E+02  0.28399151666E+02  0.50047268119E+02  0.00000000000E+00 0. -1.
<scales pt_clust_5="13000.00000" pt_clust_6="13000.00000" pt_clust_7="13000.00000" pt_clust_8="13000.00000" pt_clust_9="41.20945"></scales>
<clustering>
<clus scale="   41.209">  1  9  2 -1</clus>
<clus scale="   80.923">  7  8 -1 -1</clus>
<clus scale="   85.325">  5  6 -1 -1</clus>
<clus scale="  121.414">  2  7  1 -1</clus>
<clus scale="   41.209">  1  5  2 -1</clus>
</clustering>
</event>
<event>
 9    1  0.7835476E-005  0.1007250E+03  0.7546771E-02  0.1288244E+00
          3   -1    0    0  502    0 -0.00000000000E+00  0.00000000000E+00  0.26825061897E+03  0.26825061897E+03  0.00000000000E+00 0. -1.
         21   -1    0    0  501  502  0.00000000000E+00 -0.00000000000E+00 -0.10214797425E+03  0.10214797425E+03  0.00000000000E+00 0.  1.
         23    2    1    2    0    0  0.11918764511E+02  0.23542791009E+02  0.20821822390E+03  0.23075211359E+03  0.95892592022E+02 0.  0.
        -24    2    1    2    0    0 -0.24537941544E+02 -0.42769555730E+02 -0.10625162765E+01  0.92590490801E+02  0.78361499305E+02 0.  0.
         11    1    4    4    0    0  0.24619163545E+02  0.15490095001E+01  0.76661718678E+01  0.25831624711E+02  0.00000000000E+00 0. -1.
        -12    1    4    4    0    0 -0.49157105089E+02 -0.44318565231E+02 -0.87286881443E+01  0.66758866090E+02  0.00000000000E+00 0.  1.
        -11    1    3    3    0    0  0.46400743499E+02  0.32942608093E+02  0.16574844439E+03  0.17524494641E+03  0.00000000000E+00 0. -1.
         11    1    3    3    0    0 -0.34481978988E+02 -0.93998170846E+01  0.42469779511E+02  0.55507167176E+02  0.00000000000E+00 0.  1.
          4    1    1    2  501    0  0.12619177033E+02  0.19226764722E+02 -0.41053062908E+02  0.47055988830E+02  0.00000000000E+00 0. -1.
<scales pt_clust_5="13000.00000" pt_clust_6="13000.00000" pt_clust_7="13000.00000" pt_clust_8="13000.00000" pt_clust_9="22.99809"></scales>
<clustering>
<clus scale="   22.998">  2  9  1 -1</clus>
<clus scale="   78.361">  5  6 -1 -1</clus>
<clus scale="   84.206">  2  5  1 -1</clus>
<clus scale="   95.893">  7  8 -1 -1</clus>
<clus scale="   22.998">  2  5  1 -1</clus>
</clustering>
</event>
<event>
 9    1  0.7835476E-005  0.1964413E+03  0.7546771E-02  0.1180465E+00
          1   -1    0    0  502    0 -0.00000000000E+00  0.00000000000E+00  0.38404938135E+03  0.38404938135E+03  0.00000000000E+00 0. -1.
         21   -1    0    0  501  502  0.00000000000E+00 -0.00000000000E+00 -0.44873172352E+03  0.44873172352E+03  0.00000000000E+00 0. -1.
        -24    2    1    2    0    0  0.57430541134E+02  0.32599195009E+02  0.22409212520E+03  0.24699606153E+03  0.80179793358E+02 0.  0.
         23    2    1    2    0    0  0.16102358962E+02  0.13340909433E+03  0.75273948888E+02  0.17897170911E+03  0.91145119825E+02 0.  0.
         11    1    3    3    0    0  0.12286955827E+02 -0.19301384872E+02  0.16241458670E+02  0.28058826084E+02  0.00000000000E+00 0. -1.
        -12    1    3    3    0    0  0.45143585306E+02  0.51900579881E+02  0.20785066653E+03  0.21893723545E+03  0.00000000000E+00 0.  1.
        -13    1    4    4    0    0  0.35498970125E+02  0.12067247006E+03  0.87030797843E+02  0.15295875811E+03  0.00000000000E+00 0. -1.
         13    1    4    4    0    0 -0.19396611162E+02  0.12736624266E+02 -0.11756848955E+02  0.26012950998E+02  0.00000000000E+00 0.  1.
          2    1    1    2  501    0 -0.73532900096E+02 -0.16600828934E+03 -0.36404841627E+03  0.40681333423E+03  0.00000000000E+00 0. -1.
<scales pt_clust_5="13000.00000" pt_clust_6="13000.00000" pt_clust_7="13000.00000" pt_clust_8="13000.00000" pt_clust_9="174.01648"></scales>
<clustering>
<clus scale="   80.180">  5  6 -1 -1</clus>
<clus scale="   91.145">  7  8 -1 -1</clus>
<clus scale="  103.874">  1  5  2 -1</clus>
<clus scale="  174.016">  2  9  1 -1</clus>
<clus scale="  174.016">  2  5  1 -1</clus>
</clustering>
</event>
<event>
 9    1  0.7835476E-005  0.1212254E+03  0.7546771E-02  0.1241283E+00
         -2   -1    0    0    0  501 -0.00000000000E+00  0.00000000000E+00  0.33472752506E+03  0.33472752506E+03  0.00000000000E+00 0.  1.
         21   -1    0    0  501  502  0.00000000000E+00 -0.00000000000E+00 -0.14804162428E+03  0.14804162428E+03  0.00000000000E+00 0.  1.
         23    2    1    2    0    0  0.83896228790E+02 -0.62057107509E+01 -0.20181971525E+01  0.12444698773E+03  0.91683649491E+02 0.  0.
        -24    2    1    2    0    0 -0.22937825092E+02  0.11126612504E+03  0.53821047248E+01  0.13841179162E+03  0.78883221336E+02 0.  0.
         11    1    4    4    0    0  0.27574715744E+02  0.49069565827E+02 -0.90153865792E+01  0.57004073837E+02  0.00000000000E+00 0. -1.
        -12    1    4    4    0    0 -0.50512540836E+02  0.62196559212E+02  0.14397491304E+02  0.81407717787E+02  0.00000000000E+00 0.  1.
        -13    1    3    3    0    0  0.44086967194E+02  0.25103079688E+02 -0.37088295436E+02  0.62843988930E+02  0.00000000000E+00 0. -1.
         13    1    3    3    0    0  0.39809261595E+02 -0.31308790439E+02  0.35070098283E+02  0.61602998800E+02  0.00000000000E+00 0.  1.
         -1    1    1    2    0  502 -0.60958403698E+02 -0.10506041429E+03  0.18332199321E+03  0.21991036998E+03  0.00000000000E+00 0.  1.
<scales pt_clust_5="13000.00000" pt_clust_6="13000.00000" pt_clust_7="13000.00000" pt_clust_8="13000.00000" pt_clust_9="121.46453"></scales>
<clustering>
<clus scale="   78.883">  5  6 -1 -1</clus>
<clus scale="   91.684">  7  8 -1 -1</clus>
<clus scale="  121.465">  2  9  1 -1</clus>
<clus scale="  121.465">  2  5  1 -1</clus>
<clus scale="  121.225">  2  5  1 -1</clus>
</clustering>
</event>
<event>
 9    1  0.7835476E-005  0.1313623E+03  0.7546771E-02  0.1228717E+00
         21   -1    0    0  501  502  0.00000000000E+00  0.00000000000E+00  0.82413527038E+02  0.82413527038E+02  0.00000000000E+00 0. -1.
          1   -1    0    0  502    0 -0.00000000000E+00 -0.00000000000E+00 -0.57086693813E+03  0.57086693813E+03  0.00000000000E+00 0. -1.
        -24    2    1    2    0    0 -0.49422090595E+02  0.85724393763E+02 -0.46701580627E+03  0.48343870426E+03  0.76275833259E+02 0.  0.
         23    2    1    2    0    0  0.70723993168E+02 -0.46700964335E+02 -0.85017252296E+01  0.12353910356E+03  0.89480542559E+02 0.  0.
         11    1    3    3    0    0  0.45631351326E+01  0.55571021232E+02 -0.30436875435E+03  0.30943383659E+03  0.00000000000E+00 0. -1.
        -12    1    3    3    0    0 -0.53985225727E+02  0.30153372531E+02 -0.16264705192E+03  0.17400486766E+03  0.00000000000E+00 0.  1.
        -13    1    4    4    0    0 -0.20646712750E+02 -0.17700954719E+02 -0.47182365403E+01  0.27602034370E+02  0.00000000000E+00 0.  1.
         13    1    4    4    0    0  0.91370705918E+02 -0.29000009616E+02 -0.37834886893E+01  0.95937069187E+02  0.00000000000E+00 0. -1.
          2    1    1    2  501    0 -0.21301902573E+02 -0.39023429428E+02 -0.12935879594E+02  0.46302657358E+02  0.00000000000E+00 0. -1.
<scales pt_clust_5="13000.00000" pt_clust_6="13000.00000" pt_clust_7="13000.00000" pt_clust_8="13000.00000" pt_clust_9="44.45896"></scales>
<clustering>
<clus scale="   44.459">  1  9  2 -1</clus>
<clus scale="   76.276">  5  6 -1 -1</clus>
<clus scale="   89.481">  7  8 -1 -1</clus>
<clus scale="  122.749">  2  5  1 -1</clus>
<clus scale="   44.459">  1  5  2 -1</clus>
</clustering>
</event>
<event>
 9    1  0.7835476E-005  0.1011801E+03  0.7546771E-02  0.1281276E+00
         -4   -1    0    0    0  501 -0.00000000000E+00  0.00000000000E+00  0.92958564013E+02  0.92958564013E+02  0.00000000000E+00 0.  1.
         21   -1    0    0  501  502  0.00000000000E+00 -0.00000000000E+00 -0.34314326117E+03  0.34314326117E+03  0.00000000000E+00 0.  1.
         23    2    1    2    0    0  0.38417693664E+02  0.46604588197E+02 -0.99896983293E+01  0.11029805591E+03  0.91749442706E+02 0.  0.
        -24    2    1    2    0    0 -0.16752039877E+02  0.45644503498E+02 -0.20113568567E+03  0.22331023086E+03  0.83951436052E+02 0.  0.
         13    1    4    4    0    0  0.12697578256E+02 -0.19289707181E+02 -0.74316010579E+02  0.77821531244E+02  0.00000000000E+00 0. -1.
        -14    1    4    4    0    0 -0.29449618133E+02  0.64934210680E+02 -0.12681967509E+03  0.14548869962E+03  0.00000000000E+00 0.  1.
        -11    1    3    3    0    0  0.29613776787E+02 -0.22465748630E+02  0.87585826957E+01  0.38188982809E+02  0.00000000000E+00 0.  1.
         11    1    3    3    0    0  0.88039168769E+01  0.69070336827E+02 -0.18748281025E+02  0.72109073099E+02  0.00000000000E+00 0. -1.
         -3    1    1    2    0  502 -0.21665653787E+02 -0.92249091695E+02 -0.39059313153E+02  0.10249353841E+03  0.00000000000E+00 0.  1.
<scales pt_clust_5="13000.00000" pt_clust_6="13000.00000" pt_clust_7="13000.00000" pt_clust_8="13000.00000" pt_clust_9="94.75919"></scales>
<clustering>
<clus scale="   83.951">  5  6 -1 -1</clus>
<clus scale="   91.749">  7  8 -1 -1</clus>
<clus scale="   94.759">  2  9  1 -1</clus>
<clus scale="   94.759">  2  5  1 -1</clus>
<clus scale="   94.759">  2  5  1 -1</clus>
</clustering>
</event>
<event>
 9    1  0.7835476E-005  0.1561946E+03  0.7546771E-02  0.1214055E+00
         21   -1    0    0  501  502  0.00000000000E+00  0.00000000000E+00  0.18300973632E+03  0.18300973632E+03  0.00000000000E+00 0.  1.
          3   -1    0    0  502    0 -0.00000000000E+00 -0.00000000000E+00 -0.23141946500E+03  0.23141946500E+03  0.00000000000E+00 0. -1.
         23    2    1    2    0    0 -0.15993666202E+02  0.36281607831E+02  0.30112278585E+02  0.10373687026E+03  0.91007892541E+02 0.  0.
        -24    2    1    2    0    0 -0.97833472482E+02 -0.11265516653E+03 -0.46375384595E+02  0.16989835633E+03  0.66724810272E+02 0.  0.
         13    1    4    4    0    0 -0.57334891335E+02 -0.28790526277E+02 -0.41964259512E+02  0.76662789175E+02  0.00000000000E+00 0. -1.
        -14    1    4    4    0    0 -0.40498581147E+02 -0.83864640249E+02 -0.44111250833E+01  0.93235567159E+02  0.00000000000E+00 0.  1.
        -11    1    3    3    0    0 -0.45072126910E+02  0.38915584966E+01 -0.79278799601E+01  0.45929207836E+02  0.00000000000E+00 0.  1.
         11    1    3    3    0    0  0.29078460709E+02  0.32390049334E+02  0.38040158545E+02  0.57807662426E+02  0.00000000000E+00 0. -1.
          4    1    1    2  501    0  0.11382713868E+03  0.76373558695E+02 -0.32146622670E+02  0.14079397472E+03  0.00000000000E+00 0. -1.
<scales pt_clust_5="13000.00000" pt_clust_6="13000.00000" pt_clust_7="13000.00000" pt_clust_8="13000.00000" pt_clust_9="141.22519"></scales>
<clustering>
<clus scale="   66.725">  5  6 -1 -1</clus>
<clus scale="   91.008">  7  8 -1 -1</clus>
<clus scale="   99.270">  2  7  1 -1</clus>
<clus scale="  141.225">  1  9  2 -1</clus>
<clus scale="  141.225">  1  5  2 -1</clus>
</clustering>
</event>
<event>
 9    1  0.7835476E-005  0.1206895E+03  0.7546771E-02  0.1256164E+00
         21   -1    0    0  501  502  0.00000000000E+00  0.00000000000E+00  0.86057694517E+02  0.86057694517E+02  0.00000000000E+00 0. -1.
          1   -1    0    0  502    0 -0.00000000000E+00 -0.00000000000E+00 -0.29861891413E+03  0.29861891413E+03  0.00000000000E+00 0. -1.
         23    2    1    2    0    0 -0.55423415603E+02 -0.24299211123E+02 -0.14339814486E+03  0.19175622132E+03  0.11200541865E+03 0.  0.
        -24    2    1    2    0    0  0.26530682275E+02 -0.47601190291E+02 -0.12083362963E+02  0.96678238240E+02  0.78936199995E+02 0.  0.
         13    1    4    4    0    0  0.19683517882E+02 -0.68721416204E+02 -0.17741531407E+00  0.71485001207E+02  0.00000000000E+00 0. -1.
        -14    1    4    4    0    0  0.68471643927E+01  0.21120225913E+02 -0.11905947649E+02  0.25193237034E+02  0.00000000000E+00 0.  1.
        -13    1    3    3    0    0 -0.88250319920E+02 -0.30621089080E+02 -0.98123900327E+02  0.13547719320E+03  0.00000000000E+00 0. -1.
         13    1    3    3    0    0  0.32826904317E+02  0.63218779562E+01 -0.45274244535E+02  0.56279028120E+02  0.00000000000E+00 0.  1.
          2    1    1    2  501    0  0.28892733327E+02  0.71900401415E+02 -0.57079711787E+02  0.96242149085E+02  0.00000000000E+00 0. -1.
<scales pt_clust_5="13000.00000" pt_clust_6="13000.00000" pt_clust_7="13000.00000" pt_clust_8="13000.00000" pt_clust_9="77.48848"></scales>
<clustering>
<clus scale="   77.488">  1  9  2 -1</clus>
<clus scale="   78.936">  5  6 -1 -1</clus>
<clus scale="   90.839">  1  5  2 -1</clus>
<clus scale="  112.005">  7  8 -1 -1</clus>
<clus scale="   77.488">  1  5  2 -1</clus>
</clustering>
</event>
<event>
 9    1  0.7835476E-005  0.9294232E+02  0.7546771E-02  0.1301800E+00
         -2   -1    0    0    0  501 -0.00000000000E+00  0.00000000000E+00  0.42127436963E+03  0.42127436963E+03  0.00000000000E+00 0.  1.
         21   -1    0    0  501  502  0.00000000000E+00 -0.00000000000E+00 -0.10345172741E+03  0.10345172741E+03  0.00000000000E+00 0.  1.
        -24    2    1    2    0    0  0.21550965991E+02 -0.10204299341E+02  0.24160181858E+03  0.25548988727E+03  0.79593164867E+02 0.  0.
         23    2    1    2    0    0 -0.42020392925E+02 -0.83778797537E+01 -0.69294407546E+02  0.12111809028E+03  0.89621284215E+02 0.  0.
         13    1    3    3    0    0  0.36771913740E+02  0.24369812853E+02  0.15143173242E+03  0.15772644357E+03  0.00000000000E+00 0. -1.
        -14    1    3    3    0    0 -0.15220947749E+02 -0.34574112195E+02  0.90170086160E+02  0.97763443692E+02  0.00000000000E+00 0.  1.
        -11    1    4    4    0    0 -0.45480270428E+02  0.33821293013E+02 -0.34833318289E+02  0.66525896629E+02  0.00000000000E+00 0. -1.
         11    1    4    4    0    0  0.34598775033E+01 -0.42199172766E+02 -0.34461089257E+02  0.54592193648E+02  0.00000000000E+00 0.  1.
         -1    1    1    2    0  502  0.20469426934E+02  0.18582179095E+02  0.14551523119E+03  0.14811811951E+03  0.00000000000E+00 0.  1.
<scales pt_clust_5="13000.00000" pt_clust_6="13000.00000" pt_clust_7="13000.00000" pt_clust_8="13000.00000" pt_clust_9="27.64590"></scales>
<clustering>
<clus scale="   27.646">  2  9  1 -1</clus>
<clus scale="   79.593">  5  6 -1 -1</clus>
<clus scale="   83.315">  1  5  2 -1</clus>
<clus scale="   89.621">  7  8 -1 -1</clus>
<clus scale="   27.646">  2  5  1 -1</clus>
</clustering>
</event>
<event>
 9    1  0.7835476E-005  0.2452037E+03  0.7546771E-02  0.1117077E+00
         21   -1    0    0  501  502  0.00000000000E+00  0.00000000000E+00  0.96691182589E+02  0.96691182589E+02  0.00000000000E+00 0. -1.
          1   -1    0    0  502    0 -0.00000000000E+00 -0.00000000000E+00 -0.10688134920E+04  0.10688134920E+04  0.00000000000E+00 0. -1.
         23    2    1    2    0    0 -0.22518382573E+03 -0.79546907493E+02 -0.71729191362E+03  0.76200759640E+03  0.95459005708E+02 0.  0.
        -24    2    1    2    0    0  0.19374536948E+03  0.63614064541E+02 -0.28274099395E+03  0.35853894759E+03  0.83807457144E+02 0.  0.
         11    1    4    4    0    0  0.32966862384E+02 -0.17069745864E+02 -0.75370773992E+02  0.84017520860E+02  0.00000000000E+00 0. -1.
        -12    1    4    4    0    0  0.16077850710E+03  0.80683810405E+02 -0.20737021996E+03  0.27452142673E+03  0.00000000000E+00 0.  1.
        -13    1    3    3    0    0 -0.20232496328E+03 -0.90902223662E+02 -0.68938188351E+03  0.72418643065E+03  0.00000000000E+00 0. -1.
         13    1    3    3    0    0 -0.22858862453E+02  0.11355316169E+02 -0.27910030110E+02  0.37821165750E+02  0.00000000000E+00 0.  1.
          2    1    1    2  501    0  0.31438456252E+02  0.15932842952E+02  0.27910598167E+02  0.44958130589E+02  0.00000000000E+00 0. -1.
<scales pt_clust_5="13000.00000" pt_clust_6="13000.00000" pt_clust_7="13000.00000" pt_clust_8="13000.00000" pt_clust_9="35.24531"></scales>
<clustering>
<clus scale="   35.245">  1  9  2 -1</clus>
<clus scale="   83.807">  5  6 -1 -1</clus>
<clus scale="   95.459">  7  8 -1 -1</clus>
<clus scale="  240.907">  1  5  2 -1</clus>
<clus scale="   35.245">  1  5  2 -1</clus>
</clustering>
</event>
<event>
 9    1  0.7835476E-005  0.1026094E+03  0.7546771E-02  0.1282211E+00
          3   -1    0    0  502    0 -0.00000000000E+00  0.00000000000E+00  0.34556765998E+03  0.34556765998E+03  0.00000000000E+00 0. -1.
         21   -1    0    0  501  502  0.00000000000E+00 -0.00000000000E+00 -0.42672085571E+02  0.42672085571E+02  0.00000000000E+00 0.  1.
        -24    2    1    2    0    0  0.26028705022E+02 -0.29738698544E+02  0.12466878079E+03  0.15257255653E+03  0.78576055044E+02 0.  0.
         23    2    1    2    0    0 -0.56336283873E+02 -0.13725517744E+01  0.14207771555E+03  0.17915864916E+03  0.93467018424E+02 0.  0.
         11    1    3    3    0    0  0.36735788199E+02 -0.11667062224E+02  0.12576473363E+03  0.13153861296E+03  0.00000000000E+00 0. -1.
        -12    1    3    3    0    0 -0.10707083178E+02 -0.18071636320E+02 -0.10959528362E+01  0.21033943569E+02  0.00000000000E+00 0.  1.
        -11    1    4    4    0    0 -0.25129109569E+02 -0.43915299478E+02  0.40938373534E+02  0.65084376801E+02  0.00000000000E+00 0.  1.
         11    1    4    4    0    0 -0.31207174303E+02  0.42542747703E+02  0.10113934202E+03  0.11407427236E+03  0.00000000000E+00 0. -1.
          4    1    1    2  501    0  0.30307578851E+02  0.31111250318E+02  0.36149078062E+02  0.56508539858E+02  0.00000000000E+00 0. -1.
<scales pt_clust_5="13000.00000" pt_clust_6="13000.00000" pt_clust_7="13000.00000" pt_clust_8="13000.00000" pt_clust_9="43.43339"></scales>
<clustering>
<clus scale="   43.433">  2  9  1 -1</clus>
<clus scale="   78.576">  5  6 -1 -1</clus>
<clus scale="   89.257">  1  5  2 -1</clus>
<clus scale="   93.467">  7  8 -1 -1</clus>
<clus scale="   43.433">  2  5  1 -1</clus>
</clustering>
</event>
<event>
 9    1  0.7835476E-005  0.1025275E+03  0.7546771E-02  0.1276798E+00
         -2   -1    0    0    0  501 -0.00000000000E+00  0.00000000000E+00  0.38858878882E+03  0.38858878882E+03  0.00000000000E+00 0.  1.
         21   -1    0    0  501  502  0.00000000000E+00 -0.00000000000E+00 -0.64661442302E+02  0.64661442302E+02  0.00000000000E+00 0.  1.
         23    2    1    2    0    0 -0.52297003687E+02  0.53444084798E+02  0.28260622468E+03  0.30203232117E+03  0.75934168922E+02 0.  0.
        -24    2    1    2    0    0  0.33169555043E+01 -0.23984000962E+02  0.60189633540E+01  0.84037674366E+02  0.80248790004E+02 0.  0.
         11    1    4    4    0    0  0.23752674667E+02 -0.11950958934E+02  0.36662250587E+02  0.45289464464E+02  0.00000000000E+00 0. -1.
        -12    1    4    4    0    0 -0.20435719163E+02 -0.12033042028E+02 -0.30643287233E+02  0.38748209902E+02  0.00000000000E+00 0.  1.
        -13    1    3    3    0    0  0.14874941524E+02  0.14100599232E+02  0.22089956856E+02  0.30133983772E+02  0.00000000000E+00 0. -1.
         13    1    3    3    0    0 -0.67171945211E+02  0.39343485566E+02  0.26051626782E+03  0.27189833740E+03  0.00000000000E+00 0.  1.
         -1    1    1    2    0  502  0.48980048182E+02 -0.29460083836E+02  0.35302158487E+02  0.67180235586E+02  0.00000000000E+00 0.  1.
<scales pt_clust_5="13000.00000" pt_clust_6="13000.00000" pt_clust_7="13000.00000" pt_clust_8="13000.00000" pt_clust_9="57.15717"></scales>
<clustering>
<clus scale="   57.157">  2  9  1 -1</clus>
<clus scale="   75.934">  7  8 -1 -1</clus>
<clus scale="   80.249">  5  6 -1 -1</clus>
<clus scale="   99.187">  1  7  2 -1</clus>
<clus scale="   57.157">  2  5  1 -1</clus>
</clustering>
</event>
<event>
 9    1  0.7835476E-005  0.9094956E+02  0.7546771E-02  0.1307461E+00
         -2   -1    0    0    0  501 -0.00000000000E+00  0.00000000000E+00  0.25604601145E+03  0.25604601145E+03  0.00000000000E+00 0.  1.
         21   -1    0    0  501  502  0.00000000000E+00 -0.00000000000E+00 -0.68604152285E+02  0.68604152285E+02  0.00000000000E+00 0.  1.
        -24    2    1    2    0    0  0.15141423363E+02 -0.11423728004E+02  0.14280175092E+03  0.16465751945E+03  0.79749572925E+02 0.  0.
         23    2    1    2    0    0  0.13329399460E+02 -0.59733870892E+01  0.72168003573E+02  0.11673721240E+03  0.90586984582E+02 0.  0.
         11    1    3    3    0    0  0.38436760386E+01 -0.31766451694E+02  0.16069213944E+02  0.35806437068E+02  0.00000000000E+00 0. -1.
        -12    1    3    3    0    0  0.11297747324E+02  0.20342723691E+02  0.12673253698E+03  0.12885108238E+03  0.00000000000E+00 0.  1.
        -11    1    4    4    0    0 -0.11539907663E+02  0.30029284125E+02  0.64824739753E+02  0.72368323581E+02  0.00000000000E+00 0. -1.
         11    1    4    4    0    0  0.24869307124E+02 -0.36002671215E+02  0.73432638207E+01  0.44368888818E+02  0.00000000000E+00 0.  1.
         -1    1    1    2    0  502 -0.28470822823E+02  0.17397115093E+02 -0.27527895335E+02  0.43255431883E+02  0.00000000000E+00 0.  1.
<scales pt_clust_5="13000.00000" pt_clust_6="13000.00000" pt_clust_7="13000.00000" pt_clust_8="13000.00000" pt_clust_9="33.36536"></scales>
<clustering>
<clus scale="   33.365">  2  9  1 -1</clus>
<clus scale="   79.750">  5  6 -1 -1</clus>
<clus scale="   80.161">  1  5  2 -1</clus>
<clus scale="   90.587">  7  8 -1 -1</clus>
<clus scale="   33.365">  2  5  1 -1</clus>
</clustering>
</event>
<event>
 9    1  0.7835476E-005  0.2794154E+03  0.7546771E-02  0.1132028E+00
         21   -1    0    0  501  502  0.00000000000E+00  0.00000000000E+00  0.24193838907E+03  0.24193838907E+03  0.00000000000E+00 0. -1.
          3   -1    0    0  502    0 -0.00000000000E+00 -0.00000000000E+00 -0.64972623361E+03  0.64972623361E+03  0.00000000000E+00 0. -1.
        -24    2    1    2    0    0 -0.60053758851E+02 -0.52605118540E+02 -0.57791927963E+02  0.12635344531E+03  0.79066641224E+02 0.  0.
         23    2    1    2    0    0  0.28972278198E+03 -0.62883926564E+02 -0.39670161211E+03  0.50403163030E+03  0.93712521406E+02 0.  0.
         11    1    3    3    0    0 -0.35188126731E+02 -0.17198625330E+02 -0.71025893267E+02  0.81109028416E+02  0.00000000000E+00 0. -1.
        -12    1    3    3    0    0 -0.24865632120E+02 -0.35406493210E+02  0.13233965304E+02  0.45244416892E+02  0.00000000000E+00 0.  1.
        -11    1    4    4    0    0  0.19708103489E+03 -0.21286431186E+02 -0.32137443450E+03  0.37759180819E+03  0.00000000000E+00 0.  1.
         11    1    4    4    0    0  0.92641747094E+02 -0.41597495379E+02 -0.75327177610E+02  0.12643982210E+03  0.00000000000E+00 0. -1.
          4    1    1    2  501    0 -0.22966902313E+03  0.11548904510E+03  0.46705695535E+02  0.26127954708E+03  0.00000000000E+00 0. -1.
<scales pt_clust_5="13000.00000" pt_clust_6="13000.00000" pt_clust_7="13000.00000" pt_clust_8="13000.00000" pt_clust_9="263.23167"></scales>
<clustering>
<clus scale="   79.067">  5  6 -1 -1</clus>
<clus scale="   93.713">  7  8 -1 -1</clus>
<clus scale="  112.362">  2  5  1 -1</clus>
<clus scale="  263.232">  1  9  2 -1</clus>
<clus scale="  263.232">  1  5  2 -1</clus>
</clustering>
</event>
<event>
 9    1  0.7835476E-005  0.2044898E+03  0.7546771E-02  0.1186324E+00
          1   -1    0    0  502    0 -0.00000000000E+00  0.00000000000E+00  0.78723345557E+03  0.78723345557E+03  0.00000000000E+00 0. -1.
         21   -1    0    0  501  502  0.00000000000E+00 -0.00000000000E+00 -0.80139643296E+02  0.80139643296E+02  0.00000000000E+00 0. -1.
        -24    2    1    2    0    0 -0.83532170201E+01 -0.40064930070E+01  0.53482812795E+02  0.96884143493E+02  0.80251465875E+02 0.  0.
         23    2    1    2    0    0  0.12145419099E+03  0.14534371629E+03  0.45958569915E+03  0.50513285847E+03  0.89801299878E+02 0.  0.
         13    1    3    3    0    0 -0.15324964879E+02  0.33329498672E+02  0.44836337193E+02  0.57931055257E+02  0.00000000000E+00 0. -1.
        -14    1    3    3    0    0  0.69717478586E+01 -0.37335991679E+02  0.86464756016E+01  0.38953088237E+02  0.00000000000E+00 0.  1.
        -13    1    4    4    0    0  0.82058256644E+02  0.12055591755E+03  0.24134210796E+03  0.28198102740E+03  0.00000000000E+00 0.  1.
         13    1    4    4    0    0  0.39395934349E+02  0.24787798738E+02  0.21824359119E+03  0.22315183106E+03  0.00000000000E+00 0. -1.
          2    1    1    2  501    0 -0.11310097397E+03 -0.14133722328E+03  0.19402530032E+03  0.26535609690E+03  0.00000000000E+00 0. -1.
<scales pt_clust_5="13000.00000" pt_clust_6="13000.00000" pt_clust_7="13000.00000" pt_clust_8="13000.00000" pt_clust_9="183.71667"></scales>
<clustering>
<clus scale="   80.251">  5  6 -1 -1</clus>
<clus scale="   80.784">  1  5  2 -1</clus>
<clus scale="   89.801">  7  8 -1 -1</clus>
<clus scale="  183.717">  2  9  1 -1</clus>
<clus scale="  183.717">  2  5  1 -1</clus>
</clustering>
</event>
<event>
 9    1  0.7835476E-005  0.9710173E+02  0.7546771E-02  0.1288708E+00
         21   -1    0    0  501  502  0.00000000000E+00  0.00000000000E+00  0.89054703264E+02  0.89054703264E+02  0.00000000000E+00 0.  1.
          1   -1    0    0  502    0 -0.00000000000E+00 -0.00000000000E+00 -0.40281114499E+03  0.40281114499E+03  0.00000000000E+00 0. -1.
        -24    2    1    2    0    0  0.28301252885E+02  0.43910466959E+02 -0.34633083246E+03  0.35924362524E+03  0.79886461540E+02 0.  0.
         23    2    1    2    0    0 -0.98384450711E+01 -0.50381420517E+01  0.26357089083E+02  0.89141333467E+02  0.84435201846E+02 0.  0.
         11    1    3    3    0    0  0.21415321226E+02  0.51912588945E+02 -0.11812688253E+03  0.13079561633E+03  0.00000000000E+00 0. -1.
        -12    1    3    3    0    0  0.68859316590E+01 -0.80021219863E+01 -0.22820394993E+03  0.22844800891E+03  0.00000000000E+00 0.  1.
        -11    1    4    4    0    0  0.44989927256E+01 -0.43666606747E+02  0.15188297109E+02  0.46451026354E+02  0.00000000000E+00 0.  1.
         11    1    4    4    0    0 -0.14337437797E+02  0.38628464695E+02  0.11168791974E+02  0.42690307113E+02  0.00000000000E+00 0. -1.
          2    1    1    2  501    0 -0.18462807814E+02 -0.38872324907E+02  0.62173016525E+01  0.43480889548E+02  0.00000000000E+00 0. -1.
<scales pt_clust_5="13000.00000" pt_clust_6="13000.00000" pt_clust_7="13000.00000" pt_clust_8="13000.00000" pt_clust_9="43.03409"></scales>
<clustering>
<clus scale="   43.034">  1  9  2 -1</clus>
<clus scale="   79.886">  5  6 -1 -1</clus>
<clus scale="   84.435">  7  8 -1 -1</clus>
<clus scale="   93.173">  2  5  1 -1</clus>
<clus scale="   43.034">  1  5  2 -1</clus>
</clustering>
</event>
<event>
 9    1  0.7835476E-005  0.1231136E+03  0.7546771E-02  0.1239444E+00
         21   -1    0    0  501  502  0.00000000000E+00  0.00000000000E+00  0.11761563777E+04  0.11761563777E+04  0.00000000000E+00 0.  1.
          3   -1    0    0  502    0 -0.00000000000E+00 -0.00000000000E+00 -0.19104227857E+02  0.19104227857E+02  0.00000000000E+00 0. -1.
         23    2    1    2    0    0 -0.37696498948E+02 -0.86052250395E+02  0.29016577059E+03  0.31737191913E+03  0.87765282420E+02 0.  0.
        -24    2    1    2    0    0  0.24618481891E+02  0.62354886769E+02  0.76818966587E+03  0.77554787929E+03  0.82854986385E+02 0.  0.
         13    1    4    4    0    0 -0.10965715943E+02  0.32054120448E+02  0.97242162211E+02  0.10297451954E+03  0.00000000000E+00 0. -1.
        -14    1    4    4    0    0  0.35584197834E+02  0.30300766320E+02  0.67094750366E+03  0.67257335974E+03  0.00000000000E+00 0.  1.
        -11    1    3    3    0    0 -0.62794887637E+02 -0.79947465570E+02  0.21341321810E+03  0.23638950235E+03  0.00000000000E+00 0. -1.
         11    1    3    3    0    0  0.25098388689E+02 -0.61047848252E+01  0.76752552495E+02  0.80982416777E+02  0.00000000000E+00 0.  1.
          4    1    1    2  501    0  0.13078017057E+02  0.23697363627E+02  0.98696713405E+02  0.10234080716E+03  0.00000000000E+00 0. -1.
<scales pt_clust_5="13000.00000" pt_clust_6="13000.00000" pt_clust_7="13000.00000" pt_clust_8="13000.00000" pt_clust_9="27.06659"></scales>
<clustering>
<clus scale="   27.067">  1  9  2 -1</clus>
<clus scale="   82.855">  5  6 -1 -1</clus>
<clus scale="   87.765">  7  8 -1 -1</clus>
<clus scale="  119.663">  1  5  2 -1</clus>
<clus scale="   27.067">  1  5  2 -1</clus>
</clustering>
</event>
<event>
 9    1  0.7835476E-005  0.1877166E+03  0.7546771E-02  0.1193562E+00
          1   -1    0    0  502    0 -0.00000000000E+00  0.00000000000E+00  0.43024297385E+03  0.43024297385E+03  0.00000000000E+00 0. -1.
         21   -1    0    0  501  502  0.00000000000E+00 -0.00000000000E+00 -0.13826066964E+03  0.13826066964E+03  0.00000000000E+00 0. -1.
        -24    2    1    2    0    0 -0.31315595864E+02  0.31723715552E+02  0.17391833372E+03  0.19536682194E+03  0.77029524450E+02 0.  0.
         23    2    1    2    0    0  0.71347440904E+02  0.13671406237E+03  0.74122003044E+02  0.19451786917E+03  0.92530740388E+02 0.  0.
         13    1    3    3    0    0  0.16891719737E+02 -0.13222589332E+02  0.60470621202E+02  0.64162785887E+02  0.00000000000E+00 0. -1.
        -14    1    3    3    0    0 -0.48207315600E+02  0.44946304883E+02  0.11344771252E+03  0.13120403605E+03  0.00000000000E+00 0.  1.
        -13    1    4    4    0    0 -0.14841480824E+02  0.24631931947E+02 -0.94573375703E+01  0.30272807244E+02  0.00000000000E+00 0.  1.
         13    1    4    4    0    0  0.86188921728E+02  0.11208213042E+03  0.83579340614E+02  0.16424506192E+03  0.00000000000E+00 0. -1.
          2    1    1    2  501    0 -0.40031845041E+02 -0.16843777792E+03  0.43941967452E+02  0.17861895239E+03  0.00000000000E+00 0. -1.
<scales pt_clust_5="13000.00000" pt_clust_6="13000.00000" pt_clust_7="13000.00000" pt_clust_8="13000.00000" pt_clust_9="163.32661"></scales>
<clustering>
<clus scale="   77.030">  5  6 -1 -1</clus>
<clus scale="   88.998">  1  5  2 -1</clus>
<clus scale="   92.531">  7  8 -1 -1</clus>
<clus scale="  163.327">  2  9  1 -1</clus>
<clus scale="  163.327">  2  5  1 -1</clus>
</clustering>
</event>
<event>
 9    1  0.7835476E-005  0.1456836E+03  0.7546771E-02  0.1209570E+00
         21   -1    0    0  501  502  0.00000000000E+00  0.00000000000E+00  0.39029508042E+03  0.39029508042E+03  0.00000000000E+00 0.  1.
          1   -1    0    0  502    0 -0.00000000000E+00 -0.00000000000E+00 -0.11181689566E+03  0.11181689566E+03  0.00000000000E+00 0. -1.
        -24    2    1    2    0    0 -0.73023487116E+02  0.57401323160E+02 -0.15403895280E+02  0.14441017344E+03  0.10949738185E+03 0.  0.
         23    2    1    2    0    0  0.52476219041E+02 -0.10516565332E+03  0.23502581414E+03  0.27916721474E+03  0.94253022604E+02 0.  0.
         13    1    3    3    0    0 -0.89798316889E+02  0.38084780236E+02  0.21135860137E+02  0.99804372577E+02  0.00000000000E+00 0. -1.
        -14    1    3    3    0    0  0.16774829773E+02  0.19316542924E+02 -0.36539755417E+02  0.44605800860E+02  0.00000000000E+00 0.  1.
        -13    1    4    4    0    0  0.10425213432E+02 -0.92987519243E+02  0.98786135568E+02  0.13606639699E+03  0.00000000000E+00 0.  1.
         13    1    4    4    0    0  0.42051005609E+02 -0.12178134078E+02  0.13623967858E+03  0.14310081775E+03  0.00000000000E+00 0. -1.
          2    1    1    2  501    0  0.20547268075E+02  0.47764330162E+02  0.58856265894E+02  0.78534587896E+02  0.00000000000E+00 0. -1.
<scales pt_clust_5="13000.00000" pt_clust_6="13000.00000" pt_clust_7="13000.00000" pt_clust_8="13000.00000" pt_clust_9="51.99636"></scales>
<clustering>
<clus scale="   51.996">  1  9  2 -1</clus>
<clus scale="   94.253">  7  8 -1 -1</clus>
<clus scale="  109.497">  5  6 -1 -1</clus>
<clus scale="  134.602">  1  7  2 -1</clus>
<clus scale="   51.996">  1  5  2 -1</clus>
</clustering>
</event>
<event>
 9    1  0.7835476E-005  0.1468420E+03  0.7546771E-02  0.1206327E+00
         21   -1    0    0  501  502  0.00000000000E+00  0.00000000000E+00  0.50805835745E+02  0.50805835745E+02  0.00000000000E+00 0.  1.
          1   -1    0    0  502    0 -0.00000000000E+00 -0.00000000000E+00 -0.57485070492E+03  0.57485070492E+03  0.00000000000E+00 0. -1.
         23    2    1    2    0    0 -0.45475955038E+02  0.11088016698E+03 -0.33345981224E+03  0.36670653458E+03  0.94423313914E+02 0.  0.
        -24    2    1    2    0    0  0.55960820707E+02 -0.82712213968E+02 -0.10406483896E+03  0.16735789887E+03  0.84889644910E+02 0.  0.
         11    1    4    4    0    0 -0.15636821375E+02 -0.48823046038E+02 -0.48738854123E+02  0.70736665941E+02  0.00000000000E+00 0. -1.
        -12    1    4    4    0    0  0.71597642082E+02 -0.33889167930E+02 -0.55325984832E+02  0.96621232927E+02  0.00000000000E+00 0.  1.
        -13    1    3    3    0    0 -0.43416075186E+02  0.67322020814E+02 -0.30326334144E+03  0.31366521059E+03  0.00000000000E+00 0. -1.
         13    1    3    3    0    0 -0.20598798512E+01  0.43558146164E+02 -0.30196470795E+02  0.53041323991E+02  0.00000000000E+00 0.  1.
          2    1    1    2  501    0 -0.10484865670E+02 -0.28167953010E+02 -0.86520217984E+02  0.91592107220E+02  0.00000000000E+00 0. -1.
<scales pt_clust_5="13000.00000" pt_clust_6="13000.00000" pt_clust_7="13000.00000" pt_clust_8="13000.00000" pt_clust_9="30.05606"></scales>
<clustering>
<clus scale="   30.056">  1  9  2 -1</clus>
<clus scale="   84.890">  5  6 -1 -1</clus>
<clus scale="   94.423">  7  8 -1 -1</clus>
<clus scale="  140.901">  1  5  2 -1</clus>
<clus scale="   30.056">  1  5  2 -1</clus>
</clustering>
</event>
<event>
 9    1  0.7835476E-005  0.1059010E+03  0.7546771E-02  0.1273309E+00
          1   -1    0    0  502    0 -0.00000000000E+00  0.00000000000E+00  0.42952147651E+03  0.42952147651E+03  0.00000000000E+00 0. -1.
         21   -1    0    0  501  502  0.00000000000E+00 -0.00000000000E+00 -0.52847702732E+02  0.52847702732E+02  0.00000000000E+00 0. -1.
        -24    2    1    2    0    0 -0.26478236189E+02  0.36513757303E+02  0.10532673014E+03  0.14020009089E+03  0.80796002001E+02 0.  0.
         23    2    1    2    0    0  0.78810116398E+02 -0.69509757815E+01  0.90029637215E+02  0.15114923177E+03  0.92094539341E+02 0.  0.
         13    1    3    3    0    0  0.23637091246E+02 -0.85505147784E+01  0.28617238525E+02  0.38088971191E+02  0.00000000000E+00 0. -1.
        -14    1    3    3    0    0 -0.50115327436E+02  0.45064272082E+02  0.76709491613E+02  0.10211111970E+03  0.00000000000E+00 0.  1.
        -11    1    4    4    0    0  0.34457448792E+02  0.19658091720E+02 -0.78539765033E+01  0.40440589687E+02  0.00000000000E+00 0. -1.
         11    1    4    4    0    0  0.44352667606E+02 -0.26609067502E+02  0.97883613719E+02  0.11070864208E+03  0.00000000000E+00 0.  1.
          2    1    1    2  501    0 -0.52331880208E+02 -0.29562781522E+02  0.18131740643E+03  0.19101985659E+03  0.00000000000E+00 0. -1.
<scales pt_clust_5="13000.00000" pt_clust_6="13000.00000" pt_clust_7="13000.00000" pt_clust_8="13000.00000" pt_clust_9="60.10480"></scales>
<clustering>
<clus scale="   60.105">  2  9  1 -1</clus>
<clus scale="   80.796">  5  6 -1 -1</clus>
<clus scale="   92.095">  7  8 -1 -1</clus>
<clus scale="   96.237">  1  5  2 -1</clus>
<clus scale="   60.105">  2  5  1 -1</clus>
</clustering>
</event>
<event>
 9    1  0.7835476E-005  0.1832861E+03  0.7546771E-02  0.1193319E+00
         21   -1    0    0  501  502  0.00000000000E+00  0.00000000000E+00  0.48746254139E+03  0.48746254139E+03  0.00000000000E+00 0. -1.
          3   -1    0    0  502    0 -0.00000000000E+00 -0.00000000000E+00 -0.39378386168E+03  0.39378386168E+03  0.00000000000E+00 0. -1.
         23    2    1    2    0    0  0.20823591635E+02  0.39856839961E+01  0.20130593625E+03  0.22307630229E+03  0.93752061459E+02 0.  0.
        -24    2    1    2    0    0 -0.90873386515E+02 -0.15453610558E+03 -0.32852433707E+03  0.38182263221E+03  0.75636645323E+02 0.  0.
         13    1    4    4    0    0 -0.63253510419E+02 -0.12702246753E+03 -0.30473173168E+03  0.33615047543E+03  0.00000000000E+00 0. -1.
        -14    1    4    4    0    0 -0.27619876095E+02 -0.27513638043E+02 -0.23792605399E+02  0.45672156787E+02  0.00000000000E+00 0.  1.
        -13    1    3    3    0    0 -0.36939661309E+02  0.87858042549E+01  0.72955917843E+02  0.82245333499E+02  0.00000000000E+00 0.  1.
         13    1    3    3    0    0  0.57763252944E+02 -0.48001202588E+01  0.12835001841E+03  0.14083096879E+03  0.00000000000E+00 0. -1.
          4    1    1    2  501    0  0.70049794880E+02  0.15055042158E+03  0.22089708053E+03  0.27634746857E+03  0.00000000000E+00 0. -1.
<scales pt_clust_5="13000.00000" pt_clust_6="13000.00000" pt_clust_7="13000.00000" pt_clust_8="13000.00000" pt_clust_9="166.95179"></scales>
<clustering>
<clus scale="   75.637">  5  6 -1 -1</clus>
<clus scale="   93.752">  7  8 -1 -1</clus>
<clus scale="   96.120">  2  7  1 -1</clus>
<clus scale="  166.952">  1  9  2 -1</clus>
<clus scale="  166.952">  1  5  2 -1</clus>
</clustering>
</event>
<event>
 9    1  0.7835476E-005  0.1355779E+03  0.7546771E-02  0.1222811E+00
          1   -1    0    0  502    0 -0.00000000000E+00  0.00000000000E+00  0.26810255657E+03  0.26810255657E+03  0.00000000000E+00 0. -1.
         21   -1    0    0  501  502  0.00000000000E+00 -0.00000000000E+00 -0.24796383050E+03  0.24796383050E+03  0.00000000000E+00 0. -1.
         23    2    1    2    0    0 -0.62586622917E+02 -0.85929079488E+02  0.17874222855E+03  0.22854407135E+03  0.94777192477E+02 0.  0.
        -24    2    1    2    0    0  0.38576852406E+02  0.68311967582E+02  0.12950745082E+02  0.11340255357E+03  0.80856161807E+02 0.  0.
         11    1    4    4    0    0 -0.26649943528E+01  0.64387088929E+02  0.26696987430E+02  0.69753340805E+02  0.00000000000E+00 0. -1.
        -12    1    4    4    0    0  0.41241846759E+02  0.39248786533E+01 -0.13746242349E+02  0.43649212768E+02  0.00000000000E+00 0.  1.
        -11    1    3    3    0    0 -0.14340068056E+02 -0.52428764846E+02  0.15661286043E+03  0.16577696157E+03  0.00000000000E+00 0. -1.
         11    1    3    3    0    0 -0.48246554862E+02 -0.33500314642E+02  0.22129368119E+02  0.62767109783E+02  0.00000000000E+00 0.  1.
          2    1    1    2  501    0  0.24009770511E+02  0.17617111906E+02 -0.17155424756E+03  0.17411976214E+03  0.00000000000E+00 0. -1.
<scales pt_clust_5="13000.00000" pt_clust_6="13000.00000" pt_clust_7="13000.00000" pt_clust_8="13000.00000" pt_clust_9="29.77972"></scales>
<clustering>
<clus scale="   29.780">  2  9  1 -1</clus>
<clus scale="   80.856">  5  6 -1 -1</clus>
<clus scale="   94.777">  7  8 -1 -1</clus>
<clus scale="  126.239">  2  5  1 -1</clus>
<clus scale="   29.780">  2  5  1 -1</clus>
</clustering>
</event>
<event>
 9    1  0.7835476E-005  0.1180015E+03  0.7546771E-02  0.1254651E+00
         21   -1    0    0  501  502  0.00000000000E+00  0.00000000000E+00  0.16754147017E+03  0.16754147017E+03  0.00000000000E+00 0. -1.
          1   -1    0    0  502    0 -0.00000000000E+00 -0.00000000000E+00 -0.19302474120E+03  0.19302474120E+03  0.00000000000E+00 0. -1.
        -24    2    1    2    0    0  0.36943654995E+02  0.71799173696E+02 -0.10336346982E+03  0.15449497399E+03  0.81637828895E+02 0.  0.
         23    2    1    2    0    0 -0.28428633154E+00  0.75498383599E+01  0.35991080432E+02  0.10914408297E+03  0.10276182219E+03 0.  0.
         13    1    3    3    0    0  0.50239101487E+02  0.96302575993E+01 -0.49237409699E+02  0.71000223193E+02  0.00000000000E+00 0. -1.
        -14    1    3    3    0    0 -0.13295446492E+02  0.62168916097E+02 -0.54126060121E+02  0.83494750795E+02  0.00000000000E+00 0.  1.
        -13    1    4    4    0    0  0.49943678942E+02  0.35937792098E+01  0.30084717072E+02  0.58415550297E+02  0.00000000000E+00 0.  1.
         13    1    4    4    0    0 -0.50227965273E+02  0.39560591501E+01  0.59063633602E+01  0.50728532678E+02  0.00000000000E+00 0. -1.
          2    1    1    2  501    0 -0.36659368663E+02 -0.79349012056E+02  0.41889118354E+02  0.96927154408E+02  0.00000000000E+00 0. -1.
<scales pt_clust_5="13000.00000" pt_clust_6="13000.00000" pt_clust_7="13000.00000" pt_clust_8="13000.00000" pt_clust_9="87.40809"></scales>
<clustering>
<clus scale="   81.638">  5  6 -1 -1</clus>
<clus scale="   87.408">  1  9  2 -1</clus>
<clus scale="  100.145">  2  5  1 -1</clus>
<clus scale="  102.762">  7  8 -1 -1</clus>
<clus scale="   87.408">  1  5  2 -1</clus>
</clustering>
</event>
<event>
 9    1  0.7835476E-005  0.1402521E+03  0.7546771E-02  0.1232312E+00
          1   -1    0    0  502    0 -0.00000000000E+00  0.00000000000E+00  0.62548221264E+03  0.62548221264E+03  0.00000000000E+00 0. -1.
         21   -1    0    0  501  502  0.00000000000E+00 -0.00000000000E+00 -0.61230959464E+02  0.61230959464E+02  0.00000000000E+00 0. -1.
        -24    2    1    2    0    0 -0.34718549411E+02 -0.29955205304E+02  0.36412803634E+03  0.37597713873E+03  0.81651025717E+02 0.  0.
         23    2    1    2    0    0  0.44726746641E+02 -0.69495999776E+02  0.13989320628E+03  0.19403830257E+03  0.10606874116E+03 0.  0.
         13    1    3    3    0    0 -0.21224922430E+02  0.27304986862E+02  0.12223607456E+03  0.12703431648E+03  0.00000000000E+00 0. -1.
        -14    1    3    3    0    0 -0.13493626981E+02 -0.57260192166E+02  0.24189196178E+03  0.24894282225E+03  0.00000000000E+00 0.  1.
        -11    1    4    4    0    0  0.44920034236E+02 -0.96732552947E+02  0.10385645885E+03  0.14886624977E+03  0.00000000000E+00 0. -1.
         11    1    4    4    0    0 -0.19328759536E+00  0.27236553172E+02  0.36036747425E+02  0.45172052795E+02  0.00000000000E+00 0.  1.
          2    1    1    2  501    0 -0.10008197230E+02  0.99451205080E+02  0.60230010555E+02  0.11669773081E+03  0.00000000000E+00 0. -1.
<scales pt_clust_5="13000.00000" pt_clust_6="13000.00000" pt_clust_7="13000.00000" pt_clust_8="13000.00000" pt_clust_9="91.76103"></scales>
<clustering>
<clus scale="   81.651">  5  6 -1 -1</clus>
<clus scale="   93.646">  1  5  2 -1</clus>
<clus scale="   91.761">  2  9  1 -1</clus>
<clus scale="  106.069">  7  8 -1 -1</clus>
<clus scale="   91.761">  2  5  1 -1</clus>
</clustering>
</event>
<event>
 9    1  0.7835476E-005  0.1406111E+03  0.7546771E-02  0.1215405E+00
         21   -1    0    0  501  502  0.00000000000E+00  0.00000000000E+00  0.40418569234E+03  0.40418569234E+03  0.00000000000E+00 0. -1.
          1   -1    0    0  502    0 -0.00000000000E+00 -0.00000000000E+00 -0.35408410514E+03  0.35408410514E+03  0.00000000000E+00 0. -1.
         23    2    1    2    0    0  0.61042146830E+02  0.52113144483E+02 -0.12134272492E+03  0.17181070269E+03  0.91394404363E+02 0.  0.
        -24    2    1    2    0    0 -0.54642310682E+02 -0.14444819457E+03 -0.16407413241E+03  0.23840831401E+03  0.77891849568E+02 0.  0.
         13    1    4    4    0    0 -0.10468618475E+02 -0.12373818487E+03 -0.11741822189E+03  0.17090280629E+03  0.00000000000E+00 0. -1.
        -14    1    4    4    0    0 -0.44173692208E+02 -0.20710009707E+02 -0.46655910522E+02  0.67505507716E+02  0.00000000000E+00 0.  1.
        -11    1    3    3    0    0 -0.60262930157E+01  0.29281885462E+02  0.15747332509E+01  0.29937014022E+02  0.00000000000E+00 0.  1.
         11    1    3    3    0    0  0.67068439846E+02  0.22831259021E+02 -0.12291745818E+03  0.14187368867E+03  0.00000000000E+00 0. -1.
          2    1    1    2  501    0 -0.63998361476E+01  0.92335050089E+02  0.33551844454E+03  0.34805078078E+03  0.00000000000E+00 0. -1.
<scales pt_clust_5="13000.00000" pt_clust_6="13000.00000" pt_clust_7="13000.00000" pt_clust_8="13000.00000" pt_clust_9="92.55657"></scales>
<clustering>
<clus scale="   77.892">  5  6 -1 -1</clus>
<clus scale="   91.394">  7  8 -1 -1</clus>
<clus scale="   92.557">  1  9  2 -1</clus>
<clus scale="  132.233">  1  5  2 -1</clus>
<clus scale="   92.557">  1  5  2 -1</clus>
</clustering>
</event>
<event>
 9    1  0.7835476E-005  0.2139551E+03  0.7546771E-02  0.1165159E+00
          3   -1    0    0  502    0 -0.00000000000E+00  0.00000000000E+00  0.33312778959E+03  0.33312778959E+03  0.00000000000E+00 0. -1.
         21   -1    0    0  501  502  0.00000000000E+00 -0.00000000000E+00 -0.36974027527E+03  0.36974027527E+03  0.00000000000E+00 0. -1.
         23    2    1    2    0    0 -0.66732146355E+02 -0.12485817114E+01 -0.58122031296E+02  0.12787918745E+03  0.92304808911E+02 0.  0.
        -24    2    1    2    0    0 -0.97499847090E+02 -0.12330288536E+03  0.22461617612E+03  0.28561451957E+03  0.80083740490E+02 0.  0.
         13    1    4    4    0    0 -0.10873846315E+03 -0.12361214804E+03  0.20413164261E+03  0.26224748621E+03  0.00000000000E+00 0. -1.
        -14    1    4    4    0    0  0.11238616062E+02  0.30926267949E+00  0.20484533518E+02  0.23367033356E+02  0.00000000000E+00 0.  1.
        -11    1    3    3    0    0 -0.55789153204E+02  0.25354188729E+02 -0.73148631162E+02  0.95425294038E+02  0.00000000000E+00 0. -1.
         11    1    3    3    0    0 -0.10942993151E+02 -0.26602770441E+02  0.15026599866E+02  0.32453893415E+02  0.00000000000E+00 0.  1.
          4    1    1    2  501    0  0.16423199345E+03  0.12455146707E+03 -0.20310663051E+03  0.28937435784E+03  0.00000000000E+00 0. -1.
<scales pt_clust_5="13000.00000" pt_clust_6="13000.00000" pt_clust_7="13000.00000" pt_clust_8="13000.00000" pt_clust_9="198.40209"></scales>
<clustering>
<clus scale="   80.084">  5  6 -1 -1</clus>
<clus scale="   92.305">  7  8 -1 -1</clus>
<clus scale="  113.908">  1  7  2 -1</clus>
<clus scale="  198.402">  2  9  1 -1</clus>
<clus scale="  198.402">  2  5  1 -1</clus>
</clustering>
</event>
<event>
 9    1  0.7835476E-005  0.9168796E+02  0.7546771E-02  0.1305499E+00
          1   -1    0    0  502    0 -0.00000000000E+00  0.00000000000E+00  0.91245052961E+03  0.91245052961E+03  0.00000000000E+00 0. -1.
         21   -1    0    0  501  502  0.00000000000E+00 -0.00000000000E+00 -0.16634571057E+02  0.16634571057E+02  0.00000000000E+00 0.  1.
        -24    2    1    2    0    0 -0.88149024361E+01  0.74788081387E+01  0.44977142282E+03  0.45713066336E+03  0.80873206460E+02 0.  0.
         23    2    1    2    0    0 -0.10017056493E+02  0.37836916121E+02  0.23356312361E+03  0.25387989033E+03  0.91494766843E+02 0.  0.
         11    1    3    3    0    0 -0.15632794836E+02 -0.33496079709E+02  0.14961485381E+03  0.15411351697E+03  0.00000000000E+00 0. -1.
        -12    1    3    3    0    0  0.68178923999E+01  0.40974887848E+02  0.30015656901E+03  0.30301714640E+03  0.00000000000E+00 0.  1.
        -11    1    4    4    0    0  0.22652838557E+02  0.57202173280E+02  0.14243430438E+03  0.15515402279E+03  0.00000000000E+00 0.  1.
         11    1    4    4    0    0 -0.32669895050E+02 -0.19365257159E+02  0.91128819228E+02  0.98725867538E+02  0.00000000000E+00 0. -1.
          2    1    1    2  501    0  0.18831958929E+02 -0.45315724260E+02  0.21248141212E+03  0.21807454697E+03  0.00000000000E+00 0. -1.
<scales pt_clust_5="13000.00000" pt_clust_6="13000.00000" pt_clust_7="13000.00000" pt_clust_8="13000.00000" pt_clust_9="49.07301"></scales>
<clustering>
<clus scale="   49.073">  2  9  1 -1</clus>
<clus scale="   80.873">  5  6 -1 -1</clus>
<clus scale="   81.092">  1  5  2 -1</clus>
<clus scale="   91.495">  7  8 -1 -1</clus>
<clus scale="   49.073">  2  5  1 -1</clus>
</clustering>
</event>
<event>
 9    1  0.7835476E-005  0.1223919E+03  0.7546771E-02  0.1244235E+00
          1   -1    0    0  502    0 -0.00000000000E+00  0.00000000000E+00  0.48690022288E+03  0.48690022288E+03  0.00000000000E+00 0. -1.
         21   -1    0    0  501  502  0.00000000000E+00 -0.00000000000E+00 -0.43362095440E+02  0.43362095440E+02  0.00000000000E+00 0. -1.
         23    2    1    2    0    0  0.77970527004E+02  0.39202000484E+02  0.16727669373E+03  0.20976721468E+03  0.91676562782E+02 0.  0.
        -24    2    1    2    0    0 -0.79372919856E+02 -0.13325899499E+01  0.13215902626E+03  0.17149321509E+03  0.75113769700E+02 0.  0.
         13    1    4    4    0    0 -0.75065486327E+02  0.26461373640E+02  0.83977660915E+02  0.11570340991E+03  0.00000000000E+00 0. -1.
        -14    1    4    4    0    0 -0.43074335280E+01 -0.27793963590E+02  0.48181365345E+02  0.55789805181E+02  0.00000000000E+00 0.  1.
        -11    1    3    3    0    0  0.67425306733E+02 -0.12487273738E+02  0.64005133506E+02  0.93801711651E+02  0.00000000000E+00 0.  1.
         11    1    3    3    0    0  0.10545220271E+02  0.51689274223E+02  0.10327156023E+03  0.11596550303E+03  0.00000000000E+00 0. -1.
          2    1    1    2  501    0  0.14023928519E+01 -0.37869410534E+02  0.14410240744E+03  0.14900188855E+03  0.00000000000E+00 0. -1.
<scales pt_clust_5="13000.00000" pt_clust_6="13000.00000" pt_clust_7="13000.00000" pt_clust_8="13000.00000" pt_clust_9="37.89539"></scales>
<clustering>
<clus scale="   37.895">  2  9  1 -1</clus>
<clus scale="   75.114">  5  6 -1 -1</clus>
<clus scale="   91.677">  7  8 -1 -1</clus>
<clus scale="  110.532">  2  5  1 -1</clus>
<clus scale="   37.895">  2  5  1 -1</clus>
</clustering>
</event>
<event>
 9    1  0.7835476E-005  0.9719330E+02  0.7546771E-02  0.1290676E+00
         21   -1    0    0  501  502  0.00000000000E+00  0.00000000000E+00  0.64596347232E+02  0.64596347232E+02  0.00000000000E+00 0.  1.
         -2   -1    0    0    0  501 -0.00000000000E+00 -0.00000000000E+00 -0.35134035613E+03  0.35134035613E+03  0.00000000000E+00 0.  1.
        -24    2    1    2    0    0 -0.49055256966E+02 -0.76065904777E+01 -0.22197958633E+03  0.24075375030E+03  0.78886963954E+02 0.  0.
         23    2    1    2    0    0  0.38386041014E+00  0.36168881470E+02 -0.77651155741E+01  0.94973039041E+02  0.87471399835E+02 0.  0.
         11    1    3    3    0    0  0.60116505452E+01 -0.32225065104E+02 -0.72752572110E+02  0.79796813921E+02  0.00000000000E+00 0. -1.
        -12    1    3    3    0    0 -0.55066907511E+02  0.24618474627E+02 -0.14922701422E+03  0.16095693638E+03  0.00000000000E+00 0.  1.
        -11    1    4    4    0    0 -0.19043794118E+02  0.29744588006E+02  0.33647624177E+02  0.48780828435E+02  0.00000000000E+00 0.  1.
         11    1    4    4    0    0  0.19427654528E+02  0.64242934646E+01 -0.41412739751E+02  0.46192210606E+02  0.00000000000E+00 0. -1.
         -1    1    1    2    0  502  0.48671396555E+02 -0.28562290992E+02 -0.56999306990E+02  0.80209914018E+02  0.00000000000E+00 0.  1.
<scales pt_clust_5="13000.00000" pt_clust_6="13000.00000" pt_clust_7="13000.00000" pt_clust_8="13000.00000" pt_clust_9="56.43326"></scales>
<clustering>
<clus scale="   56.433">  1  9  2 -1</clus>
<clus scale="   78.887">  5  6 -1 -1</clus>
<clus scale="   87.471">  7  8 -1 -1</clus>
<clus scale="   89.546">  2  5  1 -1</clus>
<clus scale="   56.433">  1  5  2 -1</clus>
</clustering>
</event>
<event>
 9    1  0.7835476E-005  0.9623599E+02  0.7546771E-02  0.1294333E+00
          1   -1    0    0  502    0 -0.00000000000E+00  0.00000000000E+00  0.51912601973E+03  0.51912601973E+03  0.00000000000E+00 0. -1.
         21   -1    0    0  501  502  0.00000000000E+00 -0.00000000000E+00 -0.40293618250E+02  0.40293618250E+02  0.00000000000E+00 0. -1.
        -24    2    1    2    0    0 -0.11648047003E+02 -0.26254118749E+02  0.35516230225E+03  0.36557585162E+03  0.81734243754E+02 0.  0.
         23    2    1    2    0    0  0.29933376127E+02  0.47207499734E+01  0.39159386312E+02  0.10473654855E+03  0.92292982280E+02 0.  0.
         13    1    3    3    0    0  0.21811008251E+02 -0.41624547586E+02  0.15181155513E+03  0.15891844233E+03  0.00000000000E+00 0. -1.
        -14    1    3    3    0    0 -0.33459055254E+02  0.15370428837E+02  0.20335074712E+03  0.20665740929E+03  0.00000000000E+00 0.  1.
        -11    1    4    4    0    0  0.58409903042E+02  0.17623710413E+02  0.96941575824E+01  0.61776117014E+02  0.00000000000E+00 0. -1.
         11    1    4    4    0    0 -0.28476526915E+02 -0.12902960439E+02  0.29465228729E+02  0.42960431531E+02  0.00000000000E+00 0.  1.
          2    1    1    2  501    0 -0.18285329124E+02  0.21533368776E+02  0.84510712916E+02  0.89107237807E+02  0.00000000000E+00 0. -1.
<scales pt_clust_5="13000.00000" pt_clust_6="13000.00000" pt_clust_7="13000.00000" pt_clust_8="13000.00000" pt_clust_9="28.24960"></scales>
<clustering>
<clus scale="   28.250">  2  9  1 -1</clus>
<clus scale="   81.734">  5  6 -1 -1</clus>
<clus scale="   86.162">  1  5  2 -1</clus>
<clus scale="   92.293">  7  8 -1 -1</clus>
<clus scale="   28.250">  2  5  1 -1</clus>
</clustering>
</event>
<event>
 9    1  0.7835476E-005  0.2214937E+03  0.7546771E-02  0.1134161E+00
          1   -1    0    0  502    0 -0.00000000000E+00  0.00000000000E+00  0.40104926831E+03  0.40104926831E+03  0.00000000000E+00 0. -1.
         21   -1    0    0  501  502  0.00000000000E+00 -0.00000000000E+00 -0.26291907897E+03  0.26291907897E+03  0.00000000000E+00 0. -1.
        -24    2    1    2    0    0 -0.16850931409E+03  0.13917095673E+03  0.27916405603E+03  0.36359163917E+03  0.80637247960E+02 0.  0.
         23    2    1    2    0    0  0.86635556856E+02 -0.11284697209E+03 -0.62792500279E+02  0.18410987833E+03  0.98556533963E+02 0.  0.
         11    1    3    3    0    0 -0.16231459430E+03  0.13616130922E+03  0.22521589209E+03  0.30920563983E+03  0.00000000000E+00 0. -1.
        -12    1    3    3    0    0 -0.61947197909E+01  0.30096475113E+01  0.53948163941E+02  0.54385999338E+02  0.00000000000E+00 0.  1.
        -13    1    4    4    0    0  0.41243317330E+02 -0.58402046094E+02  0.20845726813E+02  0.74473851375E+02  0.00000000000E+00 0. -1.
         13    1    4    4    0    0  0.45392239526E+02 -0.54444925994E+02 -0.83638227092E+02  0.10963602696E+03  0.00000000000E+00 0.  1.
          2    1    1    2  501    0  0.81873757232E+02 -0.26323984643E+02 -0.78241366407E+02  0.11626682978E+03  0.00000000000E+00 0. -1.
<scales pt_clust_5="13000.00000" pt_clust_6="13000.00000" pt_clust_7="13000.00000" pt_clust_8="13000.00000" pt_clust_9="86.00154"></scales>
<clustering>
<clus scale="   80.637">  5  6 -1 -1</clus>
<clus scale="   86.002">  2  9  1 -1</clus>
<clus scale="   98.557">  7  8 -1 -1</clus>
<clus scale="  214.122">  1  5  2 -1</clus>
<clus scale="   86.002">  2  5  1 -1</clus>
</clustering>
</event>
<event>
 9    1  0.7835476E-005  0.9159305E+02  0.7546771E-02  0.1308415E+00
         21   -1    0    0  501  502  0.00000000000E+00  0.00000000000E+00  0.33315890033E+03  0.33315890033E+03  0.00000000000E+00 0.  1.
         -2   -1    0    0    0  501 -0.00000000000E+00 -0.00000000000E+00 -0.32789766312E+02  0.32789766312E+02  0.00000000000E+00 0.  1.
        -24    2    1    2    0    0 -0.10417083577E+02 -0.69708539415E+01  0.63209006377E+02  0.99479628843E+02  0.75787265636E+02 0.  0.
         23    2    1    2    0    0 -0.51140593358E+01  0.28211482248E+02  0.19285904705E+03  0.21494267142E+03  0.90463797361E+02 0.  0.
         11    1    3    3    0    0  0.75494955344E+01  0.22546808687E+02 -0.38061611076E+01  0.24079873903E+02  0.00000000000E+00 0. -1.
        -12    1    3    3    0    0 -0.17966579111E+02 -0.29517662629E+02  0.67015167485E+02  0.75399754940E+02  0.00000000000E+00 0.  1.
        -11    1    4    4    0    0  0.26657653396E+02  0.43403840732E+02  0.66490728357E+02  0.83758825400E+02  0.00000000000E+00 0.  1.
         11    1    4    4    0    0 -0.31771712732E+02 -0.15192358484E+02  0.12636831870E+03  0.13118384602E+03  0.00000000000E+00 0. -1.
         -1    1    1    2    0  502  0.15531142912E+02 -0.21240628307E+02  0.44301080583E+02  0.51526366376E+02  0.00000000000E+00 0.  1.
<scales pt_clust_5="13000.00000" pt_clust_6="13000.00000" pt_clust_7="13000.00000" pt_clust_8="13000.00000" pt_clust_9="26.31313"></scales>
<clustering>
<clus scale="   26.313">  1  9  2 -1</clus>
<clus scale="   75.787">  5  6 -1 -1</clus>
<clus scale="   77.132">  2  5  1 -1</clus>
<clus scale="   90.464">  7  8 -1 -1</clus>
<clus scale="   26.313">  1  5  2 -1</clus>
</clustering>
</event>
<event>
 9    1  0.7835476E-005  0.1304480E+03  0.7546771E-02  0.1232595E+00
         21   -1    0    0  501  502  0.00000000000E+00  0.00000000000E+00  0.10507680863E+03  0.10507680863E+03  0.00000000000E+00 0.  1.
          1   -1    0    0  502    0 -0.00000000000E+00 -0.00000000000E+00 -0.28142657215E+03  0.28142657215E+03  0.00000000000E+00 0. -1.
        -24    2    1    2    0    0  0.70556313755E+02 -0.27992484051E+02 -0.55991807696E+02  0.12444128386E+03  0.81171288185E+02 0.  0.
         23    2    1    2    0    0 -0.99110586708E+02 -0.49062014810E+02 -0.67268786444E+02  0.16422957573E+03  0.10107558666E+03 0.  0.
         13    1    3    3    0    0  0.29617660471E+02 -0.99279630343E+00 -0.67805113460E+02  0.73998140974E+02  0.00000000000E+00 0. -1.
        -14    1    3    3    0    0  0.40938653284E+02 -0.26999687748E+02  0.11813305763E+02  0.50443142886E+02  0.00000000000E+00 0.  1.
        -11    1    4    4    0    0  0.77595601098E+01 -0.22049458055E+02 -0.46520271386E+02  0.52062702806E+02  0.00000000000E+00 0.  1.
         11    1    4    4    0    0 -0.10687014682E+03 -0.27012556755E+02 -0.20748515058E+02  0.11216687292E+03  0.00000000000E+00 0. -1.
          2    1    1    2  501    0  0.28554272953E+02  0.77054498862E+02 -0.53089169381E+02  0.97832521200E+02  0.00000000000E+00 0. -1.
<scales pt_clust_5="13000.00000" pt_clust_6="13000.00000" pt_clust_7="13000.00000" pt_clust_8="13000.00000" pt_clust_9="82.17511"></scales>
<clustering>
<clus scale="   81.171">  5  6 -1 -1</clus>
<clus scale="   82.175">  1  9  2 -1</clus>
<clus scale="  101.076">  7  8 -1 -1</clus>
<clus scale="  115.712">  2  5  1 -1</clus>
<clus scale="   82.175">  1  5  2 -1</clus>
</clustering>
</event>
<event>
 9    1  0.7835476E-005  0.1163357E+03  0.7546771E-02  0.1254183E+00
         21   -1    0    0  501  502  0.00000000000E+00  0.00000000000E+00  0.42806443716E+03  0.42806443716E+03  0.00000000000E+00 0.  1.
         -4   -1    0    0    0  501 -0.00000000000E+00 -0.00000000000E+00 -0.57487467828E+02  0.57487467828E+02  0.00000000000E+00 0.  1.
        -24    2    1    2    0    0 -0.22352745497E+02  0.43956877691E+02  0.76754991629E+02  0.12060142651E+03  0.78876631581E+02 0.  0.
         23    2    1    2    0    0  0.29161150901E+02 -0.11088523453E+03  0.18023791803E+03  0.23293874435E+03  0.92891568866E+02 0.  0.
         11    1    3    3    0    0  0.11221243111E+02  0.25203349937E+02 -0.69799730856E+01  0.28457778713E+02  0.00000000000E+00 0. -1.
        -12    1    3    3    0    0 -0.33573988608E+02  0.18753527754E+02  0.83734964714E+02  0.92143647800E+02  0.00000000000E+00 0.  1.
        -13    1    4    4    0    0  0.43031092429E+02 -0.29850599978E+02  0.12027237567E+03  0.13117994353E+03  0.00000000000E+00 0.  1.
         13    1    4    4    0    0 -0.13869941528E+02 -0.81034634553E+02  0.59965542362E+02  0.10175880083E+03  0.00000000000E+00 0. -1.
         -3    1    1    2    0  502 -0.68084054034E+01  0.66928356840E+02  0.11358405967E+03  0.13201173412E+03  0.00000000000E+00 0.  1.
<scales pt_clust_5="13000.00000" pt_clust_6="13000.00000" pt_clust_7="13000.00000" pt_clust_8="13000.00000" pt_clust_9="67.27376"></scales>
<clustering>
<clus scale="   67.274">  1  9  2 -1</clus>
<clus scale="   78.877">  5  6 -1 -1</clus>
<clus scale="   92.892">  7  8 -1 -1</clus>
<clus scale="  105.483">  2  5  1 -1</clus>
<clus scale="   67.274">  1  5  2 -1</clus>
</clustering>
</event>
<event>
 9    1  0.7835476E-005  0.1331636E+03  0.7546771E-02  0.1246023E+00
          1   -1    0    0  502    0 -0.00000000000E+00  0.00000000000E+00  0.10061068113E+03  0.10061068113E+03  0.00000000000E+00 0. -1.
         21   -1    0    0  501  502  0.00000000000E+00 -0.00000000000E+00 -0.61691985101E+03  0.61691985101E+03  0.00000000000E+00 0.  1.
        -24    2    1    2    0    0 -0.12264099848E+00 -0.24013681652E+02 -0.37404217209E+03  0.38309403613E+03  0.79226397564E+02 0.  0.
         23    2    1    2    0    0 -0.38084796353E+02 -0.67876568099E+02  0.40032965289E+02  0.12674224281E+03  0.91669392893E+02 0.  0.
         11    1    3    3    0    0  0.20424506888E+02 -0.31833039137E+01 -0.23357210522E+02  0.31190594556E+02  0.00000000000E+00 0. -1.
        -12    1    3    3    0    0 -0.20547147886E+02 -0.20830377738E+02 -0.35068496156E+03  0.35190344157E+03  0.00000000000E+00 0.  1.
        -11    1    4    4    0    0 -0.40497917924E+02 -0.88352784140E+02  0.22702813581E+02  0.99808384247E+02  0.00000000000E+00 0. -1.
         11    1    4    4    0    0  0.24131215708E+01  0.20476216041E+02  0.17330151708E+02  0.26933858567E+02  0.00000000000E+00 0.  1.
          2    1    1    2  501    0  0.38207437351E+02  0.91890249751E+02 -0.18229996308E+03  0.20769425319E+03  0.00000000000E+00 0. -1.
<scales pt_clust_5="13000.00000" pt_clust_6="13000.00000" pt_clust_7="13000.00000" pt_clust_8="13000.00000" pt_clust_9="96.58814"></scales>
<clustering>
<clus scale="   79.226">  5  6 -1 -1</clus>
<clus scale="   82.786">  1  5  2 -1</clus>
<clus scale="   91.669">  7  8 -1 -1</clus>
<clus scale="   96.588">  2  9  1 -1</clus>
<clus scale="   96.588">  2  5  1 -1</clus>
</clustering>
</event>
<event>
 9    1  0.7835476E-005  0.3014910E+03  0.7546771E-02  0.1132008E+00
          3   -1    0    0  502    0 -0.00000000000E+00  0.00000000000E+00  0.51050381131E+03  0.51050381131E+03  0.00000000000E+00 0. -1.
         21   -1    0    0  501  502  0.00000000000E+00 -0.00000000000E+00 -0.34273222497E+03  0.34273222497E+03  0.00000000000E+00 0.  1.
        -24    2    1    2    0    0  0.25997969047E+02 -0.26045098959E+02 -0.30158690445E+02  0.94432126736E+02  0.81569837417E+02 0.  0.
         23    2    1    2    0    0 -0.14007192666E+03  0.28270135957E+03  0.31463448908E+03  0.45465727208E+03  0.90433235012E+02 0.  0.
         13    1    3    3    0    0 -0.44896417034E+01 -0.32713045193E+02  0.17572052664E+02  0.37404240979E+02  0.00000000000E+00 0. -1.
        -14    1    3    3    0    0  0.30487610750E+02  0.66679462331E+01 -0.47730743109E+02  0.57027885758E+02  0.00000000000E+00 0.  1.
        -11    1    4    4    0    0 -0.23954125197E+02  0.10217354462E+03  0.15487538443E+03  0.18708184850E+03  0.00000000000E+00 0.  1.
         11    1    4    4    0    0 -0.11611780146E+03  0.18052781495E+03  0.15975910465E+03  0.26757542358E+03  0.00000000000E+00 0. -1.
          4    1    1    2  501    0  0.11407395761E+03 -0.25665626061E+03 -0.11670421229E+03  0.30414663746E+03  0.00000000000E+00 0. -1.
<scales pt_clust_5="13000.00000" pt_clust_6="13000.00000" pt_clust_7="13000.00000" pt_clust_8="13000.00000" pt_clust_9="287.60850"></scales>
<clustering>
<clus scale="   81.570">  5  6 -1 -1</clus>
<clus scale="   89.487">  1  5  2 -1</clus>
<clus scale="   90.433">  7  8 -1 -1</clus>
<clus scale="  287.609">  2  9  1 -1</clus>
<clus scale="  287.609">  2  5  1 -1</clus>
</clustering>
</event>
<event>
 9    1  0.7835476E-005  0.1447667E+03  0.7546771E-02  0.1207970E+00
          1   -1    0    0  502    0 -0.00000000000E+00  0.00000000000E+00  0.10638528183E+04  0.10638528183E+04  0.00000000000E+00 0. -1.
         21   -1    0    0  501  502  0.00000000000E+00 -0.00000000000E+00 -0.31611771286E+02  0.31611771286E+02  0.00000000000E+00 0.  1.
        -24    2    1    2    0    0  0.10440081907E+03 -0.29810571953E+02  0.63649235747E+03  0.65082017645E+03  0.81585413691E+02 0.  0.
         23    2    1    2    0    0 -0.13608721166E+03  0.32416135305E+02  0.28094229958E+03  0.32551707115E+03  0.86384332536E+02 0.  0.
         11    1    3    3    0    0  0.11794348339E+03 -0.31716030406E+02  0.57180496327E+03  0.58470290565E+03  0.00000000000E+00 0. -1.
        -12    1    3    3    0    0 -0.13542664315E+02  0.19054584533E+01  0.64687394204E+02  0.66117270796E+02  0.00000000000E+00 0.  1.
        -11    1    4    4    0    0 -0.80405467743E+02 -0.10723034349E+02  0.21185451362E+03  0.22685316319E+03  0.00000000000E+00 0. -1.
         11    1    4    4    0    0 -0.55681743914E+02  0.43139169654E+02  0.69087785966E+02  0.98663907957E+02  0.00000000000E+00 0.  1.
          2    1    1    2  501    0  0.31686392582E+02 -0.26055633523E+01  0.11480638999E+03  0.11912734202E+03  0.00000000000E+00 0. -1.
<scales pt_clust_5="13000.00000" pt_clust_6="13000.00000" pt_clust_7="13000.00000" pt_clust_8="13000.00000" pt_clust_9="31.79336"></scales>
<clustering>
<clus scale="   31.793">  2  9  1 -1</clus>
<clus scale="   81.585">  5  6 -1 -1</clus>
<clus scale="   86.384">  7  8 -1 -1</clus>
<clus scale="  141.955">  1  5  2 -1</clus>
<clus scale="   31.793">  2  5  1 -1</clus>
</clustering>
</event>
<event>
 9    1  0.7835476E-005  0.1015060E+03  0.7546771E-02  0.1282617E+00
          1   -1    0    0  502    0 -0.00000000000E+00  0.00000000000E+00  0.63998667061E+03  0.63998667061E+03  0.00000000000E+00 0. -1.
         21   -1    0    0  501  502  0.00000000000E+00 -0.00000000000E+00 -0.95393422272E+02  0.95393422272E+02  0.00000000000E+00 0.  1.
         23    2    1    2    0    0 -0.26551702582E+02  0.43601496305E+02  0.33804674119E+03  0.35387289829E+03  0.91347389244E+02 0.  0.
        -24    2    1    2    0    0 -0.29766635921E+02  0.12479700185E+02 -0.58838332630E+02  0.10447656626E+03  0.80072517012E+02 0.  0.
         11    1    4    4    0    0 -0.57388157536E+02  0.11488695846E+02 -0.36891832874E+02  0.69183799335E+02  0.00000000000E+00 0. -1.
        -12    1    4    4    0    0  0.27621521615E+02  0.99100433906E+00 -0.21946499755E+02  0.35292766928E+02  0.00000000000E+00 0.  1.
        -11    1    3    3    0    0 -0.51472817711E+02 -0.12134641367E+01  0.20273510580E+03  0.20917085500E+03  0.00000000000E+00 0. -1.
         11    1    3    3    0    0  0.24921115129E+02  0.44814960442E+02  0.13531163540E+03  0.14470204329E+03  0.00000000000E+00 0.  1.
          2    1    1    2  501    0  0.56318338503E+02 -0.56081196491E+02  0.26538483977E+03  0.27703062833E+03  0.00000000000E+00 0. -1.
<scales pt_clust_5="13000.00000" pt_clust_6="13000.00000" pt_clust_7="13000.00000" pt_clust_8="13000.00000" pt_clust_9="79.47869"></scales>
<clustering>
<clus scale="   79.479">  2  9  1 -1</clus>
<clus scale="   80.073">  5  6 -1 -1</clus>
<clus scale="   91.347">  7  8 -1 -1</clus>
<clus scale="   91.492">  2  5  1 -1</clus>
<clus scale="   79.479">  2  5  1 -1</clus>
</clustering>
</event>
<event>
 9    1  0.7835476E-005  0.9406752E+02  0.7546771E-02  0.1301114E+00
         21   -1    0    0  501  502  0.00000000000E+00  0.00000000000E+00  0.16144715531E+03  0.16144715531E+03  0.00000000000E+00 0.  1.
         -2   -1    0    0    0  501 -0.00000000000E+00 -0.00000000000E+00 -0.94969676574E+02  0.94969676574E+02  0.00000000000E+00 0.  1.
         23    2    1    2    0    0  0.18008218179E+02  0.22972808720E+02 -0.41261583346E+02  0.10276718345E+03  0.89479214741E+02 0.  0.
        -24    2    1    2    0    0 -0.34260534855E+02 -0.63697487980E+01  0.68762316374E+02  0.10827359636E+03  0.76029978087E+02 0.  0.
         13    1    4    4    0    0  0.15023525604E+02 -0.22279245082E+02  0.71883322886E+01  0.27816239934E+02  0.00000000000E+00 0. -1.
        -14    1    4    4    0    0 -0.49284060459E+02  0.15909496284E+02  0.61573984085E+02  0.80457356428E+02  0.00000000000E+00 0.  1.
        -13    1    3    3    0    0  0.17844792208E+02  0.56528576334E+02 -0.34333367725E+02  0.68503260438E+02  0.00000000000E+00 0.  1.
         13    1    3    3    0    0  0.16342597062E+00 -0.33555767614E+02 -0.69282156208E+01  0.34263923008E+02  0.00000000000E+00 0. -1.
         -1    1    1    2    0  502  0.16252316676E+02 -0.16603059922E+02  0.38976745710E+02  0.45376052079E+02  0.00000000000E+00 0.  1.
<scales pt_clust_5="13000.00000" pt_clust_6="13000.00000" pt_clust_7="13000.00000" pt_clust_8="13000.00000" pt_clust_9="23.23358"></scales>
<clustering>
<clus scale="   23.234">  1  9  2 -1</clus>
<clus scale="   76.030">  5  6 -1 -1</clus>
<clus scale="   81.380">  1  5  2 -1</clus>
<clus scale="   89.479">  7  8 -1 -1</clus>
<clus scale="   23.234">  1  5  2 -1</clus>
</clustering>
</event>
<event>
 9    1  0.7835476E-005  0.1454590E+03  0.7546771E-02  0.1209986E+00
         21   -1    0    0  501  502  0.00000000000E+00  0.00000000000E+00  0.94378834315E+02  0.94378834315E+02  0.00000000000E+00 0.  1.
          3   -1    0    0  502    0 -0.00000000000E+00 -0.00000000000E+00 -0.38491555317E+03  0.38491555317E+03  0.00000000000E+00 0. -1.
        -24    2    1    2    0    0  0.62068293021E+02  0.96806459062E+02 -0.22595842894E+03  0.26685026037E+03  0.83233925402E+02 0.  0.
         23    2    1    2    0    0 -0.31882804024E+02 -0.83737427656E+02 -0.97193040160E+02  0.16612258503E+03  0.10060693921E+03 0.  0.
         11    1    3    3    0    0  0.64451118075E+02  0.36015514305E+02 -0.16481494981E+03  0.18059632214E+03  0.00000000000E+00 0. -1.
        -12    1    3    3    0    0 -0.23828250536E+01  0.60790944757E+02 -0.61143479130E+02  0.86253938228E+02  0.00000000000E+00 0.  1.
        -13    1    4    4    0    0 -0.68588902475E+02 -0.54983774115E+02 -0.67645334861E+02  0.11092134279E+03  0.00000000000E+00 0.  1.
         13    1    4    4    0    0  0.36706098451E+02 -0.28753653540E+02 -0.29547705299E+02  0.55201242231E+02  0.00000000000E+00 0. -1.
          4    1    1    2  501    0 -0.30185488997E+02 -0.13069031406E+02  0.32614750243E+02  0.46321542087E+02  0.00000000000E+00 0. -1.
<scales pt_clust_5="13000.00000" pt_clust_6="13000.00000" pt_clust_7="13000.00000" pt_clust_8="13000.00000" pt_clust_9="32.89321"></scales>
<clustering>
<clus scale="   32.893">  1  9  2 -1</clus>
<clus scale="   83.234">  5  6 -1 -1</clus>
<clus scale="  100.607">  7  8 -1 -1</clus>
<clus scale="  134.032">  2  5  1 -1</clus>
<clus scale="   32.893">  1  5  2 -1</clus>
</clustering>
</event>
<event>
 9    1  0.7835476E-005  0.1436666E+03  0.7546771E-02  0.1226602E+00
         -4   -1    0    0    0  501 -0.00000000000E+00  0.00000000000E+00  0.38590462412E+03  0.38590462412E+03  0.00000000000E+00 0.  1.
         21   -1    0    0  501  502  0.00000000000E+00 -0.00000000000E+00 -0.40785995799E+03  0.40785995799E+03  0.00000000000E+00 0. -1.
         23    2    1    2    0    0  0.14454354898E+02 -0.33469402135E+02  0.18077309080E+03  0.20564691741E+03  0.91008873350E+02 0.  0.
        -24    2    1    2    0    0 -0.10310728178E+03 -0.56758115947E+02 -0.35927694783E+03  0.38685220177E+03  0.81988447323E+02 0.  0.
         13    1    4    4    0    0 -0.90420388407E+02 -0.59247756478E+02 -0.35787709366E+03  0.37384777310E+03  0.00000000000E+00 0. -1.
        -14    1    4    4    0    0 -0.12686893371E+02  0.24896405305E+01 -0.13998541695E+01  0.13004428672E+02  0.00000000000E+00 0.  1.
        -11    1    3    3    0    0 -0.19042983652E+02  0.16272491002E+02  0.14620655536E+02  0.29003323225E+02  0.00000000000E+00 0. -1.
         11    1    3    3    0    0  0.33497338550E+02 -0.49741893137E+02  0.16615243526E+03  0.17664359418E+03  0.00000000000E+00 0.  1.
         -3    1    1    2    0  502  0.88652926880E+02  0.90227518082E+02  0.15654852316E+03  0.20126546293E+03  0.00000000000E+00 0.  1.
<scales pt_clust_5="13000.00000" pt_clust_6="13000.00000" pt_clust_7="13000.00000" pt_clust_8="13000.00000" pt_clust_9="117.97452"></scales>
<clustering>
<clus scale="   81.988">  5  6 -1 -1</clus>
<clus scale="   91.009">  7  8 -1 -1</clus>
<clus scale="   98.040">  1  7  2 -1</clus>
<clus scale="  117.975">  2  9  1 -1</clus>
<clus scale="  117.975">  2  5  1 -1</clus>
</clustering>
</event>
<event>
 9    1  0.7835476E-005  0.9241610E+02  0.7546771E-02  0.1301022E+00
          1   -1    0    0  502    0 -0.00000000000E+00  0.00000000000E+00  0.44330027633E+03  0.44330027633E+03  0.00000000000E+00 0. -1.
         21   -1    0    0  501  502  0.00000000000E+00 -0.00000000000E+00 -0.94481455549E+02  0.94481455549E+02  0.00000000000E+00 0. -1.
         23    2    1    2    0    0  0.10728041855E+01  0.30777332370E+02  0.30953756071E+03  0.32423832169E+03  0.91480012364E+02 0.  0.
        -24    2    1    2    0    0  0.24953703659E+02  0.51155351636E+02  0.71577044386E+02  0.12171007472E+03  0.80315077529E+02 0.  0.
         13    1    4    4    0    0  0.43419448530E+02  0.56533373713E+02  0.73490397625E+02  0.10238217324E+03  0.00000000000E+00 0. -1.
        -14    1    4    4    0    0 -0.18465744871E+02 -0.53780220776E+01 -0.19133532392E+01  0.19327901483E+02  0.00000000000E+00 0.  1.
        -13    1    3    3    0    0 -0.26919613798E+02 -0.77038980959E+01  0.31448401801E+02  0.42107215875E+02  0.00000000000E+00 0.  1.
         13    1    3    3    0    0  0.27992417984E+02  0.38481230466E+02  0.27808915891E+03  0.28213110581E+03  0.00000000000E+00 0. -1.
          2    1    1    2  501    0 -0.26026507845E+02 -0.81932684006E+02 -0.32295784317E+02  0.91833335470E+02  0.00000000000E+00 0. -1.
<scales pt_clust_5="13000.00000" pt_clust_6="13000.00000" pt_clust_7="13000.00000" pt_clust_8="13000.00000" pt_clust_9="85.96711"></scales>
<clustering>
<clus scale="   80.315">  5  6 -1 -1</clus>
<clus scale="   85.967">  2  9  1 -1</clus>
<clus scale="   85.967">  2  5  1 -1</clus>
<clus scale="   91.480">  7  8 -1 -1</clus>
<clus scale="   85.967">  2  5  1 -1</clus>
</clustering>
</event>
<event>
 9    1  0.7835476E-005  0.9439959E+02  0.7546771E-02  0.1294594E+00
          3   -1    0    0  502    0 -0.00000000000E+00  0.00000000000E+00  0.18126490522E+03  0.18126490522E+03  0.00000000000E+00 0. -1.
         21   -1    0    0  501  502  0.00000000000E+00 -0.00000000000E+00 -0.13451489974E+03  0.13451489974E+03  0.00000000000E+00 0.  1.
         23    2    1    2    0    0 -0.33227464512E+02 -0.73970250832E+01  0.12999958024E+03  0.16153241772E+03  0.89632866372E+02 0.  0.
        -24    2    1    2    0    0  0.11819068573E+02 -0.24886618447E+02 -0.49579124098E+02  0.10292241959E+03  0.85883064384E+02 0.  0.
         11    1    4    4    0    0 -0.12662708524E+01 -0.20533328552E+02  0.21945586432E+02  0.30080388746E+02  0.00000000000E+00 0. -1.
        -12    1    4    4    0    0  0.13085339425E+02 -0.43532898950E+01 -0.71524710530E+02  0.72842030842E+02  0.00000000000E+00 0.  1.
        -11    1    3    3    0    0  0.30785275482E+02  0.31478732576E+01  0.44638585878E+02  0.54316163724E+02  0.00000000000E+00 0.  1.
         11    1    3    3    0    0 -0.64012739994E+02 -0.10544898341E+02  0.85360994362E+02  0.10721625400E+03  0.00000000000E+00 0. -1.
          4    1    1    2  501    0  0.21408395940E+02  0.32283643530E+02 -0.33670450668E+02  0.51324967652E+02  0.00000000000E+00 0. -1.
<scales pt_clust_5="13000.00000" pt_clust_6="13000.00000" pt_clust_7="13000.00000" pt_clust_8="13000.00000" pt_clust_9="38.73697"></scales>
<clustering>
<clus scale="   38.737">  2  9  1 -1</clus>
<clus scale="   85.883">  5  6 -1 -1</clus>
<clus scale="   89.633">  7  8 -1 -1</clus>
<clus scale="   90.847">  2  5  1 -1</clus>
<clus scale="   38.737">  2  5  1 -1</clus>
</clustering>
</event>
<event>
 9    1  0.7835476E-005  0.9128212E+02  0.7546771E-02  0.1313272E+00
          1   -1    0    0  502    0 -0.00000000000E+00  0.00000000000E+00  0.38511434258E+02  0.38511434258E+02  0.00000000000E+00 0. -1.
         21   -1    0    0  501  502  0.00000000000E+00 -0.00000000000E+00 -0.50859150862E+03  0.50859150862E+03  0.00000000000E+00 0.  1.
        -24    2    1    2    0    0  0.23615771561E+01 -0.36474616607E+01 -0.16103416242E+02  0.72971534628E+02  0.71039734150E+02 0.  0.
         23    2    1    2    0    0 -0.37648877774E+02 -0.55354154646E+01 -0.36157282644E+03  0.37479366654E+03  0.91034635404E+02 0.  0.
         11    1    3    3    0    0 -0.25143891782E+02 -0.15159070032E+02  0.12261649943E+02  0.31817617093E+02  0.00000000000E+00 0. -1.
        -12    1    3    3    0    0  0.27505468938E+02  0.11511608371E+02 -0.28365066185E+02  0.41153917535E+02  0.00000000000E+00 0.  1.
        -11    1    4    4    0    0 -0.59715171318E+02  0.19431493601E+02 -0.27379654567E+03  0.28090573694E+03  0.00000000000E+00 0.  1.
         11    1    4    4    0    0  0.22066293543E+02 -0.24966909066E+02 -0.87776280771E+02  0.93887929602E+02  0.00000000000E+00 0. -1.
          2    1    1    2  501    0  0.35287300618E+02  0.91828771252E+01 -0.92403831682E+02  0.99337741704E+02  0.00000000000E+00 0. -1.
<scales pt_clust_5="13000.00000" pt_clust_6="13000.00000" pt_clust_7="13000.00000" pt_clust_8="13000.00000" pt_clust_9="36.46257"></scales>
<clustering>
<clus scale="   36.463">  2  9  1 -1</clus>
<clus scale="   71.040">  5  6 -1 -1</clus>
<clus scale="   71.357">  1  5  2 -1</clus>
<clus scale="   91.035">  7  8 -1 -1</clus>
<clus scale="   36.463">  2  5  1 -1</clus>
</clustering>
</event>
<event>
 9    1  0.7835476E-005  0.1428568E+03  0.7546771E-02  0.1229794E+00
          3   -1    0    0  502    0 -0.00000000000E+00  0.00000000000E+00  0.24653982043E+03  0.24653982043E+03  0.00000000000E+00 0. -1.
         21   -1    0    0  501  502  0.00000000000E+00 -0.00000000000E+00 -0.22178571545E+03  0.22178571545E+03  0.00000000000E+00 0. -1.
        -24    2    1    2    0    0  0.18308639728E+02 -0.48202911434E+02  0.12933481942E+03  0.15949749587E+03  0.77802498130E+02 0.  0.
         23    2    1    2    0    0  0.93381104937E+02  0.71377950893E+02  0.10240535430E+02  0.14697748876E+03  0.87650847135E+02 0.  0.
         13    1    3    3    0    0  0.32761234573E+02 -0.63986696409E+02  0.97413058921E+02  0.12106568406E+03  0.00000000000E+00 0. -1.
        -14    1    3    3    0    0 -0.14452594845E+02  0.15783784975E+02  0.31921760504E+02  0.38431811817E+02  0.00000000000E+00 0.  1.
        -11    1    4    4    0    0  0.44849926590E+02  0.84780982450E+02  0.18211779398E+01  0.95930430988E+02  0.00000000000E+00 0. -1.
         11    1    4    4    0    0  0.48531178347E+02 -0.13403031558E+02  0.84193574905E+01  0.51047057772E+02  0.00000000000E+00 0.  1.
          4    1    1    2  501    0 -0.11168974466E+03 -0.23175039459E+02 -0.11482124987E+03  0.16185055125E+03  0.00000000000E+00 0. -1.
<scales pt_clust_5="13000.00000" pt_clust_6="13000.00000" pt_clust_7="13000.00000" pt_clust_8="13000.00000" pt_clust_9="112.80685"></scales>
<clustering>
<clus scale="   77.802">  5  6 -1 -1</clus>
<clus scale="   87.651">  7  8 -1 -1</clus>
<clus scale="   93.338">  1  5  2 -1</clus>
<clus scale="  112.807">  2  9  1 -1</clus>
<clus scale="  112.807">  2  5  1 -1</clus>
</clustering>
</event>
<event>
 9    1  0.7835476E-005  0.1010912E+03  0.7546771E-02  0.1282746E+00
         21   -1    0    0  501  502  0.00000000000E+00  0.00000000000E+00  0.10122253243E+03  0.10122253243E+03  0.00000000000E+00 0. -1.
         -2   -1    0    0    0  501 -0.00000000000E+00 -0.00000000000E+00 -0.35604422123E+03  0.35604422123E+03  0.00000000000E+00 0.  1.
        -24    2    1    2    0    0  0.78268509132E+01 -0.43696224003E+02 -0.19389024395E+03  0.21473601384E+03  0.80916681538E+02 0.  0.
         23    2    1    2    0    0 -0.50758342876E+02  0.35717715379E+02  0.51893023990E+02  0.12155086393E+03  0.90716933485E+02 0.  0.
         11    1    3    3    0    0 -0.31282915633E+02 -0.10742096707E+02 -0.36557205814E+02  0.49299520780E+02  0.00000000000E+00 0. -1.
        -12    1    3    3    0    0  0.39109766546E+02 -0.32954127296E+02 -0.15733303814E+03  0.16543649306E+03  0.00000000000E+00 0.  1.
        -11    1    4    4    0    0 -0.25255172744E+02 -0.52294616198E+01  0.66354064922E+02  0.71190118351E+02  0.00000000000E+00 0. -1.
         11    1    4    4    0    0 -0.25503170131E+02  0.40947176999E+02 -0.14461040931E+02  0.50360745583E+02  0.00000000000E+00 0.  1.
         -1    1    1    2    0  502  0.42931491962E+02  0.79785086245E+01 -0.11282446884E+03  0.12097987589E+03  0.00000000000E+00 0.  1.
<scales pt_clust_5="13000.00000" pt_clust_6="13000.00000" pt_clust_7="13000.00000" pt_clust_8="13000.00000" pt_clust_9="43.66659"></scales>
<clustering>
<clus scale="   43.667">  1  9  2 -1</clus>
<clus scale="   80.917">  5  6 -1 -1</clus>
<clus scale="   90.717">  7  8 -1 -1</clus>
<clus scale="   92.398">  2  5  1 -1</clus>
<clus scale="   43.667">  1  5  2 -1</clus>
</clustering>
</event>
<event>
 9    1  0.7835476E-005  0.3371860E+03  0.7546771E-02  0.1068001E+00
         21   -1    0    0  501  502  0.00000000000E+00  0.00000000000E+00  0.10832466069E+03  0.10832466069E+03  0.00000000000E+00 0. -1.
          1   -1    0    0  502    0 -0.00000000000E+00 -0.00000000000E+00 -0.87454775350E+03  0.87454775350E+03  0.00000000000E+00 0. -1.
        -24    2    1    2    0    0  0.35863742517E+02 -0.15087148411E+03 -0.10601320361E+03  0.20483188318E+03  0.81663261519E+02 0.  0.
         23    2    1    2    0    0 -0.51139264416E+02 -0.10886893348E+03 -0.20589730059E+03  0.25449649823E+03  0.88921876828E+02 0.  0.
         11    1    3    3    0    0 -0.92194581010E+01 -0.11734243158E+03 -0.83455637660E+02  0.14428821197E+03  0.00000000000E+00 0. -1.
        -12    1    3    3    0    0  0.45083200618E+02 -0.33529052528E+02 -0.22557565951E+02  0.60543671205E+02  0.00000000000E+00 0.  1.
        -13    1    4    4    0    0  0.37998181559E+01 -0.64389235418E+02 -0.15351640135E+03  0.16651635877E+03  0.00000000000E+00 0. -1.
         13    1    4    4    0    0 -0.54939082572E+02 -0.44479698061E+02 -0.52380899240E+02  0.87980139456E+02  0.00000000000E+00 0.  1.
          2    1    1    2  501    0  0.15275521899E+02  0.25974041759E+03 -0.45431258861E+03  0.52354403279E+03  0.00000000000E+00 0. -1.
<scales pt_clust_5="13000.00000" pt_clust_6="13000.00000" pt_clust_7="13000.00000" pt_clust_8="13000.00000" pt_clust_9="260.18934"></scales>
<clustering>
<clus scale="   81.663">  5  6 -1 -1</clus>
<clus scale="   88.922">  7  8 -1 -1</clus>
<clus scale="  141.725">  5  7 -1 -1</clus>
<clus scale="  260.189">  1  9  2 -1</clus>
<clus scale="  260.189">  1  5  2 -1</clus>
</clustering>
</event>
<event>
 9    1  0.7835476E-005  0.1469214E+03  0.7546771E-02  0.1226205E+00
         21   -1    0    0  501  502  0.00000000000E+00  0.00000000000E+00  0.15927057501E+03  0.15927057501E+03  0.00000000000E+00 0. -1.
          1   -1    0    0  502    0 -0.00000000000E+00 -0.00000000000E+00 -0.26097981316E+03  0.26097981316E+03  0.00000000000E+00 0. -1.
        -24    2    1    2    0    0 -0.21792463215E+02  0.41195529546E+02 -0.10003982604E+03  0.13619997403E+03  0.79815305708E+02 0.  0.
         23    2    1    2    0    0 -0.10240133747E+02  0.89093369242E+02 -0.61048230037E+02  0.13732915313E+03  0.84201669376E+02 0.  0.
         11    1    3    3    0    0  0.23321078315E+02  0.13636500938E+02 -0.70818134720E+02  0.75796009505E+02  0.00000000000E+00 0. -1.
        -12    1    3    3    0    0 -0.45113541530E+02  0.27559028608E+02 -0.29221691315E+02  0.60403964526E+02  0.00000000000E+00 0.  1.
        -13    1    4    4    0    0  0.27687910155E+02  0.64916731654E+01 -0.29855728957E+02  0.41232593185E+02  0.00000000000E+00 0.  1.
         13    1    4    4    0    0 -0.37928043901E+02  0.82601696076E+02 -0.31192501081E+02  0.96096559941E+02  0.00000000000E+00 0. -1.
          2    1    1    2  501    0  0.32032596961E+02 -0.13028889879E+03  0.59378817919E+02  0.14672126101E+03  0.00000000000E+00 0. -1.
<scales pt_clust_5="13000.00000" pt_clust_6="13000.00000" pt_clust_7="13000.00000" pt_clust_8="13000.00000" pt_clust_9="120.39918"></scales>
<clustering>
<clus scale="   79.815">  5  6 -1 -1</clus>
<clus scale="   84.202">  7  8 -1 -1</clus>
<clus scale="   92.425">  2  5  1 -1</clus>
<clus scale="  120.399">  1  9  2 -1</clus>
<clus scale="  120.399">  1  5  2 -1</clus>
</clustering>
</event>
<event>
 9    1  0.7835476E-005  0.1961319E+03  0.7546771E-02  0.1179497E+00
          1   -1    0    0  502    0 -0.00000000000E+00  0.00000000000E+00  0.80142529012E+03  0.80142529012E+03  0.00000000000E+00 0. -1.
         21   -1    0    0  501  502  0.00000000000E+00 -0.00000000000E+00 -0.12726806009E+03  0.12726806009E+03  0.00000000000E+00 0.  1.
        -24    2    1    2    0    0 -0.59945196385E+02 -0.38974320587E+02  0.43805591357E+03  0.45085472309E+03  0.79149059881E+02 0.  0.
         23    2    1    2    0    0 -0.10888199820E+03 -0.10679707284E+03  0.41220601215E+02  0.18164542338E+03  0.89638259530E+02 0.  0.
         13    1    3    3    0    0 -0.79390066773E+02 -0.30113935977E+02  0.33366520258E+03  0.34429943255E+03  0.00000000000E+00 0. -1.
        -14    1    3    3    0    0  0.19444870388E+02 -0.88603846097E+01  0.10439071100E+03  0.10655529054E+03  0.00000000000E+00 0.  1.
        -11    1    4    4    0    0 -0.48080099098E+02 -0.12036449890E+02 -0.20047822994E+02  0.53464822660E+02  0.00000000000E+00 0.  1.
         11    1    4    4    0    0 -0.60801899100E+02 -0.94760622946E+02  0.61268424210E+02  0.12818060072E+03  0.00000000000E+00 0. -1.
          2    1    1    2  501    0  0.16882719458E+03  0.14577139342E+03  0.19488071524E+03  0.29619320374E+03  0.00000000000E+00 0. -1.
<scales pt_clust_5="13000.00000" pt_clust_6="13000.00000" pt_clust_7="13000.00000" pt_clust_8="13000.00000" pt_clust_9="174.44981"></scales>
<clustering>
<clus scale="   79.149">  5  6 -1 -1</clus>
<clus scale="   89.638">  7  8 -1 -1</clus>
<clus scale="  106.663">  1  5  2 -1</clus>
<clus scale="  174.450">  2  9  1 -1</clus>
<clus scale="  174.450">  2  5  1 -1</clus>
</clustering>
</event>
<event>
 9    1  0.7835476E-005  0.1041887E+03  0.7546771E-02  0.1277797E+00
         21   -1    0    0  501  502  0.00000000000E+00  0.00000000000E+00  0.15834747455E+03  0.15834747455E+03  0.00000000000E+00 0. -1.
          1   -1    0    0  502    0 -0.00000000000E+00 -0.00000000000E+00 -0.23121097894E+03  0.23121097894E+03  0.00000000000E+00 0. -1.
         23    2    1    2    0    0 -0.15234478965E+02 -0.17464233997E+02  0.15845520052E+02  0.97074094372E+02  0.92925833190E+02 0.  0.
        -24    2    1    2    0    0  0.45615736885E+02  0.75013531352E+02  0.57918151546E+02  0.13206468701E+03  0.79867039125E+02 0.  0.
         13    1    4    4    0    0  0.41101511537E+02  0.89917526351E+00  0.61989805894E+01  0.41576076380E+02  0.00000000000E+00 0. -1.
        -14    1    4    4    0    0  0.45142253470E+01  0.74114356088E+02  0.51719170957E+02  0.90488610628E+02  0.00000000000E+00 0.  1.
        -11    1    3    3    0    0 -0.10624734202E+02 -0.50170464662E+02 -0.13348506763E+02  0.52991915742E+02  0.00000000000E+00 0.  1.
         11    1    3    3    0    0 -0.46097447629E+01  0.32706230665E+02  0.29194026815E+02  0.44082178630E+02  0.00000000000E+00 0. -1.
          2    1    1    2  501    0 -0.30381257920E+02 -0.57549297355E+02 -0.14662717599E+03  0.16041967210E+03  0.00000000000E+00 0. -1.
<scales pt_clust_5="13000.00000" pt_clust_6="13000.00000" pt_clust_7="13000.00000" pt_clust_8="13000.00000" pt_clust_9="65.07647"></scales>
<clustering>
<clus scale="   65.076">  1  9  2 -1</clus>
<clus scale="   79.867">  5  6 -1 -1</clus>
<clus scale="   92.730">  1  5  2 -1</clus>
<clus scale="   92.926">  7  8 -1 -1</clus>
<clus scale="   65.076">  1  5  2 -1</clus>
</clustering>
</event>
<event>
 9    1  0.7835476E-005  0.1180529E+03  0.7546771E-02  0.1249807E+00
         21   -1    0    0  501  502  0.00000000000E+00  0.00000000000E+00  0.14491256933E+03  0.14491256933E+03  0.00000000000E+00 0.  1.
          1   -1    0    0  502    0 -0.00000000000E+00 -0.00000000000E+00 -0.16765798016E+03  0.16765798016E+03  0.00000000000E+00 0. -1.
         23    2    1    2    0    0  0.62373962660E+02 -0.28255139996E+02 -0.41310880219E+02  0.12119022149E+03  0.91058315419E+02 0.  0.
        -24    2    1    2    0    0 -0.45648908240E+02  0.81063259350E+02 -0.18924587691E+02  0.12449289049E+03  0.80531142573E+02 0.  0.
         13    1    4    4    0    0 -0.14160376530E+02  0.89226023068E+02 -0.10980195223E+02  0.91007494984E+02  0.00000000000E+00 0. -1.
        -14    1    4    4    0    0 -0.31488531710E+02 -0.81627637184E+01 -0.79443924682E+01  0.33485395510E+02  0.00000000000E+00 0.  1.
        -13    1    3    3    0    0  0.57830847460E+02  0.61386075819E+01 -0.58486487437E+02  0.82478837490E+02  0.00000000000E+00 0.  1.
         13    1    3    3    0    0  0.45431152001E+01 -0.34393747578E+02  0.17175607217E+02  0.38711384004E+02  0.00000000000E+00 0. -1.
          2    1    1    2  501    0 -0.16725054420E+02 -0.52808119354E+02  0.37490057089E+02  0.66887437502E+02  0.00000000000E+00 0. -1.
<scales pt_clust_5="13000.00000" pt_clust_6="13000.00000" pt_clust_7="13000.00000" pt_clust_8="13000.00000" pt_clust_9="55.39337"></scales>
<clustering>
<clus scale="   55.393">  1  9  2 -1</clus>
<clus scale="   80.531">  5  6 -1 -1</clus>
<clus scale="   91.058">  7  8 -1 -1</clus>
<clus scale="  110.137">  1  5  2 -1</clus>
<clus scale="   55.393">  1  5  2 -1</clus>
</clustering>
</event>
<event>
 9    1  0.7835476E-005  0.1455227E+03  0.7546771E-02  0.1206907E+00
         21   -1    0    0  501  502  0.00000000000E+00  0.00000000000E+00  0.17000817192E+03  0.17000817192E+03  0.00000000000E+00 0.  1.
         -4   -1    0    0    0  501 -0.00000000000E+00 -0.00000000000E+00 -0.26727473911E+03  0.26727473911E+03  0.00000000000E+00 0.  1.
         23    2    1    2    0    0  0.37978925984E+02  0.90711701493E+02 -0.47079247207E+02  0.13364208888E+03  0.77283509207E+02 0.  0.
        -24    2    1    2    0    0 -0.25797993500E+02 -0.17521872054E+03  0.15752533321E+02  0.19576183607E+03  0.81898825764E+02 0.  0.
         13    1    4    4    0    0  0.12641855381E+02 -0.38667159164E+02  0.33628488034E+02  0.52781065854E+02  0.00000000000E+00 0. -1.
        -14    1    4    4    0    0 -0.38439848881E+02 -0.13655156137E+03 -0.17875954713E+02  0.14298077022E+03  0.00000000000E+00 0.  1.
        -11    1    3    3    0    0  0.24651939862E+02  0.65349018742E+02  0.92412436593E+01  0.70452913169E+02  0.00000000000E+00 0.  1.
         11    1    3    3    0    0  0.13326986122E+02  0.25362682751E+02 -0.56320490866E+02  0.63189175709E+02  0.00000000000E+00 0. -1.
         -3    1    1    2    0  502 -0.12180932483E+02  0.84507019044E+02 -0.65939853299E+02  0.10787898608E+03  0.00000000000E+00 0.  1.
<scales pt_clust_5="13000.00000" pt_clust_6="13000.00000" pt_clust_7="13000.00000" pt_clust_8="13000.00000" pt_clust_9="85.38043"></scales>
<clustering>
<clus scale="   77.284">  7  8 -1 -1</clus>
<clus scale="   81.899">  5  6 -1 -1</clus>
<clus scale="   85.380">  1  9  2 -1</clus>
<clus scale="  142.976">  2  7  1 -1</clus>
<clus scale="   85.380">  1  5  2 -1</clus>
</clustering>
</event>
