<event>
 9    2  0.2984928E-005  0.9913864E+02  0.7546771E-02  0.1284985E+00
         -1   -1    0    0    0  501 -0.00000000000E+00  0.00000000000E+00  0.19844037749E+03  0.19844037749E+03  0.00000000000E+00 0.  1.
          2   -1    0    0  502    0  0.00000000000E+00 -0.00000000000E+00 -0.14482844480E+03  0.14482844480E+03  0.00000000000E+00 0. -1.
         23    2    1    2    0    0  0.43885588618E+02  0.26305799075E+02  0.15423631802E+03  0.18436880916E+03  0.87092342038E+02 0.  0.
         24    2    1    2    0    0 -0.23123875385E+02 -0.19632741779E+02 -0.41743114132E+02  0.96110025644E+02  0.81083236795E+02 0.  0.
        -11    1    4    4    0    0 -0.18953658120E+02  0.30208215208E+02 -0.24241903130E+02  0.43121308996E+02  0.00000000000E+00 0.  1.
         12    1    4    4    0    0 -0.41702172650E+01 -0.49840956987E+02 -0.17501211002E+02  0.52988716648E+02  0.00000000000E+00 0. -1.
        -13    1    3    3    0    0  0.60020134704E+02  0.44637875558E+02  0.99926029823E+02  0.12482054294E+03  0.00000000000E+00 0.  1.
         13    1    3    3    0    0 -0.16134546086E+02 -0.18332076483E+02  0.54310288198E+02  0.59548266219E+02  0.00000000000E+00 0. -1.
         21    1    1    2  502  501 -0.20761713234E+02 -0.66730572959E+01 -0.58881271199E+02  0.62789987483E+02  0.00000000000E+00 0. -1.
<scales pt_clust_5="13000.00000" pt_clust_6="13000.00000" pt_clust_7="13000.00000" pt_clust_8="13000.00000" pt_clust_9="21.80776"></scales>
<clustering>
<clus scale="   21.808">  2  9  1 -1</clus>
<clus scale="   81.083">  5  6 -1 -1</clus>
<clus scale="   87.092">  7  8 -1 -1</clus>
<clus scale="   93.904">  2  5  1 -1</clus>
<clus scale="   21.808">  2  5  1 -1</clus>
</clustering>
</event>
<event>
 9    2  0.2984928E-005  0.1077654E+03  0.7546771E-02  0.1269413E+00
          2   -1    0    0  502    0  0.00000000000E+00  0.00000000000E+00  0.25407626466E+02  0.25407626466E+02  0.00000000000E+00 0. -1.
         -1   -1    0    0    0  501 -0.00000000000E+00 -0.00000000000E+00 -0.57464921959E+03  0.57464921959E+03  0.00000000000E+00 0.  1.
         24    2    1    2    0    0 -0.28383397193E+02 -0.31760585804E+02 -0.22159229467E+03  0.23989514861E+03  0.81438229506E+02 0.  0.
         23    2    1    2    0    0  0.42968782041E+02  0.56635943467E+02 -0.29115148817E+03  0.31364710806E+03  0.92473634118E+02 0.  0.
        -11    1    3    3    0    0 -0.49006706476E+02 -0.71486047119E+01 -0.75346442192E+02  0.90165659649E+02  0.00000000000E+00 0.  1.
         12    1    3    3    0    0  0.20623309283E+02 -0.24611981092E+02 -0.14624585247E+03  0.14972948896E+03  0.00000000000E+00 0. -1.
        -13    1    4    4    0    0  0.66199027352E+01  0.72823228853E+02 -0.22353909839E+03  0.23519518338E+03  0.00000000000E+00 0.  1.
         13    1    4    4    0    0  0.36348879306E+02 -0.16187285386E+02 -0.67612389779E+02  0.78451924684E+02  0.00000000000E+00 0. -1.
         21    1    1    2  502  501 -0.14585384848E+02 -0.24875357664E+02 -0.36497810285E+02  0.46514589385E+02  0.00000000000E+00 0. -1.
<scales pt_clust_5="13000.00000" pt_clust_6="13000.00000" pt_clust_7="13000.00000" pt_clust_8="13000.00000" pt_clust_9="28.83603"></scales>
<clustering>
<clus scale="   28.836">  1  9  2 -1</clus>
<clus scale="   81.438">  5  6 -1 -1</clus>
<clus scale="   92.474">  7  8 -1 -1</clus>
<clus scale="   98.459">  2  5  1 -1</clus>
<clus scale="   28.836">  1  5  2 -1</clus>
</clustering>
</event>
<event>
 9    2  0.2984928E-005  0.1258229E+03  0.7546771E-02  0.1236122E+00
         -1   -1    0    0    0  501 -0.00000000000E+00  0.00000000000E+00  0.25149863510E+02  0.25149863510E+02  0.00000000000E+00 0.  1.
          2   -1    0    0  502    0  0.00000000000E+00 -0.00000000000E+00 -0.99489234028E+03  0.99489234028E+03  0.00000000000E+00 0. -1.
         23    2    1    2    0    0 -0.23517974503E+02  0.77813045880E+02 -0.20286886044E+03  0.23642678817E+03  0.90188061263E+02 0.  0.
         24    2    1    2    0    0  0.36981370317E+02 -0.10046771377E+03 -0.64702251885E+03  0.66090118429E+03  0.81797629761E+02 0.  0.
        -11    1    4    4    0    0  0.51635632072E+02 -0.58092985564E+02 -0.26225708360E+03  0.27353210300E+03  0.00000000000E+00 0.  1.
         12    1    4    4    0    0 -0.14654261756E+02 -0.42374728205E+02 -0.38476543525E+03  0.38736908129E+03  0.00000000000E+00 0. -1.
        -13    1    3    3    0    0 -0.13320545429E+02  0.53517392060E+02 -0.20270903463E+03  0.21007736885E+03  0.00000000000E+00 0. -1.
         13    1    3    3    0    0 -0.10197429073E+02  0.24295653820E+02 -0.15982581305E+00  0.26349419320E+02  0.00000000000E+00 0.  1.
         21    1    1    2  502  501 -0.13463395814E+02  0.22654667889E+02 -0.11985109748E+03  0.12271423134E+03  0.00000000000E+00 0.  1.
<scales pt_clust_5="13000.00000" pt_clust_6="13000.00000" pt_clust_7="13000.00000" pt_clust_8="13000.00000" pt_clust_9="26.35331"></scales>
<clustering>
<clus scale="   26.353">  2  9  1 -1</clus>
<clus scale="   81.798">  5  6 -1 -1</clus>
<clus scale="   90.188">  7  8 -1 -1</clus>
<clus scale="  119.952">  2  5  1 -1</clus>
<clus scale="   26.353">  2  5  1 -1</clus>
</clustering>
</event>
<event>
 9    2  0.2984928E-005  0.8732158E+02  0.7546771E-02  0.1310669E+00
         -1   -1    0    0    0  501 -0.00000000000E+00  0.00000000000E+00  0.10188418951E+03  0.10188418951E+03  0.00000000000E+00 0.  1.
          2   -1    0    0  502    0  0.00000000000E+00 -0.00000000000E+00 -0.60184263148E+03  0.60184263148E+03  0.00000000000E+00 0. -1.
         24    2    1    2    0    0  0.14319292025E+02 -0.35408434256E+02  0.45376343624E+02  0.99902268131E+02  0.80390616843E+02 0.  0.
         23    2    1    2    0    0 -0.48868383424E+02 -0.43333515556E+02 -0.84070921441E+02  0.13461427297E+03  0.82384283619E+02 0.  0.
        -11    1    3    3    0    0 -0.20113680141E+02 -0.43089852750E+02  0.43699886852E+02  0.64583091052E+02  0.00000000000E+00 0.  1.
         12    1    3    3    0    0  0.34432972166E+02  0.76814184939E+01  0.16764567719E+01  0.35319177080E+02  0.00000000000E+00 0. -1.
        -11    1    4    4    0    0 -0.57573637771E+02 -0.35441474064E+01 -0.25011570024E+02  0.62871801168E+02  0.00000000000E+00 0.  1.
         11    1    4    4    0    0  0.87052543474E+01 -0.39789368149E+02 -0.59059351417E+02  0.71742471805E+02  0.00000000000E+00 0. -1.
         21    1    1    2  502  501  0.34549091399E+02  0.78741949812E+02 -0.46126386415E+03  0.46921027988E+03  0.00000000000E+00 0. -1.
<scales pt_clust_5="13000.00000" pt_clust_6="13000.00000" pt_clust_7="13000.00000" pt_clust_8="13000.00000" pt_clust_9="85.98799"></scales>
<clustering>
<clus scale="   80.391">  5  6 -1 -1</clus>
<clus scale="   82.384">  7  8 -1 -1</clus>
<clus scale="   85.988">  2  9  1 -1</clus>
<clus scale="   85.443">  1  5  2 -1</clus>
<clus scale="   85.988">  2  5  1 -1</clus>
</clustering>
</event>
<event>
 9    2  0.2984928E-005  0.1461308E+03  0.7546771E-02  0.1207530E+00
         -1   -1    0    0    0  501 -0.00000000000E+00  0.00000000000E+00  0.61073371321E+02  0.61073371321E+02  0.00000000000E+00 0.  1.
          2   -1    0    0  502    0  0.00000000000E+00 -0.00000000000E+00 -0.43624145562E+03  0.43624145562E+03  0.00000000000E+00 0. -1.
         23    2    1    2    0    0 -0.10593694397E+03  0.70470045892E+02 -0.16296840435E+03  0.22565546362E+03  0.90404778509E+02 0.  0.
         24    2    1    2    0    0  0.10037863315E+03 -0.38834762274E+02 -0.19158839149E+03  0.23349509730E+03  0.78929335223E+02 0.  0.
        -13    1    4    4    0    0  0.39605028556E+02  0.22991006193E+02 -0.53213349793E+02  0.70205450279E+02  0.00000000000E+00 0.  1.
         14    1    4    4    0    0  0.60773604590E+02 -0.61825768467E+02 -0.13837504169E+03  0.16328964702E+03  0.00000000000E+00 0. -1.
        -13    1    3    3    0    0  0.36968296847E+01  0.36217314613E+02 -0.65834977649E+02  0.75230344340E+02  0.00000000000E+00 0. -1.
         13    1    3    3    0    0 -0.10963377366E+03  0.34252731280E+02 -0.97133426699E+02  0.15042511928E+03  0.00000000000E+00 0.  1.
         21    1    1    2  502  501  0.55583108291E+01 -0.31635283618E+02 -0.20611288463E+02  0.38164266022E+02  0.00000000000E+00 0.  1.
<scales pt_clust_5="13000.00000" pt_clust_6="13000.00000" pt_clust_7="13000.00000" pt_clust_8="13000.00000" pt_clust_9="32.11987"></scales>
<clustering>
<clus scale="   32.120">  1  9  2 -1</clus>
<clus scale="   78.929">  5  6 -1 -1</clus>
<clus scale="   90.405">  7  8 -1 -1</clus>
<clus scale="  139.323">  2  5  1 -1</clus>
<clus scale="  139.323">  2  5  1 -1</clus>
</clustering>
</event>
<event>
 9    2  0.2984928E-005  0.1240944E+03  0.7546771E-02  0.1237705E+00
         -1   -1    0    0    0  501 -0.00000000000E+00  0.00000000000E+00  0.37522030906E+02  0.37522030906E+02  0.00000000000E+00 0.  1.
          2   -1    0    0  502    0  0.00000000000E+00 -0.00000000000E+00 -0.67458647437E+03  0.67458647437E+03  0.00000000000E+00 0. -1.
         24    2    1    2    0    0 -0.10360245661E+03  0.40871153619E+02 -0.19287451802E+03  0.23772639672E+03  0.83122438518E+02 0.  0.
         23    2    1    2    0    0  0.44413634281E+02 -0.42023676830E+02 -0.26596363453E+03  0.28658100160E+03  0.87484028610E+02 0.  0.
        -11    1    3    3    0    0 -0.22579090005E+02  0.14807564865E+02 -0.10310946861E+00  0.27001665028E+02  0.00000000000E+00 0.  1.
         12    1    3    3    0    0 -0.81023366603E+02  0.26063588754E+02 -0.19277140855E+03  0.21072473169E+03  0.00000000000E+00 0. -1.
        -11    1    4    4    0    0  0.48545472984E+02  0.79136552838E+01 -0.79357140073E+02  0.93364043227E+02  0.00000000000E+00 0.  1.
         11    1    4    4    0    0 -0.41318387030E+01 -0.49937332114E+02 -0.18660649445E+03  0.19321695837E+03  0.00000000000E+00 0. -1.
         21    1    1    2  502  501  0.59188822327E+02  0.11525232111E+01 -0.17822629092E+03  0.18780110695E+03  0.00000000000E+00 0. -1.
<scales pt_clust_5="13000.00000" pt_clust_6="13000.00000" pt_clust_7="13000.00000" pt_clust_8="13000.00000" pt_clust_9="59.20004"></scales>
<clustering>
<clus scale="   59.200">  2  9  1 -1</clus>
<clus scale="   83.122">  5  6 -1 -1</clus>
<clus scale="   87.484">  7  8 -1 -1</clus>
<clus scale="  121.059">  1  5  2 -1</clus>
<clus scale="   59.200">  2  5  1 -1</clus>
</clustering>
</event>
<event>
 9    2  0.2984928E-005  0.1804083E+03  0.7546771E-02  0.1168870E+00
         -1   -1    0    0    0  501 -0.00000000000E+00  0.00000000000E+00  0.10213198480E+03  0.10213198480E+03  0.00000000000E+00 0.  1.
          2   -1    0    0  502    0  0.00000000000E+00 -0.00000000000E+00 -0.69736147241E+03  0.69736147241E+03  0.00000000000E+00 0. -1.
         23    2    1    2    0    0  0.10253089750E+03  0.12230672194E+03 -0.77704137009E+01  0.18312638699E+03  0.89461584536E+02 0.  0.
         24    2    1    2    0    0 -0.10096734160E+03 -0.97751327572E+02 -0.53449975391E+03  0.55797099438E+03  0.76758827035E+02 0.  0.
        -13    1    4    4    0    0 -0.64736810825E+02 -0.64036197099E+02 -0.19903700954E+03  0.21887718104E+03  0.00000000000E+00 0.  1.
         14    1    4    4    0    0 -0.36230530775E+02 -0.33715130473E+02 -0.33546274438E+03  0.33909381334E+03  0.00000000000E+00 0. -1.
        -13    1    3    3    0    0  0.42960435712E+02  0.11235505458E+03 -0.18749135324E+02  0.12174065632E+03  0.00000000000E+00 0.  1.
         13    1    3    3    0    0  0.59570461787E+02  0.99516673608E+01  0.10978721623E+02  0.61385730665E+02  0.00000000000E+00 0. -1.
         21    1    1    2  502  501 -0.15635558999E+01 -0.24555394367E+02 -0.52959319999E+02  0.58396075847E+02  0.00000000000E+00 0.  1.
<scales pt_clust_5="13000.00000" pt_clust_6="13000.00000" pt_clust_7="13000.00000" pt_clust_8="13000.00000" pt_clust_9="24.60512"></scales>
<clustering>
<clus scale="   24.605">  2  9  1 -1</clus>
<clus scale="   76.759">  5  6 -1 -1</clus>
<clus scale="   89.462">  7  8 -1 -1</clus>
<clus scale="  174.458">  2  5  1 -1</clus>
<clus scale="   24.605">  2  5  1 -1</clus>
</clustering>
</event>
<event>
 9    2  0.2984928E-005  0.1236764E+03  0.7546771E-02  0.1241262E+00
         -1   -1    0    0    0  501 -0.00000000000E+00  0.00000000000E+00  0.11615572489E+03  0.11615572489E+03  0.00000000000E+00 0.  1.
          2   -1    0    0  502    0  0.00000000000E+00 -0.00000000000E+00 -0.27097272759E+03  0.27097272759E+03  0.00000000000E+00 0. -1.
         24    2    1    2    0    0 -0.56224714928E+02 -0.61133629693E+02  0.36488706186E+02  0.11989453959E+03  0.78388364550E+02 0.  0.
         23    2    1    2    0    0  0.76410426268E+02  0.37364026873E+02 -0.73523076721E+02  0.14539301089E+03  0.92189267585E+02 0.  0.
        -11    1    3    3    0    0 -0.30827306791E+02 -0.73724604484E+02  0.43091858404E+02  0.90788481709E+02  0.00000000000E+00 0.  1.
         12    1    3    3    0    0 -0.25397408138E+02  0.12590974791E+02 -0.66031522187E+01  0.29106057884E+02  0.00000000000E+00 0. -1.
        -13    1    4    4    0    0 -0.10633768097E+02  0.36579886110E+02 -0.17888827260E+02  0.42085332748E+02  0.00000000000E+00 0.  1.
         13    1    4    4    0    0  0.87044194366E+02  0.78414076241E+00 -0.55634249461E+02  0.10330767814E+03  0.00000000000E+00 0. -1.
         21    1    1    2  502  501 -0.20185711340E+02  0.23769602820E+02 -0.11778263216E+03  0.12184090200E+03  0.00000000000E+00 0. -1.
<scales pt_clust_5="13000.00000" pt_clust_6="13000.00000" pt_clust_7="13000.00000" pt_clust_8="13000.00000" pt_clust_9="31.18424"></scales>
<clustering>
<clus scale="   31.184">  2  9  1 -1</clus>
<clus scale="   78.388">  5  6 -1 -1</clus>
<clus scale="   92.189">  7  8 -1 -1</clus>
<clus scale="  113.762">  1  5  2 -1</clus>
<clus scale="   31.184">  2  5  1 -1</clus>
</clustering>
</event>
<event>
 9    2  0.2984928E-005  0.1525385E+03  0.7546771E-02  0.1202708E+00
         -1   -1    0    0    0  501 -0.00000000000E+00  0.00000000000E+00  0.39844902063E+03  0.39844902063E+03  0.00000000000E+00 0.  1.
          2   -1    0    0  502    0  0.00000000000E+00 -0.00000000000E+00 -0.15283925631E+03  0.15283925631E+03  0.00000000000E+00 0. -1.
         23    2    1    2    0    0  0.69132313625E+02  0.83323211638E+02  0.30841854923E+03  0.34275477544E+03  0.10313486412E+03 0.  0.
         24    2    1    2    0    0 -0.89170379201E+02 -0.98150365824E+02 -0.13936417979E+02  0.15367115719E+03  0.76392080535E+02 0.  0.
        -11    1    4    4    0    0 -0.84505988117E+02 -0.47030975712E+02  0.96263556472E+01  0.97189718732E+02  0.00000000000E+00 0.  1.
         12    1    4    4    0    0 -0.46643910837E+01 -0.51119390112E+02 -0.23562773626E+02  0.56481438461E+02  0.00000000000E+00 0. -1.
        -13    1    3    3    0    0 -0.42819348178E+01  0.65167400328E+02  0.20130884732E+03  0.21163737156E+03  0.00000000000E+00 0.  1.
         13    1    3    3    0    0  0.73414248443E+02  0.18155811309E+02  0.10710970191E+03  0.13111740389E+03  0.00000000000E+00 0. -1.
         21    1    1    2  502  501  0.20038065576E+02  0.14827154187E+02 -0.48872366933E+02  0.54862344307E+02  0.00000000000E+00 0. -1.
<scales pt_clust_5="13000.00000" pt_clust_6="13000.00000" pt_clust_7="13000.00000" pt_clust_8="13000.00000" pt_clust_9="24.92727"></scales>
<clustering>
<clus scale="   24.927">  2  9  1 -1</clus>
<clus scale="   76.392">  5  6 -1 -1</clus>
<clus scale="  103.135">  7  8 -1 -1</clus>
<clus scale="  135.893">  2  5  1 -1</clus>
<clus scale="   24.927">  2  5  1 -1</clus>
</clustering>
</event>
<event>
 9    2  0.2984928E-005  0.9467349E+02  0.7546771E-02  0.1294902E+00
          2   -1    0    0  502    0  0.00000000000E+00  0.00000000000E+00  0.11995790944E+03  0.11995790944E+03  0.00000000000E+00 0. -1.
         -1   -1    0    0    0  501 -0.00000000000E+00 -0.00000000000E+00 -0.27216445482E+03  0.27216445482E+03  0.00000000000E+00 0.  1.
         23    2    1    2    0    0 -0.17114677566E+02  0.31900468824E+02 -0.23171829407E+03  0.25058221532E+03  0.88246964436E+02 0.  0.
         24    2    1    2    0    0  0.21821929059E+02 -0.11826504917E+02  0.36345027827E+02  0.93702004807E+02  0.82722680389E+02 0.  0.
        -11    1    4    4    0    0 -0.18983157958E+01 -0.32368879447E+02 -0.13238974185E+02  0.35023112326E+02  0.00000000000E+00 0.  1.
         12    1    4    4    0    0  0.23720244855E+02  0.20542374530E+02  0.49584002012E+02  0.58678892481E+02  0.00000000000E+00 0. -1.
        -13    1    3    3    0    0  0.35755438985E+02  0.15390325540E+02 -0.77665710202E+02  0.86875060164E+02  0.00000000000E+00 0. -1.
         13    1    3    3    0    0 -0.52870116551E+02  0.16510143284E+02 -0.15405258386E+03  0.16370715516E+03  0.00000000000E+00 0.  1.
         21    1    1    2  502  501 -0.47072514930E+01 -0.20073963907E+02  0.43166720865E+02  0.47838144130E+02  0.00000000000E+00 0. -1.
<scales pt_clust_5="13000.00000" pt_clust_6="13000.00000" pt_clust_7="13000.00000" pt_clust_8="13000.00000" pt_clust_9="20.61849"></scales>
<clustering>
<clus scale="   20.618">  1  9  2 -1</clus>
<clus scale="   82.723">  5  6 -1 -1</clus>
<clus scale="   88.247">  7  8 -1 -1</clus>
<clus scale="   89.547">  1  5  2 -1</clus>
<clus scale="   20.618">  1  5  2 -1</clus>
</clustering>
</event>
<event>
 9    2  0.2984928E-005  0.1007759E+03  0.7546771E-02  0.1282610E+00
          2   -1    0    0  502    0  0.00000000000E+00  0.00000000000E+00  0.22525348837E+03  0.22525348837E+03  0.00000000000E+00 0. -1.
         -1   -1    0    0    0  501 -0.00000000000E+00 -0.00000000000E+00 -0.69940673444E+02  0.69940673444E+02  0.00000000000E+00 0.  1.
         23    2    1    2    0    0  0.27326829199E+02  0.40651761104E+02  0.14866656533E+02  0.10343088679E+03  0.89875522761E+02 0.  0.
         24    2    1    2    0    0 -0.37300548445E+02 -0.21879184161E+02  0.63933192823E+02  0.11235220135E+03  0.81642724050E+02 0.  0.
        -11    1    4    4    0    0 -0.35409668129E+02 -0.51043564172E+02  0.51072967880E+02  0.80422248716E+02  0.00000000000E+00 0.  1.
         12    1    4    4    0    0 -0.18908803161E+01  0.29164380011E+02  0.12860224943E+02  0.31929952637E+02  0.00000000000E+00 0. -1.
        -11    1    3    3    0    0  0.38878218140E+02 -0.16830902714E+02 -0.20279148303E+01  0.42413530512E+02  0.00000000000E+00 0.  1.
         11    1    3    3    0    0 -0.11551388941E+02  0.57482663818E+02  0.16894571363E+02  0.61017356282E+02  0.00000000000E+00 0. -1.
         21    1    1    2  502  501  0.99737192466E+01 -0.18772576943E+02  0.76512965571E+02  0.79411073668E+02  0.00000000000E+00 0.  1.
<scales pt_clust_5="13000.00000" pt_clust_6="13000.00000" pt_clust_7="13000.00000" pt_clust_8="13000.00000" pt_clust_9="21.25758"></scales>
<clustering>
<clus scale="   21.258">  1  9  2 -1</clus>
<clus scale="   81.643">  5  6 -1 -1</clus>
<clus scale="   89.876">  7  8 -1 -1</clus>
<clus scale="   93.508">  1  5  2 -1</clus>
<clus scale="   21.258">  1  5  2 -1</clus>
</clustering>
</event>
<event>
 9    2  0.2984928E-005  0.9732203E+02  0.7546771E-02  0.1290522E+00
         -1   -1    0    0    0  501 -0.00000000000E+00  0.00000000000E+00  0.73283534108E+02  0.73283534108E+02  0.00000000000E+00 0.  1.
          2   -1    0    0  502    0  0.00000000000E+00 -0.00000000000E+00 -0.35720525540E+03  0.35720525540E+03  0.00000000000E+00 0. -1.
         23    2    1    2    0    0  0.13724146482E+02  0.44012048319E+02 -0.14036056257E+02  0.10148280272E+03  0.89310334114E+02 0.  0.
         24    2    1    2    0    0 -0.64984201794E+02  0.18085161864E+02 -0.12588128865E+03  0.16401835937E+03  0.80659183074E+02 0.  0.
        -13    1    4    4    0    0 -0.10270921038E+02  0.42556465322E+02 -0.40070596073E+02  0.59348102154E+02  0.00000000000E+00 0.  1.
         14    1    4    4    0    0 -0.54713280756E+02 -0.24471303458E+02 -0.85810692580E+02  0.10467025721E+03  0.00000000000E+00 0. -1.
        -11    1    3    3    0    0 -0.20273264673E+02 -0.15953100996E+02  0.11136024048E+02  0.28098358021E+02  0.00000000000E+00 0.  1.
         11    1    3    3    0    0  0.33997411155E+02  0.59965149315E+02 -0.25172080305E+02  0.73384444704E+02  0.00000000000E+00 0. -1.
         21    1    1    2  502  501  0.51260055312E+02 -0.62097210183E+02 -0.14400437638E+03  0.16498762741E+03  0.00000000000E+00 0. -1.
<scales pt_clust_5="13000.00000" pt_clust_6="13000.00000" pt_clust_7="13000.00000" pt_clust_8="13000.00000" pt_clust_9="80.52116"></scales>
<clustering>
<clus scale="   80.521">  2  9  1 -1</clus>
<clus scale="   80.659">  5  6 -1 -1</clus>
<clus scale="   89.310">  7  8 -1 -1</clus>
<clus scale="   89.449">  2  5  1 -1</clus>
<clus scale="   80.521">  2  5  1 -1</clus>
</clustering>
</event>
<event>
 9    2  0.3257327E-005  0.1083255E+03  0.7546771E-02  0.1263961E+00
          2   -1    0    0  502    0  0.00000000000E+00  0.00000000000E+00  0.11471850419E+04  0.11471850419E+04  0.00000000000E+00 0. -1.
         -1   -1    0    0    0  501 -0.00000000000E+00 -0.00000000000E+00 -0.19771562430E+03  0.19771562430E+03  0.00000000000E+00 0.  1.
         23    2    1    2    0    0  0.18334042993E+01 -0.13218443121E+03 -0.14648837400E+03  0.21357936119E+03  0.81738696965E+02 0.  0.
         24    2    1    2    0    0  0.23153070341E+02  0.65430635517E+02  0.10253282036E+04  0.10309772377E+04  0.82455483314E+02 0.  0.
        -13    1    4    4    0    0  0.38911934203E+01  0.34668812224E+02  0.12120457872E+03  0.12612540517E+03  0.00000000000E+00 0.  1.
         14    1    4    4    0    0  0.19261876920E+02  0.30761823293E+02  0.90412362488E+03  0.90485183248E+03  0.00000000000E+00 0. -1.
        -11    1    3    3    0    0  0.32591351345E+02 -0.98759908978E+02 -0.12700979867E+03  0.16415603785E+03  0.00000000000E+00 0.  1.
         11    1    3    3    0    0 -0.30757947046E+02 -0.33424522234E+02 -0.19478575334E+02  0.49423323341E+02  0.00000000000E+00 0. -1.
         21    1    1    2  502  501 -0.24986474640E+02  0.66753795695E+02  0.70629588005E+02  0.10034406737E+03  0.00000000000E+00 0. -1.
<scales pt_clust_5="13000.00000" pt_clust_6="13000.00000" pt_clust_7="13000.00000" pt_clust_8="13000.00000" pt_clust_9="71.27688"></scales>
<clustering>
<clus scale="   71.277">  2  9  1 -1</clus>
<clus scale="   81.739">  7  8 -1 -1</clus>
<clus scale="   82.455">  5  6 -1 -1</clus>
<clus scale="  107.781">  2  7  1 -1</clus>
<clus scale="  108.325">  1  5  2 -1</clus>
</clustering>
</event>
<event>
 9    2  0.2984928E-005  0.9450944E+02  0.7546771E-02  0.1298360E+00
          2   -1    0    0  502    0  0.00000000000E+00  0.00000000000E+00  0.45768011704E+03  0.45768011704E+03  0.00000000000E+00 0. -1.
         -1   -1    0    0    0  501 -0.00000000000E+00 -0.00000000000E+00 -0.62552390213E+02  0.62552390213E+02  0.00000000000E+00 0.  1.
         23    2    1    2    0    0 -0.19146508280E+02 -0.13130340696E+02  0.14361439691E+02  0.94598040799E+02  0.90573416337E+02 0.  0.
         24    2    1    2    0    0  0.66116226712E+02 -0.43006685277E+02  0.27451529313E+03  0.29661201158E+03  0.79994430036E+02 0.  0.
        -11    1    4    4    0    0  0.84828903393E+02 -0.32363302537E+02  0.21976029552E+03  0.23777702515E+03  0.00000000000E+00 0.  1.
         12    1    4    4    0    0 -0.18712676681E+02 -0.10643382740E+02  0.54754997614E+02  0.58834986432E+02  0.00000000000E+00 0. -1.
        -13    1    3    3    0    0 -0.39689682580E+02 -0.33024658894E+02 -0.14843290059E+02  0.53723572648E+02  0.00000000000E+00 0. -1.
         13    1    3    3    0    0  0.20543174300E+02  0.19894318198E+02  0.29204729750E+02  0.40874468151E+02  0.00000000000E+00 0.  1.
         21    1    1    2  502  501 -0.46969718432E+02  0.56137025973E+02  0.10625099400E+03  0.12902245487E+03  0.00000000000E+00 0. -1.
<scales pt_clust_5="13000.00000" pt_clust_6="13000.00000" pt_clust_7="13000.00000" pt_clust_8="13000.00000" pt_clust_9="73.19508"></scales>
<clustering>
<clus scale="   73.195">  1  9  2 -1</clus>
<clus scale="   79.994">  5  6 -1 -1</clus>
<clus scale="   84.425">  1  5  2 -1</clus>
<clus scale="   90.573">  7  8 -1 -1</clus>
<clus scale="   73.195">  1  5  2 -1</clus>
</clustering>
</event>
<event>
 9    2  0.2984928E-005  0.1224797E+03  0.7546771E-02  0.1242539E+00
         -1   -1    0    0    0  501 -0.00000000000E+00  0.00000000000E+00  0.20945258086E+03  0.20945258086E+03  0.00000000000E+00 0.  1.
          2   -1    0    0  502    0  0.00000000000E+00 -0.00000000000E+00 -0.22040630787E+03  0.22040630787E+03  0.00000000000E+00 0. -1.
         24    2    1    2    0    0  0.15542920103E+02 -0.77590724669E+02  0.12648624559E+03  0.16876723321E+03  0.78877790046E+02 0.  0.
         23    2    1    2    0    0  0.47354045561E+02  0.11048124318E+03 -0.84829398677E+02  0.17274185649E+03  0.90527406775E+02 0.  0.
        -13    1    3    3    0    0 -0.30792660966E+02 -0.35157026924E+02  0.70666924763E+02  0.84723189075E+02  0.00000000000E+00 0.  1.
         14    1    3    3    0    0  0.46335581070E+02 -0.42433697745E+02  0.55819320829E+02  0.84044044139E+02  0.00000000000E+00 0. -1.
        -13    1    4    4    0    0 -0.55899305998E+00  0.51426791978E+02  0.87397010865E+01  0.52167133154E+02  0.00000000000E+00 0.  1.
         13    1    4    4    0    0  0.47913038621E+02  0.59054451206E+02 -0.93569099764E+02  0.12057472334E+03  0.00000000000E+00 0. -1.
         21    1    1    2  502  501 -0.62896965664E+02 -0.32890518515E+02 -0.52610573930E+02  0.88349799022E+02  0.00000000000E+00 0.  1.
<scales pt_clust_5="13000.00000" pt_clust_6="13000.00000" pt_clust_7="13000.00000" pt_clust_8="13000.00000" pt_clust_9="70.97756"></scales>
<clustering>
<clus scale="   70.978">  2  9  1 -1</clus>
<clus scale="   78.878">  5  6 -1 -1</clus>
<clus scale="   90.527">  7  8 -1 -1</clus>
<clus scale="  114.139">  1  5  2 -1</clus>
<clus scale="   70.978">  2  5  1 -1</clus>
</clustering>
</event>
<event>
 9    2  0.2984928E-005  0.1783839E+03  0.7546771E-02  0.1180186E+00
         -1   -1    0    0    0  501 -0.00000000000E+00  0.00000000000E+00  0.54299710726E+02  0.54299710726E+02  0.00000000000E+00 0.  1.
          2   -1    0    0  502    0  0.00000000000E+00 -0.00000000000E+00 -0.21081859377E+04  0.21081859377E+04  0.00000000000E+00 0. -1.
         23    2    1    2    0    0 -0.59598317330E+02  0.87775159886E+02 -0.99391406394E+02  0.17136278928E+03  0.90719985467E+02 0.  0.
         24    2    1    2    0    0  0.18684172199E+03  0.27750055373E+01 -0.77882818781E+03  0.80512865684E+03  0.82105287353E+02 0.  0.
        -11    1    4    4    0    0  0.15598770790E+02 -0.26096895764E+02 -0.12193990556E+03  0.12567302888E+03  0.00000000000E+00 0.  1.
         12    1    4    4    0    0  0.17124295120E+03  0.28871901302E+02 -0.65688828225E+03  0.67945562796E+03  0.00000000000E+00 0. -1.
        -11    1    3    3    0    0 -0.18228875538E+02 -0.15511087232E+02 -0.29426635537E+01  0.24115244127E+02  0.00000000000E+00 0. -1.
         11    1    3    3    0    0 -0.41369441793E+02  0.10328624712E+03 -0.96448742841E+02  0.14724754515E+03  0.00000000000E+00 0.  1.
         21    1    1    2  502  501 -0.12724340466E+03 -0.90550165423E+02 -0.11756666328E+04  0.11859942023E+04  0.00000000000E+00 0. -1.
<scales pt_clust_5="13000.00000" pt_clust_6="13000.00000" pt_clust_7="13000.00000" pt_clust_8="13000.00000" pt_clust_9="158.36516"></scales>
<clustering>
<clus scale="   82.105">  5  6 -1 -1</clus>
<clus scale="   90.720">  7  8 -1 -1</clus>
<clus scale="  139.594">  1  7  2 -1</clus>
<clus scale="  158.365">  2  9  1 -1</clus>
<clus scale="  158.365">  2  5  1 -1</clus>
</clustering>
</event>
<event>
 9    2  0.2984928E-005  0.1069579E+03  0.7546771E-02  0.1270935E+00
          2   -1    0    0  502    0  0.00000000000E+00  0.00000000000E+00  0.74976005872E+03  0.74976005872E+03  0.00000000000E+00 0. -1.
         -1   -1    0    0    0  501 -0.00000000000E+00 -0.00000000000E+00 -0.64456090488E+02  0.64456090488E+02  0.00000000000E+00 0.  1.
         23    2    1    2    0    0 -0.43380496988E+02 -0.33306049909E+02 -0.86653538386E+01  0.10685542644E+03  0.91388365354E+02 0.  0.
         24    2    1    2    0    0  0.34634635061E+02  0.59274152758E+02  0.47193002406E+03  0.48363704873E+03  0.80460326636E+02 0.  0.
        -11    1    4    4    0    0  0.16781244999E+02 -0.12737122279E+02  0.38354795520E+02  0.43759968088E+02  0.00000000000E+00 0.  1.
         12    1    4    4    0    0  0.17853390062E+02  0.72011275037E+02  0.43357522854E+03  0.43987708064E+03  0.00000000000E+00 0. -1.
        -11    1    3    3    0    0  0.18538156117E+02 -0.31072679732E+02 -0.23501434929E+02  0.43145012477E+02  0.00000000000E+00 0.  1.
         11    1    3    3    0    0 -0.61918653105E+02 -0.22333701772E+01  0.14836081090E+02  0.63710413959E+02  0.00000000000E+00 0. -1.
         21    1    1    2  502  501  0.87458619271E+01 -0.25968102849E+02  0.22203929801E+03  0.22372367404E+03  0.00000000000E+00 0. -1.
<scales pt_clust_5="13000.00000" pt_clust_6="13000.00000" pt_clust_7="13000.00000" pt_clust_8="13000.00000" pt_clust_9="27.40132"></scales>
<clustering>
<clus scale="   27.401">  1  9  2 -1</clus>
<clus scale="   80.460">  5  6 -1 -1</clus>
<clus scale="   91.388">  7  8 -1 -1</clus>
<clus scale="   97.786">  1  5  2 -1</clus>
<clus scale="   27.401">  1  5  2 -1</clus>
</clustering>
</event>
<event>
 9    2  0.2984928E-005  0.2525762E+03  0.7546771E-02  0.1112194E+00
          2   -1    0    0  502    0  0.00000000000E+00  0.00000000000E+00  0.21684796485E+03  0.21684796485E+03  0.00000000000E+00 0. -1.
         -1   -1    0    0    0  501 -0.00000000000E+00 -0.00000000000E+00 -0.42337640658E+03  0.42337640658E+03  0.00000000000E+00 0.  1.
         24    2    1    2    0    0 -0.12537588754E+03 -0.17361724684E+03 -0.14198391637E+03  0.26922803695E+03  0.80388069974E+02 0.  0.
         23    2    1    2    0    0  0.12986136854E+03  0.24397946636E+03 -0.73858472182E+02  0.29987874819E+03  0.89901249453E+02 0.  0.
        -11    1    3    3    0    0 -0.93603528819E+02 -0.13269698415E+03 -0.61773116586E+02  0.17374126781E+03  0.00000000000E+00 0.  1.
         12    1    3    3    0    0 -0.31772358724E+02 -0.40920262697E+02 -0.80210799786E+02  0.95486769137E+02  0.00000000000E+00 0. -1.
        -13    1    4    4    0    0  0.77935316411E+02  0.14147724494E+03  0.31528354369E+01  0.16155390664E+03  0.00000000000E+00 0. -1.
         13    1    4    4    0    0  0.51926052132E+02  0.10250222142E+03 -0.77011307619E+02  0.13832484154E+03  0.00000000000E+00 0.  1.
         21    1    1    2  502  501 -0.44854810001E+01 -0.70362219521E+02  0.93139468220E+01  0.71117586299E+02  0.00000000000E+00 0. -1.
<scales pt_clust_5="13000.00000" pt_clust_6="13000.00000" pt_clust_7="13000.00000" pt_clust_8="13000.00000" pt_clust_9="70.50505"></scales>
<clustering>
<clus scale="   70.505">  1  9  2 -1</clus>
<clus scale="   80.388">  5  6 -1 -1</clus>
<clus scale="   89.901">  7  8 -1 -1</clus>
<clus scale="  249.349">  2  5  1 -1</clus>
<clus scale="   70.505">  1  5  2 -1</clus>
</clustering>
</event>
<event>
 9    2  0.2984928E-005  0.1234131E+03  0.7546771E-02  0.1239785E+00
         -1   -1    0    0    0  501 -0.00000000000E+00  0.00000000000E+00  0.10498926175E+03  0.10498926175E+03  0.00000000000E+00 0.  1.
          2   -1    0    0  502    0  0.00000000000E+00 -0.00000000000E+00 -0.29405380336E+03  0.29405380336E+03  0.00000000000E+00 0. -1.
         23    2    1    2    0    0  0.23256423742E+02 -0.87071923541E+02  0.36077986758E+02  0.13186012125E+03  0.89236143650E+02 0.  0.
         24    2    1    2    0    0 -0.23844879923E+02  0.66468932072E+02 -0.12577117838E+03  0.16569651749E+03  0.81549061106E+02 0.  0.
        -13    1    4    4    0    0  0.49484723007E+01  0.29203143101E+02  0.18364254500E+01  0.29676310477E+02  0.00000000000E+00 0.  1.
         14    1    4    4    0    0 -0.28793352224E+02  0.37265788971E+02 -0.12760760383E+03  0.13602020701E+03  0.00000000000E+00 0. -1.
        -13    1    3    3    0    0  0.43317119992E+02 -0.11332813831E+02  0.28653131656E+02  0.53158324912E+02  0.00000000000E+00 0.  1.
         13    1    3    3    0    0 -0.20060696250E+02 -0.75739109711E+02  0.74248551012E+01  0.78701796339E+02  0.00000000000E+00 0. -1.
         21    1    1    2  502  501  0.58845618062E+00  0.20602991469E+02 -0.99371349988E+02  0.10148642637E+03  0.00000000000E+00 0.  1.
<scales pt_clust_5="13000.00000" pt_clust_6="13000.00000" pt_clust_7="13000.00000" pt_clust_8="13000.00000" pt_clust_9="20.61139"></scales>
<clustering>
<clus scale="   20.611">  2  9  1 -1</clus>
<clus scale="   81.549">  5  6 -1 -1</clus>
<clus scale="   89.236">  7  8 -1 -1</clus>
<clus scale="  117.974">  2  5  1 -1</clus>
<clus scale="   20.611">  2  5  1 -1</clus>
</clustering>
</event>
<event>
 9    2  0.2984928E-005  0.2055174E+03  0.7546771E-02  0.1187298E+00
          2   -1    0    0  502    0  0.00000000000E+00  0.00000000000E+00  0.36174780999E+03  0.36174780999E+03  0.00000000000E+00 0. -1.
         -1   -1    0    0    0  501 -0.00000000000E+00 -0.00000000000E+00 -0.17985756057E+03  0.17985756057E+03  0.00000000000E+00 0.  1.
         24    2    1    2    0    0  0.11183735569E+02 -0.14797501384E+02 -0.37034604207E+02  0.86233780423E+02  0.75635051325E+02 0.  0.
         23    2    1    2    0    0  0.14499164104E+03  0.11457686410E+03  0.16140056697E+03  0.26132079000E+03  0.89933189134E+02 0.  0.
        -13    1    3    3    0    0 -0.24856955064E+02 -0.23633951608E+02 -0.71069101250E+00  0.34306514911E+02  0.00000000000E+00 0.  1.
         14    1    3    3    0    0  0.36040690632E+02  0.88364502239E+01 -0.36323913194E+02  0.51927265512E+02  0.00000000000E+00 0. -1.
        -13    1    4    4    0    0  0.13605353222E+03  0.89843966764E+02  0.16810291546E+03  0.23418175031E+03  0.00000000000E+00 0. -1.
         13    1    4    4    0    0  0.89381088256E+01  0.24732897331E+02 -0.67023484893E+01  0.27139039685E+02  0.00000000000E+00 0.  1.
         21    1    1    2  502  501 -0.15617537661E+03 -0.99779362711E+02  0.57524286656E+02  0.19405080015E+03  0.00000000000E+00 0.  1.
<scales pt_clust_5="13000.00000" pt_clust_6="13000.00000" pt_clust_7="13000.00000" pt_clust_8="13000.00000" pt_clust_9="184.79560"></scales>
<clustering>
<clus scale="   75.635">  5  6 -1 -1</clus>
<clus scale="   77.876">  2  5  1 -1</clus>
<clus scale="   89.933">  7  8 -1 -1</clus>
<clus scale="  184.796">  2  9  1 -1</clus>
<clus scale="  205.517">  1  5  2 -1</clus>
</clustering>
</event>
<event>
 9    2  0.2984928E-005  0.1927349E+03  0.7546771E-02  0.1175121E+00
         -3   -1    0    0    0  501 -0.00000000000E+00  0.00000000000E+00  0.55155169264E+02  0.55155169264E+02  0.00000000000E+00 0.  1.
          4   -1    0    0  502    0  0.00000000000E+00 -0.00000000000E+00 -0.19836487342E+04  0.19836487342E+04  0.00000000000E+00 0. -1.
         24    2    1    2    0    0 -0.33510583560E+02  0.86346568729E+02 -0.79216319630E+02  0.14721021044E+03  0.82564711709E+02 0.  0.
         23    2    1    2    0    0  0.62312586123E+02  0.10411389627E+03 -0.37403493500E+03  0.40382871891E+03  0.91939870757E+02 0.  0.
        -13    1    3    3    0    0 -0.18472809454E+02  0.10121839896E+03 -0.64300986647E+02  0.12133023473E+03  0.00000000000E+00 0.  1.
         14    1    3    3    0    0 -0.15037774106E+02 -0.14871830229E+02 -0.14915332983E+02  0.25879975704E+02  0.00000000000E+00 0. -1.
        -11    1    4    4    0    0  0.29732623018E+02  0.11322869553E+03 -0.26601939515E+03  0.29063909743E+03  0.00000000000E+00 0.  1.
         11    1    4    4    0    0  0.32579963105E+02 -0.91147992604E+01 -0.10801553985E+03  0.11318962148E+03  0.00000000000E+00 0. -1.
         21    1    1    2  502  501 -0.28802002564E+02 -0.19046046500E+03 -0.14752423103E+04  0.14877649741E+04  0.00000000000E+00 0. -1.
<scales pt_clust_5="13000.00000" pt_clust_6="13000.00000" pt_clust_7="13000.00000" pt_clust_8="13000.00000" pt_clust_9="169.39243"></scales>
<clustering>
<clus scale="   82.565">  5  6 -1 -1</clus>
<clus scale="   91.940">  7  8 -1 -1</clus>
<clus scale="  124.079">  1  5  2 -1</clus>
<clus scale="  169.392">  2  9  1 -1</clus>
<clus scale="  169.392">  2  5  1 -1</clus>
</clustering>
</event>
<event>
 9    2  0.2984928E-005  0.1393813E+03  0.7546771E-02  0.1216532E+00
          2   -1    0    0  502    0  0.00000000000E+00  0.00000000000E+00  0.17644188855E+03  0.17644188855E+03  0.00000000000E+00 0. -1.
         -1   -1    0    0    0  501 -0.00000000000E+00 -0.00000000000E+00 -0.33702042190E+03  0.33702042190E+03  0.00000000000E+00 0.  1.
         23    2    1    2    0    0  0.32188406957E+02 -0.95749476944E+02 -0.26763753685E+03  0.30078739418E+03  0.92947025167E+02 0.  0.
         24    2    1    2    0    0 -0.57732140700E+02  0.11422164860E+03  0.90276285110E+02  0.17696269013E+03  0.82379614995E+02 0.  0.
        -13    1    4    4    0    0  0.15058346816E+02  0.24319860422E+02  0.43771618712E+02  0.52289234307E+02  0.00000000000E+00 0.  1.
         14    1    4    4    0    0 -0.72790487516E+02  0.89901788180E+02  0.46504666398E+02  0.12467345583E+03  0.00000000000E+00 0. -1.
        -11    1    3    3    0    0 -0.22689917886E+02  0.39547018016E+01 -0.36685873479E+02  0.43316571343E+02  0.00000000000E+00 0. -1.
         11    1    3    3    0    0  0.54878324843E+02 -0.99704178746E+02 -0.23095166337E+03  0.25747082284E+03  0.00000000000E+00 0.  1.
         21    1    1    2  502  501  0.25543733743E+02 -0.18472171658E+02  0.16782718394E+02  0.35712226142E+02  0.00000000000E+00 0.  1.
<scales pt_clust_5="13000.00000" pt_clust_6="13000.00000" pt_clust_7="13000.00000" pt_clust_8="13000.00000" pt_clust_9="31.52306"></scales>
<clustering>
<clus scale="   31.523">  1  9  2 -1</clus>
<clus scale="   82.380">  5  6 -1 -1</clus>
<clus scale="   92.947">  7  8 -1 -1</clus>
<clus scale="  132.568">  1  5  2 -1</clus>
<clus scale="   31.523">  1  5  2 -1</clus>
</clustering>
</event>
<event>
 9    2  0.2984928E-005  0.1259287E+03  0.7546771E-02  0.1236101E+00
          2   -1    0    0  502    0  0.00000000000E+00  0.00000000000E+00  0.38933062145E+03  0.38933062145E+03  0.00000000000E+00 0. -1.
         -1   -1    0    0    0  501 -0.00000000000E+00 -0.00000000000E+00 -0.17604287019E+03  0.17604287019E+03  0.00000000000E+00 0.  1.
         23    2    1    2    0    0  0.31674233348E+02  0.97759828377E+01 -0.11823551317E+03  0.15239971384E+03  0.90261892876E+02 0.  0.
         24    2    1    2    0    0 -0.89724642236E+02 -0.21548818710E+02  0.33166330442E+03  0.35374144501E+03  0.81348628795E+02 0.  0.
        -13    1    4    4    0    0 -0.18560054504E+01  0.23484038243E+02  0.80208684078E+02  0.83596517930E+02  0.00000000000E+00 0.  1.
         14    1    4    4    0    0 -0.87868636786E+02 -0.45032856953E+02  0.25145462035E+03  0.27014492708E+03  0.00000000000E+00 0. -1.
        -11    1    3    3    0    0  0.43612279806E+02 -0.22690258918E+02 -0.10392204806E+03  0.11496378070E+03  0.00000000000E+00 0.  1.
         11    1    3    3    0    0 -0.11938046458E+02  0.32466241755E+02 -0.14313465116E+02  0.37435933147E+02  0.00000000000E+00 0. -1.
         21    1    1    2  502  501  0.58050408888E+02  0.11772835872E+02 -0.14003998762E+00  0.59232332790E+02  0.00000000000E+00 0.  1.
<scales pt_clust_5="13000.00000" pt_clust_6="13000.00000" pt_clust_7="13000.00000" pt_clust_8="13000.00000" pt_clust_9="59.23217"></scales>
<clustering>
<clus scale="   59.232">  2  9  1 -1</clus>
<clus scale="   81.349">  5  6 -1 -1</clus>
<clus scale="   90.262">  7  8 -1 -1</clus>
<clus scale="  119.701">  1  5  2 -1</clus>
<clus scale="  119.701">  1  5  2 -1</clus>
</clustering>
</event>
<event>
 9    2  0.2984928E-005  0.1010221E+03  0.7546771E-02  0.1278273E+00
          2   -1    0    0  502    0  0.00000000000E+00  0.00000000000E+00  0.21544257157E+03  0.21544257157E+03  0.00000000000E+00 0. -1.
         -1   -1    0    0    0  501 -0.00000000000E+00 -0.00000000000E+00 -0.24013518583E+03  0.24013518583E+03  0.00000000000E+00 0.  1.
         23    2    1    2    0    0  0.72780640065E+02  0.82774714771E+02 -0.14928810778E+03  0.20290069301E+03  0.82055329661E+02 0.  0.
         24    2    1    2    0    0 -0.52578028665E+01 -0.55816886944E+02  0.14635664257E+03  0.17678499871E+03  0.81789361061E+02 0.  0.
        -11    1    4    4    0    0 -0.14464501647E+02  0.18930146323E+02  0.36856977982E+02  0.43886319892E+02  0.00000000000E+00 0.  1.
         12    1    4    4    0    0  0.92066987808E+01 -0.74747033267E+02  0.10949966459E+03  0.13289867881E+03  0.00000000000E+00 0. -1.
        -11    1    3    3    0    0  0.11289238037E+02  0.64057806914E+02 -0.10933028889E+03  0.12721620019E+03  0.00000000000E+00 0.  1.
         11    1    3    3    0    0  0.61491402028E+02  0.18716907857E+02 -0.39957818894E+02  0.75684492823E+02  0.00000000000E+00 0. -1.
         21    1    1    2  502  501 -0.67522837199E+02 -0.26957827827E+02 -0.21761149054E+02  0.75892065676E+02  0.00000000000E+00 0.  1.
<scales pt_clust_5="13000.00000" pt_clust_6="13000.00000" pt_clust_7="13000.00000" pt_clust_8="13000.00000" pt_clust_9="72.70528"></scales>
<clustering>
<clus scale="   72.705">  2  9  1 -1</clus>
<clus scale="   81.789">  5  6 -1 -1</clus>
<clus scale="   82.055">  7  8 -1 -1</clus>
<clus scale="  100.806">  1  5  2 -1</clus>
<clus scale="  100.806">  1  5  2 -1</clus>
</clustering>
</event>
<event>
 9    2  0.2984928E-005  0.1320625E+03  0.7546771E-02  0.1227106E+00
          2   -1    0    0  502    0  0.00000000000E+00  0.00000000000E+00  0.35968982322E+03  0.35968982322E+03  0.00000000000E+00 0. -1.
         -1   -1    0    0    0  501 -0.00000000000E+00 -0.00000000000E+00 -0.15480326542E+03  0.15480326542E+03  0.00000000000E+00 0.  1.
         23    2    1    2    0    0  0.32736283103E+02 -0.14007807361E+03 -0.27446735391E+02  0.17319945548E+03  0.92472683310E+02 0.  0.
         24    2    1    2    0    0  0.52829099837E+02  0.75594713510E+02  0.18905087856E+03  0.22573885868E+03  0.81928768655E+02 0.  0.
        -13    1    4    4    0    0  0.57621089304E+02  0.13349488695E+02  0.72928834315E+02  0.93898954497E+02  0.00000000000E+00 0.  1.
         14    1    4    4    0    0 -0.47919894666E+01  0.62245224815E+02  0.11612204425E+03  0.13183990419E+03  0.00000000000E+00 0. -1.
        -11    1    3    3    0    0  0.58604867652E+02 -0.13040345780E+03 -0.27463051811E+02  0.14558094495E+03  0.00000000000E+00 0.  1.
         11    1    3    3    0    0 -0.25868584548E+02 -0.96746158061E+01  0.16316419894E-01  0.27618510527E+02  0.00000000000E+00 0. -1.
         21    1    1    2  502  501 -0.85565382940E+02  0.64483360098E+02  0.43282414632E+02  0.11555477447E+03  0.00000000000E+00 0. -1.
<scales pt_clust_5="13000.00000" pt_clust_6="13000.00000" pt_clust_7="13000.00000" pt_clust_8="13000.00000" pt_clust_9="107.14261"></scales>
<clustering>
<clus scale="   81.929">  5  6 -1 -1</clus>
<clus scale="   92.473">  7  8 -1 -1</clus>
<clus scale="  107.143">  2  9  1 -1</clus>
<clus scale="  124.907">  1  5  2 -1</clus>
<clus scale="  124.907">  1  5  2 -1</clus>
</clustering>
</event>
<event>
 9    2  0.2984928E-005  0.1044371E+03  0.7546771E-02  0.1276964E+00
         -1   -1    0    0    0  501 -0.00000000000E+00  0.00000000000E+00  0.32161781856E+03  0.32161781856E+03  0.00000000000E+00 0.  1.
          2   -1    0    0  502    0  0.00000000000E+00 -0.00000000000E+00 -0.95067459886E+02  0.95067459886E+02  0.00000000000E+00 0. -1.
         24    2    1    2    0    0 -0.68629881601E+02  0.13368815848E+02  0.24956701755E+03  0.27087977535E+03  0.78761478893E+02 0.  0.
         23    2    1    2    0    0  0.43208615883E+02 -0.21330322206E+02 -0.43570585621E+02  0.11215895441E+03  0.91429032537E+02 0.  0.
        -13    1    3    3    0    0 -0.45306047637E+02  0.35659303713E+02  0.21890683080E+03  0.22637231382E+03  0.00000000000E+00 0.  1.
         14    1    3    3    0    0 -0.23323833963E+02 -0.22290487865E+02  0.30660186755E+02  0.44507461530E+02  0.00000000000E+00 0. -1.
        -13    1    4    4    0    0  0.14303783684E+02  0.36212930929E+02 -0.15362604817E+02  0.41856710584E+02  0.00000000000E+00 0.  1.
         13    1    4    4    0    0  0.28904832199E+02 -0.57543253135E+02 -0.28207980804E+02  0.70302243825E+02  0.00000000000E+00 0. -1.
         21    1    1    2  502  501  0.25421265718E+02  0.79615063577E+01  0.20553926749E+02  0.33646548693E+02  0.00000000000E+00 0. -1.
<scales pt_clust_5="13000.00000" pt_clust_6="13000.00000" pt_clust_7="13000.00000" pt_clust_8="13000.00000" pt_clust_9="26.63881"></scales>
<clustering>
<clus scale="   26.639">  1  9  2 -1</clus>
<clus scale="   78.761">  5  6 -1 -1</clus>
<clus scale="   91.429">  7  8 -1 -1</clus>
<clus scale="   93.548">  1  5  2 -1</clus>
<clus scale="  104.437">  2  5  1 -1</clus>
</clustering>
</event>
<event>
 9    2  0.2984928E-005  0.9208672E+02  0.7546771E-02  0.1303048E+00
         -1   -1    0    0    0  501 -0.00000000000E+00  0.00000000000E+00  0.33072474025E+03  0.33072474025E+03  0.00000000000E+00 0.  1.
          2   -1    0    0  502    0  0.00000000000E+00 -0.00000000000E+00 -0.16847576506E+03  0.16847576506E+03  0.00000000000E+00 0. -1.
         24    2    1    2    0    0 -0.26032346631E+02  0.90646586688E+01  0.28409523950E+03  0.29616645028E+03  0.79022845150E+02 0.  0.
         23    2    1    2    0    0  0.41017457986E+02  0.39986145971E+02 -0.53915705942E+02  0.11791592676E+03  0.87840416141E+02 0.  0.
        -13    1    3    3    0    0 -0.45502890977E+02  0.30408173879E+02  0.17993080340E+03  0.18806983846E+03  0.00000000000E+00 0.  1.
         14    1    3    3    0    0  0.19470544345E+02 -0.21343515210E+02  0.10416443611E+03  0.10809661182E+03  0.00000000000E+00 0. -1.
        -11    1    4    4    0    0 -0.23675660848E+02  0.13290723358E+02  0.35225950158E+01  0.27378621580E+02  0.00000000000E+00 0.  1.
         11    1    4    4    0    0  0.64693118834E+02  0.26695422613E+02 -0.57438300958E+02  0.90537305183E+02  0.00000000000E+00 0. -1.
         21    1    1    2  502  501 -0.14985111355E+02 -0.49050804640E+02 -0.67930558378E+02  0.85118128267E+02  0.00000000000E+00 0. -1.
<scales pt_clust_5="13000.00000" pt_clust_6="13000.00000" pt_clust_7="13000.00000" pt_clust_8="13000.00000" pt_clust_9="51.28874"></scales>
<clustering>
<clus scale="   51.289">  2  9  1 -1</clus>
<clus scale="   79.023">  5  6 -1 -1</clus>
<clus scale="   83.718">  1  5  2 -1</clus>
<clus scale="   87.840">  7  8 -1 -1</clus>
<clus scale="   51.289">  2  5  1 -1</clus>
</clustering>
</event>
<event>
 9    2  0.2984928E-005  0.1081221E+03  0.7546771E-02  0.1268283E+00
         -3   -1    0    0    0  501 -0.00000000000E+00  0.00000000000E+00  0.17586553500E+03  0.17586553500E+03  0.00000000000E+00 0.  1.
          4   -1    0    0  502    0  0.00000000000E+00 -0.00000000000E+00 -0.29306087041E+03  0.29306087041E+03  0.00000000000E+00 0. -1.
         23    2    1    2    0    0 -0.56500485858E+02 -0.10713034007E+02  0.14389325643E+03  0.18063891641E+03  0.92833586989E+02 0.  0.
         24    2    1    2    0    0  0.27585966748E+02  0.85728546004E+01 -0.22804201504E+03  0.24432493652E+03  0.82807213338E+02 0.  0.
        -11    1    4    4    0    0 -0.22751841105E+02  0.25877367901E+02 -0.87401818082E+02  0.93948721370E+02  0.00000000000E+00 0.  1.
         12    1    4    4    0    0  0.50337807853E+02 -0.17304513300E+02 -0.14064019696E+03  0.15037621515E+03  0.00000000000E+00 0. -1.
        -11    1    3    3    0    0 -0.46585468107E+02 -0.28661930937E+02  0.14965687394E+03  0.15933892193E+03  0.00000000000E+00 0.  1.
         11    1    3    3    0    0 -0.99150177512E+01  0.17948896930E+02 -0.57636175055E+01  0.21299994478E+02  0.00000000000E+00 0. -1.
         21    1    1    2  502  501  0.28914519110E+02  0.21401794064E+01 -0.33046576795E+02  0.43962552486E+02  0.00000000000E+00 0. -1.
<scales pt_clust_5="13000.00000" pt_clust_6="13000.00000" pt_clust_7="13000.00000" pt_clust_8="13000.00000" pt_clust_9="28.99362"></scales>
<clustering>
<clus scale="   28.994">  2  9  1 -1</clus>
<clus scale="   82.807">  5  6 -1 -1</clus>
<clus scale="   92.834">  7  8 -1 -1</clus>
<clus scale="   99.646">  2  5  1 -1</clus>
<clus scale="   28.994">  2  5  1 -1</clus>
</clustering>
</event>
<event>
 9    2  0.2984928E-005  0.1077768E+03  0.7546771E-02  0.1266843E+00
         -1   -1    0    0    0  501 -0.00000000000E+00  0.00000000000E+00  0.42568028556E+02  0.42568028556E+02  0.00000000000E+00 0.  1.
          2   -1    0    0  502    0  0.00000000000E+00 -0.00000000000E+00 -0.63780556135E+03  0.63780556135E+03  0.00000000000E+00 0. -1.
         24    2    1    2    0    0  0.71983715484E+02 -0.22466358433E+02 -0.84316361549E+02  0.14175021994E+03  0.85425309314E+02 0.  0.
         23    2    1    2    0    0 -0.15594125029E+02  0.32226200751E+02 -0.19984064548E+03  0.22232266819E+03  0.90605631479E+02 0.  0.
        -11    1    3    3    0    0  0.36278308900E+02 -0.31879457526E+01  0.11093340249E+02  0.38070210042E+02  0.00000000000E+00 0.  1.
         12    1    3    3    0    0  0.35705406584E+02 -0.19278412680E+02 -0.95409701798E+02  0.10368000990E+03  0.00000000000E+00 0. -1.
        -11    1    4    4    0    0  0.72213952990E+01  0.60137324601E+02 -0.11107540563E+03  0.12651637087E+03  0.00000000000E+00 0.  1.
         11    1    4    4    0    0 -0.22815520328E+02 -0.27911123850E+02 -0.88765239842E+02  0.95806297323E+02  0.00000000000E+00 0. -1.
         21    1    1    2  502  501 -0.56389590455E+02 -0.97598423184E+01 -0.31108052577E+03  0.31630070178E+03  0.00000000000E+00 0. -1.
<scales pt_clust_5="13000.00000" pt_clust_6="13000.00000" pt_clust_7="13000.00000" pt_clust_8="13000.00000" pt_clust_9="57.22797"></scales>
<clustering>
<clus scale="   57.228">  2  9  1 -1</clus>
<clus scale="   85.425">  5  6 -1 -1</clus>
<clus scale="   90.606">  7  8 -1 -1</clus>
<clus scale="  103.460">  1  5  2 -1</clus>
<clus scale="   57.228">  2  5  1 -1</clus>
</clustering>
</event>
<event>
 9    2  0.2984928E-005  0.9887791E+02  0.7546771E-02  0.1287261E+00
         -3   -1    0    0    0  501 -0.00000000000E+00  0.00000000000E+00  0.29824101942E+03  0.29824101942E+03  0.00000000000E+00 0.  1.
          4   -1    0    0  502    0  0.00000000000E+00 -0.00000000000E+00 -0.23014705882E+03  0.23014705882E+03  0.00000000000E+00 0. -1.
         24    2    1    2    0    0 -0.11071708594E+03 -0.24009739076E+02  0.33880439366E+02  0.14294101548E+03  0.80308835411E+02 0.  0.
         23    2    1    2    0    0  0.27230907226E+02  0.16459178820E+02 -0.15314253591E+03  0.18019296378E+03  0.89467541689E+02 0.  0.
        -11    1    3    3    0    0 -0.43130824516E+02  0.29775174893E+02  0.15181691751E+02  0.54564758112E+02  0.00000000000E+00 0.  1.
         12    1    3    3    0    0 -0.67586261422E+02 -0.53784913969E+02  0.18698747614E+02  0.88376257366E+02  0.00000000000E+00 0. -1.
        -11    1    4    4    0    0 -0.37834430604E+01 -0.33575184518E+02 -0.75858048404E+02  0.83042464826E+02  0.00000000000E+00 0.  1.
         11    1    4    4    0    0  0.31014350287E+02  0.50034363338E+02 -0.77284487508E+02  0.97150498958E+02  0.00000000000E+00 0. -1.
         21    1    1    2  502  501  0.83486178711E+02  0.75505602562E+01  0.18735605715E+03  0.20525409898E+03  0.00000000000E+00 0.  1.
<scales pt_clust_5="13000.00000" pt_clust_6="13000.00000" pt_clust_7="13000.00000" pt_clust_8="13000.00000" pt_clust_9="83.82692"></scales>
<clustering>
<clus scale="   80.309">  5  6 -1 -1</clus>
<clus scale="   83.827">  1  9  2 -1</clus>
<clus scale="   89.468">  7  8 -1 -1</clus>
<clus scale="   90.675">  1  5  2 -1</clus>
<clus scale="   98.878">  2  5  1 -1</clus>
</clustering>
</event>
<event>
 9    2  0.2984928E-005  0.1160031E+03  0.7546771E-02  0.1256711E+00
         -1   -1    0    0    0  501 -0.00000000000E+00  0.00000000000E+00  0.41170814814E+02  0.41170814814E+02  0.00000000000E+00 0.  1.
          2   -1    0    0  502    0  0.00000000000E+00 -0.00000000000E+00 -0.94196171587E+03  0.94196171587E+03  0.00000000000E+00 0. -1.
         23    2    1    2    0    0  0.25752894490E+02 -0.33033948073E+02 -0.61351649812E+02  0.11834291810E+03  0.92122570681E+02 0.  0.
         24    2    1    2    0    0  0.19966748947E+02 -0.61331566615E+02 -0.42665234631E+03  0.43889271774E+03  0.80214468425E+02 0.  0.
        -13    1    4    4    0    0  0.30288851256E+02 -0.74491484752E+02 -0.39490631614E+03  0.40301041468E+03  0.00000000000E+00 0.  1.
         14    1    4    4    0    0 -0.10322102308E+02  0.13159918137E+02 -0.31746030174E+02  0.35882303065E+02  0.00000000000E+00 0. -1.
        -11    1    3    3    0    0  0.26282725158E+02 -0.54148081790E+01 -0.80418401657E+02  0.84777479996E+02  0.00000000000E+00 0. -1.
         11    1    3    3    0    0 -0.52983066740E+00 -0.27619139894E+02  0.19066751845E+02  0.33565438101E+02  0.00000000000E+00 0.  1.
         21    1    1    2  502  501 -0.45719643437E+02  0.94365514688E+02 -0.41278690493E+03  0.42589689484E+03  0.00000000000E+00 0. -1.
<scales pt_clust_5="13000.00000" pt_clust_6="13000.00000" pt_clust_7="13000.00000" pt_clust_8="13000.00000" pt_clust_9="83.79949"></scales>
<clustering>
<clus scale="   80.214">  5  6 -1 -1</clus>
<clus scale="   92.123">  7  8 -1 -1</clus>
<clus scale="  101.198">  1  7  2 -1</clus>
<clus scale="   83.799">  1  9  2 -1</clus>
<clus scale="  116.003">  2  5  1 -1</clus>
</clustering>
</event>
<event>
 9    2  0.2984928E-005  0.2033708E+03  0.7546771E-02  0.1162005E+00
          2   -1    0    0  502    0  0.00000000000E+00  0.00000000000E+00  0.17539596614E+04  0.17539596614E+04  0.00000000000E+00 0. -1.
         -1   -1    0    0    0  501 -0.00000000000E+00 -0.00000000000E+00 -0.44075973743E+02  0.44075973743E+02  0.00000000000E+00 0.  1.
         23    2    1    2    0    0  0.13935078475E+03  0.40516266870E+02  0.81281286150E+03  0.83070053528E+03  0.91314962664E+02 0.  0.
         24    2    1    2    0    0  0.69790173536E+00  0.11750343122E+03  0.46562346334E+03  0.48699075833E+03  0.80915052146E+02 0.  0.
        -11    1    4    4    0    0 -0.12483153171E+02  0.12615354059E+03  0.40713496978E+03  0.42641462045E+03  0.00000000000E+00 0.  1.
         12    1    4    4    0    0  0.13181054906E+02 -0.86501093703E+01  0.58488493565E+02  0.60576137876E+02  0.00000000000E+00 0. -1.
        -13    1    3    3    0    0  0.11704558940E+03  0.67828900129E+02  0.67706291738E+03  0.69044523590E+03  0.00000000000E+00 0. -1.
         13    1    3    3    0    0  0.22305195349E+02 -0.27312633259E+02  0.13574994412E+03  0.14025529937E+03  0.00000000000E+00 0.  1.
         21    1    1    2  502  501 -0.14004868648E+03 -0.15801969809E+03  0.43144736285E+03  0.48034434157E+03  0.00000000000E+00 0.  1.
<scales pt_clust_5="13000.00000" pt_clust_6="13000.00000" pt_clust_7="13000.00000" pt_clust_8="13000.00000" pt_clust_9="181.71748"></scales>
<clustering>
<clus scale="   80.915">  5  6 -1 -1</clus>
<clus scale="   91.315">  7  8 -1 -1</clus>
<clus scale="  142.670">  1  5  2 -1</clus>
<clus scale="  181.717">  2  9  1 -1</clus>
<clus scale="  142.670">  1  5  2 -1</clus>
</clustering>
</event>
<event>
 9    2  0.2984928E-005  0.1435726E+03  0.7546771E-02  0.1210726E+00
          2   -1    0    0  502    0  0.00000000000E+00  0.00000000000E+00  0.43408836784E+03  0.43408836784E+03  0.00000000000E+00 0. -1.
         -1   -1    0    0    0  501 -0.00000000000E+00 -0.00000000000E+00 -0.11153158526E+03  0.11153158526E+03  0.00000000000E+00 0.  1.
         23    2    1    2    0    0 -0.17359888421E+02  0.10350398804E+03 -0.17044415168E+02  0.14128886065E+03  0.93046164824E+02 0.  0.
         24    2    1    2    0    0  0.43093736033E+02 -0.11561548839E+03  0.14494971773E+03  0.20761272008E+03  0.82877075402E+02 0.  0.
        -13    1    4    4    0    0  0.25166198776E+02 -0.60663256818E+02  0.17961614906E+02  0.68088089256E+02  0.00000000000E+00 0.  1.
         14    1    4    4    0    0  0.17927537258E+02 -0.54952231569E+02  0.12698810283E+03  0.13952463082E+03  0.00000000000E+00 0. -1.
        -13    1    3    3    0    0 -0.51673634737E+02  0.88598750615E+02 -0.16418721482E+02  0.10387240997E+03  0.00000000000E+00 0.  1.
         13    1    3    3    0    0  0.34313746316E+02  0.14905237428E+02 -0.62569368534E+00  0.37416450682E+02  0.00000000000E+00 0. -1.
         21    1    1    2  502  501 -0.25733847613E+02  0.12111500344E+02  0.19465148002E+03  0.19671837237E+03  0.00000000000E+00 0.  1.
<scales pt_clust_5="13000.00000" pt_clust_6="13000.00000" pt_clust_7="13000.00000" pt_clust_8="13000.00000" pt_clust_9="28.44151"></scales>
<clustering>
<clus scale="   28.442">  1  9  2 -1</clus>
<clus scale="   82.877">  5  6 -1 -1</clus>
<clus scale="   93.046">  7  8 -1 -1</clus>
<clus scale="  137.201">  1  5  2 -1</clus>
<clus scale="   28.442">  1  5  2 -1</clus>
</clustering>
</event>
<event>
 9    2  0.2984928E-005  0.1148507E+03  0.7546771E-02  0.1256396E+00
          2   -1    0    0  502    0  0.00000000000E+00  0.00000000000E+00  0.31579507706E+02  0.31579507706E+02  0.00000000000E+00 0. -1.
         -1   -1    0    0    0  501 -0.00000000000E+00 -0.00000000000E+00 -0.54138768763E+03  0.54138768763E+03  0.00000000000E+00 0.  1.
         24    2    1    2    0    0 -0.62054760398E+02  0.54423678804E+01 -0.27722267228E+03  0.29484811188E+03  0.78756500670E+02 0.  0.
         23    2    1    2    0    0  0.80490774018E+02 -0.22730144866E+02 -0.21162721565E+03  0.24528611474E+03  0.91562959177E+02 0.  0.
        -13    1    3    3    0    0 -0.34517993141E+02 -0.20920046023E+02 -0.23296575469E+03  0.23643642493E+03  0.00000000000E+00 0.  1.
         14    1    3    3    0    0 -0.27536767257E+02  0.26362413904E+02 -0.44256917591E+02  0.58411686951E+02  0.00000000000E+00 0. -1.
        -13    1    4    4    0    0  0.21874458757E+02  0.17493469140E+02 -0.72995753070E+01  0.28944726776E+02  0.00000000000E+00 0. -1.
         13    1    4    4    0    0  0.58616315261E+02 -0.40223614006E+02 -0.20432764034E+03  0.21634138797E+03  0.00000000000E+00 0.  1.
         21    1    1    2  502  501 -0.18436013621E+02  0.17287776986E+02 -0.20958291997E+02  0.32832968717E+02  0.00000000000E+00 0. -1.
<scales pt_clust_5="13000.00000" pt_clust_6="13000.00000" pt_clust_7="13000.00000" pt_clust_8="13000.00000" pt_clust_9="25.27358"></scales>
<clustering>
<clus scale="   25.274">  1  9  2 -1</clus>
<clus scale="   78.757">  5  6 -1 -1</clus>
<clus scale="   91.563">  7  8 -1 -1</clus>
<clus scale="  104.926">  2  5  1 -1</clus>
<clus scale="   25.274">  1  5  2 -1</clus>
</clustering>
</event>
<event>
 9    2  0.2984928E-005  0.2491406E+03  0.7546771E-02  0.1134086E+00
         -1   -1    0    0    0  501 -0.00000000000E+00  0.00000000000E+00  0.21619086882E+03  0.21619086882E+03  0.00000000000E+00 0.  1.
          2   -1    0    0  502    0  0.00000000000E+00 -0.00000000000E+00 -0.11538998817E+04  0.11538998817E+04  0.00000000000E+00 0. -1.
         23    2    1    2    0    0  0.21542232582E+03 -0.28695751642E+02  0.62024066738E+02  0.24588777256E+03  0.96868917690E+02 0.  0.
         24    2    1    2    0    0  0.12552372561E+03 -0.13360959831E+02 -0.17610827670E+03  0.23180688152E+03  0.82374657871E+02 0.  0.
        -11    1    4    4    0    0  0.10518974503E+03  0.21953320707E+02 -0.14531829501E+03  0.18073250293E+03  0.00000000000E+00 0.  1.
         12    1    4    4    0    0  0.20333980575E+02 -0.35314280538E+02 -0.30789981688E+02  0.51074378589E+02  0.00000000000E+00 0. -1.
        -11    1    3    3    0    0  0.32937904328E+02  0.11631816206E+02  0.46775505246E+02  0.58379384896E+02  0.00000000000E+00 0.  1.
         11    1    3    3    0    0  0.18248442149E+03 -0.40327567848E+02  0.15248561492E+02  0.18750838766E+03  0.00000000000E+00 0. -1.
         21    1    1    2  502  501 -0.34094605143E+03  0.42056711473E+02 -0.82362480293E+03  0.89239609645E+03  0.00000000000E+00 0. -1.
<scales pt_clust_5="13000.00000" pt_clust_6="13000.00000" pt_clust_7="13000.00000" pt_clust_8="13000.00000" pt_clust_9="229.53747"></scales>
<clustering>
<clus scale="   82.375">  5  6 -1 -1</clus>
<clus scale="   96.869">  7  8 -1 -1</clus>
<clus scale="  150.733">  2  5  1 -1</clus>
<clus scale="  229.537">  2  9  1 -1</clus>
<clus scale="  150.733">  2  5  1 -1</clus>
</clustering>
</event>
<event>
 9    2  0.2984928E-005  0.1213822E+03  0.7546771E-02  0.1242858E+00
         -3   -1    0    0    0  501 -0.00000000000E+00  0.00000000000E+00  0.26780889346E+03  0.26780889346E+03  0.00000000000E+00 0.  1.
          4   -1    0    0  502    0  0.00000000000E+00 -0.00000000000E+00 -0.86687874847E+02  0.86687874847E+02  0.00000000000E+00 0. -1.
         23    2    1    2    0    0  0.84803902604E+02  0.29922906299E+01  0.93288486025E+02  0.15493094703E+03  0.90001116782E+02 0.  0.
         24    2    1    2    0    0 -0.71391038924E+02  0.49338328075E+02  0.81197981194E+02  0.14513774177E+03  0.83312069242E+02 0.  0.
        -13    1    4    4    0    0 -0.86308290465E+02  0.21861431909E+02  0.60108229861E+02  0.10742458985E+03  0.00000000000E+00 0.  1.
         14    1    4    4    0    0  0.14917251541E+02  0.27476896166E+02  0.21089751333E+02  0.37713151920E+02  0.00000000000E+00 0. -1.
        -13    1    3    3    0    0  0.44383469426E+02  0.39871296223E+02  0.18896316985E+02  0.62583411671E+02  0.00000000000E+00 0. -1.
         13    1    3    3    0    0  0.40420433178E+02 -0.36879005593E+02  0.74392169041E+02  0.92347535356E+02  0.00000000000E+00 0.  1.
         21    1    1    2  502  501 -0.13412863680E+02 -0.52330618705E+02  0.66345513889E+01  0.54428079502E+02  0.00000000000E+00 0.  1.
<scales pt_clust_5="13000.00000" pt_clust_6="13000.00000" pt_clust_7="13000.00000" pt_clust_8="13000.00000" pt_clust_9="54.02220"></scales>
<clustering>
<clus scale="   54.022">  2  9  1 -1</clus>
<clus scale="   83.312">  5  6 -1 -1</clus>
<clus scale="   90.001">  7  8 -1 -1</clus>
<clus scale="  116.509">  2  5  1 -1</clus>
<clus scale="   54.022">  2  5  1 -1</clus>
</clustering>
</event>
<event>
 9    2  0.2984928E-005  0.1528047E+03  0.7546771E-02  0.1224923E+00
         -1   -1    0    0    0  501 -0.00000000000E+00  0.00000000000E+00  0.52719772199E+03  0.52719772199E+03  0.00000000000E+00 0.  1.
          2   -1    0    0  502    0  0.00000000000E+00 -0.00000000000E+00 -0.95417635925E+02  0.95417635925E+02  0.00000000000E+00 0. -1.
         23    2    1    2    0    0  0.10584502395E+03 -0.58913778746E+02  0.30737128234E+03  0.34096350191E+03  0.84291173950E+02 0.  0.
         24    2    1    2    0    0  0.15971080654E+02 -0.63132317233E+01 -0.14621162523E+02  0.85633852363E+02  0.82610204968E+02 0.  0.
        -13    1    4    4    0    0  0.37876846857E+02  0.16755774114E+02 -0.29163561927E+02  0.50654958674E+02  0.00000000000E+00 0.  1.
         14    1    4    4    0    0 -0.21905766203E+02 -0.23069005838E+02  0.14542399404E+02  0.34978893689E+02  0.00000000000E+00 0. -1.
        -13    1    3    3    0    0  0.84889075858E+02 -0.39454736913E+02  0.29554796952E+03  0.31001844098E+03  0.00000000000E+00 0.  1.
         13    1    3    3    0    0  0.20955948095E+02 -0.19459041833E+02  0.11823312824E+02  0.30945060927E+02  0.00000000000E+00 0. -1.
         21    1    1    2  502  501 -0.12181610461E+03  0.65227010469E+02  0.13902996624E+03  0.19601800364E+03  0.00000000000E+00 0. -1.
<scales pt_clust_5="13000.00000" pt_clust_6="13000.00000" pt_clust_7="13000.00000" pt_clust_8="13000.00000" pt_clust_9="127.45301"></scales>
<clustering>
<clus scale="   82.610">  5  6 -1 -1</clus>
<clus scale="   84.291">  7  8 -1 -1</clus>
<clus scale="   84.376">  2  5  1 -1</clus>
<clus scale="  127.453">  2  9  1 -1</clus>
<clus scale="   84.376">  2  5  1 -1</clus>
</clustering>
</event>
<event>
 9    2  0.2984928E-005  0.1014292E+03  0.7546771E-02  0.1281191E+00
         -1   -1    0    0    0  501 -0.00000000000E+00  0.00000000000E+00  0.12348211579E+03  0.12348211579E+03  0.00000000000E+00 0.  1.
          2   -1    0    0  502    0  0.00000000000E+00 -0.00000000000E+00 -0.20776850476E+03  0.20776850476E+03  0.00000000000E+00 0. -1.
         24    2    1    2    0    0 -0.57064824014E+01  0.48205039436E+02  0.79944657476E+02  0.12392265697E+03  0.81298135796E+02 0.  0.
         23    2    1    2    0    0 -0.18975671285E+02 -0.42954818947E+02 -0.13577136405E+03  0.16929209830E+03  0.89558688464E+02 0.  0.
        -13    1    3    3    0    0 -0.31727163003E+02  0.41943996740E+02  0.81631512475E+02  0.97106207648E+02  0.00000000000E+00 0.  1.
         14    1    3    3    0    0  0.26020680602E+02  0.62610426959E+01 -0.16868549987E+01  0.26816449325E+02  0.00000000000E+00 0. -1.
        -11    1    4    4    0    0 -0.29672577159E+02 -0.19667143498E+02 -0.13897850091E+03  0.14346526438E+03  0.00000000000E+00 0. -1.
         11    1    4    4    0    0  0.10696905874E+02 -0.23287675449E+02  0.32071368668E+01  0.25826833913E+02  0.00000000000E+00 0.  1.
         21    1    1    2  502  501  0.24682153686E+02 -0.52502204894E+01 -0.28459682394E+02  0.38035865282E+02  0.00000000000E+00 0.  1.
<scales pt_clust_5="13000.00000" pt_clust_6="13000.00000" pt_clust_7="13000.00000" pt_clust_8="13000.00000" pt_clust_9="25.23437"></scales>
<clustering>
<clus scale="   25.234">  2  9  1 -1</clus>
<clus scale="   81.298">  5  6 -1 -1</clus>
<clus scale="   89.559">  7  8 -1 -1</clus>
<clus scale="   94.215">  1  5  2 -1</clus>
<clus scale="   25.234">  2  5  1 -1</clus>
</clustering>
</event>
<event>
 9    2  0.2984928E-005  0.1074371E+03  0.7546771E-02  0.1270653E+00
          2   -1    0    0  502    0  0.00000000000E+00  0.00000000000E+00  0.34890661258E+03  0.34890661258E+03  0.00000000000E+00 0. -1.
         -1   -1    0    0    0  501 -0.00000000000E+00 -0.00000000000E+00 -0.97436499930E+02  0.97436499930E+02  0.00000000000E+00 0.  1.
         24    2    1    2    0    0  0.14886675998E+02 -0.60314331578E+02 -0.35607054672E+02  0.10759223752E+03  0.80304392875E+02 0.  0.
         23    2    1    2    0    0  0.35481577306E+02  0.11928128295E+02  0.22130843673E+03  0.24281489877E+03  0.92630601463E+02 0.  0.
        -13    1    3    3    0    0 -0.21563609229E+02  0.87451460525E+01 -0.10836751351E+02  0.25669086511E+02  0.00000000000E+00 0.  1.
         14    1    3    3    0    0  0.36450285228E+02 -0.69059477631E+02 -0.24770303321E+02  0.81923151004E+02  0.00000000000E+00 0. -1.
        -13    1    4    4    0    0 -0.36596859280E+01  0.40418376778E+02  0.15793392753E+03  0.16306490716E+03  0.00000000000E+00 0.  1.
         13    1    4    4    0    0  0.39141263234E+02 -0.28490248483E+02  0.63374509194E+02  0.79749991610E+02  0.00000000000E+00 0. -1.
         21    1    1    2  502  501 -0.50368253304E+02  0.48386203283E+02  0.65768730595E+02  0.95935976219E+02  0.00000000000E+00 0.  1.
<scales pt_clust_5="13000.00000" pt_clust_6="13000.00000" pt_clust_7="13000.00000" pt_clust_8="13000.00000" pt_clust_9="69.84401"></scales>
<clustering>
<clus scale="   69.844">  1  9  2 -1</clus>
<clus scale="   80.304">  5  6 -1 -1</clus>
<clus scale="   92.631">  7  8 -1 -1</clus>
<clus scale="   97.011">  2  5  1 -1</clus>
<clus scale="   69.844">  1  5  2 -1</clus>
</clustering>
</event>
<event>
 9    2  0.2984928E-005  0.1603355E+03  0.7546771E-02  0.1209060E+00
          2   -1    0    0  502    0  0.00000000000E+00  0.00000000000E+00  0.69675093019E+03  0.69675093019E+03  0.00000000000E+00 0. -1.
         -1   -1    0    0    0  501 -0.00000000000E+00 -0.00000000000E+00 -0.76478469646E+02  0.76478469646E+02  0.00000000000E+00 0.  1.
         24    2    1    2    0    0  0.11861577625E+03  0.41384002582E+02  0.83843855258E+02  0.17379869875E+03  0.85987543166E+02 0.  0.
         23    2    1    2    0    0  0.17707149198E+02  0.38724189875E+02  0.28162697599E+03  0.29955550573E+03  0.92771986016E+02 0.  0.
        -11    1    3    3    0    0  0.11050185377E+03  0.38952281166E+02  0.32263209036E+02  0.12152717618E+03  0.00000000000E+00 0.  1.
         12    1    3    3    0    0  0.81139224793E+01  0.24317214164E+01  0.51580646222E+02  0.52271522570E+02  0.00000000000E+00 0. -1.
        -11    1    4    4    0    0  0.30445674929E+02 -0.18342009275E+02  0.16853642366E+03  0.17224370678E+03  0.00000000000E+00 0.  1.
         11    1    4    4    0    0 -0.12738525730E+02  0.57066199150E+02  0.11309055234E+03  0.12731179895E+03  0.00000000000E+00 0. -1.
         21    1    1    2  502  501 -0.13632292544E+03 -0.80108192457E+02  0.25480162929E+03  0.29987519536E+03  0.00000000000E+00 0. -1.
<scales pt_clust_5="13000.00000" pt_clust_6="13000.00000" pt_clust_7="13000.00000" pt_clust_8="13000.00000" pt_clust_9="135.32785"></scales>
<clustering>
<clus scale="   85.988">  5  6 -1 -1</clus>
<clus scale="   92.772">  7  8 -1 -1</clus>
<clus scale="  102.077">  1  7  2 -1</clus>
<clus scale="  135.328">  1  9  2 -1</clus>
<clus scale="  102.077">  1  5  2 -1</clus>
</clustering>
</event>
<event>
 9    2  0.2984928E-005  0.9355226E+02  0.7546771E-02  0.1301557E+00
          2   -1    0    0  502    0  0.00000000000E+00  0.00000000000E+00  0.34144022496E+03  0.34144022496E+03  0.00000000000E+00 0. -1.
         -1   -1    0    0    0  501 -0.00000000000E+00 -0.00000000000E+00 -0.27446842073E+03  0.27446842073E+03  0.00000000000E+00 0.  1.
         24    2    1    2    0    0  0.12101650888E+02 -0.10575174491E+02 -0.23387244028E+03  0.24774127486E+03  0.80131995353E+02 0.  0.
         23    2    1    2    0    0 -0.76528602136E+02  0.35503557836E+02  0.25882743237E+03  0.28731151857E+03  0.91864788628E+02 0.  0.
        -11    1    3    3    0    0 -0.14386098673E+02 -0.37896558634E+02 -0.15433603555E+03  0.15957042603E+03  0.00000000000E+00 0.  1.
         12    1    3    3    0    0  0.26487749561E+02  0.27321384143E+02 -0.79536404721E+02  0.88170848835E+02  0.00000000000E+00 0. -1.
        -13    1    4    4    0    0  0.16616415500E+02  0.26202619583E+02  0.69230834488E+02  0.75865611320E+02  0.00000000000E+00 0. -1.
         13    1    4    4    0    0 -0.93145017636E+02  0.93009382535E+01  0.18959659788E+03  0.21144590725E+03  0.00000000000E+00 0.  1.
         21    1    1    2  502  501  0.64426951248E+02 -0.24928383345E+02  0.42016812132E+02  0.80855852262E+02  0.00000000000E+00 0.  1.
<scales pt_clust_5="13000.00000" pt_clust_6="13000.00000" pt_clust_7="13000.00000" pt_clust_8="13000.00000" pt_clust_9="69.08152"></scales>
<clustering>
<clus scale="   69.082">  1  9  2 -1</clus>
<clus scale="   80.132">  5  6 -1 -1</clus>
<clus scale="   82.061">  2  5  1 -1</clus>
<clus scale="   91.865">  7  8 -1 -1</clus>
<clus scale="   69.082">  1  5  2 -1</clus>
</clustering>
</event>
<event>
 9    2  0.2984928E-005  0.2524682E+03  0.7546771E-02  0.1158262E+00
         -1   -1    0    0    0  501 -0.00000000000E+00  0.00000000000E+00  0.74102525468E+03  0.74102525468E+03  0.00000000000E+00 0.  1.
          2   -1    0    0  502    0  0.00000000000E+00 -0.00000000000E+00 -0.12255508828E+03  0.12255508828E+03  0.00000000000E+00 0. -1.
         23    2    1    2    0    0  0.23016199961E+03  0.11625956076E+02  0.40963523960E+03  0.47949740324E+03  0.94905327947E+02 0.  0.
         24    2    1    2    0    0  0.90577245816E+01  0.13162278619E+02  0.43788075508E+02  0.92396470818E+02  0.79777342083E+02 0.  0.
        -11    1    4    4    0    0  0.21344371976E+02  0.27533151735E+01 -0.18302672783E+02  0.28251562621E+02  0.00000000000E+00 0.  1.
         12    1    4    4    0    0 -0.12286647394E+02  0.10408963446E+02  0.62090748292E+02  0.64144908197E+02  0.00000000000E+00 0. -1.
        -11    1    3    3    0    0  0.19743447725E+03  0.32463516567E+02  0.38398120858E+03  0.43298478179E+03  0.00000000000E+00 0.  1.
         11    1    3    3    0    0  0.32727522358E+02 -0.20837560492E+02  0.25654031019E+02  0.46512621453E+02  0.00000000000E+00 0. -1.
         21    1    1    2  502  501 -0.23921972419E+03 -0.24788234695E+02  0.16504685128E+03  0.29168646890E+03  0.00000000000E+00 0. -1.
<scales pt_clust_5="13000.00000" pt_clust_6="13000.00000" pt_clust_7="13000.00000" pt_clust_8="13000.00000" pt_clust_9="233.95120"></scales>
<clustering>
<clus scale="   79.777">  5  6 -1 -1</clus>
<clus scale="   81.362">  2  5  1 -1</clus>
<clus scale="   94.905">  7  8 -1 -1</clus>
<clus scale="  233.951">  2  9  1 -1</clus>
<clus scale="   81.362">  2  5  1 -1</clus>
</clustering>
</event>
<event>
 9    2  0.2984928E-005  0.1258469E+03  0.7546771E-02  0.1238903E+00
          2   -1    0    0  502    0  0.00000000000E+00  0.00000000000E+00  0.21424528469E+03  0.21424528469E+03  0.00000000000E+00 0. -1.
         -1   -1    0    0    0  501 -0.00000000000E+00 -0.00000000000E+00 -0.19129498152E+03  0.19129498152E+03  0.00000000000E+00 0.  1.
         24    2    1    2    0    0  0.50940021150E+02  0.60959276158E+02 -0.12877860428E+03  0.17100569159E+03  0.79674955473E+02 0.  0.
         23    2    1    2    0    0 -0.32704448676E+02 -0.88377455658E+02  0.14960842131E+03  0.20153776975E+03  0.96719373841E+02 0.  0.
        -13    1    3    3    0    0  0.88687721306E+01  0.59805620389E+02 -0.10868140621E+03  0.12436645611E+03  0.00000000000E+00 0.  1.
         14    1    3    3    0    0  0.42071249020E+02  0.11536557695E+01 -0.20097198073E+02  0.46639235479E+02  0.00000000000E+00 0. -1.
        -13    1    4    4    0    0 -0.13409666736E+02 -0.10720398160E+03  0.11777053033E+03  0.15981993194E+03  0.00000000000E+00 0. -1.
         13    1    4    4    0    0 -0.19294781940E+02  0.18826525938E+02  0.31837890982E+02  0.41717837806E+02  0.00000000000E+00 0.  1.
         21    1    1    2  502  501 -0.18235572474E+02  0.27418179500E+02  0.21204861340E+01  0.32996804875E+02  0.00000000000E+00 0. -1.
<scales pt_clust_5="13000.00000" pt_clust_6="13000.00000" pt_clust_7="13000.00000" pt_clust_8="13000.00000" pt_clust_9="32.92860"></scales>
<clustering>
<clus scale="   32.929">  1  9  2 -1</clus>
<clus scale="   79.675">  5  6 -1 -1</clus>
<clus scale="   96.719">  7  8 -1 -1</clus>
<clus scale="  113.274">  2  5  1 -1</clus>
<clus scale="   32.929">  1  5  2 -1</clus>
</clustering>
</event>
<event>
 9    2  0.2984928E-005  0.1333708E+03  0.7546771E-02  0.1223320E+00
         -1   -1    0    0    0  501 -0.00000000000E+00  0.00000000000E+00  0.30667629810E+02  0.30667629810E+02  0.00000000000E+00 0.  1.
          2   -1    0    0  502    0  0.00000000000E+00 -0.00000000000E+00 -0.85540586668E+03  0.85540586668E+03  0.00000000000E+00 0. -1.
         23    2    1    2    0    0 -0.41556383627E+01  0.10473448230E+03 -0.18374547510E+03  0.22836865333E+03  0.86042205285E+02 0.  0.
         24    2    1    2    0    0 -0.13531210745E+02 -0.94525597811E+02 -0.52909020061E+03  0.54395411065E+03  0.82652597083E+02 0.  0.
        -11    1    4    4    0    0 -0.15215412482E+02 -0.32438174414E+02 -0.53900781056E+02  0.64722779103E+02  0.00000000000E+00 0.  1.
         12    1    4    4    0    0  0.16842017374E+01 -0.62087423397E+02 -0.47518941955E+03  0.47923133154E+03  0.00000000000E+00 0. -1.
        -11    1    3    3    0    0  0.39070483633E+02  0.46625010022E+02 -0.63047532969E+02  0.87609278414E+02  0.00000000000E+00 0.  1.
         11    1    3    3    0    0 -0.43226121996E+02  0.58109472274E+02 -0.12069794213E+03  0.14075937491E+03  0.00000000000E+00 0. -1.
         21    1    1    2  502  501  0.17686849108E+02 -0.10208884485E+02 -0.11190256115E+03  0.11375073251E+03  0.00000000000E+00 0. -1.
<scales pt_clust_5="13000.00000" pt_clust_6="13000.00000" pt_clust_7="13000.00000" pt_clust_8="13000.00000" pt_clust_9="20.42170"></scales>
<clustering>
<clus scale="   20.422">  2  9  1 -1</clus>
<clus scale="   82.653">  5  6 -1 -1</clus>
<clus scale="   86.042">  7  8 -1 -1</clus>
<clus scale="  131.210">  2  5  1 -1</clus>
<clus scale="   20.422">  2  5  1 -1</clus>
</clustering>
</event>
<event>
 9    2  0.2984928E-005  0.5299885E+03  0.7546771E-02  0.1006505E+00
          2   -1    0    0  502    0  0.00000000000E+00  0.00000000000E+00  0.79482281409E+03  0.79482281409E+03  0.00000000000E+00 0. -1.
         -1   -1    0    0    0  501 -0.00000000000E+00 -0.00000000000E+00 -0.40048031798E+03  0.40048031798E+03  0.00000000000E+00 0.  1.
         24    2    1    2    0    0  0.40080839359E+03 -0.32084041328E+03  0.97402389669E+02  0.52888787872E+03  0.81542771428E+02 0.  0.
         23    2    1    2    0    0 -0.39348494522E+03  0.35046288544E+03  0.21498746151E+03  0.57896606945E+03  0.10643056323E+03 0.  0.
        -11    1    3    3    0    0  0.24623272260E+03 -0.22126351325E+03  0.27518856683E+02  0.33218275610E+03  0.00000000000E+00 0.  1.
         12    1    3    3    0    0  0.15457567099E+03 -0.99576900032E+02  0.69883532986E+02  0.19670512262E+03  0.00000000000E+00 0. -1.
        -11    1    4    4    0    0 -0.25992792020E+03  0.28419649440E+03  0.12544844977E+03  0.40505244682E+03  0.00000000000E+00 0.  1.
         11    1    4    4    0    0 -0.13355702502E+03  0.66266391040E+02  0.89539011733E+02  0.17391362263E+03  0.00000000000E+00 0. -1.
         21    1    1    2  502  501 -0.73234483723E+01 -0.29622472153E+02  0.81952644934E+02  0.87449183896E+02  0.00000000000E+00 0. -1.
<scales pt_clust_5="13000.00000" pt_clust_6="13000.00000" pt_clust_7="13000.00000" pt_clust_8="13000.00000" pt_clust_9="30.51432"></scales>
<clustering>
<clus scale="   30.514">  1  9  2 -1</clus>
<clus scale="   81.543">  5  6 -1 -1</clus>
<clus scale="  106.431">  7  8 -1 -1</clus>
<clus scale="  525.556">  2  5  1 -1</clus>
<clus scale="   30.514">  1  5  2 -1</clus>
</clustering>
</event>
<event>
 9    2  0.2984928E-005  0.9587468E+02  0.7546771E-02  0.1297167E+00
          2   -1    0    0  502    0  0.00000000000E+00  0.00000000000E+00  0.80597595850E+03  0.80597595850E+03  0.00000000000E+00 0. -1.
         -1   -1    0    0    0  501 -0.00000000000E+00 -0.00000000000E+00 -0.20336994548E+02  0.20336994548E+02  0.00000000000E+00 0.  1.
         23    2    1    2    0    0 -0.31708406616E+02 -0.39365752865E+01  0.19225112163E+03  0.21530345676E+03  0.91510464162E+02 0.  0.
         24    2    1    2    0    0  0.13582442312E+01  0.48311707759E+02  0.39810688825E+03  0.40846336386E+03  0.77571639193E+02 0.  0.
        -11    1    4    4    0    0  0.29896112418E+02 -0.50144505336E+01  0.11172442534E+03  0.11576385217E+03  0.00000000000E+00 0.  1.
         12    1    4    4    0    0 -0.28537868187E+02  0.53326158292E+02  0.28638246291E+03  0.29269951169E+03  0.00000000000E+00 0. -1.
        -13    1    3    3    0    0 -0.50068162107E+02 -0.33096700843E+02  0.14403813972E+03  0.15604229605E+03  0.00000000000E+00 0.  1.
         13    1    3    3    0    0  0.18359755491E+02  0.29160125556E+02  0.48212981916E+02  0.59261160716E+02  0.00000000000E+00 0. -1.
         21    1    1    2  502  501  0.30350162384E+02 -0.44375132472E+02  0.19528095407E+03  0.20254613242E+03  0.00000000000E+00 0.  1.
<scales pt_clust_5="13000.00000" pt_clust_6="13000.00000" pt_clust_7="13000.00000" pt_clust_8="13000.00000" pt_clust_9="53.76137"></scales>
<clustering>
<clus scale="   53.761">  1  9  2 -1</clus>
<clus scale="   77.572">  5  6 -1 -1</clus>
<clus scale="   82.675">  1  5  2 -1</clus>
<clus scale="   91.510">  7  8 -1 -1</clus>
<clus scale="   53.761">  1  5  2 -1</clus>
</clustering>
</event>
<event>
 9    2  0.2984928E-005  0.9186397E+02  0.7546771E-02  0.1305539E+00
         -1   -1    0    0    0  501 -0.00000000000E+00  0.00000000000E+00  0.18080563269E+02  0.18080563269E+02  0.00000000000E+00 0.  1.
          2   -1    0    0  502    0  0.00000000000E+00 -0.00000000000E+00 -0.13255377118E+04  0.13255377118E+04  0.00000000000E+00 0. -1.
         23    2    1    2    0    0  0.49672216623E+01 -0.12758731118E+02 -0.13016538522E+03  0.15906313135E+03  0.90391336614E+02 0.  0.
         24    2    1    2    0    0 -0.43161759743E+02  0.13347270182E+02 -0.91349894860E+03  0.91801092936E+03  0.78883776508E+02 0.  0.
        -13    1    4    4    0    0  0.17268922715E+02  0.14134033543E+02 -0.10990850941E+03  0.11215109021E+03  0.00000000000E+00 0.  1.
         14    1    4    4    0    0 -0.60430682458E+02 -0.78676336112E+00 -0.80359043919E+03  0.80585983914E+03  0.00000000000E+00 0. -1.
        -13    1    3    3    0    0  0.38231722155E+02  0.88961043523E+01 -0.24704512261E+02  0.46380148530E+02  0.00000000000E+00 0.  1.
         13    1    3    3    0    0 -0.33264500493E+02 -0.21654835470E+02 -0.10546087295E+03  0.11268298282E+03  0.00000000000E+00 0. -1.
         21    1    1    2  502  501  0.38194538081E+02 -0.58853906397E+00 -0.26379281470E+03  0.26654421435E+03  0.00000000000E+00 0.  1.
<scales pt_clust_5="13000.00000" pt_clust_6="13000.00000" pt_clust_7="13000.00000" pt_clust_8="13000.00000" pt_clust_9="38.19907"></scales>
<clustering>
<clus scale="   38.199">  2  9  1 -1</clus>
<clus scale="   78.884">  5  6 -1 -1</clus>
<clus scale="   80.567">  2  5  1 -1</clus>
<clus scale="   90.391">  7  8 -1 -1</clus>
<clus scale="   38.199">  2  5  1 -1</clus>
</clustering>
</event>
<event>
 9    2  0.2984928E-005  0.1489819E+03  0.7546771E-02  0.1203623E+00
         -1   -1    0    0    0  501 -0.00000000000E+00  0.00000000000E+00  0.28201144107E+03  0.28201144107E+03  0.00000000000E+00 0.  1.
          2   -1    0    0  502    0  0.00000000000E+00 -0.00000000000E+00 -0.22185676851E+03  0.22185676851E+03  0.00000000000E+00 0. -1.
         23    2    1    2    0    0 -0.92975066805E+02 -0.77499652847E+02  0.22749517130E+03  0.27317381043E+03  0.90660457203E+02 0.  0.
         24    2    1    2    0    0  0.79026381060E+02  0.63012569270E+02 -0.10915603818E+03  0.16913245575E+03  0.80467348210E+02 0.  0.
        -11    1    4    4    0    0  0.16626505023E+02 -0.17319714946E+02 -0.38166972648E+02  0.45090253894E+02  0.00000000000E+00 0.  1.
         12    1    4    4    0    0  0.62399876037E+02  0.80332284216E+02 -0.70989065535E+02  0.12404220186E+03  0.00000000000E+00 0. -1.
        -11    1    3    3    0    0 -0.10981689042E+03 -0.56315425325E+02  0.19633167762E+03  0.23189934064E+03  0.00000000000E+00 0.  1.
         11    1    3    3    0    0  0.16841823612E+02 -0.21184227522E+02  0.31163493685E+02  0.41274469797E+02  0.00000000000E+00 0. -1.
         21    1    1    2  502  501  0.13948685745E+02  0.14487083578E+02 -0.58184460558E+02  0.61561943398E+02  0.00000000000E+00 0.  1.
<scales pt_clust_5="13000.00000" pt_clust_6="13000.00000" pt_clust_7="13000.00000" pt_clust_8="13000.00000" pt_clust_9="20.11073"></scales>
<clustering>
<clus scale="   20.111">  2  9  1 -1</clus>
<clus scale="   80.467">  5  6 -1 -1</clus>
<clus scale="   90.660">  7  8 -1 -1</clus>
<clus scale="  143.008">  2  5  1 -1</clus>
<clus scale="   20.111">  2  5  1 -1</clus>
</clustering>
</event>
<event>
 9    2  0.2984928E-005  0.1753592E+03  0.7546771E-02  0.1198335E+00
         -1   -1    0    0    0  501 -0.00000000000E+00  0.00000000000E+00  0.28882833147E+02  0.28882833147E+02  0.00000000000E+00 0.  1.
          2   -1    0    0  502    0  0.00000000000E+00 -0.00000000000E+00 -0.17197794590E+04  0.17197794590E+04  0.00000000000E+00 0. -1.
         24    2    1    2    0    0 -0.42715719895E+02 -0.41671892214E+02 -0.22939516176E+03  0.24958831239E+03  0.78172924436E+02 0.  0.
         23    2    1    2    0    0  0.12399617254E+03 -0.90043280104E+02 -0.85092218588E+03  0.86918315304E+03  0.89039002736E+02 0.  0.
        -13    1    3    3    0    0 -0.14361562830E+02 -0.23093610658E+02 -0.12273517598E+02  0.29836363290E+02  0.00000000000E+00 0.  1.
         14    1    3    3    0    0 -0.28354157065E+02 -0.18578281556E+02 -0.21712164416E+03  0.21975194910E+03  0.00000000000E+00 0. -1.
        -13    1    4    4    0    0  0.96713969504E+02 -0.10702225394E+03 -0.72622095082E+03  0.74040814700E+03  0.00000000000E+00 0.  1.
         13    1    4    4    0    0  0.27282203036E+02  0.16978973831E+02 -0.12470123506E+03  0.12877500604E+03  0.00000000000E+00 0. -1.
         21    1    1    2  502  501 -0.81280452645E+02  0.13171517232E+03 -0.61057927819E+03  0.62989082670E+03  0.00000000000E+00 0. -1.
<scales pt_clust_5="13000.00000" pt_clust_6="13000.00000" pt_clust_7="13000.00000" pt_clust_8="13000.00000" pt_clust_9="151.07255"></scales>
<clustering>
<clus scale="   78.173">  5  6 -1 -1</clus>
<clus scale="   89.039">  7  8 -1 -1</clus>
<clus scale="   98.347">  1  5  2 -1</clus>
<clus scale="  151.073">  1  9  2 -1</clus>
<clus scale="  175.359">  2  5  1 -1</clus>
</clustering>
</event>
<event>
 9    2  0.2984928E-005  0.1267386E+03  0.7546771E-02  0.1235104E+00
         -1   -1    0    0    0  501 -0.00000000000E+00  0.00000000000E+00  0.35757877977E+02  0.35757877977E+02  0.00000000000E+00 0.  1.
          2   -1    0    0  502    0  0.00000000000E+00 -0.00000000000E+00 -0.62160161689E+03  0.62160161689E+03  0.00000000000E+00 0. -1.
         23    2    1    2    0    0 -0.74025139149E+02  0.53439842037E+02 -0.14998696812E+03  0.19818377176E+03  0.91897654155E+02 0.  0.
         24    2    1    2    0    0  0.77328391308E+02 -0.25329435478E+02 -0.36514197412E+03  0.38300690468E+03  0.82124097365E+02 0.  0.
        -11    1    4    4    0    0  0.51727179695E+02  0.24689393111E+02 -0.22067472243E+03  0.22799693062E+03  0.00000000000E+00 0.  1.
         12    1    4    4    0    0  0.25601211613E+02 -0.50018828589E+02 -0.14446725168E+03  0.15500997406E+03  0.00000000000E+00 0. -1.
        -13    1    3    3    0    0 -0.88581255830E+02  0.24052648846E+02 -0.13201042397E+03  0.16078532532E+03  0.00000000000E+00 0. -1.
         13    1    3    3    0    0  0.14556116681E+02  0.29387193191E+02 -0.17976544150E+02  0.37398446439E+02  0.00000000000E+00 0.  1.
         21    1    1    2  502  501 -0.33032521586E+01 -0.28110406559E+02 -0.70714796679E+02  0.76168818430E+02  0.00000000000E+00 0.  1.
<scales pt_clust_5="13000.00000" pt_clust_6="13000.00000" pt_clust_7="13000.00000" pt_clust_8="13000.00000" pt_clust_9="28.30382"></scales>
<clustering>
<clus scale="   28.304">  2  9  1 -1</clus>
<clus scale="   82.124">  5  6 -1 -1</clus>
<clus scale="   91.898">  7  8 -1 -1</clus>
<clus scale="  119.841">  2  5  1 -1</clus>
<clus scale="   28.304">  2  5  1 -1</clus>
</clustering>
</event>
<event>
 9    2  0.2984928E-005  0.2183436E+03  0.7546771E-02  0.1136084E+00
         -1   -1    0    0    0  501 -0.00000000000E+00  0.00000000000E+00  0.14720120896E+03  0.14720120896E+03  0.00000000000E+00 0.  1.
          2   -1    0    0  502    0  0.00000000000E+00 -0.00000000000E+00 -0.15831755445E+04  0.15831755445E+04  0.00000000000E+00 0. -1.
         24    2    1    2    0    0  0.69267791597E+02  0.19420889035E+03  0.41958094390E+02  0.22513443974E+03  0.80061939951E+02 0.  0.
         23    2    1    2    0    0 -0.10776394561E+03 -0.97506488925E+02 -0.72811194685E+03  0.74823236321E+03  0.92650304116E+02 0.  0.
        -13    1    3    3    0    0  0.74690655676E+02  0.19982688739E+03  0.39562951427E+02  0.21696706223E+03  0.00000000000E+00 0.  1.
         14    1    3    3    0    0 -0.54228640790E+01 -0.56179970377E+01  0.23951429635E+01  0.81673775075E+01  0.00000000000E+00 0. -1.
        -11    1    4    4    0    0 -0.90497035819E+02 -0.11531780193E+03 -0.64770879950E+03  0.66408929963E+03  0.00000000000E+00 0.  1.
         11    1    4    4    0    0 -0.17266909789E+02  0.17811313006E+02 -0.80403147355E+02  0.84143063584E+02  0.00000000000E+00 0. -1.
         21    1    1    2  502  501  0.38496154011E+02 -0.96702401427E+02 -0.74982048311E+03  0.75700995053E+03  0.00000000000E+00 0. -1.
<scales pt_clust_5="13000.00000" pt_clust_6="13000.00000" pt_clust_7="13000.00000" pt_clust_8="13000.00000" pt_clust_9="104.08318"></scales>
<clustering>
<clus scale="   80.062">  5  6 -1 -1</clus>
<clus scale="   92.650">  7  8 -1 -1</clus>
<clus scale="  104.083">  2  9  1 -1</clus>
<clus scale="  213.307">  1  5  2 -1</clus>
<clus scale="  104.083">  2  5  1 -1</clus>
</clustering>
</event>
<event>
 9    2  0.2984928E-005  0.9780178E+02  0.7546771E-02  0.1292575E+00
          4   -1    0    0  502    0  0.00000000000E+00  0.00000000000E+00  0.46001048366E+02  0.46001048366E+02  0.00000000000E+00 0. -1.
         -3   -1    0    0    0  501 -0.00000000000E+00 -0.00000000000E+00 -0.40500152084E+03  0.40500152084E+03  0.00000000000E+00 0.  1.
         23    2    1    2    0    0 -0.35562575324E+02  0.19087751095E+01 -0.27523409707E+03  0.29264461492E+03  0.92837073759E+02 0.  0.
         24    2    1    2    0    0  0.88332439752E+01 -0.38947734541E+02 -0.58787778603E+02  0.10629768183E+03  0.79045822311E+02 0.  0.
        -13    1    4    4    0    0 -0.95673989481E+00  0.23784316276E+02 -0.84019721111E+01  0.25242864087E+02  0.00000000000E+00 0.  1.
         14    1    4    4    0    0  0.97899838700E+01 -0.62732050817E+02 -0.50385806491E+02  0.81054817745E+02  0.00000000000E+00 0. -1.
        -13    1    3    3    0    0 -0.19154349158E+02  0.46107665454E+02 -0.10970186075E+03  0.12052926681E+03  0.00000000000E+00 0.  1.
         13    1    3    3    0    0 -0.16408226166E+02 -0.44198890344E+02 -0.16553223633E+03  0.17211534812E+03  0.00000000000E+00 0. -1.
         21    1    1    2  502  501  0.26729331349E+02  0.37038959431E+02 -0.24978596802E+02  0.52060272457E+02  0.00000000000E+00 0. -1.
<scales pt_clust_5="13000.00000" pt_clust_6="13000.00000" pt_clust_7="13000.00000" pt_clust_8="13000.00000" pt_clust_9="45.67649"></scales>
<clustering>
<clus scale="   45.676">  1  9  2 -1</clus>
<clus scale="   79.046">  5  6 -1 -1</clus>
<clus scale="   84.822">  1  5  2 -1</clus>
<clus scale="   92.837">  7  8 -1 -1</clus>
<clus scale="   45.676">  1  5  2 -1</clus>
</clustering>
</event>
<event>
 9    2  0.2984928E-005  0.1778877E+03  0.7546771E-02  0.1171016E+00
          2   -1    0    0  502    0  0.00000000000E+00  0.00000000000E+00  0.12463872048E+03  0.12463872048E+03  0.00000000000E+00 0. -1.
         -1   -1    0    0    0  501 -0.00000000000E+00 -0.00000000000E+00 -0.81863430611E+03  0.81863430611E+03  0.00000000000E+00 0.  1.
         23    2    1    2    0    0  0.17203794880E+03 -0.15896121304E+01 -0.67896334610E+03  0.70607106468E+03  0.89137760442E+02 0.  0.
         24    2    1    2    0    0 -0.99539732060E+02 -0.26677748237E+02 -0.64227352390E+02  0.14514114386E+03  0.79504329040E+02 0.  0.
        -11    1    4    4    0    0 -0.19137808892E+02 -0.24527357399E+02 -0.56296215724E+02  0.64320376982E+02  0.00000000000E+00 0.  1.
         12    1    4    4    0    0 -0.80401923168E+02 -0.21503908377E+01 -0.79311366658E+01  0.80820766877E+02  0.00000000000E+00 0. -1.
        -11    1    3    3    0    0  0.86734409785E+02 -0.44072806294E+02 -0.30406733677E+03  0.31925258869E+03  0.00000000000E+00 0. -1.
         11    1    3    3    0    0  0.85303539014E+02  0.42483194164E+02 -0.37489600933E+03  0.38681847599E+03  0.00000000000E+00 0.  1.
         21    1    1    2  502  501 -0.72498216739E+02  0.28267360367E+02  0.49195112854E+02  0.92060818056E+02  0.00000000000E+00 0. -1.
<scales pt_clust_5="13000.00000" pt_clust_6="13000.00000" pt_clust_7="13000.00000" pt_clust_8="13000.00000" pt_clust_9="77.81411"></scales>
<clustering>
<clus scale="   77.814">  1  9  2 -1</clus>
<clus scale="   79.504">  5  6 -1 -1</clus>
<clus scale="   89.138">  7  8 -1 -1</clus>
<clus scale="  173.261">  1  5  2 -1</clus>
<clus scale="   77.814">  1  5  2 -1</clus>
</clustering>
</event>
<event>
 9    2  0.2984928E-005  0.1154012E+03  0.7546771E-02  0.1263036E+00
          2   -1    0    0  502    0  0.00000000000E+00  0.00000000000E+00  0.24543851912E+03  0.24543851912E+03  0.00000000000E+00 0. -1.
         -1   -1    0    0    0  501 -0.00000000000E+00 -0.00000000000E+00 -0.17684124813E+03  0.17684124813E+03  0.00000000000E+00 0.  1.
         24    2    1    2    0    0  0.13172887936E+02  0.39334847426E+02 -0.14128462196E+03  0.16793575566E+03  0.80748488713E+02 0.  0.
         23    2    1    2    0    0 -0.34457480797E+02 -0.31517662354E+02  0.19368423564E+03  0.22647814756E+03  0.10769441567E+03 0.  0.
        -11    1    3    3    0    0  0.23329603181E+02  0.56086132418E+02 -0.13383845495E+03  0.14697842242E+03  0.00000000000E+00 0.  1.
         12    1    3    3    0    0 -0.10156715245E+02 -0.16751284992E+02 -0.74461670084E+01  0.20957333241E+02  0.00000000000E+00 0. -1.
        -13    1    4    4    0    0 -0.18575043092E+02 -0.64517143523E+02  0.17022422167E+03  0.18298573627E+03  0.00000000000E+00 0. -1.
         13    1    4    4    0    0 -0.15882437705E+02  0.32999481169E+02  0.23460013962E+02  0.43492411292E+02  0.00000000000E+00 0.  1.
         21    1    1    2  502  501  0.21284592862E+02 -0.78171850719E+01  0.16197657308E+02  0.27865864028E+02  0.00000000000E+00 0.  1.
<scales pt_clust_5="13000.00000" pt_clust_6="13000.00000" pt_clust_7="13000.00000" pt_clust_8="13000.00000" pt_clust_9="22.67471"></scales>
<clustering>
<clus scale="   22.675">  1  9  2 -1</clus>
<clus scale="   80.748">  5  6 -1 -1</clus>
<clus scale="   90.773">  2  5  1 -1</clus>
<clus scale="  107.694">  7  8 -1 -1</clus>
<clus scale="   22.675">  1  5  2 -1</clus>
</clustering>
</event>
<event>
 9    2  0.2984928E-005  0.2078838E+03  0.7546771E-02  0.1143803E+00
          2   -1    0    0  502    0  0.00000000000E+00  0.00000000000E+00  0.17255228675E+04  0.17255228675E+04  0.00000000000E+00 0. -1.
         -1   -1    0    0    0  501 -0.00000000000E+00 -0.00000000000E+00 -0.11188465238E+03  0.11188465238E+03  0.00000000000E+00 0.  1.
         23    2    1    2    0    0 -0.19231336713E+03  0.91047241635E+01  0.15716133027E+01  0.21126093479E+03  0.86956227054E+02 0.  0.
         24    2    1    2    0    0  0.14487111093E+03 -0.25349729138E+01  0.12579821074E+04  0.12688375333E+04  0.80222431342E+02 0.  0.
        -11    1    4    4    0    0  0.83746454061E+02 -0.27480218139E+02  0.47737222838E+03  0.48544090824E+03  0.00000000000E+00 0.  1.
         12    1    4    4    0    0  0.61124656873E+02  0.24945245225E+02  0.78060987905E+03  0.78339662509E+03  0.00000000000E+00 0. -1.
        -11    1    3    3    0    0 -0.61104728446E+02  0.53815765918E+01 -0.40402785618E+02  0.73451577864E+02  0.00000000000E+00 0. -1.
         11    1    3    3    0    0 -0.13120863868E+03  0.37231475717E+01  0.41974398920E+02  0.13780935693E+03  0.00000000000E+00 0.  1.
         21    1    1    2  502  501  0.47442256195E+02 -0.65697512496E+01  0.35408449437E+03  0.35730905174E+03  0.00000000000E+00 0.  1.
<scales pt_clust_5="13000.00000" pt_clust_6="13000.00000" pt_clust_7="13000.00000" pt_clust_8="13000.00000" pt_clust_9="47.89498"></scales>
<clustering>
<clus scale="   47.895">  1  9  2 -1</clus>
<clus scale="   80.222">  5  6 -1 -1</clus>
<clus scale="   86.956">  7  8 -1 -1</clus>
<clus scale="  205.158">  1  5  2 -1</clus>
<clus scale="   47.895">  1  5  2 -1</clus>
</clustering>
</event>
<event>
 9    2  0.2984928E-005  0.2014250E+03  0.7546771E-02  0.1150035E+00
         -1   -1    0    0    0  501 -0.00000000000E+00  0.00000000000E+00  0.15667750617E+03  0.15667750617E+03  0.00000000000E+00 0.  1.
          2   -1    0    0  502    0  0.00000000000E+00 -0.00000000000E+00 -0.55597364063E+03  0.55597364063E+03  0.00000000000E+00 0. -1.
         23    2    1    2    0    0 -0.47586872840E+02  0.16847739639E+03  0.51857218108E+02  0.20703981563E+03  0.97607226286E+02 0.  0.
         24    2    1    2    0    0  0.69783874106E+02 -0.16901991629E+03 -0.36273349274E+03  0.41444624573E+03  0.82174099678E+02 0.  0.
        -13    1    4    4    0    0  0.30936737837E+02 -0.22664917883E+02 -0.29373265819E+02  0.48307028428E+02  0.00000000000E+00 0.  1.
         14    1    4    4    0    0  0.38847136268E+02 -0.14635499840E+03 -0.33336022692E+03  0.36613921730E+03  0.00000000000E+00 0. -1.
        -11    1    3    3    0    0 -0.53218833626E+02  0.57640896276E+02 -0.11434769084E+02  0.79280963162E+02  0.00000000000E+00 0. -1.
         11    1    3    3    0    0  0.56319607858E+01  0.11083650012E+03  0.63291987192E+02  0.12775885246E+03  0.00000000000E+00 0.  1.
         21    1    1    2  502  501 -0.22197001266E+02  0.54251989501E+00 -0.88419859826E+02  0.91165085448E+02  0.00000000000E+00 0. -1.
<scales pt_clust_5="13000.00000" pt_clust_6="13000.00000" pt_clust_7="13000.00000" pt_clust_8="13000.00000" pt_clust_9="22.20363"></scales>
<clustering>
<clus scale="   22.204">  2  9  1 -1</clus>
<clus scale="   82.174">  5  6 -1 -1</clus>
<clus scale="   97.607">  7  8 -1 -1</clus>
<clus scale="  194.416">  2  5  1 -1</clus>
<clus scale="   22.204">  2  5  1 -1</clus>
</clustering>
</event>
<event>
 9    2  0.2984928E-005  0.1117046E+03  0.7546771E-02  0.1267257E+00
          2   -1    0    0  502    0  0.00000000000E+00  0.00000000000E+00  0.86353721932E+03  0.86353721932E+03  0.00000000000E+00 0. -1.
         -1   -1    0    0    0  501 -0.00000000000E+00 -0.00000000000E+00 -0.26237153758E+03  0.26237153758E+03  0.00000000000E+00 0.  1.
         23    2    1    2    0    0 -0.43264426464E+02  0.15439765261E+02 -0.24527396647E+03  0.26967358363E+03  0.10224639912E+03 0.  0.
         24    2    1    2    0    0 -0.29719515412E+01 -0.53445918159E+01  0.58619048179E+03  0.59171798328E+03  0.80458024061E+02 0.  0.
        -11    1    4    4    0    0 -0.14761683968E+02 -0.26710114083E+02  0.92083967059E+02  0.97009249545E+02  0.00000000000E+00 0.  1.
         12    1    4    4    0    0  0.11789732426E+02  0.21365522267E+02  0.49410651473E+03  0.49470873373E+03  0.00000000000E+00 0. -1.
        -13    1    3    3    0    0  0.96982891893E+01  0.31125988024E+02 -0.21192597542E+02  0.38884574503E+02  0.00000000000E+00 0. -1.
         13    1    3    3    0    0 -0.52962715653E+02 -0.15686222763E+02 -0.22408136893E+03  0.23078900913E+03  0.00000000000E+00 0.  1.
         21    1    1    2  502  501  0.46236378005E+02 -0.10095173446E+02  0.26024916642E+03  0.26451718999E+03  0.00000000000E+00 0.  1.
<scales pt_clust_5="13000.00000" pt_clust_6="13000.00000" pt_clust_7="13000.00000" pt_clust_8="13000.00000" pt_clust_9="47.32563"></scales>
<clustering>
<clus scale="   47.326">  1  9  2 -1</clus>
<clus scale="   80.458">  5  6 -1 -1</clus>
<clus scale="   92.180">  1  5  2 -1</clus>
<clus scale="  102.246">  7  8 -1 -1</clus>
<clus scale="   47.326">  1  5  2 -1</clus>
</clustering>
</event>
<event>
 9    2  0.2984928E-005  0.9861725E+02  0.7546771E-02  0.1289810E+00
          2   -1    0    0  502    0  0.00000000000E+00  0.00000000000E+00  0.18921426920E+03  0.18921426920E+03  0.00000000000E+00 0. -1.
         -1   -1    0    0    0  501 -0.00000000000E+00 -0.00000000000E+00 -0.17993072815E+03  0.17993072815E+03  0.00000000000E+00 0.  1.
         23    2    1    2    0    0 -0.22034468068E+02  0.25943706894E+02 -0.87528012578E+02  0.13103140109E+03  0.91375496581E+02 0.  0.
         24    2    1    2    0    0  0.10197214862E+02 -0.42383459187E+02 -0.40889867509E+02  0.98930021791E+02  0.78834174968E+02 0.  0.
        -13    1    4    4    0    0 -0.80079718865E+01 -0.43987056892E+02 -0.58447232962E+02  0.73587144453E+02  0.00000000000E+00 0.  1.
         14    1    4    4    0    0  0.18205186748E+02  0.16035977053E+01  0.17557365452E+02  0.25342877338E+02  0.00000000000E+00 0. -1.
        -13    1    3    3    0    0  0.26148613768E+02 -0.61235395982E+01 -0.92990732953E+00  0.26872150395E+02  0.00000000000E+00 0. -1.
         13    1    3    3    0    0 -0.48183081836E+02  0.32067246493E+02 -0.86598105249E+02  0.10415925070E+03  0.00000000000E+00 0.  1.
         21    1    1    2  502  501  0.11837253207E+02  0.16439752293E+02  0.13770142114E+03  0.13918357447E+03  0.00000000000E+00 0. -1.
<scales pt_clust_5="13000.00000" pt_clust_6="13000.00000" pt_clust_7="13000.00000" pt_clust_8="13000.00000" pt_clust_9="20.25799"></scales>
<clustering>
<clus scale="   20.258">  1  9  2 -1</clus>
<clus scale="   78.834">  5  6 -1 -1</clus>
<clus scale="   87.125">  1  5  2 -1</clus>
<clus scale="   91.375">  7  8 -1 -1</clus>
<clus scale="   20.258">  1  5  2 -1</clus>
</clustering>
</event>
<event>
 9    2  0.2984928E-005  0.1549363E+03  0.7546771E-02  0.1218583E+00
         -1   -1    0    0    0  501 -0.00000000000E+00  0.00000000000E+00  0.12614773441E+03  0.12614773441E+03  0.00000000000E+00 0.  1.
          2   -1    0    0  502    0  0.00000000000E+00 -0.00000000000E+00 -0.68459933180E+03  0.68459933180E+03  0.00000000000E+00 0. -1.
         24    2    1    2    0    0  0.28721614306E+02  0.12621187303E+03  0.46797166205E+02  0.16015708886E+03  0.81889867055E+02 0.  0.
         23    2    1    2    0    0  0.16539620448E+01  0.16663770834E+02 -0.22439465809E+03  0.24268560752E+03  0.90900630730E+02 0.  0.
        -11    1    3    3    0    0  0.68358884443E+01  0.13064114079E+03  0.40844381010E+02  0.13704780369E+03  0.00000000000E+00 0.  1.
         12    1    3    3    0    0  0.21885725862E+02 -0.44292677602E+01  0.59527851944E+01  0.23109285167E+02  0.00000000000E+00 0. -1.
        -13    1    4    4    0    0 -0.36748791045E+02  0.19752854021E+02 -0.55387578106E+02  0.69342863323E+02  0.00000000000E+00 0.  1.
         13    1    4    4    0    0  0.38402753090E+02 -0.30890831874E+01 -0.16900707998E+03  0.17334274419E+03  0.00000000000E+00 0. -1.
         21    1    1    2  502  501 -0.30375576351E+02 -0.14287564386E+03 -0.38085410550E+03  0.40790436983E+03  0.00000000000E+00 0. -1.
<scales pt_clust_5="13000.00000" pt_clust_6="13000.00000" pt_clust_7="13000.00000" pt_clust_8="13000.00000" pt_clust_9="131.52681"></scales>
<clustering>
<clus scale="   81.890">  5  6 -1 -1</clus>
<clus scale="   90.901">  7  8 -1 -1</clus>
<clus scale="   92.430">  2  7  1 -1</clus>
<clus scale="  131.527">  2  9  1 -1</clus>
<clus scale="   92.430">  2  5  1 -1</clus>
</clustering>
</event>
<event>
 9    2  0.2984928E-005  0.4317264E+03  0.7546771E-02  0.1087907E+00
         -1   -1    0    0    0  501 -0.00000000000E+00  0.00000000000E+00  0.86035054198E+03  0.86035054198E+03  0.00000000000E+00 0.  1.
          2   -1    0    0  502    0  0.00000000000E+00 -0.00000000000E+00 -0.45070364491E+03  0.45070364491E+03  0.00000000000E+00 0. -1.
         24    2    1    2    0    0 -0.10156574091E+03  0.40779232318E+03  0.49340175796E+03  0.65307899939E+03  0.80353631637E+02 0.  0.
         23    2    1    2    0    0 -0.15972829846E+02  0.86057309697E+01 -0.19050590056E+03  0.21233133914E+03  0.91994073356E+02 0.  0.
        -13    1    3    3    0    0 -0.10686362209E+03  0.35151399044E+03  0.39392925727E+03  0.53866703903E+03  0.00000000000E+00 0.  1.
         14    1    3    3    0    0  0.52978811724E+01  0.56278332735E+02  0.99472500693E+02  0.11441196036E+03  0.00000000000E+00 0. -1.
        -13    1    4    4    0    0  0.19825621492E+02  0.34521687199E+02 -0.13837734034E+03  0.14398989713E+03  0.00000000000E+00 0.  1.
         13    1    4    4    0    0 -0.35798451338E+02 -0.25915956229E+02 -0.52128560214E+02  0.68341442006E+02  0.00000000000E+00 0. -1.
         21    1    1    2  502  501  0.11753857076E+03 -0.41639805415E+03  0.10675103967E+03  0.44564384837E+03  0.00000000000E+00 0. -1.
<scales pt_clust_5="13000.00000" pt_clust_6="13000.00000" pt_clust_7="13000.00000" pt_clust_8="13000.00000" pt_clust_9="424.18271"></scales>
<clustering>
<clus scale="   80.354">  5  6 -1 -1</clus>
<clus scale="   91.994">  7  8 -1 -1</clus>
<clus scale="   93.766">  2  7  1 -1</clus>
<clus scale="  424.183">  2  9  1 -1</clus>
<clus scale="   93.766">  2  5  1 -1</clus>
</clustering>
</event>
<event>
 9    2  0.2984928E-005  0.1238662E+03  0.7546771E-02  0.1243829E+00
         -1   -1    0    0    0  501 -0.00000000000E+00  0.00000000000E+00  0.22275051410E+03  0.22275051410E+03  0.00000000000E+00 0.  1.
          2   -1    0    0  502    0  0.00000000000E+00 -0.00000000000E+00 -0.23762841902E+03  0.23762841902E+03  0.00000000000E+00 0. -1.
         24    2    1    2    0    0  0.62873137597E+02  0.27843484273E+02  0.16609807312E+03  0.19717157086E+03  0.80992391083E+02 0.  0.
         23    2    1    2    0    0 -0.71134799589E+02 -0.47412285230E+02 -0.69917748583E+02  0.15013604246E+03  0.10170671156E+03 0.  0.
        -13    1    3    3    0    0  0.55077265458E+02  0.49753657068E+02  0.85191684164E+02  0.11298917918E+03  0.00000000000E+00 0.  1.
         14    1    3    3    0    0  0.77958721389E+01 -0.21910172796E+02  0.80906388954E+02  0.84182391674E+02  0.00000000000E+00 0. -1.
        -13    1    4    4    0    0 -0.26029171099E+02  0.30515235389E+02 -0.36076601012E+02  0.53946440842E+02  0.00000000000E+00 0.  1.
         13    1    4    4    0    0 -0.45105628491E+02 -0.77927520619E+02 -0.33841147571E+02  0.96189601622E+02  0.00000000000E+00 0. -1.
         21    1    1    2  502  501  0.82616619920E+01  0.19568800958E+02 -0.11105822945E+03  0.11307131979E+03  0.00000000000E+00 0.  1.
<scales pt_clust_5="13000.00000" pt_clust_6="13000.00000" pt_clust_7="13000.00000" pt_clust_8="13000.00000" pt_clust_9="21.24130"></scales>
<clustering>
<clus scale="   21.241">  2  9  1 -1</clus>
<clus scale="   80.992">  5  6 -1 -1</clus>
<clus scale="  101.707">  7  8 -1 -1</clus>
<clus scale="  107.510">  1  5  2 -1</clus>
<clus scale="   21.241">  2  5  1 -1</clus>
</clustering>
</event>
<event>
 9    2  0.2984928E-005  0.8842330E+02  0.7546771E-02  0.1310383E+00
          2   -1    0    0  502    0  0.00000000000E+00  0.00000000000E+00  0.15549184448E+03  0.15549184448E+03  0.00000000000E+00 0. -1.
         -1   -1    0    0    0  501 -0.00000000000E+00 -0.00000000000E+00 -0.20337021061E+03  0.20337021061E+03  0.00000000000E+00 0.  1.
         23    2    1    2    0    0  0.11224375777E+02 -0.16673228642E+02 -0.16178791354E+03  0.18433690155E+03  0.86027792836E+02 0.  0.
         24    2    1    2    0    0  0.19873388131E+02  0.36129301112E+02  0.56447969378E+02  0.10635299920E+03  0.80151788737E+02 0.  0.
        -11    1    4    4    0    0  0.21814812341E+02 -0.75763072782E+01 -0.11298271641E+02  0.25708703031E+02  0.00000000000E+00 0.  1.
         12    1    4    4    0    0 -0.19414242100E+01  0.43705608390E+02  0.67746241019E+02  0.80644296171E+02  0.00000000000E+00 0. -1.
        -11    1    3    3    0    0  0.24657512201E+02  0.13351160106E+02 -0.11192739731E+02  0.30191452545E+02  0.00000000000E+00 0. -1.
         11    1    3    3    0    0 -0.13433136424E+02 -0.30024388748E+02 -0.15059517381E+03  0.15414544901E+03  0.00000000000E+00 0.  1.
         21    1    1    2  502  501 -0.31097763907E+02 -0.19456072470E+02  0.57461578036E+02  0.68172154333E+02  0.00000000000E+00 0.  1.
<scales pt_clust_5="13000.00000" pt_clust_6="13000.00000" pt_clust_7="13000.00000" pt_clust_8="13000.00000" pt_clust_9="36.68255"></scales>
<clustering>
<clus scale="   36.683">  1  9  2 -1</clus>
<clus scale="   80.152">  5  6 -1 -1</clus>
<clus scale="   82.718">  1  5  2 -1</clus>
<clus scale="   86.028">  7  8 -1 -1</clus>
<clus scale="   36.683">  1  5  2 -1</clus>
</clustering>
</event>
<event>
 9    2  0.2984928E-005  0.1030087E+03  0.7546771E-02  0.1279477E+00
          2   -1    0    0  502    0  0.00000000000E+00  0.00000000000E+00  0.75768471372E+03  0.75768471372E+03  0.00000000000E+00 0. -1.
         -1   -1    0    0    0  501 -0.00000000000E+00 -0.00000000000E+00 -0.36308598034E+02  0.36308598034E+02  0.00000000000E+00 0.  1.
         23    2    1    2    0    0  0.11207562276E+02  0.51507606022E+02  0.64362701925E+02  0.12327628304E+03  0.90971652900E+02 0.  0.
         24    2    1    2    0    0 -0.38862169006E+02 -0.16526059562E+02  0.46239508296E+03  0.47105536351E+03  0.79376091645E+02 0.  0.
        -13    1    4    4    0    0 -0.34859412028E+02  0.26527948119E+02  0.17361702341E+03  0.17905803935E+03  0.00000000000E+00 0.  1.
         14    1    4    4    0    0 -0.40027569783E+01 -0.43054007682E+02  0.28877805955E+03  0.29199732417E+03  0.00000000000E+00 0. -1.
        -11    1    3    3    0    0  0.33222113109E+02  0.68033723882E+02  0.57033825822E+02  0.94790050494E+02  0.00000000000E+00 0.  1.
         11    1    3    3    0    0 -0.22014550833E+02 -0.16526117860E+02  0.73288761025E+01  0.28486232549E+02  0.00000000000E+00 0. -1.
         21    1    1    2  502  501  0.27654606730E+02 -0.34981546460E+02  0.19461833080E+03  0.19966166520E+03  0.00000000000E+00 0. -1.
<scales pt_clust_5="13000.00000" pt_clust_6="13000.00000" pt_clust_7="13000.00000" pt_clust_8="13000.00000" pt_clust_9="44.59244"></scales>
<clustering>
<clus scale="   44.592">  1  9  2 -1</clus>
<clus scale="   79.376">  5  6 -1 -1</clus>
<clus scale="   90.972">  7  8 -1 -1</clus>
<clus scale="   92.927">  1  5  2 -1</clus>
<clus scale="   44.592">  1  5  2 -1</clus>
</clustering>
</event>
<event>
 9    2  0.2984928E-005  0.2347551E+03  0.7546771E-02  0.1124007E+00
         -1   -1    0    0    0  501 -0.00000000000E+00  0.00000000000E+00  0.77937339947E+03  0.77937339947E+03  0.00000000000E+00 0.  1.
          2   -1    0    0  502    0  0.00000000000E+00 -0.00000000000E+00 -0.53405029713E+03  0.53405029713E+03  0.00000000000E+00 0. -1.
         24    2    1    2    0    0 -0.35014728922E+02 -0.21575816372E+03  0.71903262607E+03  0.75584713325E+03  0.80742523092E+02 0.  0.
         23    2    1    2    0    0  0.30894131873E+02  0.18158863178E+03 -0.21825635732E+03  0.29981532410E+03  0.91238766314E+02 0.  0.
        -11    1    3    3    0    0 -0.48720725570E+02 -0.73687361597E+02  0.32372809097E+03  0.33556432057E+03  0.00000000000E+00 0.  1.
         12    1    3    3    0    0  0.13705996648E+02 -0.14207080212E+03  0.39530453510E+03  0.42028281267E+03  0.00000000000E+00 0. -1.
        -11    1    4    4    0    0  0.21450404834E+02  0.33510447233E+01 -0.50058447865E+02  0.54563701954E+02  0.00000000000E+00 0.  1.
         11    1    4    4    0    0  0.94437270395E+01  0.17823758706E+03 -0.16819790945E+03  0.24525162214E+03  0.00000000000E+00 0. -1.
         21    1    1    2  502  501  0.41205970487E+01  0.34169531939E+02 -0.25545316641E+03  0.25776123926E+03  0.00000000000E+00 0. -1.
<scales pt_clust_5="13000.00000" pt_clust_6="13000.00000" pt_clust_7="13000.00000" pt_clust_8="13000.00000" pt_clust_9="34.41709"></scales>
<clustering>
<clus scale="   34.417">  2  9  1 -1</clus>
<clus scale="   80.743">  5  6 -1 -1</clus>
<clus scale="   91.239">  7  8 -1 -1</clus>
<clus scale="  230.878">  1  5  2 -1</clus>
<clus scale="   34.417">  2  5  1 -1</clus>
</clustering>
</event>
<event>
 9    2  0.2984928E-005  0.1032276E+03  0.7546771E-02  0.1280975E+00
          2   -1    0    0  502    0  0.00000000000E+00  0.00000000000E+00  0.11383353872E+03  0.11383353872E+03  0.00000000000E+00 0. -1.
         -1   -1    0    0    0  501 -0.00000000000E+00 -0.00000000000E+00 -0.13303497780E+03  0.13303497780E+03  0.00000000000E+00 0.  1.
         23    2    1    2    0    0 -0.12494317656E+02 -0.65848664160E+02 -0.26101883212E+02  0.11928218099E+03  0.95156585953E+02 0.  0.
         24    2    1    2    0    0  0.82400324880E+01  0.25794382458E+02  0.16060142803E+02  0.86278412506E+02  0.80329247326E+02 0.  0.
        -13    1    4    4    0    0 -0.31781233531E+02  0.30987863968E+02  0.94719475502E+01  0.45387358465E+02  0.00000000000E+00 0.  1.
         14    1    4    4    0    0  0.40021266019E+02 -0.51934815099E+01  0.65881952525E+01  0.40891054041E+02  0.00000000000E+00 0. -1.
        -13    1    3    3    0    0 -0.41339502440E+02 -0.32672451039E+02  0.19270272368E+02  0.56105141619E+02  0.00000000000E+00 0.  1.
         13    1    3    3    0    0  0.28845184784E+02 -0.33176213121E+02 -0.45372155580E+02  0.63177039376E+02  0.00000000000E+00 0. -1.
         21    1    1    2  502  501  0.42542851679E+01  0.40054281703E+02 -0.91596986669E+01  0.41307923025E+02  0.00000000000E+00 0.  1.
<scales pt_clust_5="13000.00000" pt_clust_6="13000.00000" pt_clust_7="13000.00000" pt_clust_8="13000.00000" pt_clust_9="40.27958"></scales>
<clustering>
<clus scale="   40.280">  2  9  1 -1</clus>
<clus scale="   80.329">  5  6 -1 -1</clus>
<clus scale="   89.744">  1  5  2 -1</clus>
<clus scale="   95.157">  7  8 -1 -1</clus>
<clus scale="   89.744">  1  5  2 -1</clus>
</clustering>
</event>
<event>
 9    2  0.2984928E-005  0.9809620E+02  0.7546771E-02  0.1290848E+00
         -1   -1    0    0    0  501 -0.00000000000E+00  0.00000000000E+00  0.39382142751E+02  0.39382142751E+02  0.00000000000E+00 0.  1.
          2   -1    0    0  502    0  0.00000000000E+00 -0.00000000000E+00 -0.70358772420E+03  0.70358772420E+03  0.00000000000E+00 0. -1.
         23    2    1    2    0    0  0.24972084945E+02  0.38690394212E+02 -0.60024202777E+02  0.11861956359E+03  0.91362707476E+02 0.  0.
         24    2    1    2    0    0 -0.32377360777E+02  0.26373889088E+02 -0.29313992758E+03  0.30649029743E+03  0.79129070254E+02 0.  0.
        -13    1    4    4    0    0  0.25873926976E+02  0.40993647072E+01 -0.67974915042E+02  0.72848156895E+02  0.00000000000E+00 0.  1.
         14    1    4    4    0    0 -0.58251287752E+02  0.22274524380E+02 -0.22516501254E+03  0.23364214053E+03  0.00000000000E+00 0. -1.
        -13    1    3    3    0    0  0.11002056577E+01  0.61377969015E+02 -0.15635070325E+02  0.63347619979E+02  0.00000000000E+00 0.  1.
         13    1    3    3    0    0  0.23871879287E+02 -0.22687574803E+02 -0.44389132452E+02  0.55271943615E+02  0.00000000000E+00 0. -1.
         21    1    1    2  502  501  0.74052758321E+01 -0.65064283300E+02 -0.31104145109E+03  0.31786000593E+03  0.00000000000E+00 0. -1.
<scales pt_clust_5="13000.00000" pt_clust_6="13000.00000" pt_clust_7="13000.00000" pt_clust_8="13000.00000" pt_clust_9="65.48434"></scales>
<clustering>
<clus scale="   65.484">  2  9  1 -1</clus>
<clus scale="   79.129">  5  6 -1 -1</clus>
<clus scale="   86.817">  2  5  1 -1</clus>
<clus scale="   91.363">  7  8 -1 -1</clus>
<clus scale="   65.484">  2  5  1 -1</clus>
</clustering>
</event>
<event>
 9    2  0.2984928E-005  0.9836063E+02  0.7546771E-02  0.1288262E+00
         -1   -1    0    0    0  501 -0.00000000000E+00  0.00000000000E+00  0.23943583454E+03  0.23943583454E+03  0.00000000000E+00 0.  1.
          2   -1    0    0  502    0  0.00000000000E+00 -0.00000000000E+00 -0.71950185388E+02  0.71950185388E+02  0.00000000000E+00 0. -1.
         23    2    1    2    0    0 -0.35498859511E+02 -0.21942232989E+02  0.17447009668E+03  0.20129911886E+03  0.91322998202E+02 0.  0.
         24    2    1    2    0    0  0.13215080654E+02  0.17079503844E+02  0.22357449467E+01  0.85485582328E+02  0.82682757708E+02 0.  0.
        -11    1    4    4    0    0  0.96080292212E+01 -0.28102424792E+02 -0.19180872191E+02  0.35354863353E+02  0.00000000000E+00 0.  1.
         12    1    4    4    0    0  0.36070514332E+01  0.45181928636E+02  0.21416617138E+02  0.50130718975E+02  0.00000000000E+00 0. -1.
        -13    1    3    3    0    0 -0.21004475893E+01 -0.51842056912E+02  0.12012847699E+03  0.13085435312E+03  0.00000000000E+00 0.  1.
         13    1    3    3    0    0 -0.33398411922E+02  0.29899823923E+02  0.54341619690E+02  0.70444765739E+02  0.00000000000E+00 0. -1.
         21    1    1    2  502  501  0.22283778857E+02  0.48627291450E+01 -0.92201924736E+01  0.24601318748E+02  0.00000000000E+00 0. -1.
<scales pt_clust_5="13000.00000" pt_clust_6="13000.00000" pt_clust_7="13000.00000" pt_clust_8="13000.00000" pt_clust_9="22.80818"></scales>
<clustering>
<clus scale="   22.808">  2  9  1 -1</clus>
<clus scale="   82.683">  5  6 -1 -1</clus>
<clus scale="   90.396">  2  5  1 -1</clus>
<clus scale="   91.323">  7  8 -1 -1</clus>
<clus scale="   22.808">  2  5  1 -1</clus>
</clustering>
</event>
<event>
 9    2  0.2984928E-005  0.1552437E+03  0.7546771E-02  0.1196267E+00
         -1   -1    0    0    0  501 -0.00000000000E+00  0.00000000000E+00  0.63416637724E+02  0.63416637724E+02  0.00000000000E+00 0.  1.
          2   -1    0    0  502    0  0.00000000000E+00 -0.00000000000E+00 -0.68295850459E+03  0.68295850459E+03  0.00000000000E+00 0. -1.
         23    2    1    2    0    0  0.75437447371E+02  0.86257049378E+02 -0.91486287470E+02  0.17364240555E+03  0.93009984280E+02 0.  0.
         24    2    1    2    0    0 -0.10699882758E+03 -0.10589847698E+03 -0.33432263340E+03  0.37546550491E+03  0.80867086289E+02 0.  0.
        -11    1    4    4    0    0 -0.11025161333E+03 -0.83328658466E+02 -0.31992302606E+03  0.34849652247E+03  0.00000000000E+00 0.  1.
         12    1    4    4    0    0  0.32527857482E+01 -0.22569818514E+02 -0.14399607337E+02  0.26968982449E+02  0.00000000000E+00 0. -1.
        -11    1    3    3    0    0  0.70159219254E+02  0.22415341709E+02 -0.17359769401E+02  0.75671164811E+02  0.00000000000E+00 0. -1.
         11    1    3    3    0    0  0.52782281172E+01  0.63841707669E+02 -0.74126518069E+02  0.97971240735E+02  0.00000000000E+00 0.  1.
         21    1    1    2  502  501  0.31561380214E+02  0.19641427602E+02 -0.19373294599E+03  0.19726723185E+03  0.00000000000E+00 0. -1.
<scales pt_clust_5="13000.00000" pt_clust_6="13000.00000" pt_clust_7="13000.00000" pt_clust_8="13000.00000" pt_clust_9="37.17400"></scales>
<clustering>
<clus scale="   37.174">  2  9  1 -1</clus>
<clus scale="   80.867">  5  6 -1 -1</clus>
<clus scale="   93.010">  7  8 -1 -1</clus>
<clus scale="  148.288">  2  5  1 -1</clus>
<clus scale="   37.174">  2  5  1 -1</clus>
</clustering>
</event>
<event>
 9    2  0.2984928E-005  0.1547151E+03  0.7546771E-02  0.1196288E+00
          2   -1    0    0  502    0  0.00000000000E+00  0.00000000000E+00  0.26940600677E+03  0.26940600677E+03  0.00000000000E+00 0. -1.
         -1   -1    0    0    0  501 -0.00000000000E+00 -0.00000000000E+00 -0.26158376423E+03  0.26158376423E+03  0.00000000000E+00 0.  1.
         23    2    1    2    0    0  0.34277855781E+02  0.11314139375E+03 -0.12399934727E+03  0.19446199612E+03  0.91998279516E+02 0.  0.
         24    2    1    2    0    0 -0.25660363345E+02 -0.13332457903E+03 -0.39221607126E+02  0.16408242888E+03  0.83371526201E+02 0.  0.
        -11    1    4    4    0    0 -0.40905120682E+02 -0.26304343867E+02 -0.26084615104E+02  0.55186543192E+02  0.00000000000E+00 0.  1.
         12    1    4    4    0    0  0.15244757337E+02 -0.10702023516E+03 -0.13136992021E+02  0.10889588569E+03  0.00000000000E+00 0. -1.
        -11    1    3    3    0    0 -0.10869677905E+02  0.76853596197E+02 -0.11041518886E+03  0.13496717778E+03  0.00000000000E+00 0. -1.
         11    1    3    3    0    0  0.45147533686E+02  0.36287797557E+02 -0.13584158403E+02  0.59494818337E+02  0.00000000000E+00 0.  1.
         21    1    1    2  502  501 -0.86174924353E+01  0.20183185273E+02  0.17104319693E+03  0.17244534601E+03  0.00000000000E+00 0. -1.
<scales pt_clust_5="13000.00000" pt_clust_6="13000.00000" pt_clust_7="13000.00000" pt_clust_8="13000.00000" pt_clust_9="21.94589"></scales>
<clustering>
<clus scale="   21.946">  1  9  2 -1</clus>
<clus scale="   83.372">  5  6 -1 -1</clus>
<clus scale="   91.998">  7  8 -1 -1</clus>
<clus scale="  149.746">  1  5  2 -1</clus>
<clus scale="   21.946">  1  5  2 -1</clus>
</clustering>
</event>
<event>
 9    2  0.2984928E-005  0.9369887E+02  0.7546771E-02  0.1299274E+00
         -1   -1    0    0    0  501 -0.00000000000E+00  0.00000000000E+00  0.44616076791E+02  0.44616076791E+02  0.00000000000E+00 0.  1.
          2   -1    0    0  502    0  0.00000000000E+00 -0.00000000000E+00 -0.49378314138E+03  0.49378314138E+03  0.00000000000E+00 0. -1.
         23    2    1    2    0    0  0.12146954058E+02  0.12331037876E+02 -0.33148520028E+02  0.95342488296E+02  0.87702694978E+02 0.  0.
         24    2    1    2    0    0  0.35028505835E+02 -0.18129126114E+02 -0.35496090846E+03  0.36567988082E+03  0.78542136896E+02 0.  0.
        -11    1    4    4    0    0 -0.10635627651E+02 -0.36884462843E+02 -0.14524528872E+03  0.15023240020E+03  0.00000000000E+00 0.  1.
         12    1    4    4    0    0  0.45664133486E+02  0.18755336729E+02 -0.20971561974E+03  0.21544748062E+03  0.00000000000E+00 0. -1.
        -13    1    3    3    0    0 -0.37499912336E+02  0.12930833519E+02 -0.12756265099E+02  0.41667399486E+02  0.00000000000E+00 0.  1.
         13    1    3    3    0    0  0.49646866394E+02 -0.59979564247E+00 -0.20392254930E+02  0.53675088809E+02  0.00000000000E+00 0. -1.
         21    1    1    2  502  501 -0.47175459893E+02  0.57980882376E+01 -0.61057636103E+02  0.77376849056E+02  0.00000000000E+00 0.  1.
<scales pt_clust_5="13000.00000" pt_clust_6="13000.00000" pt_clust_7="13000.00000" pt_clust_8="13000.00000" pt_clust_9="47.53043"></scales>
<clustering>
<clus scale="   47.530">  1  9  2 -1</clus>
<clus scale="   78.542">  5  6 -1 -1</clus>
<clus scale="   85.186">  2  5  1 -1</clus>
<clus scale="   87.703">  7  8 -1 -1</clus>
<clus scale="   85.186">  2  5  1 -1</clus>
</clustering>
</event>
<event>
 9    2  0.2984928E-005  0.9272623E+02  0.7546771E-02  0.1301775E+00
         -1   -1    0    0    0  501 -0.00000000000E+00  0.00000000000E+00  0.59156919310E+02  0.59156919310E+02  0.00000000000E+00 0.  1.
          2   -1    0    0  502    0  0.00000000000E+00 -0.00000000000E+00 -0.25813056148E+03  0.25813056148E+03  0.00000000000E+00 0. -1.
         23    2    1    2    0    0 -0.18630504181E+02 -0.47592369164E-01 -0.12568297512E+02  0.93842935095E+02  0.91112218796E+02 0.  0.
         24    2    1    2    0    0  0.19137174691E+00  0.20858870896E+02 -0.17284832511E+03  0.19251068564E+03  0.82150419802E+02 0.  0.
        -13    1    4    4    0    0 -0.25612097299E+02 -0.21902350444E+02 -0.54812655841E+02  0.64343762117E+02  0.00000000000E+00 0.  1.
         14    1    4    4    0    0  0.25803469046E+02  0.42761221340E+02 -0.11803566927E+03  0.12816692352E+03  0.00000000000E+00 0. -1.
        -11    1    3    3    0    0 -0.29692449805E+02 -0.32084126530E+02  0.18870256810E+02  0.47614276669E+02  0.00000000000E+00 0. -1.
         11    1    3    3    0    0  0.11061945624E+02  0.32036534161E+02 -0.31438554322E+02  0.46228658427E+02  0.00000000000E+00 0.  1.
         21    1    1    2  502  501  0.18439132434E+02 -0.20811278527E+02 -0.13557019547E+02  0.30933860054E+02  0.00000000000E+00 0.  1.
<scales pt_clust_5="13000.00000" pt_clust_6="13000.00000" pt_clust_7="13000.00000" pt_clust_8="13000.00000" pt_clust_9="27.80487"></scales>
<clustering>
<clus scale="   27.805">  1  9  2 -1</clus>
<clus scale="   82.150">  5  6 -1 -1</clus>
<clus scale="   83.937">  2  5  1 -1</clus>
<clus scale="   91.112">  7  8 -1 -1</clus>
<clus scale="   83.937">  2  5  1 -1</clus>
</clustering>
</event>
<event>
 9    2  0.2984928E-005  0.3007413E+03  0.7546771E-02  0.1085102E+00
         -1   -1    0    0    0  501 -0.00000000000E+00  0.00000000000E+00  0.37134416981E+03  0.37134416981E+03  0.00000000000E+00 0.  1.
          2   -1    0    0  502    0  0.00000000000E+00 -0.00000000000E+00 -0.64656179191E+03  0.64656179191E+03  0.00000000000E+00 0. -1.
         24    2    1    2    0    0 -0.20955907340E+03 -0.21151264487E+03  0.24569396953E+03  0.39640694971E+03  0.90112923224E+02 0.  0.
         23    2    1    2    0    0  0.15010873069E+03  0.18435090598E+03 -0.30370288137E+03  0.39466928046E+03  0.83728807593E+02 0.  0.
        -11    1    3    3    0    0 -0.13645284604E+03 -0.98808471474E+02  0.90832387940E+02  0.19139753375E+03  0.00000000000E+00 0.  1.
         12    1    3    3    0    0 -0.73106227358E+02 -0.11270417340E+03  0.15486158159E+03  0.20500941596E+03  0.00000000000E+00 0. -1.
        -11    1    4    4    0    0  0.91378379754E+02  0.47338317787E+02 -0.12851434720E+03  0.16464161702E+03  0.00000000000E+00 0.  1.
         11    1    4    4    0    0  0.58730350932E+02  0.13701258819E+03 -0.17518853416E+03  0.23002766344E+03  0.00000000000E+00 0. -1.
         21    1    1    2  502  501  0.59450342709E+02  0.27161738895E+02 -0.21720871026E+03  0.22682973156E+03  0.00000000000E+00 0.  1.
<scales pt_clust_5="13000.00000" pt_clust_6="13000.00000" pt_clust_7="13000.00000" pt_clust_8="13000.00000" pt_clust_9="65.36133"></scales>
<clustering>
<clus scale="   65.361">  2  9  1 -1</clus>
<clus scale="   83.729">  7  8 -1 -1</clus>
<clus scale="   90.113">  5  6 -1 -1</clus>
<clus scale="  298.890">  2  7  1 -1</clus>
<clus scale="   65.361">  2  5  1 -1</clus>
</clustering>
</event>
<event>
 9    2  0.2984928E-005  0.1131892E+03  0.7546771E-02  0.1263136E+00
          2   -1    0    0  502    0  0.00000000000E+00  0.00000000000E+00  0.35958179953E+03  0.35958179953E+03  0.00000000000E+00 0. -1.
         -1   -1    0    0    0  501 -0.00000000000E+00 -0.00000000000E+00 -0.76656097532E+02  0.76656097532E+02  0.00000000000E+00 0.  1.
         23    2    1    2    0    0 -0.36373612581E+02 -0.44028399078E+02 -0.14848683447E+02  0.11604787536E+03  0.99925403964E+02 0.  0.
         24    2    1    2    0    0  0.31638947112E+02  0.22946994497E+02  0.18408368185E+03  0.20446440328E+03  0.79945623731E+02 0.  0.
        -13    1    4    4    0    0  0.56112870599E+02  0.17961718821E+01  0.10609189598E+03  0.12003070804E+03  0.00000000000E+00 0.  1.
         14    1    4    4    0    0 -0.24473923487E+02  0.21150822615E+02  0.77991785874E+02  0.84433695241E+02  0.00000000000E+00 0. -1.
        -11    1    3    3    0    0 -0.55281823409E+02 -0.55534303934E+02 -0.35271501850E+02  0.85931471276E+02  0.00000000000E+00 0.  1.
         11    1    3    3    0    0  0.18908210828E+02  0.11505904856E+02  0.20422818403E+02  0.30116404081E+02  0.00000000000E+00 0. -1.
         21    1    1    2  502  501  0.47346654691E+01  0.21081404581E+02  0.11369070359E+03  0.11572561843E+03  0.00000000000E+00 0. -1.
<scales pt_clust_5="13000.00000" pt_clust_6="13000.00000" pt_clust_7="13000.00000" pt_clust_8="13000.00000" pt_clust_9="21.60654"></scales>
<clustering>
<clus scale="   21.607">  1  9  2 -1</clus>
<clus scale="   79.946">  5  6 -1 -1</clus>
<clus scale="   96.010">  1  5  2 -1</clus>
<clus scale="   99.925">  7  8 -1 -1</clus>
<clus scale="   21.607">  1  5  2 -1</clus>
</clustering>
</event>
<event>
 9    2  0.2984928E-005  0.3759835E+03  0.7546771E-02  0.1052677E+00
         -1   -1    0    0    0  501 -0.00000000000E+00  0.00000000000E+00  0.55865483223E+03  0.55865483223E+03  0.00000000000E+00 0.  1.
          2   -1    0    0  502    0  0.00000000000E+00 -0.00000000000E+00 -0.38456438781E+03  0.38456438781E+03  0.00000000000E+00 0. -1.
         24    2    1    2    0    0  0.12534355318E+03 -0.34508791090E+03  0.21679868638E+03  0.43377981580E+03  0.79790886728E+02 0.  0.
         23    2    1    2    0    0 -0.22550624531E+03  0.29500417950E+03  0.16516036204E+02  0.38275688702E+03  0.91375721687E+02 0.  0.
        -13    1    3    3    0    0  0.28167601457E+02 -0.59404531900E+02  0.76889679228E+02  0.10116488993E+03  0.00000000000E+00 0.  1.
         14    1    3    3    0    0  0.97175951726E+02 -0.28568337900E+03  0.13990900715E+03  0.33261492587E+03  0.00000000000E+00 0. -1.
        -13    1    4    4    0    0 -0.16016944005E+03  0.23076694523E+03 -0.25295825693E+02  0.28204168368E+03  0.00000000000E+00 0. -1.
         13    1    4    4    0    0 -0.65336805259E+02  0.64237234267E+02  0.41811861897E+02  0.10071520334E+03  0.00000000000E+00 0.  1.
         21    1    1    2  502  501  0.10016269212E+03  0.50083731405E+02 -0.59224278171E+02  0.12668251722E+03  0.00000000000E+00 0.  1.
<scales pt_clust_5="13000.00000" pt_clust_6="13000.00000" pt_clust_7="13000.00000" pt_clust_8="13000.00000" pt_clust_9="111.98636"></scales>
<clustering>
<clus scale="   79.791">  5  6 -1 -1</clus>
<clus scale="   91.376">  7  8 -1 -1</clus>
<clus scale="  111.986">  2  9  1 -1</clus>
<clus scale="  373.337">  1  5  2 -1</clus>
<clus scale="  111.986">  2  5  1 -1</clus>
</clustering>
</event>
<event>
 9    2  0.2984928E-005  0.1185998E+03  0.7546771E-02  0.1250794E+00
         -1   -1    0    0    0  501 -0.00000000000E+00  0.00000000000E+00  0.49104629418E+02  0.49104629418E+02  0.00000000000E+00 0.  1.
          2   -1    0    0  502    0  0.00000000000E+00 -0.00000000000E+00 -0.56487537521E+03  0.56487537521E+03  0.00000000000E+00 0. -1.
         24    2    1    2    0    0  0.77632708045E+02  0.99526865690E+01 -0.43229301900E+02  0.11831811148E+03  0.77488771017E+02 0.  0.
         23    2    1    2    0    0 -0.47314696766E+02 -0.33057631292E+02 -0.31568504883E+03  0.33424024358E+03  0.93423780982E+02 0.  0.
        -13    1    3    3    0    0  0.78146908008E+02 -0.82550868674E+01 -0.84206385553E+01  0.79031593961E+02  0.00000000000E+00 0.  1.
         14    1    3    3    0    0 -0.51419996298E+00  0.18207773436E+02 -0.34808663345E+02  0.39286517522E+02  0.00000000000E+00 0. -1.
        -13    1    4    4    0    0 -0.53842928261E+02  0.16561029871E+02 -0.20801125709E+03  0.21550408745E+03  0.00000000000E+00 0. -1.
         13    1    4    4    0    0  0.65282314951E+01 -0.49618661163E+02 -0.10767379174E+03  0.11873615612E+03  0.00000000000E+00 0.  1.
         21    1    1    2  502  501 -0.30318011279E+02  0.23104944723E+02 -0.15685639506E+03  0.16142164957E+03  0.00000000000E+00 0. -1.
<scales pt_clust_5="13000.00000" pt_clust_6="13000.00000" pt_clust_7="13000.00000" pt_clust_8="13000.00000" pt_clust_9="38.11850"></scales>
<clustering>
<clus scale="   38.119">  2  9  1 -1</clus>
<clus scale="   77.489">  5  6 -1 -1</clus>
<clus scale="   93.424">  7  8 -1 -1</clus>
<clus scale="  106.501">  1  5  2 -1</clus>
<clus scale="   38.119">  2  5  1 -1</clus>
</clustering>
</event>
<event>
 9    2  0.2984928E-005  0.1136399E+03  0.7546771E-02  0.1257360E+00
         -1   -1    0    0    0  501 -0.00000000000E+00  0.00000000000E+00  0.14423214315E+03  0.14423214315E+03  0.00000000000E+00 0.  1.
          2   -1    0    0  502    0  0.00000000000E+00 -0.00000000000E+00 -0.51217087013E+03  0.51217087013E+03  0.00000000000E+00 0. -1.
         23    2    1    2    0    0 -0.67766675362E+02  0.14411051779E+02  0.11063021323E+03  0.15870367075E+03  0.90265222146E+02 0.  0.
         24    2    1    2    0    0  0.67445942109E+02  0.81238191038E+01 -0.44441727635E+03  0.45678162730E+03  0.80794727382E+02 0.  0.
        -11    1    4    4    0    0  0.36313160677E+02  0.13133940718E+02 -0.61835374799E+02  0.72902397860E+02  0.00000000000E+00 0.  1.
         12    1    4    4    0    0  0.31132781432E+02 -0.50101216137E+01 -0.38258190155E+03  0.38387922944E+03  0.00000000000E+00 0. -1.
        -11    1    3    3    0    0  0.18128442303E+02 -0.91738219151E+01  0.40588414275E+02  0.45389633202E+02  0.00000000000E+00 0. -1.
         11    1    3    3    0    0 -0.85895117665E+02  0.23584873694E+02  0.70041798954E+02  0.11331403755E+03  0.00000000000E+00 0.  1.
         21    1    1    2  502  501  0.32073325353E+00 -0.22534870883E+02 -0.34151663852E+02  0.40917715227E+02  0.00000000000E+00 0. -1.
<scales pt_clust_5="13000.00000" pt_clust_6="13000.00000" pt_clust_7="13000.00000" pt_clust_8="13000.00000" pt_clust_9="22.53715"></scales>
<clustering>
<clus scale="   22.537">  2  9  1 -1</clus>
<clus scale="   80.795">  5  6 -1 -1</clus>
<clus scale="   90.265">  7  8 -1 -1</clus>
<clus scale="  106.273">  2  5  1 -1</clus>
<clus scale="   22.537">  2  5  1 -1</clus>
</clustering>
</event>
<event>
 9    2  0.2984928E-005  0.9602521E+02  0.7546771E-02  0.1299399E+00
         -1   -1    0    0    0  501 -0.00000000000E+00  0.00000000000E+00  0.68309122230E+02  0.68309122230E+02  0.00000000000E+00 0.  1.
          2   -1    0    0  502    0  0.00000000000E+00 -0.00000000000E+00 -0.30020057259E+03  0.30020057259E+03  0.00000000000E+00 0. -1.
         24    2    1    2    0    0  0.14078715235E+02  0.16570743290E+02  0.26752022090E+02  0.83936616770E+02  0.76530289382E+02 0.  0.
         23    2    1    2    0    0 -0.99738763300E+01  0.38887186246E+01 -0.18197748874E+03  0.20511798166E+03  0.94037118472E+02 0.  0.
        -13    1    3    3    0    0  0.14317822487E+02  0.41138081642E+02  0.37158875617E+02  0.57254902314E+02  0.00000000000E+00 0.  1.
         14    1    3    3    0    0 -0.23910725263E+00 -0.24567338351E+02 -0.10406853526E+02  0.26681714455E+02  0.00000000000E+00 0. -1.
        -13    1    4    4    0    0  0.32946184514E+02  0.24898596852E+02 -0.50558416830E+02  0.65280507899E+02  0.00000000000E+00 0.  1.
         13    1    4    4    0    0 -0.42920060844E+02 -0.21009878227E+02 -0.13141907191E+03  0.13983747376E+03  0.00000000000E+00 0. -1.
         21    1    1    2  502  501 -0.41048389049E+01 -0.20459461915E+02 -0.76665983709E+02  0.79455096390E+02  0.00000000000E+00 0. -1.
<scales pt_clust_5="13000.00000" pt_clust_6="13000.00000" pt_clust_7="13000.00000" pt_clust_8="13000.00000" pt_clust_9="20.86718"></scales>
<clustering>
<clus scale="   20.867">  2  9  1 -1</clus>
<clus scale="   76.530">  5  6 -1 -1</clus>
<clus scale="   78.960">  1  5  2 -1</clus>
<clus scale="   94.037">  7  8 -1 -1</clus>
<clus scale="   20.867">  2  5  1 -1</clus>
</clustering>
</event>
<event>
 9    2  0.2984928E-005  0.2932898E+03  0.7546771E-02  0.1089066E+00
          2   -1    0    0  502    0  0.00000000000E+00  0.00000000000E+00  0.66244489195E+03  0.66244489195E+03  0.00000000000E+00 0. -1.
         -1   -1    0    0    0  501 -0.00000000000E+00 -0.00000000000E+00 -0.32966989138E+03  0.32966989138E+03  0.00000000000E+00 0.  1.
         24    2    1    2    0    0 -0.26959538161E+03 -0.23233485529E+02 -0.18123312658E+03  0.33522259083E+03  0.79418351760E+02 0.  0.
         23    2    1    2    0    0  0.32758623438E+03  0.73805619388E+01  0.37917484277E+03  0.50926337158E+03  0.90600257149E+02 0.  0.
        -11    1    3    3    0    0 -0.94577695801E+02 -0.46602886224E+02 -0.68253015049E+02  0.12559953667E+03  0.00000000000E+00 0.  1.
         12    1    3    3    0    0 -0.17501768581E+03  0.23369400695E+02 -0.11298011153E+03  0.20962305416E+03  0.00000000000E+00 0. -1.
        -11    1    4    4    0    0  0.22152679680E+02  0.23205208107E+02  0.21322752652E+02  0.38521197813E+02  0.00000000000E+00 0.  1.
         11    1    4    4    0    0  0.30543355470E+03 -0.15824646168E+02  0.35785209012E+03  0.47074217377E+03  0.00000000000E+00 0. -1.
         21    1    1    2  502  501 -0.57990852773E+02  0.15852923591E+02  0.13483328438E+03  0.14762882093E+03  0.00000000000E+00 0. -1.
<scales pt_clust_5="13000.00000" pt_clust_6="13000.00000" pt_clust_7="13000.00000" pt_clust_8="13000.00000" pt_clust_9="60.11867"></scales>
<clustering>
<clus scale="   60.119">  1  9  2 -1</clus>
<clus scale="   79.418">  5  6 -1 -1</clus>
<clus scale="   90.600">  7  8 -1 -1</clus>
<clus scale="  290.031">  2  5  1 -1</clus>
<clus scale="   60.119">  1  5  2 -1</clus>
</clustering>
</event>
<event>
 9    2  0.2984928E-005  0.9916912E+02  0.7546771E-02  0.1288330E+00
          2   -1    0    0  502    0  0.00000000000E+00  0.00000000000E+00  0.52752506731E+03  0.52752506731E+03  0.00000000000E+00 0. -1.
         -1   -1    0    0    0  501 -0.00000000000E+00 -0.00000000000E+00 -0.55853741141E+03  0.55853741141E+03  0.00000000000E+00 0.  1.
         24    2    1    2    0    0  0.30898738321E+02 -0.18201627178E+02 -0.53685971944E+03  0.54411206665E+03  0.80954008263E+02 0.  0.
         23    2    1    2    0    0  0.50101643781E+02 -0.15239404981E+02  0.26446998862E+03  0.28515787449E+03  0.92888235677E+02 0.  0.
        -11    1    3    3    0    0  0.26418937945E+02 -0.49886082115E+02 -0.33056013997E+03  0.33534547501E+03  0.00000000000E+00 0.  1.
         12    1    3    3    0    0  0.44798003765E+01  0.31684454937E+02 -0.20629957948E+03  0.20876659165E+03  0.00000000000E+00 0. -1.
        -13    1    4    4    0    0  0.44427890237E+02  0.34693827985E+02  0.14170131550E+03  0.15250167850E+03  0.00000000000E+00 0.  1.
         13    1    4    4    0    0  0.56737535448E+01 -0.49933232966E+02  0.12276867312E+03  0.13265619599E+03  0.00000000000E+00 0. -1.
         21    1    1    2  502  501 -0.81000382102E+02  0.33441032159E+02  0.24137738672E+03  0.25679253758E+03  0.00000000000E+00 0. -1.
<scales pt_clust_5="13000.00000" pt_clust_6="13000.00000" pt_clust_7="13000.00000" pt_clust_8="13000.00000" pt_clust_9="87.63198"></scales>
<clustering>
<clus scale="   80.954">  5  6 -1 -1</clus>
<clus scale="   87.632">  1  9  2 -1</clus>
<clus scale="   88.090">  2  5  1 -1</clus>
<clus scale="   92.888">  7  8 -1 -1</clus>
<clus scale="   87.632">  1  5  2 -1</clus>
</clustering>
</event>
<event>
 9    2  0.2984928E-005  0.1522518E+03  0.7546771E-02  0.1219980E+00
         -1   -1    0    0    0  501 -0.00000000000E+00  0.00000000000E+00  0.22052549601E+03  0.22052549601E+03  0.00000000000E+00 0.  1.
          2   -1    0    0  502    0  0.00000000000E+00 -0.00000000000E+00 -0.24298405207E+03  0.24298405207E+03  0.00000000000E+00 0. -1.
         24    2    1    2    0    0  0.84945950482E+00 -0.51882522526E+02  0.10662333368E+03  0.14253131867E+03  0.79083018356E+02 0.  0.
         23    2    1    2    0    0  0.24527839623E+02 -0.81828237293E+02  0.10640126616E+02  0.12592742460E+03  0.91907718046E+02 0.  0.
        -11    1    3    3    0    0  0.10525098097E+02 -0.71614849044E+02  0.85817936560E+02  0.11226835052E+03  0.00000000000E+00 0.  1.
         12    1    3    3    0    0 -0.96756385917E+01  0.19732326517E+02  0.20805397119E+02  0.30262968150E+02  0.00000000000E+00 0. -1.
        -11    1    4    4    0    0  0.36941858517E+02 -0.22251040424E+01  0.24214422824E+02  0.44226578789E+02  0.00000000000E+00 0.  1.
         11    1    4    4    0    0 -0.12414018894E+02 -0.79603133251E+02 -0.13574296208E+02  0.81700845809E+02  0.00000000000E+00 0. -1.
         21    1    1    2  502  501 -0.25377299128E+02  0.13371075982E+03 -0.13972201636E+03  0.19505080481E+03  0.00000000000E+00 0. -1.
<scales pt_clust_5="13000.00000" pt_clust_6="13000.00000" pt_clust_7="13000.00000" pt_clust_8="13000.00000" pt_clust_9="121.38201"></scales>
<clustering>
<clus scale="   79.083">  5  6 -1 -1</clus>
<clus scale="   91.908">  7  8 -1 -1</clus>
<clus scale="   94.587">  1  5  2 -1</clus>
<clus scale="  121.382">  2  9  1 -1</clus>
<clus scale="  121.382">  2  5  1 -1</clus>
</clustering>
</event>
<event>
 9    2  0.2984928E-005  0.1458963E+03  0.7546771E-02  0.1211371E+00
          2   -1    0    0  502    0  0.00000000000E+00  0.00000000000E+00  0.31163453221E+03  0.31163453221E+03  0.00000000000E+00 0. -1.
         -1   -1    0    0    0  501 -0.00000000000E+00 -0.00000000000E+00 -0.35181971905E+03  0.35181971905E+03  0.00000000000E+00 0.  1.
         23    2    1    2    0    0  0.73431257249E+02 -0.66697244553E+02 -0.31489180916E+03  0.34698399682E+03  0.10677251800E+03 0.  0.
         24    2    1    2    0    0 -0.61832237791E+02  0.84406828695E+02  0.21188741114E+03  0.25017983344E+03  0.82133645358E+02 0.  0.
        -13    1    4    4    0    0  0.84148343047E+01  0.35938171579E+02  0.24581524777E+02  0.44346510271E+02  0.00000000000E+00 0.  1.
         14    1    4    4    0    0 -0.70247072096E+02  0.48468657116E+02  0.18730588636E+03  0.20583332317E+03  0.00000000000E+00 0. -1.
        -13    1    3    3    0    0  0.54192092000E+02 -0.17913171478E+02 -0.46795648121E+02  0.73807162463E+02  0.00000000000E+00 0. -1.
         13    1    3    3    0    0  0.19239165249E+02 -0.48784073074E+02 -0.26809616104E+03  0.27317683435E+03  0.00000000000E+00 0.  1.
         21    1    1    2  502  501 -0.11599019458E+02 -0.17709584142E+02  0.62819211182E+02  0.66290421001E+02  0.00000000000E+00 0. -1.
<scales pt_clust_5="13000.00000" pt_clust_6="13000.00000" pt_clust_7="13000.00000" pt_clust_8="13000.00000" pt_clust_9="21.16995"></scales>
<clustering>
<clus scale="   21.170">  1  9  2 -1</clus>
<clus scale="   82.134">  5  6 -1 -1</clus>
<clus scale="  106.773">  7  8 -1 -1</clus>
<clus scale="  128.962">  1  5  2 -1</clus>
<clus scale="   21.170">  1  5  2 -1</clus>
</clustering>
</event>
<event>
 9    2  0.2984928E-005  0.1328718E+03  0.7546771E-02  0.1241046E+00
         -1   -1    0    0    0  501 -0.00000000000E+00  0.00000000000E+00  0.98601246385E+03  0.98601246385E+03  0.00000000000E+00 0.  1.
          2   -1    0    0  502    0  0.00000000000E+00 -0.00000000000E+00 -0.15205124292E+03  0.15205124292E+03  0.00000000000E+00 0. -1.
         23    2    1    2    0    0  0.13185368954E+02 -0.15806914203E+02  0.11562767992E+03  0.14785122311E+03  0.89813759073E+02 0.  0.
         24    2    1    2    0    0 -0.10812375669E+03  0.71706321193E+02  0.82410520775E+03  0.83748499219E+03  0.73479081580E+02 0.  0.
        -11    1    4    4    0    0 -0.76489102295E+02  0.59734999650E+02  0.38372308210E+03  0.39580583206E+03  0.00000000000E+00 0.  1.
         12    1    4    4    0    0 -0.31634654400E+02  0.11971321543E+02  0.44038212565E+03  0.44167916013E+03  0.00000000000E+00 0. -1.
        -11    1    3    3    0    0  0.23444818283E+02  0.33631134811E+02  0.43149601616E+02  0.59519751785E+02  0.00000000000E+00 0. -1.
         11    1    3    3    0    0 -0.10259449329E+02 -0.49438049014E+02  0.72478078305E+02  0.88331471320E+02  0.00000000000E+00 0.  1.
         21    1    1    2  502  501  0.94938387741E+02 -0.55899406990E+02 -0.10577166674E+03  0.15272749148E+03  0.00000000000E+00 0. -1.
<scales pt_clust_5="13000.00000" pt_clust_6="13000.00000" pt_clust_7="13000.00000" pt_clust_8="13000.00000" pt_clust_9="110.70562"></scales>
<clustering>
<clus scale="   73.479">  5  6 -1 -1</clus>
<clus scale="   89.814">  7  8 -1 -1</clus>
<clus scale="   92.142">  1  7  2 -1</clus>
<clus scale="  110.706">  2  9  1 -1</clus>
<clus scale="  110.706">  2  5  1 -1</clus>
</clustering>
</event>
<event>
 9    2  0.2984928E-005  0.9997185E+02  0.7546771E-02  0.1287339E+00
          2   -1    0    0  502    0  0.00000000000E+00  0.00000000000E+00  0.64336253377E+03  0.64336253377E+03  0.00000000000E+00 0. -1.
         -1   -1    0    0    0  501 -0.00000000000E+00 -0.00000000000E+00 -0.19663074297E+02  0.19663074297E+02  0.00000000000E+00 0.  1.
         23    2    1    2    0    0  0.45281469575E+02 -0.13029404609E+01  0.18559162822E+03  0.21238241358E+03  0.92789697656E+02 0.  0.
         24    2    1    2    0    0 -0.24187947870E+02 -0.76849580099E+00  0.31532781320E+03  0.32604720603E+03  0.79306389256E+02 0.  0.
        -13    1    4    4    0    0  0.21414980401E+02 -0.23497583162E+02  0.13148962773E+03  0.13527845357E+03  0.00000000000E+00 0.  1.
         14    1    4    4    0    0 -0.45602928271E+02  0.22729087361E+02  0.18383818547E+03  0.19076875246E+03  0.00000000000E+00 0. -1.
        -13    1    3    3    0    0  0.18058916783E+02  0.40697564613E+02  0.13080621986E+03  0.13817627652E+03  0.00000000000E+00 0. -1.
         13    1    3    3    0    0  0.27222552792E+02 -0.42000505074E+02  0.54785408368E+02  0.74206137058E+02  0.00000000000E+00 0.  1.
         21    1    1    2  502  501 -0.21093521705E+02  0.20714362619E+01  0.12278001805E+03  0.12459598846E+03  0.00000000000E+00 0. -1.
<scales pt_clust_5="13000.00000" pt_clust_6="13000.00000" pt_clust_7="13000.00000" pt_clust_8="13000.00000" pt_clust_9="21.19499"></scales>
<clustering>
<clus scale="   21.195">  1  9  2 -1</clus>
<clus scale="   79.306">  5  6 -1 -1</clus>
<clus scale="   87.601">  1  5  2 -1</clus>
<clus scale="   92.790">  7  8 -1 -1</clus>
<clus scale="   21.195">  1  5  2 -1</clus>
</clustering>
</event>
<event>
 9    2  0.2984928E-005  0.1106957E+03  0.7546771E-02  0.1266379E+00
         -1   -1    0    0    0  501 -0.00000000000E+00  0.00000000000E+00  0.12190655651E+03  0.12190655651E+03  0.00000000000E+00 0.  1.
          2   -1    0    0  502    0  0.00000000000E+00 -0.00000000000E+00 -0.22859846746E+03  0.22859846746E+03  0.00000000000E+00 0. -1.
         23    2    1    2    0    0 -0.16580517431E+01 -0.49853812573E+02  0.71817741761E+02  0.13340875771E+03  0.10075691956E+03 0.  0.
         24    2    1    2    0    0 -0.45734505546E+00  0.22821190938E+02 -0.16479190825E+03  0.18670853767E+03  0.84750746868E+02 0.  0.
        -13    1    4    4    0    0  0.12313702734E+02 -0.20452307212E+02 -0.10726028142E+02  0.26171966396E+02  0.00000000000E+00 0.  1.
         14    1    4    4    0    0 -0.12771047789E+02  0.43273498151E+02 -0.15406588011E+03  0.16053657127E+03  0.00000000000E+00 0. -1.
        -11    1    3    3    0    0  0.42746495435E+02 -0.25808629561E+01  0.10363556815E+02  0.44060492910E+02  0.00000000000E+00 0. -1.
         11    1    3    3    0    0 -0.44404547178E+02 -0.47272949616E+02  0.61454184945E+02  0.89348264800E+02  0.00000000000E+00 0.  1.
         21    1    1    2  502  501  0.21153967986E+01  0.27032621634E+02 -0.13717744462E+02  0.30387728595E+02  0.00000000000E+00 0.  1.
<scales pt_clust_5="13000.00000" pt_clust_6="13000.00000" pt_clust_7="13000.00000" pt_clust_8="13000.00000" pt_clust_9="27.11526"></scales>
<clustering>
<clus scale="   27.115">  2  9  1 -1</clus>
<clus scale="   84.751">  5  6 -1 -1</clus>
<clus scale="   96.355">  2  5  1 -1</clus>
<clus scale="  100.757">  7  8 -1 -1</clus>
<clus scale="   27.115">  2  5  1 -1</clus>
</clustering>
</event>
<event>
 9    2  0.2984928E-005  0.2380269E+03  0.7546771E-02  0.1122047E+00
          2   -1    0    0  502    0  0.00000000000E+00  0.00000000000E+00  0.20470299352E+03  0.20470299352E+03  0.00000000000E+00 0. -1.
         -1   -1    0    0    0  501 -0.00000000000E+00 -0.00000000000E+00 -0.59397521988E+03  0.59397521988E+03  0.00000000000E+00 0.  1.
         23    2    1    2    0    0  0.20369084412E+03 -0.83610774423E+02 -0.45471312024E+03  0.51332944170E+03  0.90897593020E+02 0.  0.
         24    2    1    2    0    0 -0.21571347380E+03  0.50088333627E+02  0.31324597719E+02  0.23603123603E+03  0.75421283555E+02 0.  0.
        -11    1    4    4    0    0 -0.82805584818E+02 -0.95525471651E+01 -0.11610993301E+02  0.84159557983E+02  0.00000000000E+00 0.  1.
         12    1    4    4    0    0 -0.13290788898E+03  0.59640880792E+02  0.42935591020E+02  0.15187167804E+03  0.00000000000E+00 0. -1.
        -13    1    3    3    0    0  0.12442714062E+03 -0.70290943299E+02 -0.36958651828E+03  0.39625386374E+03  0.00000000000E+00 0.  1.
         13    1    3    3    0    0  0.79263703498E+02 -0.13319831123E+02 -0.85126601965E+02  0.11707557796E+03  0.00000000000E+00 0. -1.
         21    1    1    2  502  501  0.12022629681E+02  0.33522440795E+02  0.34116296162E+02  0.49317535676E+02  0.00000000000E+00 0. -1.
<scales pt_clust_5="13000.00000" pt_clust_6="13000.00000" pt_clust_7="13000.00000" pt_clust_8="13000.00000" pt_clust_9="35.61317"></scales>
<clustering>
<clus scale="   35.613">  1  9  2 -1</clus>
<clus scale="   75.421">  5  6 -1 -1</clus>
<clus scale="   90.898">  7  8 -1 -1</clus>
<clus scale="  232.557">  1  5  2 -1</clus>
<clus scale="   35.613">  1  5  2 -1</clus>
</clustering>
</event>
<event>
 9    2  0.2984928E-005  0.1933257E+03  0.7546771E-02  0.1156737E+00
          2   -1    0    0  502    0  0.00000000000E+00  0.00000000000E+00  0.70780179975E+03  0.70780179975E+03  0.00000000000E+00 0. -1.
         -1   -1    0    0    0  501 -0.00000000000E+00 -0.00000000000E+00 -0.11775698318E+03  0.11775698318E+03  0.00000000000E+00 0.  1.
         23    2    1    2    0    0 -0.16941417729E+03  0.35558486992E+01  0.44713144093E+01  0.19381725746E+03  0.93975151551E+02 0.  0.
         24    2    1    2    0    0  0.16681113543E+03  0.32667989056E+02  0.39530098304E+03  0.43803408168E+03  0.81962412755E+02 0.  0.
        -13    1    4    4    0    0  0.79543701265E+02  0.11847392396E+02  0.94242661523E+02  0.12389205127E+03  0.00000000000E+00 0.  1.
         14    1    4    4    0    0  0.87267434162E+02  0.20820596661E+02  0.30105832152E+03  0.31414203041E+03  0.00000000000E+00 0. -1.
        -11    1    3    3    0    0 -0.45973454902E+02 -0.37472391879E+02 -0.17623947334E+02  0.61873598799E+02  0.00000000000E+00 0.  1.
         11    1    3    3    0    0 -0.12344072239E+03  0.41028240578E+02  0.22095261743E+02  0.13194365866E+03  0.00000000000E+00 0. -1.
         21    1    1    2  502  501  0.26030418650E+01 -0.36223837756E+02  0.19027251912E+03  0.19370744379E+03  0.00000000000E+00 0.  1.
<scales pt_clust_5="13000.00000" pt_clust_6="13000.00000" pt_clust_7="13000.00000" pt_clust_8="13000.00000" pt_clust_9="36.31724"></scales>
<clustering>
<clus scale="   36.317">  1  9  2 -1</clus>
<clus scale="   81.962">  5  6 -1 -1</clus>
<clus scale="   93.975">  7  8 -1 -1</clus>
<clus scale="  187.780">  1  5  2 -1</clus>
<clus scale="   36.317">  1  5  2 -1</clus>
</clustering>
</event>
<event>
 9    2  0.2984928E-005  0.8702131E+02  0.7546771E-02  0.1313390E+00
          2   -1    0    0  502    0  0.00000000000E+00  0.00000000000E+00  0.35115131255E+03  0.35115131255E+03  0.00000000000E+00 0. -1.
         -1   -1    0    0    0  501 -0.00000000000E+00 -0.00000000000E+00 -0.68443461266E+02  0.68443461266E+02  0.00000000000E+00 0.  1.
         24    2    1    2    0    0  0.48098300834E+01  0.71492186673E-01  0.75471812844E+01  0.81645453594E+02  0.81153438440E+02 0.  0.
         23    2    1    2    0    0  0.63144596971E+02  0.43140603831E+02  0.14927567782E+03  0.18850996579E+03  0.86048982484E+02 0.  0.
        -13    1    3    3    0    0 -0.17658360072E+02 -0.10685579264E+02  0.37428806520E+02  0.42742424383E+02  0.00000000000E+00 0.  1.
         14    1    3    3    0    0  0.22468190155E+02  0.10757071451E+02 -0.29881625236E+02  0.38903029211E+02  0.00000000000E+00 0. -1.
        -13    1    4    4    0    0  0.22750297271E+02 -0.14761311163E+02  0.45720481455E+01  0.27502290039E+02  0.00000000000E+00 0.  1.
         13    1    4    4    0    0  0.40394299701E+02  0.57901914994E+02  0.14470362968E+03  0.16100767575E+03  0.00000000000E+00 0. -1.
         21    1    1    2  502  501 -0.67954427055E+02 -0.43212096017E+02  0.12588499218E+03  0.14943935444E+03  0.00000000000E+00 0.  1.
<scales pt_clust_5="13000.00000" pt_clust_6="13000.00000" pt_clust_7="13000.00000" pt_clust_8="13000.00000" pt_clust_9="80.53005"></scales>
<clustering>
<clus scale="   80.530">  1  9  2 -1</clus>
<clus scale="   81.153">  5  6 -1 -1</clus>
<clus scale="   82.184">  2  5  1 -1</clus>
<clus scale="   86.049">  7  8 -1 -1</clus>
<clus scale="   80.530">  1  5  2 -1</clus>
</clustering>
</event>
<event>
 9    2  0.2984928E-005  0.4926908E+03  0.7546771E-02  0.1015836E+00
          2   -1    0    0  502    0  0.00000000000E+00  0.00000000000E+00  0.13858101940E+04  0.13858101940E+04  0.00000000000E+00 0. -1.
         -1   -1    0    0    0  501 -0.00000000000E+00 -0.00000000000E+00 -0.37043736804E+03  0.37043736804E+03  0.00000000000E+00 0.  1.
         23    2    1    2    0    0 -0.40445150268E+03 -0.28822888363E+03 -0.10389874595E+03  0.51574538159E+03  0.92419921221E+02 0.  0.
         24    2    1    2    0    0  0.33854657355E+03  0.26861965094E+03  0.79010304779E+03  0.90422863264E+03  0.81217575826E+02 0.  0.
        -11    1    4    4    0    0  0.16206502555E+03  0.94861238726E+02  0.27941467836E+03  0.33665455530E+03  0.00000000000E+00 0.  1.
         12    1    4    4    0    0  0.17648154800E+03  0.17375841221E+03  0.51068836943E+03  0.56757407734E+03  0.00000000000E+00 0. -1.
        -11    1    3    3    0    0 -0.12376115482E+03 -0.61116848930E+02  0.64963498454E+01  0.13818210892E+03  0.00000000000E+00 0. -1.
         11    1    3    3    0    0 -0.28069034787E+03 -0.22711203470E+03 -0.11039509580E+03  0.37756327267E+03  0.00000000000E+00 0.  1.
         21    1    1    2  502  501  0.65904929131E+02  0.19609232689E+02  0.32916852414E+03  0.33627354784E+03  0.00000000000E+00 0. -1.
<scales pt_clust_5="13000.00000" pt_clust_6="13000.00000" pt_clust_7="13000.00000" pt_clust_8="13000.00000" pt_clust_9="68.76032"></scales>
<clustering>
<clus scale="   68.760">  1  9  2 -1</clus>
<clus scale="   81.218">  5  6 -1 -1</clus>
<clus scale="   92.420">  7  8 -1 -1</clus>
<clus scale="  490.713">  1  5  2 -1</clus>
<clus scale="   68.760">  1  5  2 -1</clus>
</clustering>
</event>
<event>
 9    2  0.2984928E-005  0.9603757E+02  0.7546771E-02  0.1295369E+00
         -3   -1    0    0    0  501 -0.00000000000E+00  0.00000000000E+00  0.18544114340E+03  0.18544114340E+03  0.00000000000E+00 0.  1.
          4   -1    0    0  502    0  0.00000000000E+00 -0.00000000000E+00 -0.10248994082E+03  0.10248994082E+03  0.00000000000E+00 0. -1.
         24    2    1    2    0    0 -0.19335560018E+02  0.23106395195E+02  0.13151537687E+03  0.15624300619E+03  0.78789677307E+02 0.  0.
         23    2    1    2    0    0  0.40036170622E+02 -0.22641289381E+02 -0.42679996992E+02  0.11016239232E+03  0.90546383663E+02 0.  0.
        -11    1    3    3    0    0  0.29825612698E+01  0.27802877587E+02  0.13044780685E+03  0.13341111643E+03  0.00000000000E+00 0.  1.
         12    1    3    3    0    0 -0.22318121288E+02 -0.46964823921E+01  0.10675700247E+01  0.22831889770E+02  0.00000000000E+00 0. -1.
        -11    1    4    4    0    0  0.35954424599E+02  0.30693913568E+02 -0.26902863262E+02  0.54393023726E+02  0.00000000000E+00 0. -1.
         11    1    4    4    0    0  0.40817460234E+01 -0.53335202948E+02 -0.15777133730E+02  0.55769368589E+02  0.00000000000E+00 0.  1.
         21    1    1    2  502  501 -0.20700610604E+02 -0.46510581478E+00 -0.58841772962E+01  0.21525685709E+02  0.00000000000E+00 0.  1.
<scales pt_clust_5="13000.00000" pt_clust_6="13000.00000" pt_clust_7="13000.00000" pt_clust_8="13000.00000" pt_clust_9="20.70583"></scales>
<clustering>
<clus scale="   20.706">  2  9  1 -1</clus>
<clus scale="   78.790">  5  6 -1 -1</clus>
<clus scale="   85.043">  1  5  2 -1</clus>
<clus scale="   90.546">  7  8 -1 -1</clus>
<clus scale="   20.706">  2  5  1 -1</clus>
</clustering>
</event>
<event>
 9    2  0.2984928E-005  0.1326766E+03  0.7546771E-02  0.1230984E+00
         -1   -1    0    0    0  501 -0.00000000000E+00  0.00000000000E+00  0.11684902573E+03  0.11684902573E+03  0.00000000000E+00 0.  1.
          2   -1    0    0  502    0  0.00000000000E+00 -0.00000000000E+00 -0.25029873803E+03  0.25029873803E+03  0.00000000000E+00 0. -1.
         23    2    1    2    0    0  0.25184145899E+02 -0.69323136747E+02  0.15340319601E+02  0.13023263125E+03  0.10623217189E+03 0.  0.
         24    2    1    2    0    0 -0.49915994086E+02  0.74290151779E+02 -0.43253818656E+02  0.12840601833E+03  0.81280868592E+02 0.  0.
        -11    1    4    4    0    0 -0.34603832294E+02 -0.87010184913E+01 -0.61047626177E+01  0.36199462135E+02  0.00000000000E+00 0.  1.
         12    1    4    4    0    0 -0.15312161792E+02  0.82991170270E+02 -0.37149056038E+02  0.92206556199E+02  0.00000000000E+00 0. -1.
        -11    1    3    3    0    0 -0.44018061236E+01 -0.34587068210E+02  0.58061948122E+02  0.67726147124E+02  0.00000000000E+00 0.  1.
         11    1    3    3    0    0  0.29585952023E+02 -0.34736068537E+02 -0.42721628522E+02  0.62506484128E+02  0.00000000000E+00 0. -1.
         21    1    1    2  502  501  0.24731848187E+02 -0.49670150318E+01 -0.10553621324E+03  0.10850911417E+03  0.00000000000E+00 0. -1.
<scales pt_clust_5="13000.00000" pt_clust_6="13000.00000" pt_clust_7="13000.00000" pt_clust_8="13000.00000" pt_clust_9="25.22569"></scales>
<clustering>
<clus scale="   25.226">  2  9  1 -1</clus>
<clus scale="   81.281">  5  6 -1 -1</clus>
<clus scale="  106.232">  7  8 -1 -1</clus>
<clus scale="  113.685">  2  5  1 -1</clus>
<clus scale="   25.226">  2  5  1 -1</clus>
</clustering>
</event>
<event>
 9    2  0.2984928E-005  0.9092373E+02  0.7546771E-02  0.1306092E+00
          2   -1    0    0  502    0  0.00000000000E+00  0.00000000000E+00  0.13982514651E+03  0.13982514651E+03  0.00000000000E+00 0. -1.
         -1   -1    0    0    0  501 -0.00000000000E+00 -0.00000000000E+00 -0.12458983114E+03  0.12458983114E+03  0.00000000000E+00 0.  1.
         24    2    1    2    0    0 -0.51388653190E+01  0.10669170978E+02 -0.67534866963E+02  0.10598317623E+03  0.80816064262E+02 0.  0.
         23    2    1    2    0    0 -0.20716660109E+02 -0.35767667743E+02  0.55382334247E+02  0.11317103521E+03  0.89621282083E+02 0.  0.
        -13    1    3    3    0    0 -0.95892080020E+01  0.28807149059E+02 -0.78610580919E+02  0.84269971991E+02  0.00000000000E+00 0.  1.
         14    1    3    3    0    0  0.44503426830E+01 -0.18137978081E+02  0.11075713956E+02  0.21713204243E+02  0.00000000000E+00 0. -1.
        -11    1    4    4    0    0 -0.43817745162E+02 -0.47014905693E+02  0.16137048839E+02  0.66263115635E+02  0.00000000000E+00 0. -1.
         11    1    4    4    0    0  0.23101085053E+02  0.11247237950E+02  0.39245285409E+02  0.46907919576E+02  0.00000000000E+00 0.  1.
         21    1    1    2  502  501  0.25855525428E+02  0.25098496766E+02  0.27387848081E+02  0.45260766206E+02  0.00000000000E+00 0.  1.
<scales pt_clust_5="13000.00000" pt_clust_6="13000.00000" pt_clust_7="13000.00000" pt_clust_8="13000.00000" pt_clust_9="36.03391"></scales>
<clustering>
<clus scale="   36.034">  1  9  2 -1</clus>
<clus scale="   80.816">  5  6 -1 -1</clus>
<clus scale="   82.258">  2  5  1 -1</clus>
<clus scale="   89.621">  7  8 -1 -1</clus>
<clus scale="   36.034">  1  5  2 -1</clus>
</clustering>
</event>
<event>
 9    2  0.2984928E-005  0.1634186E+03  0.7546771E-02  0.1188902E+00
         -1   -1    0    0    0  501 -0.00000000000E+00  0.00000000000E+00  0.10489282525E+03  0.10489282525E+03  0.00000000000E+00 0.  1.
          2   -1    0    0  502    0  0.00000000000E+00 -0.00000000000E+00 -0.41829918893E+03  0.41829918893E+03  0.00000000000E+00 0. -1.
         23    2    1    2    0    0  0.16140459425E+03  0.84109307575E+01 -0.11289143460E+03  0.21956939906E+03  0.96664668820E+02 0.  0.
         24    2    1    2    0    0 -0.10335541309E+03 -0.66589903531E+02 -0.15342472944E+03  0.20890204076E+03  0.70599988400E+02 0.  0.
        -13    1    4    4    0    0 -0.12925822503E+02 -0.20392715759E+02  0.90456177777E+00  0.24161083904E+02  0.00000000000E+00 0.  1.
         14    1    4    4    0    0 -0.90429590587E+02 -0.46197187772E+02 -0.15432929122E+03  0.18474095685E+03  0.00000000000E+00 0. -1.
        -13    1    3    3    0    0  0.13348443606E+03  0.40581727316E+02 -0.10851210675E+03  0.17674798039E+03  0.00000000000E+00 0. -1.
         13    1    3    3    0    0  0.27920158186E+02 -0.32170796558E+02 -0.43793278536E+01  0.42821418669E+02  0.00000000000E+00 0.  1.
         21    1    1    2  502  501 -0.58049181156E+02  0.58178972774E+02 -0.47090199629E+02  0.94720574360E+02  0.00000000000E+00 0. -1.
<scales pt_clust_5="13000.00000" pt_clust_6="13000.00000" pt_clust_7="13000.00000" pt_clust_8="13000.00000" pt_clust_9="82.18577"></scales>
<clustering>
<clus scale="   70.600">  5  6 -1 -1</clus>
<clus scale="   82.186">  1  9  2 -1</clus>
<clus scale="   96.665">  7  8 -1 -1</clus>
<clus scale="  149.486">  2  5  1 -1</clus>
<clus scale="  149.486">  2  5  1 -1</clus>
</clustering>
</event>
<event>
 9    2  0.2984928E-005  0.1269762E+03  0.7546771E-02  0.1245563E+00
         -1   -1    0    0    0  501 -0.00000000000E+00  0.00000000000E+00  0.18337006375E+03  0.18337006375E+03  0.00000000000E+00 0.  1.
          2   -1    0    0  502    0  0.00000000000E+00 -0.00000000000E+00 -0.42985839864E+03  0.42985839864E+03  0.00000000000E+00 0. -1.
         23    2    1    2    0    0 -0.24080612773E+02 -0.20900414835E+02 -0.27430951974E+02  0.10020300304E+03  0.90947685179E+02 0.  0.
         24    2    1    2    0    0 -0.74603871576E+02  0.30767585063E+02  0.11654890927E+03  0.16307178834E+03  0.80600111399E+02 0.  0.
        -11    1    4    4    0    0 -0.18010382951E+02 -0.19184344471E+02  0.69029384839E+02  0.73874684014E+02  0.00000000000E+00 0.  1.
         12    1    4    4    0    0 -0.56593488626E+02  0.49951929534E+02  0.47519524426E+02  0.89197104329E+02  0.00000000000E+00 0. -1.
        -13    1    3    3    0    0 -0.28426283255E+02  0.31849093559E+02 -0.60371587815E+01  0.43114563971E+02  0.00000000000E+00 0.  1.
         13    1    3    3    0    0  0.43456704819E+01 -0.52749508394E+02 -0.21393793193E+02  0.57088439065E+02  0.00000000000E+00 0. -1.
         21    1    1    2  502  501  0.98684484350E+02 -0.98671702277E+01 -0.33560629219E+03  0.34995367101E+03  0.00000000000E+00 0. -1.
<scales pt_clust_5="13000.00000" pt_clust_6="13000.00000" pt_clust_7="13000.00000" pt_clust_8="13000.00000" pt_clust_9="98.11512"></scales>
<clustering>
<clus scale="   80.600">  5  6 -1 -1</clus>
<clus scale="   90.948">  7  8 -1 -1</clus>
<clus scale="   96.375">  1  7  2 -1</clus>
<clus scale="   98.115">  2  9  1 -1</clus>
<clus scale="   98.115">  2  5  1 -1</clus>
</clustering>
</event>
<event>
 9    2  0.2984928E-005  0.1137575E+03  0.7546771E-02  0.1259382E+00
          2   -1    0    0  502    0  0.00000000000E+00  0.00000000000E+00  0.61759850300E+03  0.61759850300E+03  0.00000000000E+00 0. -1.
         -1   -1    0    0    0  501 -0.00000000000E+00 -0.00000000000E+00 -0.78616249953E+02  0.78616249953E+02  0.00000000000E+00 0.  1.
         24    2    1    2    0    0  0.59995240496E+02 -0.18521340351E+02 -0.20959647979E+02  0.10251398709E+03  0.78277338837E+02 0.  0.
         23    2    1    2    0    0 -0.62288021417E+02  0.74712541958E+02  0.31940292499E+03  0.34667504458E+03  0.93293067828E+02 0.  0.
        -11    1    3    3    0    0  0.11393945122E+02 -0.42696098883E+02  0.37041308318E+00  0.44191809774E+02  0.00000000000E+00 0.  1.
         12    1    3    3    0    0  0.48601295374E+02  0.24174758532E+02 -0.21330061062E+02  0.58322177317E+02  0.00000000000E+00 0. -1.
        -13    1    4    4    0    0 -0.36395169541E+01  0.74800471956E+02  0.15546680511E+03  0.17256385537E+03  0.00000000000E+00 0. -1.
         13    1    4    4    0    0 -0.58648504463E+02 -0.87929998615E-01  0.16393611988E+03  0.17411118921E+03  0.00000000000E+00 0.  1.
         21    1    1    2  502  501  0.22927809214E+01 -0.56191201607E+02  0.24053897604E+03  0.24702572129E+03  0.00000000000E+00 0.  1.
<scales pt_clust_5="13000.00000" pt_clust_6="13000.00000" pt_clust_7="13000.00000" pt_clust_8="13000.00000" pt_clust_9="56.23796"></scales>
<clustering>
<clus scale="   56.238">  1  9  2 -1</clus>
<clus scale="   78.277">  5  6 -1 -1</clus>
<clus scale="   93.293">  7  8 -1 -1</clus>
<clus scale="  101.806">  2  5  1 -1</clus>
<clus scale="   56.238">  1  5  2 -1</clus>
</clustering>
</event>
<event>
 9    2  0.2984928E-005  0.1356082E+03  0.7546771E-02  0.1229292E+00
         -1   -1    0    0    0  501 -0.00000000000E+00  0.00000000000E+00  0.58966997262E+02  0.58966997262E+02  0.00000000000E+00 0.  1.
          2   -1    0    0  502    0  0.00000000000E+00 -0.00000000000E+00 -0.87294386072E+03  0.87294386072E+03  0.00000000000E+00 0. -1.
         24    2    1    2    0    0  0.64790075666E+02 -0.38522598396E+02 -0.49781153271E+02  0.12097467200E+03  0.80467158225E+02 0.  0.
         23    2    1    2    0    0 -0.30836263112E+02 -0.85213557034E+02 -0.19819245643E+03  0.23057148960E+03  0.75304293390E+02 0.  0.
        -13    1    3    3    0    0  0.49146445056E+02 -0.39324431604E+02  0.58180614023E+01  0.63211026103E+02  0.00000000000E+00 0.  1.
         14    1    3    3    0    0  0.15643630610E+02  0.80183320716E+00 -0.55599214673E+02  0.57763645898E+02  0.00000000000E+00 0. -1.
        -11    1    4    4    0    0 -0.47286360855E+02 -0.31658398638E+02 -0.13269199749E+03  0.14437943180E+03  0.00000000000E+00 0.  1.
         11    1    4    4    0    0  0.16450097743E+02 -0.53555158396E+02 -0.65500458942E+02  0.86192057802E+02  0.00000000000E+00 0. -1.
         21    1    1    2  502  501 -0.33953812554E+02  0.12373615543E+03 -0.56600325375E+03  0.58036469638E+03  0.00000000000E+00 0. -1.
<scales pt_clust_5="13000.00000" pt_clust_6="13000.00000" pt_clust_7="13000.00000" pt_clust_8="13000.00000" pt_clust_9="112.77789"></scales>
<clustering>
<clus scale="   75.304">  7  8 -1 -1</clus>
<clus scale="   80.467">  5  6 -1 -1</clus>
<clus scale="  110.257">  1  5  2 -1</clus>
<clus scale="  112.778">  2  9  1 -1</clus>
<clus scale="  112.778">  2  5  1 -1</clus>
</clustering>
</event>
<event>
 9    2  0.2984928E-005  0.1480129E+03  0.7546771E-02  0.1204683E+00
         -1   -1    0    0    0  501 -0.00000000000E+00  0.00000000000E+00  0.48118872830E+03  0.48118872830E+03  0.00000000000E+00 0.  1.
          2   -1    0    0  502    0  0.00000000000E+00 -0.00000000000E+00 -0.14083009903E+03  0.14083009903E+03  0.00000000000E+00 0. -1.
         24    2    1    2    0    0  0.76672196709E+02  0.11450142670E+03  0.36847611992E+03  0.40178801806E+03  0.81668586591E+02 0.  0.
         23    2    1    2    0    0 -0.13964120788E+02 -0.66845472404E+02  0.35377899783E+02  0.11906234891E+03  0.90889676447E+02 0.  0.
        -11    1    3    3    0    0  0.20770925076E+02  0.49125765353E+02  0.24852047409E+03  0.25417946060E+03  0.00000000000E+00 0.  1.
         12    1    3    3    0    0  0.55901271633E+02  0.65375661345E+02  0.11995564583E+03  0.14760855746E+03  0.00000000000E+00 0. -1.
        -11    1    4    4    0    0 -0.37924835038E+02 -0.18634242826E+02 -0.15480040511E+02  0.45001775216E+02  0.00000000000E+00 0. -1.
         11    1    4    4    0    0  0.23960714251E+02 -0.48211229579E+02  0.50857940294E+02  0.74060573694E+02  0.00000000000E+00 0.  1.
         21    1    1    2  502  501 -0.62708075921E+02 -0.47655954294E+02 -0.63495390443E+02  0.10116846037E+03  0.00000000000E+00 0. -1.
<scales pt_clust_5="13000.00000" pt_clust_6="13000.00000" pt_clust_7="13000.00000" pt_clust_8="13000.00000" pt_clust_9="78.76162"></scales>
<clustering>
<clus scale="   78.762">  2  9  1 -1</clus>
<clus scale="   81.669">  5  6 -1 -1</clus>
<clus scale="   90.890">  7  8 -1 -1</clus>
<clus scale="  142.536">  1  5  2 -1</clus>
<clus scale="   78.762">  2  5  1 -1</clus>
</clustering>
</event>
<event>
 9    2  0.2984928E-005  0.1514527E+03  0.7546771E-02  0.1200200E+00
         -1   -1    0    0    0  501 -0.00000000000E+00  0.00000000000E+00  0.20834417234E+02  0.20834417234E+02  0.00000000000E+00 0.  1.
          2   -1    0    0  502    0  0.00000000000E+00 -0.00000000000E+00 -0.12931802135E+04  0.12931802135E+04  0.00000000000E+00 0. -1.
         24    2    1    2    0    0 -0.98987366547E+02 -0.56028466473E+02 -0.49147729681E+03  0.51110262236E+03  0.82086963120E+02 0.  0.
         23    2    1    2    0    0  0.10436507835E+03  0.81707064472E+02 -0.66043905459E+03  0.67965795623E+03  0.90482477150E+02 0.  0.
        -11    1    3    3    0    0 -0.10016553182E+03 -0.23959850992E+02 -0.30593119451E+03  0.32280195786E+03  0.00000000000E+00 0.  1.
         12    1    3    3    0    0  0.11781652778E+01 -0.32068615481E+02 -0.18554610230E+03  0.18830066450E+03  0.00000000000E+00 0. -1.
        -11    1    4    4    0    0  0.78349386415E+02  0.60916813821E+01 -0.27483450744E+03  0.28584915850E+03  0.00000000000E+00 0. -1.
         11    1    4    4    0    0  0.26015691935E+02  0.75615383090E+02 -0.38560454715E+03  0.39380879773E+03  0.00000000000E+00 0.  1.
         21    1    1    2  502  501 -0.53777118038E+01 -0.25678597999E+02 -0.12042944483E+03  0.12325405211E+03  0.00000000000E+00 0. -1.
<scales pt_clust_5="13000.00000" pt_clust_6="13000.00000" pt_clust_7="13000.00000" pt_clust_8="13000.00000" pt_clust_9="26.23567"></scales>
<clustering>
<clus scale="   26.236">  2  9  1 -1</clus>
<clus scale="   82.087">  5  6 -1 -1</clus>
<clus scale="   90.482">  7  8 -1 -1</clus>
<clus scale="  146.592">  1  5  2 -1</clus>
<clus scale="   26.236">  2  5  1 -1</clus>
</clustering>
</event>
<event>
 9    2  0.2984928E-005  0.1432988E+03  0.7546771E-02  0.1211056E+00
         -1   -1    0    0    0  501 -0.00000000000E+00  0.00000000000E+00  0.73545923239E+02  0.73545923239E+02  0.00000000000E+00 0.  1.
          2   -1    0    0  502    0  0.00000000000E+00 -0.00000000000E+00 -0.86009612638E+03  0.86009612638E+03  0.00000000000E+00 0. -1.
         24    2    1    2    0    0 -0.64499989685E+02  0.85246472658E+02 -0.14516244797E+02  0.13508268636E+03  0.81298222751E+02 0.  0.
         23    2    1    2    0    0  0.83866008638E+02 -0.11372803212E+03 -0.67196145111E+03  0.69272577396E+03  0.91483514560E+02 0.  0.
        -11    1    3    3    0    0 -0.56445819763E+02  0.35994500748E+02  0.24963602890E+02  0.71448695734E+02  0.00000000000E+00 0.  1.
         12    1    3    3    0    0 -0.80541699221E+01  0.49251971909E+02 -0.39479847688E+02  0.63633990630E+02  0.00000000000E+00 0. -1.
        -11    1    4    4    0    0  0.51993421348E+02 -0.34118429562E+01 -0.17043861010E+03  0.17822535271E+03  0.00000000000E+00 0.  1.
         11    1    4    4    0    0  0.31872587290E+02 -0.11031618916E+03 -0.50152284100E+03  0.51450042124E+03  0.00000000000E+00 0. -1.
         21    1    1    2  502  501 -0.19366018953E+02  0.28481559458E+02 -0.10007250724E+03  0.10583358930E+03  0.00000000000E+00 0. -1.
<scales pt_clust_5="13000.00000" pt_clust_6="13000.00000" pt_clust_7="13000.00000" pt_clust_8="13000.00000" pt_clust_9="34.44186"></scales>
<clustering>
<clus scale="   34.442">  2  9  1 -1</clus>
<clus scale="   81.298">  5  6 -1 -1</clus>
<clus scale="   91.484">  7  8 -1 -1</clus>
<clus scale="  137.021">  1  5  2 -1</clus>
<clus scale="   34.442">  2  5  1 -1</clus>
</clustering>
</event>
<event>
 9    2  0.2984928E-005  0.1028841E+03  0.7546771E-02  0.1281472E+00
          2   -1    0    0  502    0  0.00000000000E+00  0.00000000000E+00  0.42584721252E+03  0.42584721252E+03  0.00000000000E+00 0. -1.
         -1   -1    0    0    0  501 -0.00000000000E+00 -0.00000000000E+00 -0.11816759823E+03  0.11816759823E+03  0.00000000000E+00 0.  1.
         24    2    1    2    0    0  0.16463361713E+02  0.85319939724E+01 -0.82913797326E+02  0.11716908122E+03  0.80684934201E+02 0.  0.
         23    2    1    2    0    0 -0.36851632500E+02  0.18883557864E+02  0.37540619102E+03  0.38945661697E+03  0.95036922674E+02 0.  0.
        -13    1    3    3    0    0  0.25670469237E+02  0.37021688187E+02 -0.23907856644E+02  0.51001607782E+02  0.00000000000E+00 0.  1.
         14    1    3    3    0    0 -0.92071075244E+01 -0.28489694215E+02 -0.59005940682E+02  0.66167473438E+02  0.00000000000E+00 0. -1.
        -13    1    4    4    0    0  0.64840578481E+01 -0.28290252613E+02  0.50068413873E+02  0.57872510459E+02  0.00000000000E+00 0.  1.
         13    1    4    4    0    0 -0.43335690348E+02  0.47173810477E+02  0.32533777715E+03  0.33158410652E+03  0.00000000000E+00 0. -1.
         21    1    1    2  502  501  0.20388270787E+02 -0.27415551837E+02  0.15187220589E+02  0.37389112552E+02  0.00000000000E+00 0.  1.
<scales pt_clust_5="13000.00000" pt_clust_6="13000.00000" pt_clust_7="13000.00000" pt_clust_8="13000.00000" pt_clust_9="34.16569"></scales>
<clustering>
<clus scale="   34.166">  2  9  1 -1</clus>
<clus scale="   80.685">  5  6 -1 -1</clus>
<clus scale="   89.795">  2  5  1 -1</clus>
<clus scale="   95.037">  7  8 -1 -1</clus>
<clus scale="  102.884">  1  5  2 -1</clus>
</clustering>
</event>
<event>
 9    2  0.2984928E-005  0.1051880E+03  0.7546771E-02  0.1277008E+00
         -1   -1    0    0    0  501 -0.00000000000E+00  0.00000000000E+00  0.48065173325E+02  0.48065173325E+02  0.00000000000E+00 0.  1.
          2   -1    0    0  502    0  0.00000000000E+00 -0.00000000000E+00 -0.60674553065E+03  0.60674553065E+03  0.00000000000E+00 0. -1.
         23    2    1    2    0    0  0.17412350984E+02  0.10559424731E+01 -0.57961118066E+02  0.11649252097E+03  0.99532463316E+02 0.  0.
         24    2    1    2    0    0 -0.65002271464E+02 -0.19104979236E+02 -0.15741378190E+03  0.19126025511E+03  0.84918142504E+02 0.  0.
        -11    1    4    4    0    0  0.10345565128E+02  0.20819982028E+02 -0.30228190645E+02  0.38134575901E+02  0.00000000000E+00 0.  1.
         12    1    4    4    0    0 -0.75347836592E+02 -0.39924961264E+02 -0.12718559125E+03  0.15312567921E+03  0.00000000000E+00 0. -1.
        -13    1    3    3    0    0  0.48263013182E+02  0.28399356816E+02 -0.17350270720E+02  0.58624856529E+02  0.00000000000E+00 0.  1.
         13    1    3    3    0    0 -0.30850662198E+02 -0.27343414343E+02 -0.40610847346E+02  0.57867664443E+02  0.00000000000E+00 0. -1.
         21    1    1    2  502  501  0.47589920481E+02  0.18049036763E+02 -0.34330545736E+03  0.34705792789E+03  0.00000000000E+00 0.  1.
<scales pt_clust_5="13000.00000" pt_clust_6="13000.00000" pt_clust_7="13000.00000" pt_clust_8="13000.00000" pt_clust_9="50.89763"></scales>
<clustering>
<clus scale="   50.898">  2  9  1 -1</clus>
<clus scale="   84.918">  5  6 -1 -1</clus>
<clus scale="   91.482">  2  5  1 -1</clus>
<clus scale="   99.532">  7  8 -1 -1</clus>
<clus scale="   50.898">  2  5  1 -1</clus>
</clustering>
</event>
<event>
 9    2  0.2984928E-005  0.1388643E+03  0.7546771E-02  0.1223875E+00
          2   -1    0    0  502    0  0.00000000000E+00  0.00000000000E+00  0.26800910747E+03  0.26800910747E+03  0.00000000000E+00 0. -1.
         -1   -1    0    0    0  501 -0.00000000000E+00 -0.00000000000E+00 -0.10117888703E+03  0.10117888703E+03  0.00000000000E+00 0.  1.
         23    2    1    2    0    0  0.64588460896E+02 -0.56196317245E+02 -0.37930067223E+01  0.14141040047E+03  0.11248475056E+03 0.  0.
         24    2    1    2    0    0 -0.71079531213E+02  0.29232191601E+02  0.93033471212E+02  0.14537997093E+03  0.81075818825E+02 0.  0.
        -13    1    4    4    0    0 -0.37676335234E+02  0.23712055846E+02 -0.19329622139E+01  0.44558996533E+02  0.00000000000E+00 0.  1.
         14    1    4    4    0    0 -0.33403195979E+02  0.55201357548E+01  0.94966433426E+02  0.10082097440E+03  0.00000000000E+00 0. -1.
        -13    1    3    3    0    0  0.12737702277E+02 -0.65558621849E+02 -0.39658969003E+02  0.77672490500E+02  0.00000000000E+00 0.  1.
         13    1    3    3    0    0  0.51850758618E+02  0.93623046034E+01  0.35865962281E+02  0.63737909968E+02  0.00000000000E+00 0. -1.
         21    1    1    2  502  501  0.64910703172E+01  0.26964125645E+02  0.77589755951E+02  0.82397623110E+02  0.00000000000E+00 0. -1.
<scales pt_clust_5="13000.00000" pt_clust_6="13000.00000" pt_clust_7="13000.00000" pt_clust_8="13000.00000" pt_clust_9="27.73442"></scales>
<clustering>
<clus scale="   27.734">  1  9  2 -1</clus>
<clus scale="   81.076">  5  6 -1 -1</clus>
<clus scale="  112.485">  7  8 -1 -1</clus>
<clus scale="  114.908">  1  5  2 -1</clus>
<clus scale="   27.734">  1  5  2 -1</clus>
</clustering>
</event>
<event>
 9    2  0.2984928E-005  0.1180031E+03  0.7546771E-02  0.1260156E+00
          2   -1    0    0  502    0  0.00000000000E+00  0.00000000000E+00  0.24936686862E+03  0.24936686862E+03  0.00000000000E+00 0. -1.
         -1   -1    0    0    0  501 -0.00000000000E+00 -0.00000000000E+00 -0.12220502434E+03  0.12220502434E+03  0.00000000000E+00 0.  1.
         23    2    1    2    0    0 -0.62699249873E+02  0.70898994575E+01 -0.38316949609E+02  0.11781763655E+03  0.91822351558E+02 0.  0.
         24    2    1    2    0    0 -0.36090614507E+02  0.72041656828E+01  0.99757432538E+02  0.13424252084E+03  0.81945570931E+02 0.  0.
        -11    1    4    4    0    0  0.10779574191E+02 -0.19720316415E+02  0.20338895357E+01  0.22566054283E+02  0.00000000000E+00 0.  1.
         12    1    4    4    0    0 -0.46870188699E+02  0.26924482098E+02  0.97723543003E+02  0.11167646655E+03  0.00000000000E+00 0. -1.
        -13    1    3    3    0    0 -0.33304499971E+02  0.45652770507E+02 -0.80982057952E+00  0.56515670239E+02  0.00000000000E+00 0. -1.
         13    1    3    3    0    0 -0.29394749902E+02 -0.38562871049E+02 -0.37507129029E+02  0.61301966310E+02  0.00000000000E+00 0.  1.
         21    1    1    2  502  501  0.98789864381E+02 -0.14294065140E+02  0.65721361346E+02  0.11951173557E+03  0.00000000000E+00 0.  1.
<scales pt_clust_5="13000.00000" pt_clust_6="13000.00000" pt_clust_7="13000.00000" pt_clust_8="13000.00000" pt_clust_9="74.11731"></scales>
<clustering>
<clus scale="   81.946">  5  6 -1 -1</clus>
<clus scale="   89.830">  1  5  2 -1</clus>
<clus scale="   74.117">  1  9  2 -1</clus>
<clus scale="   91.822">  7  8 -1 -1</clus>
<clus scale="   89.830">  1  5  2 -1</clus>
</clustering>
</event>
<event>
 9    2  0.2984928E-005  0.1056789E+03  0.7546771E-02  0.1274716E+00
          2   -1    0    0  502    0  0.00000000000E+00  0.00000000000E+00  0.29947047799E+03  0.29947047799E+03  0.00000000000E+00 0. -1.
         -1   -1    0    0    0  501 -0.00000000000E+00 -0.00000000000E+00 -0.33832933506E+03  0.33832933506E+03  0.00000000000E+00 0.  1.
         24    2    1    2    0    0 -0.48949836326E+02 -0.23513478775E+02 -0.30194644040E+03  0.31671323536E+03  0.78655263139E+02 0.  0.
         23    2    1    2    0    0  0.28906288374E+02 -0.45746956381E+02  0.11837231780E+03  0.15940398811E+03  0.92028627500E+02 0.  0.
        -13    1    3    3    0    0 -0.61452581368E+02  0.63598473084E+01 -0.22255478583E+03  0.23097077761E+03  0.00000000000E+00 0.  1.
         14    1    3    3    0    0  0.12502745042E+02 -0.29873326083E+02 -0.79391654572E+02  0.85742457748E+02  0.00000000000E+00 0. -1.
        -13    1    4    4    0    0 -0.15900460073E+02 -0.56298606053E+02  0.82035581890E+02  0.10075809829E+03  0.00000000000E+00 0.  1.
         13    1    4    4    0    0  0.44806748447E+02  0.10551649672E+02  0.36336735909E+02  0.58645889828E+02  0.00000000000E+00 0. -1.
         21    1    1    2  502  501  0.20043547952E+02  0.69260435156E+02  0.14471526553E+03  0.16168258957E+03  0.00000000000E+00 0. -1.
<scales pt_clust_5="13000.00000" pt_clust_6="13000.00000" pt_clust_7="13000.00000" pt_clust_8="13000.00000" pt_clust_9="72.10237"></scales>
<clustering>
<clus scale="   72.102">  1  9  2 -1</clus>
<clus scale="   78.655">  5  6 -1 -1</clus>
<clus scale="   92.029">  7  8 -1 -1</clus>
<clus scale="   94.262">  2  5  1 -1</clus>
<clus scale="   72.102">  1  5  2 -1</clus>
</clustering>
</event>
<event>
 9    2  0.2984928E-005  0.1035621E+03  0.7546771E-02  0.1277535E+00
          2   -1    0    0  502    0  0.00000000000E+00  0.00000000000E+00  0.53434468862E+03  0.53434468862E+03  0.00000000000E+00 0. -1.
         -1   -1    0    0    0  501 -0.00000000000E+00 -0.00000000000E+00 -0.75504790379E+02  0.75504790379E+02  0.00000000000E+00 0.  1.
         23    2    1    2    0    0 -0.49941460335E+02 -0.57067291636E+01 -0.17510128312E+02  0.10519477274E+03  0.90733783121E+02 0.  0.
         24    2    1    2    0    0  0.37591802235E+02  0.58313230894E+02  0.37486869336E+03  0.38968332258E+03  0.80703024366E+02 0.  0.
        -11    1    4    4    0    0  0.62015731994E+02  0.46393542614E+02  0.30592617309E+03  0.31557746306E+03  0.00000000000E+00 0.  1.
         12    1    4    4    0    0 -0.24423929759E+02  0.11919688279E+02  0.68942520274E+02  0.74105859521E+02  0.00000000000E+00 0. -1.
        -11    1    3    3    0    0  0.21553581327E+02 -0.55733949559E+01 -0.24802789223E+02  0.33328635624E+02  0.00000000000E+00 0.  1.
         11    1    3    3    0    0 -0.71495041662E+02 -0.13333420773E+00  0.72926609107E+01  0.71866137112E+02  0.00000000000E+00 0. -1.
         21    1    1    2  502  501  0.12349658100E+02 -0.52606501730E+02  0.10148133320E+03  0.11497138369E+03  0.00000000000E+00 0.  1.
<scales pt_clust_5="13000.00000" pt_clust_6="13000.00000" pt_clust_7="13000.00000" pt_clust_8="13000.00000" pt_clust_9="54.03664"></scales>
<clustering>
<clus scale="   54.037">  1  9  2 -1</clus>
<clus scale="   80.703">  5  6 -1 -1</clus>
<clus scale="   90.734">  7  8 -1 -1</clus>
<clus scale="   94.897">  1  5  2 -1</clus>
<clus scale="   54.037">  1  5  2 -1</clus>
</clustering>
</event>
<event>
 9    2  0.2984928E-005  0.1200562E+03  0.7546771E-02  0.1247475E+00
          4   -1    0    0  502    0  0.00000000000E+00  0.00000000000E+00  0.11637071378E+03  0.11637071378E+03  0.00000000000E+00 0. -1.
         -3   -1    0    0    0  501 -0.00000000000E+00 -0.00000000000E+00 -0.36222396147E+03  0.36222396147E+03  0.00000000000E+00 0.  1.
         23    2    1    2    0    0 -0.84499413721E+02  0.70685619854E+02 -0.27461659662E+03  0.31014433890E+03  0.92944220053E+02 0.  0.
         24    2    1    2    0    0  0.49968269618E+02 -0.52194558706E+02  0.55828698412E+02  0.12083886297E+03  0.79145987325E+02 0.  0.
        -13    1    4    4    0    0  0.25672805133E+02 -0.22713821418E+02 -0.17252515445E+02  0.38375251087E+02  0.00000000000E+00 0.  1.
         14    1    4    4    0    0  0.24295464485E+02 -0.29480737289E+02  0.73081213857E+02  0.82463611881E+02  0.00000000000E+00 0. -1.
        -13    1    3    3    0    0 -0.40521588417E+02 -0.17500109026E+02 -0.65659050850E+02  0.79116141857E+02  0.00000000000E+00 0. -1.
         13    1    3    3    0    0 -0.43977825304E+02  0.88185728879E+02 -0.20895754577E+03  0.23102819704E+03  0.00000000000E+00 0.  1.
         21    1    1    2  502  501  0.34531144103E+02 -0.18491061147E+02 -0.27065349479E+02  0.47611473385E+02  0.00000000000E+00 0.  1.
<scales pt_clust_5="13000.00000" pt_clust_6="13000.00000" pt_clust_7="13000.00000" pt_clust_8="13000.00000" pt_clust_9="39.17039"></scales>
<clustering>
<clus scale="   39.170">  2  9  1 -1</clus>
<clus scale="   79.146">  5  6 -1 -1</clus>
<clus scale="   92.944">  7  8 -1 -1</clus>
<clus scale="  109.722">  1  5  2 -1</clus>
<clus scale="  109.722">  1  5  2 -1</clus>
</clustering>
</event>
<event>
 9    2  0.2984928E-005  0.1304010E+03  0.7546771E-02  0.1229244E+00
          2   -1    0    0  502    0  0.00000000000E+00  0.00000000000E+00  0.62719629177E+02  0.62719629177E+02  0.00000000000E+00 0. -1.
         -1   -1    0    0    0  501 -0.00000000000E+00 -0.00000000000E+00 -0.53060681476E+03  0.53060681476E+03  0.00000000000E+00 0.  1.
         24    2    1    2    0    0 -0.21021293336E+02  0.99297070150E+02 -0.38001333942E+03  0.40142860757E+03  0.80205897034E+02 0.  0.
         23    2    1    2    0    0  0.39341161616E+02 -0.69313610090E+02 -0.98493459456E+02  0.15519086650E+03  0.89616627632E+02 0.  0.
        -13    1    3    3    0    0 -0.88426644001E+01  0.10824204718E+03 -0.36187827830E+03  0.37782326794E+03  0.00000000000E+00 0.  1.
         14    1    3    3    0    0 -0.12178628936E+02 -0.89449770322E+01 -0.18135061120E+02  0.23605339622E+02  0.00000000000E+00 0. -1.
        -13    1    4    4    0    0 -0.14337190756E+02 -0.62747225947E+02 -0.65555700079E+02  0.91871209939E+02  0.00000000000E+00 0.  1.
         13    1    4    4    0    0  0.53678352372E+02 -0.65663841428E+01 -0.32937759377E+02  0.63319656560E+02  0.00000000000E+00 0. -1.
         21    1    1    2  502  501 -0.18319868280E+02 -0.29983460060E+02  0.10619613293E+02  0.36706969876E+02  0.00000000000E+00 0. -1.
<scales pt_clust_5="13000.00000" pt_clust_6="13000.00000" pt_clust_7="13000.00000" pt_clust_8="13000.00000" pt_clust_9="35.13724"></scales>
<clustering>
<clus scale="   35.137">  1  9  2 -1</clus>
<clus scale="   80.206">  5  6 -1 -1</clus>
<clus scale="   89.617">  7  8 -1 -1</clus>
<clus scale="  124.122">  2  5  1 -1</clus>
<clus scale="   35.137">  1  5  2 -1</clus>
</clustering>
</event>
<event>
 9    2  0.2984928E-005  0.9851399E+02  0.7546771E-02  0.1290004E+00
         -1   -1    0    0    0  501 -0.00000000000E+00  0.00000000000E+00  0.56354622564E+02  0.56354622564E+02  0.00000000000E+00 0.  1.
          2   -1    0    0  502    0  0.00000000000E+00 -0.00000000000E+00 -0.36615330536E+03  0.36615330536E+03  0.00000000000E+00 0. -1.
         24    2    1    2    0    0 -0.25450891748E+02 -0.41009136786E+02 -0.27388987121E+02  0.96933582335E+02  0.79476195040E+02 0.  0.
         23    2    1    2    0    0 -0.69660709421E+01  0.17748593802E+02 -0.93343563145E+02  0.13234413367E+03  0.91860819771E+02 0.  0.
        -11    1    3    3    0    0  0.25764036638E+02 -0.55747524346E+01  0.48546808042E+01  0.26803570178E+02  0.00000000000E+00 0.  1.
         12    1    3    3    0    0 -0.51214928385E+02 -0.35434384351E+02 -0.32243667925E+02  0.70130012157E+02  0.00000000000E+00 0. -1.
        -13    1    4    4    0    0 -0.27124937166E+02 -0.85306204442E-01 -0.10082377395E+03  0.10440882571E+03  0.00000000000E+00 0.  1.
         13    1    4    4    0    0  0.20158866224E+02  0.17833900007E+02  0.74802108030E+01  0.27935307955E+02  0.00000000000E+00 0. -1.
         21    1    1    2  502  501  0.32416962690E+02  0.23260542983E+02 -0.18906613253E+03  0.19323021192E+03  0.00000000000E+00 0. -1.
<scales pt_clust_5="13000.00000" pt_clust_6="13000.00000" pt_clust_7="13000.00000" pt_clust_8="13000.00000" pt_clust_9="39.89878"></scales>
<clustering>
<clus scale="   39.899">  2  9  1 -1</clus>
<clus scale="   79.476">  5  6 -1 -1</clus>
<clus scale="   87.081">  1  5  2 -1</clus>
<clus scale="   91.861">  7  8 -1 -1</clus>
<clus scale="   39.899">  2  5  1 -1</clus>
</clustering>
</event>
<event>
 9    2  0.2984928E-005  0.1069896E+03  0.7546771E-02  0.1269846E+00
         -1   -1    0    0    0  501 -0.00000000000E+00  0.00000000000E+00  0.86810534571E+02  0.86810534571E+02  0.00000000000E+00 0.  1.
          2   -1    0    0  502    0  0.00000000000E+00 -0.00000000000E+00 -0.38152549601E+03  0.38152549601E+03  0.00000000000E+00 0. -1.
         23    2    1    2    0    0  0.53709262951E+02  0.20272473953E+02  0.33516697418E+02  0.11201663004E+03  0.90159293876E+02 0.  0.
         24    2    1    2    0    0 -0.44515484522E+02 -0.47159635911E+02 -0.29361861234E+03  0.31153650170E+03  0.81470502367E+02 0.  0.
        -11    1    4    4    0    0 -0.63078764294E+02 -0.13494784755E+02 -0.16049396404E+03  0.17297211398E+03  0.00000000000E+00 0.  1.
         12    1    4    4    0    0  0.18563279773E+02 -0.33664851156E+02 -0.13312464830E+03  0.13856438772E+03  0.00000000000E+00 0. -1.
        -11    1    3    3    0    0  0.14782531262E+02 -0.35095529145E+02  0.43932135428E+01  0.38334315198E+02  0.00000000000E+00 0. -1.
         11    1    3    3    0    0  0.38926731690E+02  0.55368003098E+02  0.29123483875E+02  0.73682314840E+02  0.00000000000E+00 0.  1.
         21    1    1    2  502  501 -0.91937784296E+01  0.26887161957E+02 -0.34613046521E+02  0.44782898850E+02  0.00000000000E+00 0.  1.
<scales pt_clust_5="13000.00000" pt_clust_6="13000.00000" pt_clust_7="13000.00000" pt_clust_8="13000.00000" pt_clust_9="28.41558"></scales>
<clustering>
<clus scale="   28.416">  2  9  1 -1</clus>
<clus scale="   81.471">  5  6 -1 -1</clus>
<clus scale="   90.159">  7  8 -1 -1</clus>
<clus scale="   99.777">  2  5  1 -1</clus>
<clus scale="   28.416">  2  5  1 -1</clus>
</clustering>
</event>
<event>
 9    2  0.2984928E-005  0.1191378E+03  0.7546771E-02  0.1248728E+00
         -1   -1    0    0    0  501 -0.00000000000E+00  0.00000000000E+00  0.16213856122E+03  0.16213856122E+03  0.00000000000E+00 0.  1.
          2   -1    0    0  502    0  0.00000000000E+00 -0.00000000000E+00 -0.46728168446E+03  0.46728168446E+03  0.00000000000E+00 0. -1.
         24    2    1    2    0    0 -0.54672187433E+02  0.50278799757E+02  0.11264402240E+03  0.15627527693E+03  0.78843392968E+02 0.  0.
         23    2    1    2    0    0  0.87499422640E+02 -0.34575262030E+02 -0.13639604092E+03  0.18941061713E+03  0.91765484783E+02 0.  0.
        -13    1    3    3    0    0 -0.46753072294E+02  0.29679645622E+02  0.12068744146E+03  0.13278625554E+03  0.00000000000E+00 0.  1.
         14    1    3    3    0    0 -0.79191151383E+01  0.20599154134E+02 -0.80434190677E+01  0.23489021391E+02  0.00000000000E+00 0. -1.
        -13    1    4    4    0    0 -0.52066392408E+01 -0.22552187145E+02  0.10700599021E+01  0.23170137363E+02  0.00000000000E+00 0.  1.
         13    1    4    4    0    0  0.92706061881E+02 -0.12023074885E+02 -0.13746610082E+03  0.16624047977E+03  0.00000000000E+00 0. -1.
         21    1    1    2  502  501 -0.32827235208E+02 -0.15703537727E+02 -0.28139110472E+03  0.28373435161E+03  0.00000000000E+00 0. -1.
<scales pt_clust_5="13000.00000" pt_clust_6="13000.00000" pt_clust_7="13000.00000" pt_clust_8="13000.00000" pt_clust_9="36.38995"></scales>
<clustering>
<clus scale="   36.390">  2  9  1 -1</clus>
<clus scale="   78.843">  5  6 -1 -1</clus>
<clus scale="   91.765">  7  8 -1 -1</clus>
<clus scale="  109.495">  1  5  2 -1</clus>
<clus scale="   36.390">  2  5  1 -1</clus>
</clustering>
</event>
<event>
 9    2  0.2984928E-005  0.2452881E+03  0.7546771E-02  0.1161081E+00
          2   -1    0    0  502    0  0.00000000000E+00  0.00000000000E+00  0.13787749202E+04  0.13787749202E+04  0.00000000000E+00 0. -1.
         -1   -1    0    0    0  501 -0.00000000000E+00 -0.00000000000E+00 -0.16382714362E+03  0.16382714362E+03  0.00000000000E+00 0.  1.
         23    2    1    2    0    0  0.13713493262E+03 -0.17138121902E+03 -0.36127269095E+02  0.24637227638E+03  0.10590848417E+03 0.  0.
         24    2    1    2    0    0  0.19458705882E+02 -0.99275035497E+01  0.17377114717E+03  0.19260933174E+03  0.80154516567E+02 0.  0.
        -11    1    4    4    0    0 -0.22163266779E+02 -0.20347357649E+02  0.12054389255E+03  0.12424192283E+03  0.00000000000E+00 0.  1.
         12    1    4    4    0    0  0.41621972661E+02  0.10419854099E+02  0.53227254619E+02  0.68367408916E+02  0.00000000000E+00 0. -1.
        -13    1    3    3    0    0  0.13557506424E+03 -0.14948080421E+03 -0.63242766774E+02  0.21148228394E+03  0.00000000000E+00 0.  1.
         13    1    3    3    0    0  0.15598683800E+01 -0.21900414811E+02  0.27115497679E+02  0.34889992443E+02  0.00000000000E+00 0. -1.
         21    1    1    2  502  501 -0.15659363850E+03  0.18130872257E+03  0.10773038985E+04  0.11036204557E+04  0.00000000000E+00 0. -1.
<scales pt_clust_5="13000.00000" pt_clust_6="13000.00000" pt_clust_7="13000.00000" pt_clust_8="13000.00000" pt_clust_9="221.24567"></scales>
<clustering>
<clus scale="   80.155">  5  6 -1 -1</clus>
<clus scale="   83.078">  1  5  2 -1</clus>
<clus scale="  105.908">  7  8 -1 -1</clus>
<clus scale="  221.246">  1  9  2 -1</clus>
<clus scale="   83.078">  1  5  2 -1</clus>
</clustering>
</event>
<event>
 9    2  0.2984928E-005  0.1258503E+03  0.7546771E-02  0.1241733E+00
          2   -1    0    0  502    0  0.00000000000E+00  0.00000000000E+00  0.39398477061E+03  0.39398477061E+03  0.00000000000E+00 0. -1.
         -1   -1    0    0    0  501 -0.00000000000E+00 -0.00000000000E+00 -0.27931350832E+03  0.27931350832E+03  0.00000000000E+00 0.  1.
         24    2    1    2    0    0 -0.25239192285E+02 -0.68417007201E+02 -0.24207796676E+03  0.26474162112E+03  0.78539673193E+02 0.  0.
         23    2    1    2    0    0 -0.12153734888E+02  0.75725724006E+02  0.14578363021E+03  0.19417817887E+03  0.10281147681E+03 0.  0.
        -13    1    3    3    0    0 -0.31100259738E+02 -0.63918814991E+02 -0.24621727119E+03  0.25627287351E+03  0.00000000000E+00 0.  1.
         14    1    3    3    0    0  0.58610674531E+01 -0.44981922098E+01  0.41393044374E+01  0.84687476094E+01  0.00000000000E+00 0. -1.
        -11    1    4    4    0    0 -0.22315106485E+02  0.44296150365E+02  0.53211925272E+01  0.49884145823E+02  0.00000000000E+00 0.  1.
         11    1    4    4    0    0  0.10161371597E+02  0.31429573640E+02  0.14046243769E+03  0.14429403305E+03  0.00000000000E+00 0. -1.
         21    1    1    2  502  501  0.37392927173E+02 -0.73087168047E+01  0.21096559883E+03  0.21437847894E+03  0.00000000000E+00 0. -1.
<scales pt_clust_5="13000.00000" pt_clust_6="13000.00000" pt_clust_7="13000.00000" pt_clust_8="13000.00000" pt_clust_9="38.10050"></scales>
<clustering>
<clus scale="   38.101">  1  9  2 -1</clus>
<clus scale="   78.540">  5  6 -1 -1</clus>
<clus scale="  102.811">  7  8 -1 -1</clus>
<clus scale="  106.942">  2  5  1 -1</clus>
<clus scale="   38.101">  1  5  2 -1</clus>
</clustering>
</event>
<event>
 9    2  0.2984928E-005  0.1493356E+03  0.7546771E-02  0.1202903E+00
         -1   -1    0    0    0  501 -0.00000000000E+00  0.00000000000E+00  0.13136762313E+03  0.13136762313E+03  0.00000000000E+00 0.  1.
          2   -1    0    0  502    0  0.00000000000E+00 -0.00000000000E+00 -0.52087838989E+03  0.52087838989E+03  0.00000000000E+00 0. -1.
         23    2    1    2    0    0 -0.12100226723E+03 -0.45258530805E+02  0.59286972120E+02  0.16868735506E+03  0.90832788191E+02 0.  0.
         24    2    1    2    0    0  0.74950447827E+02  0.15266745813E+02 -0.20576401229E+03  0.23438869690E+03  0.82149798070E+02 0.  0.
        -11    1    4    4    0    0  0.65452987390E+02  0.80306577394E+01 -0.63244352514E+02  0.91369760572E+02  0.00000000000E+00 0.  1.
         12    1    4    4    0    0  0.94974604375E+01  0.72360880736E+01 -0.14251965978E+03  0.14301893633E+03  0.00000000000E+00 0. -1.
        -13    1    3    3    0    0 -0.66158045117E+02 -0.54702581452E+02  0.71489373869E+02  0.11171387527E+03  0.00000000000E+00 0. -1.
         13    1    3    3    0    0 -0.54844222112E+02  0.94440506474E+01 -0.12202401749E+02  0.56973479797E+02  0.00000000000E+00 0.  1.
         21    1    1    2  502  501  0.46051819402E+02  0.29991784992E+02 -0.24303372658E+03  0.24916996106E+03  0.00000000000E+00 0.  1.
<scales pt_clust_5="13000.00000" pt_clust_6="13000.00000" pt_clust_7="13000.00000" pt_clust_8="13000.00000" pt_clust_9="54.95705"></scales>
<clustering>
<clus scale="   54.957">  2  9  1 -1</clus>
<clus scale="   82.150">  5  6 -1 -1</clus>
<clus scale="   90.833">  7  8 -1 -1</clus>
<clus scale="  144.219">  2  5  1 -1</clus>
<clus scale="   54.957">  2  5  1 -1</clus>
</clustering>
</event>
<event>
 9    2  0.2984928E-005  0.1068940E+03  0.7546771E-02  0.1270328E+00
          2   -1    0    0  502    0  0.00000000000E+00  0.00000000000E+00  0.20504333233E+03  0.20504333233E+03  0.00000000000E+00 0. -1.
         -1   -1    0    0    0  501 -0.00000000000E+00 -0.00000000000E+00 -0.17645340150E+03  0.17645340150E+03  0.00000000000E+00 0.  1.
         23    2    1    2    0    0 -0.28688783810E+02  0.54632263286E+02 -0.88642665195E+02  0.14179471453E+03  0.91872131078E+02 0.  0.
         24    2    1    2    0    0  0.60706628115E+02 -0.54319081337E+01 -0.63108842465E+01  0.10292187155E+03  0.82693917915E+02 0.  0.
        -11    1    4    4    0    0 -0.18713922216E+02  0.10431763956E+02 -0.46059487942E+01  0.21914546498E+02  0.00000000000E+00 0.  1.
         12    1    4    4    0    0  0.79420550331E+02 -0.15863672090E+02 -0.17049354523E+01  0.81007325051E+02  0.00000000000E+00 0. -1.
        -11    1    3    3    0    0  0.38005158121E+01  0.24086334722E+02 -0.93787058758E+02  0.96905148632E+02  0.00000000000E+00 0.  1.
         11    1    3    3    0    0 -0.32489299623E+02  0.30545928564E+02  0.51443935631E+01  0.44889565903E+02  0.00000000000E+00 0. -1.
         21    1    1    2  502  501 -0.32017844305E+02 -0.49200355152E+02  0.12354348027E+03  0.13678014775E+03  0.00000000000E+00 0. -1.
<scales pt_clust_5="13000.00000" pt_clust_6="13000.00000" pt_clust_7="13000.00000" pt_clust_8="13000.00000" pt_clust_9="58.70108"></scales>
<clustering>
<clus scale="   58.701">  1  9  2 -1</clus>
<clus scale="   82.694">  5  6 -1 -1</clus>
<clus scale="   91.872">  7  8 -1 -1</clus>
<clus scale="   99.117">  1  5  2 -1</clus>
<clus scale="   58.701">  1  5  2 -1</clus>
</clustering>
</event>
<event>
 9    2  0.2984928E-005  0.1016073E+03  0.7546771E-02  0.1277462E+00
          2   -1    0    0  502    0  0.00000000000E+00  0.00000000000E+00  0.21091875952E+03  0.21091875952E+03  0.00000000000E+00 0. -1.
         -1   -1    0    0    0  501 -0.00000000000E+00 -0.00000000000E+00 -0.30397459055E+03  0.30397459055E+03  0.00000000000E+00 0.  1.
         24    2    1    2    0    0  0.65589415031E+02  0.12576354021E+02 -0.25194855630E+03  0.27234453729E+03  0.78951478316E+02 0.  0.
         23    2    1    2    0    0 -0.39181744872E+02 -0.12311376854E+02  0.92365076539E+01  0.90580333382E+02  0.80204143226E+02 0.  0.
        -13    1    3    3    0    0  0.32344937218E+02  0.38667854526E+02 -0.19510503607E+03  0.20151271185E+03  0.00000000000E+00 0.  1.
         14    1    3    3    0    0  0.33244477813E+02 -0.26091500505E+02 -0.56843520224E+02  0.70831825440E+02  0.00000000000E+00 0. -1.
        -11    1    4    4    0    0 -0.16481110978E+01 -0.42027018018E+02  0.14960141936E+01  0.42085918929E+02  0.00000000000E+00 0.  1.
         11    1    4    4    0    0 -0.37533633775E+02  0.29715641163E+02  0.77404934603E+01  0.48494414452E+02  0.00000000000E+00 0. -1.
         21    1    1    2  502  501 -0.26407670159E+02 -0.26497716655E+00  0.14965621762E+03  0.15196847939E+03  0.00000000000E+00 0. -1.
<scales pt_clust_5="13000.00000" pt_clust_6="13000.00000" pt_clust_7="13000.00000" pt_clust_8="13000.00000" pt_clust_9="26.40900"></scales>
<clustering>
<clus scale="   26.409">  1  9  2 -1</clus>
<clus scale="   78.951">  5  6 -1 -1</clus>
<clus scale="   80.204">  7  8 -1 -1</clus>
<clus scale="  100.621">  2  5  1 -1</clus>
<clus scale="   26.409">  1  5  2 -1</clus>
</clustering>
</event>
<event>
 9    2  0.2984928E-005  0.1399060E+03  0.7546771E-02  0.1230016E+00
          2   -1    0    0  502    0  0.00000000000E+00  0.00000000000E+00  0.48102385831E+03  0.48102385831E+03  0.00000000000E+00 0. -1.
         -1   -1    0    0    0  501 -0.00000000000E+00 -0.00000000000E+00 -0.34479205723E+03  0.34479205723E+03  0.00000000000E+00 0.  1.
         23    2    1    2    0    0 -0.54712140370E+01 -0.13194793632E+02 -0.30261068222E+03  0.31836638948E+03  0.97876944156E+02 0.  0.
         24    2    1    2    0    0 -0.95319357158E+01  0.12077046105E+03  0.26961364180E+03  0.30636243171E+03  0.80560918907E+02 0.  0.
        -13    1    4    4    0    0  0.31168925521E+02  0.63658390995E+02  0.97773500308E+02  0.12076237007E+03  0.00000000000E+00 0.  1.
         14    1    4    4    0    0 -0.40700861237E+02  0.57112070053E+02  0.17184014149E+03  0.18560006164E+03  0.00000000000E+00 0. -1.
        -11    1    3    3    0    0 -0.58858543501E+01  0.42473125360E+02 -0.14536557658E+03  0.15155777945E+03  0.00000000000E+00 0. -1.
         11    1    3    3    0    0  0.41464031308E+00 -0.55667918993E+02 -0.15724510564E+03  0.16680861003E+03  0.00000000000E+00 0.  1.
         21    1    1    2  502  501  0.15003149753E+02 -0.10757566742E+03  0.16922884150E+03  0.20108709436E+03  0.00000000000E+00 0.  1.
<scales pt_clust_5="13000.00000" pt_clust_6="13000.00000" pt_clust_7="13000.00000" pt_clust_8="13000.00000" pt_clust_9="114.38373"></scales>
<clustering>
<clus scale="   80.561">  5  6 -1 -1</clus>
<clus scale="   97.877">  7  8 -1 -1</clus>
<clus scale="   98.914">  2  7  1 -1</clus>
<clus scale="  114.384">  2  9  1 -1</clus>
<clus scale="  139.906">  1  5  2 -1</clus>
</clustering>
</event>
<event>
 9    2  0.2984928E-005  0.9244280E+02  0.7546771E-02  0.1302701E+00
         -1   -1    0    0    0  501 -0.00000000000E+00  0.00000000000E+00  0.14604503585E+03  0.14604503585E+03  0.00000000000E+00 0.  1.
          2   -1    0    0  502    0  0.00000000000E+00 -0.00000000000E+00 -0.37751264390E+03  0.37751264390E+03  0.00000000000E+00 0. -1.
         24    2    1    2    0    0 -0.22807740330E+02 -0.37592883923E+01  0.11966905188E+03  0.14610990791E+03  0.80579761371E+02 0.  0.
         23    2    1    2    0    0 -0.46242107958E+01 -0.59051683342E+01 -0.15688439121E+03  0.18103021263E+03  0.90016505936E+02 0.  0.
        -13    1    3    3    0    0  0.26947867985E+01 -0.30473834942E+02  0.99356243869E+02  0.10395950985E+03  0.00000000000E+00 0.  1.
         14    1    3    3    0    0 -0.25502527128E+02  0.26714546549E+02  0.20312808010E+02  0.42150398059E+02  0.00000000000E+00 0. -1.
        -11    1    4    4    0    0  0.31664800244E+02 -0.40052291463E+01 -0.13475582235E+03  0.13848405357E+03  0.00000000000E+00 0. -1.
         11    1    4    4    0    0 -0.36289011040E+02 -0.18999391879E+01 -0.22128568857E+02  0.42546159060E+02  0.00000000000E+00 0.  1.
         21    1    1    2  502  501  0.27431951125E+02  0.96644567266E+01 -0.19425226871E+03  0.19641755921E+03  0.00000000000E+00 0. -1.
<scales pt_clust_5="13000.00000" pt_clust_6="13000.00000" pt_clust_7="13000.00000" pt_clust_8="13000.00000" pt_clust_9="29.08460"></scales>
<clustering>
<clus scale="   29.085">  2  9  1 -1</clus>
<clus scale="   80.580">  5  6 -1 -1</clus>
<clus scale="   83.281">  1  5  2 -1</clus>
<clus scale="   90.017">  7  8 -1 -1</clus>
<clus scale="   29.085">  2  5  1 -1</clus>
</clustering>
</event>
<event>
 9    2  0.2984928E-005  0.1028637E+03  0.7546771E-02  0.1281116E+00
         -1   -1    0    0    0  501 -0.00000000000E+00  0.00000000000E+00  0.25277361679E+03  0.25277361679E+03  0.00000000000E+00 0.  1.
          2   -1    0    0  502    0  0.00000000000E+00 -0.00000000000E+00 -0.10730851854E+03  0.10730851854E+03  0.00000000000E+00 0. -1.
         23    2    1    2    0    0  0.25310193708E+02  0.32459813849E+02  0.18617808424E+03  0.21185215455E+03  0.92329902616E+02 0.  0.
         24    2    1    2    0    0 -0.45417993100E+02 -0.55982234264E+02 -0.47528250200E+02  0.11654282747E+03  0.78271906951E+02 0.  0.
        -13    1    4    4    0    0 -0.66967604738E+01 -0.54425162477E+02  0.48998912722E+00  0.54837806309E+02  0.00000000000E+00 0.  1.
         14    1    4    4    0    0 -0.38721232626E+02 -0.15570717874E+01 -0.48018239327E+02  0.61705021163E+02  0.00000000000E+00 0. -1.
        -13    1    3    3    0    0  0.47266010419E+02  0.31586361639E+01  0.15993811467E+03  0.16680603481E+03  0.00000000000E+00 0.  1.
         13    1    3    3    0    0 -0.21955816711E+02  0.29301177686E+02  0.26239969568E+02  0.45046119746E+02  0.00000000000E+00 0. -1.
         21    1    1    2  502  501  0.20107799393E+02  0.23522420415E+02  0.68152642092E+01  0.31687153309E+02  0.00000000000E+00 0.  1.
<scales pt_clust_5="13000.00000" pt_clust_6="13000.00000" pt_clust_7="13000.00000" pt_clust_8="13000.00000" pt_clust_9="30.94556"></scales>
<clustering>
<clus scale="   30.946">  2  9  1 -1</clus>
<clus scale="   78.272">  5  6 -1 -1</clus>
<clus scale="   90.458">  2  5  1 -1</clus>
<clus scale="   92.330">  7  8 -1 -1</clus>
<clus scale="   30.946">  2  5  1 -1</clus>
</clustering>
</event>
<event>
 9    2  0.2984928E-005  0.1585041E+03  0.7546771E-02  0.1192021E+00
          2   -1    0    0  502    0  0.00000000000E+00  0.00000000000E+00  0.14800301249E+03  0.14800301249E+03  0.00000000000E+00 0. -1.
         -1   -1    0    0    0  501 -0.00000000000E+00 -0.00000000000E+00 -0.42954069241E+03  0.42954069241E+03  0.00000000000E+00 0.  1.
         23    2    1    2    0    0 -0.11936642847E+03 -0.22874868352E+02 -0.19234324906E+03  0.24442289242E+03  0.89302973252E+02 0.  0.
         24    2    1    2    0    0  0.13098649037E+03  0.63447791041E+02 -0.17288237979E+03  0.23939322481E+03  0.78979212435E+02 0.  0.
        -11    1    4    4    0    0  0.67865520579E+02  0.74634684601E+02 -0.95547953785E+02  0.13894414886E+03  0.00000000000E+00 0.  1.
         12    1    4    4    0    0  0.63120969791E+02 -0.11186893560E+02 -0.77334426004E+02  0.10044907596E+03  0.00000000000E+00 0. -1.
        -13    1    3    3    0    0 -0.92874344899E+02 -0.48178474131E+02 -0.17499683269E+03  0.20388894223E+03  0.00000000000E+00 0.  1.
         13    1    3    3    0    0 -0.26492083572E+02  0.25303605779E+02 -0.17346416368E+02  0.40533950192E+02  0.00000000000E+00 0. -1.
         21    1    1    2  502  501 -0.11620061899E+02 -0.40572922689E+02  0.83687948930E+02  0.93727587669E+02  0.00000000000E+00 0. -1.
<scales pt_clust_5="13000.00000" pt_clust_6="13000.00000" pt_clust_7="13000.00000" pt_clust_8="13000.00000" pt_clust_9="42.20412"></scales>
<clustering>
<clus scale="   42.204">  1  9  2 -1</clus>
<clus scale="   78.979">  5  6 -1 -1</clus>
<clus scale="   89.303">  7  8 -1 -1</clus>
<clus scale="  152.926">  1  5  2 -1</clus>
<clus scale="   42.204">  1  5  2 -1</clus>
</clustering>
</event>
<event>
 9    2  0.2984928E-005  0.9847595E+02  0.7546771E-02  0.1289807E+00
          4   -1    0    0  502    0  0.00000000000E+00  0.00000000000E+00  0.15808008250E+03  0.15808008250E+03  0.00000000000E+00 0. -1.
         -3   -1    0    0    0  501 -0.00000000000E+00 -0.00000000000E+00 -0.35390738189E+03  0.35390738189E+03  0.00000000000E+00 0.  1.
         23    2    1    2    0    0  0.36674347375E+02  0.39846692278E+01 -0.32043696769E+03  0.33511920897E+03  0.90907362817E+02 0.  0.
         24    2    1    2    0    0 -0.52045361064E+02  0.13622414490E+02  0.72942676953E+02  0.12016062408E+03  0.78890124051E+02 0.  0.
        -13    1    4    4    0    0  0.13122825329E+02  0.19635986974E+02  0.20929801484E+01  0.23709936630E+02  0.00000000000E+00 0.  1.
         14    1    4    4    0    0 -0.65168186393E+02 -0.60135724841E+01  0.70849696804E+02  0.96450687447E+02  0.00000000000E+00 0. -1.
        -11    1    3    3    0    0  0.60569341139E+02  0.23115002239E+02 -0.25095533714E+03  0.25919400003E+03  0.00000000000E+00 0.  1.
         11    1    3    3    0    0 -0.23894993764E+02 -0.19130333011E+02 -0.69481630548E+02  0.75925208935E+02  0.00000000000E+00 0. -1.
         21    1    1    2  502  501  0.15371013689E+02 -0.17607083718E+02  0.51666991337E+02  0.56707631345E+02  0.00000000000E+00 0. -1.
<scales pt_clust_5="13000.00000" pt_clust_6="13000.00000" pt_clust_7="13000.00000" pt_clust_8="13000.00000" pt_clust_9="23.37258"></scales>
<clustering>
<clus scale="   23.373">  1  9  2 -1</clus>
<clus scale="   78.890">  5  6 -1 -1</clus>
<clus scale="   87.504">  1  5  2 -1</clus>
<clus scale="   90.907">  7  8 -1 -1</clus>
<clus scale="   23.373">  1  5  2 -1</clus>
</clustering>
</event>
<event>
 9    2  0.2984928E-005  0.9142344E+02  0.7546771E-02  0.1302476E+00
         -1   -1    0    0    0  501 -0.00000000000E+00  0.00000000000E+00  0.20033581108E+03  0.20033581108E+03  0.00000000000E+00 0.  1.
          2   -1    0    0  502    0  0.00000000000E+00 -0.00000000000E+00 -0.97501841872E+02  0.97501841872E+02  0.00000000000E+00 0. -1.
         24    2    1    2    0    0 -0.45447975151E+01 -0.25068841276E+02  0.13663065085E+03  0.16138882670E+03  0.82032412156E+02 0.  0.
         23    2    1    2    0    0 -0.25721154890E+02  0.38862274189E+02 -0.26250969678E+02  0.10234275003E+03  0.87252913479E+02 0.  0.
        -13    1    3    3    0    0 -0.35346429308E+02 -0.31147516232E+02  0.11193138526E+03  0.12144205547E+03  0.00000000000E+00 0.  1.
         14    1    3    3    0    0  0.30801631793E+02  0.60786749568E+01  0.24699265590E+02  0.39946771222E+02  0.00000000000E+00 0. -1.
        -11    1    4    4    0    0  0.17188167330E+02  0.48339029711E+02 -0.27839575861E+02  0.58370685054E+02  0.00000000000E+00 0. -1.
         11    1    4    4    0    0 -0.42909322220E+02 -0.94767555226E+01  0.15886061830E+01  0.43972064975E+02  0.00000000000E+00 0.  1.
         21    1    1    2  502  501  0.30265952405E+02 -0.13793432913E+02 -0.75457119618E+01  0.34106076226E+02  0.00000000000E+00 0.  1.
<scales pt_clust_5="13000.00000" pt_clust_6="13000.00000" pt_clust_7="13000.00000" pt_clust_8="13000.00000" pt_clust_9="33.26089"></scales>
<clustering>
<clus scale="   33.261">  2  9  1 -1</clus>
<clus scale="   82.032">  5  6 -1 -1</clus>
<clus scale="   86.455">  1  5  2 -1</clus>
<clus scale="   87.253">  7  8 -1 -1</clus>
<clus scale="   33.261">  2  5  1 -1</clus>
</clustering>
</event>
<event>
 9    2  0.2984928E-005  0.1532267E+03  0.7546771E-02  0.1196590E+00
          2   -1    0    0  502    0  0.00000000000E+00  0.00000000000E+00  0.76378884924E+03  0.76378884924E+03  0.00000000000E+00 0. -1.
         -1   -1    0    0    0  501 -0.00000000000E+00 -0.00000000000E+00 -0.83854229784E+02  0.83854229784E+02  0.00000000000E+00 0.  1.
         23    2    1    2    0    0 -0.11534314279E+03 -0.32018933836E+02  0.17519630825E+02  0.15218795964E+03  0.92330844695E+02 0.  0.
         24    2    1    2    0    0  0.12361752087E+03  0.72444275588E+02  0.54412097600E+03  0.57017085456E+03  0.92182982883E+02 0.  0.
        -11    1    4    4    0    0 -0.52825136957E+01  0.21554249251E+02  0.27779099030E+02  0.35555153700E+02  0.00000000000E+00 0.  1.
         12    1    4    4    0    0  0.12890003456E+03  0.50890026338E+02  0.51634187697E+03  0.53461570086E+03  0.00000000000E+00 0. -1.
        -13    1    3    3    0    0 -0.74341652812E+02 -0.15627209915E+01  0.51846831068E+02  0.90648868341E+02  0.00000000000E+00 0. -1.
         13    1    3    3    0    0 -0.41001489982E+02 -0.30456212844E+02 -0.34327200243E+02  0.61539091301E+02  0.00000000000E+00 0.  1.
         21    1    1    2  502  501 -0.82743780733E+01 -0.40425341753E+02  0.11829401262E+03  0.12528426482E+03  0.00000000000E+00 0. -1.
<scales pt_clust_5="13000.00000" pt_clust_6="13000.00000" pt_clust_7="13000.00000" pt_clust_8="13000.00000" pt_clust_9="41.26347"></scales>
<clustering>
<clus scale="   41.263">  1  9  2 -1</clus>
<clus scale="   92.183">  5  6 -1 -1</clus>
<clus scale="   92.331">  7  8 -1 -1</clus>
<clus scale="  153.138">  1  5  2 -1</clus>
<clus scale="   41.263">  1  5  2 -1</clus>
</clustering>
</event>
<event>
 9    2  0.2984928E-005  0.1660544E+03  0.7546771E-02  0.1183460E+00
          2   -1    0    0  502    0  0.00000000000E+00  0.00000000000E+00  0.37525846890E+03  0.37525846890E+03  0.00000000000E+00 0. -1.
         -1   -1    0    0    0  501 -0.00000000000E+00 -0.00000000000E+00 -0.23796535102E+03  0.23796535102E+03  0.00000000000E+00 0.  1.
         24    2    1    2    0    0  0.14652987884E+03 -0.34260300316E+02 -0.17441949345E+03  0.24422740601E+03  0.81117769813E+02 0.  0.
         23    2    1    2    0    0 -0.73577929212E+02  0.49882054771E+00  0.18391728300E+03  0.21802134836E+03  0.91070197452E+02 0.  0.
        -11    1    3    3    0    0  0.10116846010E+03 -0.30189190944E+02 -0.16773526900E+03  0.19819577451E+03  0.00000000000E+00 0.  1.
         12    1    3    3    0    0  0.45361418746E+02 -0.40711093720E+01 -0.66842244569E+01  0.46031631502E+02  0.00000000000E+00 0. -1.
        -11    1    4    4    0    0 -0.44625132271E+02 -0.36228139996E+01  0.15951564555E+02  0.47528724191E+02  0.00000000000E+00 0.  1.
         11    1    4    4    0    0 -0.28952796942E+02  0.41216345473E+01  0.16796571845E+03  0.17049262417E+03  0.00000000000E+00 0. -1.
         21    1    1    2  502  501 -0.72951949632E+02  0.33761479768E+02  0.12779532833E+03  0.15097506554E+03  0.00000000000E+00 0.  1.
<scales pt_clust_5="13000.00000" pt_clust_6="13000.00000" pt_clust_7="13000.00000" pt_clust_8="13000.00000" pt_clust_9="80.38547"></scales>
<clustering>
<clus scale="   80.385">  1  9  2 -1</clus>
<clus scale="   81.118">  5  6 -1 -1</clus>
<clus scale="   91.070">  7  8 -1 -1</clus>
<clus scale="  160.812">  2  5  1 -1</clus>
<clus scale="   80.385">  1  5  2 -1</clus>
</clustering>
</event>
<event>
 9    2  0.2984928E-005  0.1122836E+03  0.7546771E-02  0.1259510E+00
         -1   -1    0    0    0  501 -0.00000000000E+00  0.00000000000E+00  0.16444623451E+03  0.16444623451E+03  0.00000000000E+00 0.  1.
          2   -1    0    0  502    0  0.00000000000E+00 -0.00000000000E+00 -0.20692159213E+03  0.20692159213E+03  0.00000000000E+00 0. -1.
         24    2    1    2    0    0 -0.48099676119E+02 -0.74918472148E+02  0.61361258550E+02  0.13506363544E+03  0.80935933036E+02 0.  0.
         23    2    1    2    0    0 -0.47563734528E+02  0.36268783589E+02 -0.66831190768E+02  0.12669265863E+03  0.89481216941E+02 0.  0.
        -11    1    3    3    0    0 -0.63569509111E+02 -0.54031241788E+02  0.19321314793E+02  0.85637437976E+02  0.00000000000E+00 0.  1.
         12    1    3    3    0    0  0.15469832992E+02 -0.20887230360E+02  0.42039943757E+02  0.49426197467E+02  0.00000000000E+00 0. -1.
        -11    1    4    4    0    0  0.23048812448E+02  0.22227166783E+02 -0.63036823958E+01  0.32634814389E+02  0.00000000000E+00 0. -1.
         11    1    4    4    0    0 -0.70612546976E+02  0.14041616806E+02 -0.60527508372E+02  0.94057844238E+02  0.00000000000E+00 0.  1.
         21    1    1    2  502  501  0.95663410647E+02  0.38649688559E+02 -0.37005425403E+02  0.10961153257E+03  0.00000000000E+00 0. -1.
<scales pt_clust_5="13000.00000" pt_clust_6="13000.00000" pt_clust_7="13000.00000" pt_clust_8="13000.00000" pt_clust_9="103.17600"></scales>
<clustering>
<clus scale="   80.936">  5  6 -1 -1</clus>
<clus scale="   89.481">  7  8 -1 -1</clus>
<clus scale="  103.176">  2  9  1 -1</clus>
<clus scale="  105.600">  1  5  2 -1</clus>
<clus scale="  103.176">  2  5  1 -1</clus>
</clustering>
</event>
<event>
 9    2  0.2984928E-005  0.1229740E+03  0.7546771E-02  0.1240631E+00
         -1   -1    0    0    0  501 -0.00000000000E+00  0.00000000000E+00  0.65827947593E+02  0.65827947593E+02  0.00000000000E+00 0.  1.
          2   -1    0    0  502    0  0.00000000000E+00 -0.00000000000E+00 -0.71665470304E+03  0.71665470304E+03  0.00000000000E+00 0. -1.
         24    2    1    2    0    0 -0.28174201982E+02  0.89121912699E+02 -0.14484052402E+02  0.12451091970E+03  0.80973331220E+02 0.  0.
         23    2    1    2    0    0 -0.12543409493E+02 -0.50501123480E+02 -0.30692243556E+03  0.32380530253E+03  0.89111121095E+02 0.  0.
        -13    1    3    3    0    0  0.36384286935E+01  0.91598470834E+02 -0.87068382987E+01  0.92083261539E+02  0.00000000000E+00 0.  1.
         14    1    3    3    0    0 -0.31812630676E+02 -0.24765581349E+01 -0.57772141030E+01  0.32427658156E+02  0.00000000000E+00 0. -1.
        -13    1    4    4    0    0 -0.25767604344E+02 -0.32183080997E+00 -0.21087246546E+02  0.33297822385E+02  0.00000000000E+00 0.  1.
         13    1    4    4    0    0  0.13224194851E+02 -0.50179292670E+02 -0.28583518901E+03  0.29050748014E+03  0.00000000000E+00 0. -1.
         21    1    1    2  502  501  0.40717611476E+02 -0.38620789220E+02 -0.32942026749E+03  0.33416642841E+03  0.00000000000E+00 0. -1.
<scales pt_clust_5="13000.00000" pt_clust_6="13000.00000" pt_clust_7="13000.00000" pt_clust_8="13000.00000" pt_clust_9="56.12031"></scales>
<clustering>
<clus scale="   56.120">  2  9  1 -1</clus>
<clus scale="   80.973">  5  6 -1 -1</clus>
<clus scale="   89.111">  7  8 -1 -1</clus>
<clus scale="  117.211">  1  5  2 -1</clus>
<clus scale="   56.120">  2  5  1 -1</clus>
</clustering>
</event>
<event>
 9    2  0.2984928E-005  0.1128703E+03  0.7546771E-02  0.1258973E+00
         -1   -1    0    0    0  501 -0.00000000000E+00  0.00000000000E+00  0.70311125228E+02  0.70311125228E+02  0.00000000000E+00 0.  1.
          2   -1    0    0  502    0  0.00000000000E+00 -0.00000000000E+00 -0.69063047681E+03  0.69063047681E+03  0.00000000000E+00 0. -1.
         23    2    1    2    0    0  0.74563249365E+02 -0.12734046025E+02 -0.85148830295E+01  0.11684048131E+03  0.88641755155E+02 0.  0.
         24    2    1    2    0    0 -0.47694115221E+02 -0.66563411820E+02 -0.28486624286E+03  0.30661239408E+03  0.78466346062E+02 0.  0.
        -13    1    4    4    0    0  0.18441221528E+02 -0.23718711361E+02 -0.12255269181E+03  0.12618168722E+03  0.00000000000E+00 0.  1.
         14    1    4    4    0    0 -0.66135336749E+02 -0.42844700459E+02 -0.16231355105E+03  0.18043070686E+03  0.00000000000E+00 0. -1.
        -13    1    3    3    0    0  0.16477469149E+02  0.20789572052E+02 -0.35697961656E+02  0.44475361293E+02  0.00000000000E+00 0. -1.
         13    1    3    3    0    0  0.58085780215E+02 -0.33523618077E+02  0.27183078627E+02  0.72365120022E+02  0.00000000000E+00 0.  1.
         21    1    1    2  502  501 -0.26869134143E+02  0.79297457844E+02 -0.32693822569E+03  0.33748872664E+03  0.00000000000E+00 0. -1.
<scales pt_clust_5="13000.00000" pt_clust_6="13000.00000" pt_clust_7="13000.00000" pt_clust_8="13000.00000" pt_clust_9="83.72596"></scales>
<clustering>
<clus scale="   78.466">  5  6 -1 -1</clus>
<clus scale="   83.726">  2  9  1 -1</clus>
<clus scale="   88.642">  7  8 -1 -1</clus>
<clus scale="  105.068">  2  5  1 -1</clus>
<clus scale="   83.726">  2  5  1 -1</clus>
</clustering>
</event>
<event>
 9    2  0.2984928E-005  0.1124865E+03  0.7546771E-02  0.1260666E+00
          2   -1    0    0  502    0  0.00000000000E+00  0.00000000000E+00  0.25712306017E+03  0.25712306017E+03  0.00000000000E+00 0. -1.
         -1   -1    0    0    0  501 -0.00000000000E+00 -0.00000000000E+00 -0.12153938520E+03  0.12153938520E+03  0.00000000000E+00 0.  1.
         23    2    1    2    0    0 -0.66594314447E+02 -0.14230994759E+02 -0.55242907375E+02  0.12689884498E+03  0.91729025467E+02 0.  0.
         24    2    1    2    0    0  0.57887975308E+02 -0.41305077201E+02  0.14020017892E+03  0.17611250421E+03  0.79387636836E+02 0.  0.
        -11    1    4    4    0    0  0.21797114493E+02  0.21285449757E+02  0.21998478256E+02  0.37578153456E+02  0.00000000000E+00 0.  1.
         12    1    4    4    0    0  0.36090860816E+02 -0.62590526957E+02  0.11820170067E+03  0.13853435076E+03  0.00000000000E+00 0. -1.
        -11    1    3    3    0    0 -0.40488884048E+02  0.38188801569E+02 -0.25577874273E+02  0.61253260722E+02  0.00000000000E+00 0.  1.
         11    1    3    3    0    0 -0.26105430399E+02 -0.52419796329E+02 -0.29665033102E+02  0.65645584257E+02  0.00000000000E+00 0. -1.
         21    1    1    2  502  501  0.87063391385E+01  0.55536071960E+02  0.50626403423E+02  0.75651096181E+02  0.00000000000E+00 0.  1.
<scales pt_clust_5="13000.00000" pt_clust_6="13000.00000" pt_clust_7="13000.00000" pt_clust_8="13000.00000" pt_clust_9="56.21437"></scales>
<clustering>
<clus scale="   56.214">  1  9  2 -1</clus>
<clus scale="   79.388">  5  6 -1 -1</clus>
<clus scale="   91.729">  7  8 -1 -1</clus>
<clus scale="  102.671">  1  5  2 -1</clus>
<clus scale="   56.214">  1  5  2 -1</clus>
</clustering>
</event>
<event>
 9    2  0.2984928E-005  0.1914486E+03  0.7546771E-02  0.1157914E+00
          2   -1    0    0  502    0  0.00000000000E+00  0.00000000000E+00  0.64635155258E+03  0.64635155258E+03  0.00000000000E+00 0. -1.
         -1   -1    0    0    0  501 -0.00000000000E+00 -0.00000000000E+00 -0.10104555507E+03  0.10104555507E+03  0.00000000000E+00 0.  1.
         23    2    1    2    0    0 -0.11081575444E+03 -0.80405190880E+02  0.13858239319E+03  0.21365024049E+03  0.87728099310E+02 0.  0.
         24    2    1    2    0    0  0.15065935585E+03  0.15745235428E+03  0.18906018779E+03  0.29943694237E+03  0.80182557179E+02 0.  0.
        -13    1    4    4    0    0  0.46025696276E+02  0.24590104748E+02  0.99892212183E+01  0.53130241010E+02  0.00000000000E+00 0.  1.
         14    1    4    4    0    0  0.10463365957E+03  0.13286224953E+03  0.17907096657E+03  0.24630670136E+03  0.00000000000E+00 0. -1.
        -13    1    3    3    0    0 -0.10812628077E+03 -0.31087230106E+02  0.10526011304E+03  0.15406946442E+03  0.00000000000E+00 0.  1.
         13    1    3    3    0    0 -0.26894736697E+01 -0.49317960774E+02  0.33322280148E+02  0.59580776076E+02  0.00000000000E+00 0. -1.
         21    1    1    2  502  501 -0.39843601414E+02 -0.77047163399E+02  0.21766341652E+03  0.23430992479E+03  0.00000000000E+00 0. -1.
<scales pt_clust_5="13000.00000" pt_clust_6="13000.00000" pt_clust_7="13000.00000" pt_clust_8="13000.00000" pt_clust_9="86.73971"></scales>
<clustering>
<clus scale="   80.183">  5  6 -1 -1</clus>
<clus scale="   86.740">  1  9  2 -1</clus>
<clus scale="   87.728">  7  8 -1 -1</clus>
<clus scale="  188.111">  1  5  2 -1</clus>
<clus scale="   86.740">  1  5  2 -1</clus>
</clustering>
</event>
<event>
 9    2  0.2984928E-005  0.4252963E+03  0.7546771E-02  0.1070423E+00
         -1   -1    0    0    0  501 -0.00000000000E+00  0.00000000000E+00  0.44726300093E+03  0.44726300093E+03  0.00000000000E+00 0.  1.
          2   -1    0    0  502    0  0.00000000000E+00 -0.00000000000E+00 -0.14857629953E+04  0.14857629953E+04  0.00000000000E+00 0. -1.
         24    2    1    2    0    0 -0.13442894445E+03 -0.56962332031E+01  0.17858072804E+03  0.23791994420E+03  0.81309502767E+02 0.  0.
         23    2    1    2    0    0 -0.18901001245E+03 -0.27882065248E+03  0.53900551461E+02  0.35310902684E+03  0.91186481090E+02 0.  0.
        -11    1    3    3    0    0 -0.46688340440E+02 -0.26268405840E+02  0.11725550136E+03  0.12891347051E+03  0.00000000000E+00 0.  1.
         12    1    3    3    0    0 -0.87740604011E+02  0.20572172637E+02  0.61325226681E+02  0.10900647369E+03  0.00000000000E+00 0. -1.
        -11    1    4    4    0    0 -0.10566660205E+03 -0.83919751944E+02  0.39724520497E+02  0.14066269258E+03  0.00000000000E+00 0.  1.
         11    1    4    4    0    0 -0.83343410398E+02 -0.19490090054E+03  0.14176030964E+02  0.21244633426E+03  0.00000000000E+00 0. -1.
         21    1    1    2  502  501  0.32343895690E+03  0.28451688568E+03 -0.12709812739E+04  0.13419970252E+04  0.00000000000E+00 0. -1.
<scales pt_clust_5="13000.00000" pt_clust_6="13000.00000" pt_clust_7="13000.00000" pt_clust_8="13000.00000" pt_clust_9="415.40574"></scales>
<clustering>
<clus scale="   81.310">  5  6 -1 -1</clus>
<clus scale="   91.186">  7  8 -1 -1</clus>
<clus scale="  157.209">  1  5  2 -1</clus>
<clus scale="  415.406">  2  9  1 -1</clus>
<clus scale="  415.406">  2  5  1 -1</clus>
</clustering>
</event>
<event>
 9    2  0.2984928E-005  0.1377918E+03  0.7546771E-02  0.1220865E+00
          2   -1    0    0  502    0  0.00000000000E+00  0.00000000000E+00  0.53599931709E+03  0.53599931709E+03  0.00000000000E+00 0. -1.
         -1   -1    0    0    0  501 -0.00000000000E+00 -0.00000000000E+00 -0.35385614212E+03  0.35385614212E+03  0.00000000000E+00 0.  1.
         23    2    1    2    0    0 -0.75143746719E+02  0.75157555551E+02 -0.29626142391E+03  0.32756918075E+03  0.90749633885E+02 0.  0.
         24    2    1    2    0    0  0.13624211844E+02 -0.10506999317E+03  0.64109530342E+02  0.14238175251E+03  0.70265275593E+02 0.  0.
        -13    1    4    4    0    0  0.68193643395E+01 -0.70788307190E+02  0.20360888537E+01  0.71145160220E+02  0.00000000000E+00 0.  1.
         14    1    4    4    0    0  0.68048475048E+01 -0.34281685985E+02  0.62073441488E+02  0.71236592294E+02  0.00000000000E+00 0. -1.
        -11    1    3    3    0    0 -0.49990508666E+02  0.28001669207E+02 -0.25123264830E+03  0.25768389163E+03  0.00000000000E+00 0.  1.
         11    1    3    3    0    0 -0.25153238054E+02  0.47155886344E+02 -0.45028775606E+02  0.69885289111E+02  0.00000000000E+00 0. -1.
         21    1    1    2  502  501  0.61519534875E+02  0.29912437624E+02  0.41429506853E+03  0.41990452594E+03  0.00000000000E+00 0. -1.
<scales pt_clust_5="13000.00000" pt_clust_6="13000.00000" pt_clust_7="13000.00000" pt_clust_8="13000.00000" pt_clust_9="68.40619"></scales>
<clustering>
<clus scale="   68.406">  1  9  2 -1</clus>
<clus scale="   70.265">  5  6 -1 -1</clus>
<clus scale="   90.750">  7  8 -1 -1</clus>
<clus scale="  125.253">  1  5  2 -1</clus>
<clus scale="   68.406">  1  5  2 -1</clus>
</clustering>
</event>
<event>
 9    2  0.2984928E-005  0.9495672E+02  0.7546771E-02  0.1298013E+00
         -1   -1    0    0    0  501 -0.00000000000E+00  0.00000000000E+00  0.11873123284E+02  0.11873123284E+02  0.00000000000E+00 0.  1.
          2   -1    0    0  502    0  0.00000000000E+00 -0.00000000000E+00 -0.10470847020E+04  0.10470847020E+04  0.00000000000E+00 0. -1.
         23    2    1    2    0    0  0.31887235861E+02 -0.49914099353E+01 -0.28203276125E+03  0.29834134890E+03  0.91778930372E+02 0.  0.
         24    2    1    2    0    0 -0.91346421629E+01 -0.58627038086E+01 -0.57960092374E+03  0.58521756677E+03  0.80153332242E+02 0.  0.
        -13    1    4    4    0    0 -0.13526637234E+02  0.30881182962E+02 -0.13758836118E+03  0.14165865490E+03  0.00000000000E+00 0.  1.
         14    1    4    4    0    0  0.43919950713E+01 -0.36743886771E+02 -0.44201256257E+03  0.44355891187E+03  0.00000000000E+00 0. -1.
        -11    1    3    3    0    0  0.16354783844E+02  0.42747070654E+02 -0.11023285923E+03  0.11935691961E+03  0.00000000000E+00 0.  1.
         11    1    3    3    0    0  0.15532452017E+02 -0.47738480589E+02 -0.17179990203E+03  0.17898442930E+03  0.00000000000E+00 0. -1.
         21    1    1    2  502  501 -0.22752593698E+02  0.10854113744E+02 -0.17357789376E+03  0.17539890966E+03  0.00000000000E+00 0. -1.
<scales pt_clust_5="13000.00000" pt_clust_6="13000.00000" pt_clust_7="13000.00000" pt_clust_8="13000.00000" pt_clust_9="25.20897"></scales>
<clustering>
<clus scale="   25.209">  2  9  1 -1</clus>
<clus scale="   80.153">  5  6 -1 -1</clus>
<clus scale="   83.773">  2  5  1 -1</clus>
<clus scale="   91.779">  7  8 -1 -1</clus>
<clus scale="   25.209">  2  5  1 -1</clus>
</clustering>
</event>
<event>
 9    2  0.2984928E-005  0.1102088E+03  0.7546771E-02  0.1260501E+00
          2   -1    0    0  502    0  0.00000000000E+00  0.00000000000E+00  0.33272533636E+03  0.33272533636E+03  0.00000000000E+00 0. -1.
         -1   -1    0    0    0  501 -0.00000000000E+00 -0.00000000000E+00 -0.22019916871E+03  0.22019916871E+03  0.00000000000E+00 0.  1.
         24    2    1    2    0    0  0.47950767060E+02 -0.40431040404E+02 -0.19230498064E+03  0.22215425584E+03  0.91855118083E+02 0.  0.
         23    2    1    2    0    0 -0.21298178088E+02  0.26960416484E+02  0.21219320453E+03  0.23343779404E+03  0.91031704333E+02 0.  0.
        -11    1    3    3    0    0  0.75416364612E+02 -0.27634373272E+02 -0.12881448825E+03  0.15180401516E+03  0.00000000000E+00 0.  1.
         12    1    3    3    0    0 -0.27465597552E+02 -0.12796667133E+02 -0.63490492400E+02  0.70350240680E+02  0.00000000000E+00 0. -1.
        -11    1    4    4    0    0  0.14661078500E+01 -0.29478095363E+02  0.33403472345E+02  0.44574651352E+02  0.00000000000E+00 0.  1.
         11    1    4    4    0    0 -0.22764285938E+02  0.56438511847E+02  0.17878973218E+03  0.18886314269E+03  0.00000000000E+00 0. -1.
         21    1    1    2  502  501 -0.26652588972E+02  0.13470623920E+02  0.92637943768E+02  0.97332455190E+02  0.00000000000E+00 0. -1.
<scales pt_clust_5="13000.00000" pt_clust_6="13000.00000" pt_clust_7="13000.00000" pt_clust_8="13000.00000" pt_clust_9="29.86333"></scales>
<clustering>
<clus scale="   29.863">  1  9  2 -1</clus>
<clus scale="   91.032">  7  8 -1 -1</clus>
<clus scale="   91.855">  5  6 -1 -1</clus>
<clus scale="  109.523">  1  7  2 -1</clus>
<clus scale="   29.863">  1  5  2 -1</clus>
</clustering>
</event>
<event>
 9    2  0.2984928E-005  0.1202339E+03  0.7546771E-02  0.1245947E+00
          2   -1    0    0  502    0  0.00000000000E+00  0.00000000000E+00  0.73942204327E+03  0.73942204327E+03  0.00000000000E+00 0. -1.
         -1   -1    0    0    0  501 -0.00000000000E+00 -0.00000000000E+00 -0.32583175622E+02  0.32583175622E+02  0.00000000000E+00 0.  1.
         24    2    1    2    0    0  0.37200239253E+02 -0.50946788644E+02  0.23560664621E+03  0.25689162045E+03  0.80643535672E+02 0.  0.
         23    2    1    2    0    0 -0.84882112583E+00  0.10585596707E+03  0.27987263098E+03  0.31274033851E+03  0.90948466173E+02 0.  0.
        -11    1    3    3    0    0  0.40152930533E+02 -0.21383502200E+00  0.48286295572E+02  0.62800238024E+02  0.00000000000E+00 0.  1.
         12    1    3    3    0    0 -0.29526912802E+01 -0.50732953622E+02  0.18732035063E+03  0.19409138242E+03  0.00000000000E+00 0. -1.
        -13    1    4    4    0    0 -0.37908074777E+02  0.73734890678E+02  0.12262738197E+03  0.14802476497E+03  0.00000000000E+00 0.  1.
         13    1    4    4    0    0  0.37059253651E+02  0.32121076388E+02  0.15724524901E+03  0.16471557354E+03  0.00000000000E+00 0. -1.
         21    1    1    2  502  501 -0.36351418127E+02 -0.54909178423E+02  0.19135959046E+03  0.20237325994E+03  0.00000000000E+00 0.  1.
<scales pt_clust_5="13000.00000" pt_clust_6="13000.00000" pt_clust_7="13000.00000" pt_clust_8="13000.00000" pt_clust_9="65.85168"></scales>
<clustering>
<clus scale="   65.852">  1  9  2 -1</clus>
<clus scale="   80.644">  5  6 -1 -1</clus>
<clus scale="   90.948">  7  8 -1 -1</clus>
<clus scale="  112.641">  2  5  1 -1</clus>
<clus scale="   65.852">  1  5  2 -1</clus>
</clustering>
</event>
<event>
 9    2  0.2984928E-005  0.1287992E+03  0.7546771E-02  0.1232759E+00
         -1   -1    0    0    0  501 -0.00000000000E+00  0.00000000000E+00  0.18345838292E+03  0.18345838292E+03  0.00000000000E+00 0.  1.
          2   -1    0    0  502    0  0.00000000000E+00 -0.00000000000E+00 -0.19766028275E+03  0.19766028275E+03  0.00000000000E+00 0. -1.
         23    2    1    2    0    0  0.83260868309E+02  0.44207464931E+02  0.13146387124E+03  0.18547464269E+03  0.90727181658E+02 0.  0.
         24    2    1    2    0    0 -0.63613068448E+02 -0.40424577059E+02 -0.13515378005E+03  0.17304207096E+03  0.77435425695E+02 0.  0.
        -13    1    4    4    0    0 -0.14666798744E+02 -0.55054074796E+02 -0.71106310090E+02  0.91116263486E+02  0.00000000000E+00 0.  1.
         14    1    4    4    0    0 -0.48946269704E+02  0.14629497737E+02 -0.64047469956E+02  0.81925807471E+02  0.00000000000E+00 0. -1.
        -11    1    3    3    0    0  0.87892732928E+02  0.65126499355E+02  0.10876489413E+03  0.15426080388E+03  0.00000000000E+00 0.  1.
         11    1    3    3    0    0 -0.46318646186E+01 -0.20919034424E+02  0.22698977114E+02  0.31213838807E+02  0.00000000000E+00 0. -1.
         21    1    1    2  502  501 -0.19647799862E+02 -0.37828878724E+01 -0.10511991022E+02  0.22601952024E+02  0.00000000000E+00 0.  1.
<scales pt_clust_5="13000.00000" pt_clust_6="13000.00000" pt_clust_7="13000.00000" pt_clust_8="13000.00000" pt_clust_9="20.00866"></scales>
<clustering>
<clus scale="   20.009">  2  9  1 -1</clus>
<clus scale="   77.435">  5  6 -1 -1</clus>
<clus scale="   90.727">  7  8 -1 -1</clus>
<clus scale="  119.808">  2  5  1 -1</clus>
<clus scale="   20.009">  2  5  1 -1</clus>
</clustering>
</event>
<event>
 9    2  0.2984928E-005  0.1149757E+03  0.7546771E-02  0.1260041E+00
         -3   -1    0    0    0  501 -0.00000000000E+00  0.00000000000E+00  0.45384990155E+03  0.45384990155E+03  0.00000000000E+00 0.  1.
          4   -1    0    0  502    0  0.00000000000E+00 -0.00000000000E+00 -0.50971198928E+02  0.50971198928E+02  0.00000000000E+00 0. -1.
         23    2    1    2    0    0 -0.47588770413E+02 -0.37263305584E+02  0.36862682256E+03  0.38673645258E+03  0.10013043710E+03 0.  0.
         24    2    1    2    0    0  0.25024852212E+02  0.35132762215E+02  0.25216128816E+02  0.93685581925E+02  0.79250116082E+02 0.  0.
        -11    1    4    4    0    0  0.21369522580E+02 -0.16900757701E+02 -0.11834518219E+02  0.29704341899E+02  0.00000000000E+00 0.  1.
         12    1    4    4    0    0  0.36553296323E+01  0.52033519915E+02  0.37050647036E+02  0.63981240026E+02  0.00000000000E+00 0. -1.
        -13    1    3    3    0    0 -0.66355191402E+02 -0.47915699508E+02  0.34567893378E+03  0.35523633112E+03  0.00000000000E+00 0.  1.
         13    1    3    3    0    0  0.18766420989E+02  0.10652393924E+02  0.22947888780E+02  0.31500121468E+02  0.00000000000E+00 0. -1.
         21    1    1    2  502  501  0.22563918201E+02  0.21305433690E+01  0.90357512448E+01  0.24399065970E+02  0.00000000000E+00 0. -1.
<scales pt_clust_5="13000.00000" pt_clust_6="13000.00000" pt_clust_7="13000.00000" pt_clust_8="13000.00000" pt_clust_9="22.66428"></scales>
<clustering>
<clus scale="   22.664">  2  9  1 -1</clus>
<clus scale="   79.250">  5  6 -1 -1</clus>
<clus scale="   97.334">  2  5  1 -1</clus>
<clus scale="  100.130">  7  8 -1 -1</clus>
<clus scale="   22.664">  2  5  1 -1</clus>
</clustering>
</event>
<event>
 9    2  0.2984928E-005  0.1493295E+03  0.7546771E-02  0.1203277E+00
          2   -1    0    0  502    0  0.00000000000E+00  0.00000000000E+00  0.70407735575E+03  0.70407735575E+03  0.00000000000E+00 0. -1.
         -1   -1    0    0    0  501 -0.00000000000E+00 -0.00000000000E+00 -0.37090707159E+02  0.37090707159E+02  0.00000000000E+00 0.  1.
         23    2    1    2    0    0  0.55979088254E+02 -0.10390683344E+03  0.25695729456E+03  0.29718776475E+03  0.91450685784E+02 0.  0.
         24    2    1    2    0    0 -0.74927484881E+02  0.92694116281E+02  0.31388677026E+03  0.34534884692E+03  0.80836837763E+02 0.  0.
        -11    1    4    4    0    0 -0.38434795049E+02  0.20934181617E+02  0.38016695451E+02  0.57971911849E+02  0.00000000000E+00 0.  1.
         12    1    4    4    0    0 -0.36492689831E+02  0.71759934664E+02  0.27587007481E+03  0.28737693507E+03  0.00000000000E+00 0. -1.
        -13    1    3    3    0    0  0.67376296549E+02 -0.47977718317E+02  0.20056167396E+03  0.21694794734E+03  0.00000000000E+00 0.  1.
         13    1    3    3    0    0 -0.11397208296E+02 -0.55929115119E+02  0.56395620597E+02  0.80239817407E+02  0.00000000000E+00 0. -1.
         21    1    1    2  502  501  0.18948396627E+02  0.11212717156E+02  0.96142583773E+02  0.98631451248E+02  0.00000000000E+00 0.  1.
<scales pt_clust_5="13000.00000" pt_clust_6="13000.00000" pt_clust_7="13000.00000" pt_clust_8="13000.00000" pt_clust_9="22.01742"></scales>
<clustering>
<clus scale="   22.017">  1  9  2 -1</clus>
<clus scale="   80.837">  5  6 -1 -1</clus>
<clus scale="   91.451">  7  8 -1 -1</clus>
<clus scale="  143.076">  1  5  2 -1</clus>
<clus scale="   22.017">  1  5  2 -1</clus>
</clustering>
</event>
<event>
 9    2  0.2984928E-005  0.1009428E+03  0.7546771E-02  0.1284366E+00
          2   -1    0    0  502    0  0.00000000000E+00  0.00000000000E+00  0.28072242418E+03  0.28072242418E+03  0.00000000000E+00 0. -1.
         -1   -1    0    0    0  501 -0.00000000000E+00 -0.00000000000E+00 -0.94761606847E+02  0.94761606847E+02  0.00000000000E+00 0.  1.
         23    2    1    2    0    0  0.43561340120E+01 -0.37140876124E+02 -0.43488776660E+02  0.10846740621E+03  0.92062391511E+02 0.  0.
         24    2    1    2    0    0 -0.92882605282E+01  0.57690062707E+02  0.12010082650E+03  0.15564451030E+03  0.79916143180E+02 0.  0.
        -11    1    4    4    0    0 -0.27267702777E+02  0.48060265211E+01  0.56039918192E+01  0.28249428843E+02  0.00000000000E+00 0.  1.
         12    1    4    4    0    0  0.17979442248E+02  0.52884036186E+02  0.11449683468E+03  0.12739508145E+03  0.00000000000E+00 0. -1.
        -11    1    3    3    0    0  0.29966102464E+02  0.18758993590E+02 -0.44459491287E+01  0.35631918290E+02  0.00000000000E+00 0. -1.
         11    1    3    3    0    0 -0.25609968452E+02 -0.55899869714E+02 -0.39042827532E+02  0.72835487915E+02  0.00000000000E+00 0.  1.
         21    1    1    2  502  501  0.49321265162E+01 -0.20549186583E+02  0.10934876749E+03  0.11137211452E+03  0.00000000000E+00 0. -1.
<scales pt_clust_5="13000.00000" pt_clust_6="13000.00000" pt_clust_7="13000.00000" pt_clust_8="13000.00000" pt_clust_9="21.13279"></scales>
<clustering>
<clus scale="   21.133">  1  9  2 -1</clus>
<clus scale="   79.916">  5  6 -1 -1</clus>
<clus scale="   90.003">  1  5  2 -1</clus>
<clus scale="   92.062">  7  8 -1 -1</clus>
<clus scale="   21.133">  1  5  2 -1</clus>
</clustering>
</event>
<event>
 9    2  0.2984928E-005  0.1247871E+03  0.7546771E-02  0.1240795E+00
          2   -1    0    0  502    0  0.00000000000E+00  0.00000000000E+00  0.18307202252E+03  0.18307202252E+03  0.00000000000E+00 0. -1.
         -1   -1    0    0    0  501 -0.00000000000E+00 -0.00000000000E+00 -0.30880142627E+03  0.30880142627E+03  0.00000000000E+00 0.  1.
         23    2    1    2    0    0  0.54382945194E+02  0.60577252647E+02 -0.16864462528E+03  0.20581293241E+03  0.85386446508E+02 0.  0.
         24    2    1    2    0    0  0.30607077996E+02  0.68901411794E+02 -0.28693967834E+02  0.11542668447E+03  0.82557724822E+02 0.  0.
        -13    1    4    4    0    0  0.54109644790E+02  0.34437154553E+02  0.11269566212E+01  0.64148587702E+02  0.00000000000E+00 0.  1.
         14    1    4    4    0    0 -0.23502566794E+02  0.34464257241E+02 -0.29820924455E+02  0.51278096771E+02  0.00000000000E+00 0. -1.
        -13    1    3    3    0    0  0.60031851960E+02  0.20360817759E+02 -0.14633995769E+03  0.15947968324E+03  0.00000000000E+00 0.  1.
         13    1    3    3    0    0 -0.56489067659E+01  0.40216434887E+02 -0.22304667586E+02  0.46333249172E+02  0.00000000000E+00 0. -1.
         21    1    1    2  502  501 -0.84990023190E+02 -0.12947866444E+03  0.71609189364E+02  0.17063383190E+03  0.00000000000E+00 0. -1.
<scales pt_clust_5="13000.00000" pt_clust_6="13000.00000" pt_clust_7="13000.00000" pt_clust_8="13000.00000" pt_clust_9="90.99984"></scales>
<clustering>
<clus scale="   82.558">  5  6 -1 -1</clus>
<clus scale="   85.386">  7  8 -1 -1</clus>
<clus scale="  111.803">  1  5  2 -1</clus>
<clus scale="   91.000">  1  9  2 -1</clus>
<clus scale="  111.803">  1  5  2 -1</clus>
</clustering>
</event>
<event>
 9    2  0.2984928E-005  0.9552826E+02  0.7546771E-02  0.1297550E+00
         -1   -1    0    0    0  501 -0.00000000000E+00  0.00000000000E+00  0.10068966912E+03  0.10068966912E+03  0.00000000000E+00 0.  1.
          2   -1    0    0  502    0  0.00000000000E+00 -0.00000000000E+00 -0.25260711982E+03  0.25260711982E+03  0.00000000000E+00 0. -1.
         23    2    1    2    0    0  0.13190384076E+02  0.58750071579E+01  0.44364646932E+02  0.10491327395E+03  0.93968458603E+02 0.  0.
         24    2    1    2    0    0  0.84924946175E+01 -0.55048376737E+02 -0.12838510211E+03  0.16179154362E+03  0.81186962608E+02 0.  0.
        -11    1    4    4    0    0  0.15170169203E+02  0.17378252576E+02 -0.16572807287E+02  0.28404148246E+02  0.00000000000E+00 0.  1.
         12    1    4    4    0    0 -0.66776745854E+01 -0.72426629312E+02 -0.11181229482E+03  0.13338739538E+03  0.00000000000E+00 0. -1.
        -13    1    3    3    0    0  0.18484756970E+02  0.41893841697E+02  0.50306279136E+02  0.68025744633E+02  0.00000000000E+00 0.  1.
         13    1    3    3    0    0 -0.52943728940E+01 -0.36018834539E+02 -0.59416322035E+01  0.36887529317E+02  0.00000000000E+00 0. -1.
         21    1    1    2  502  501 -0.21682878693E+02  0.49173369579E+02 -0.67896995520E+02  0.86591971365E+02  0.00000000000E+00 0. -1.
<scales pt_clust_5="13000.00000" pt_clust_6="13000.00000" pt_clust_7="13000.00000" pt_clust_8="13000.00000" pt_clust_9="53.74167"></scales>
<clustering>
<clus scale="   53.742">  2  9  1 -1</clus>
<clus scale="   81.187">  5  6 -1 -1</clus>
<clus scale="   82.987">  2  5  1 -1</clus>
<clus scale="   93.968">  7  8 -1 -1</clus>
<clus scale="   53.742">  2  5  1 -1</clus>
</clustering>
</event>
<event>
 9    2  0.4061455E-005  0.1346299E+03  0.7546771E-02  0.1223718E+00
         -1   -1    0    0    0  501 -0.00000000000E+00  0.00000000000E+00  0.39398545223E+03  0.39398545223E+03  0.00000000000E+00 0.  1.
          2   -1    0    0  502    0  0.00000000000E+00 -0.00000000000E+00 -0.33792389521E+03  0.33792389521E+03  0.00000000000E+00 0. -1.
         23    2    1    2    0    0  0.81583966108E+02 -0.52048871629E+02  0.35592982561E+03  0.38037867919E+03  0.92934763466E+02 0.  0.
         24    2    1    2    0    0 -0.82137550777E+02  0.81387504460E+02 -0.28641737216E+03  0.31925082242E+03  0.80719721295E+02 0.  0.
        -13    1    4    4    0    0 -0.95511348038E+01  0.65824420191E+02 -0.12555014288E+03  0.14208067021E+03  0.00000000000E+00 0.  1.
         14    1    4    4    0    0 -0.72586415973E+02  0.15563084268E+02 -0.16086722928E+03  0.17717015221E+03  0.00000000000E+00 0. -1.
        -11    1    3    3    0    0  0.50951006221E+02 -0.27051211061E+02  0.32527008262E+03  0.33034587890E+03  0.00000000000E+00 0.  1.
         11    1    3    3    0    0  0.30632959886E+02 -0.24997660568E+02  0.30659742989E+02  0.50032800295E+02  0.00000000000E+00 0. -1.
         21    1    1    2  502  501  0.55358466950E+00 -0.29338632831E+02 -0.13450896430E+02  0.32279845835E+02  0.00000000000E+00 0. -1.
<scales pt_clust_5="13000.00000" pt_clust_6="13000.00000" pt_clust_7="13000.00000" pt_clust_8="13000.00000" pt_clust_9="29.34386"></scales>
<clustering>
<clus scale="   29.344">  2  9  1 -1</clus>
<clus scale="   80.720">  5  6 -1 -1</clus>
<clus scale="   92.935">  7  8 -1 -1</clus>
<clus scale="  126.507">  2  5  1 -1</clus>
<clus scale="   29.344">  2  5  1 -1</clus>
</clustering>
</event>
<event>
 9    2  0.2984928E-005  0.3727731E+03  0.7546771E-02  0.1094083E+00
          2   -1    0    0  502    0  0.00000000000E+00  0.00000000000E+00  0.19124948091E+04  0.19124948091E+04  0.00000000000E+00 0. -1.
         -1   -1    0    0    0  501 -0.00000000000E+00 -0.00000000000E+00 -0.16195580423E+03  0.16195580423E+03  0.00000000000E+00 0.  1.
         24    2    1    2    0    0  0.36246969553E+00 -0.96152366265E+02 -0.35795480462E+02  0.12882851940E+03  0.77910603045E+02 0.  0.
         23    2    1    2    0    0 -0.19183455643E+03 -0.23052527119E+03  0.43636453122E+03  0.54355265350E+03  0.12285391860E+03 0.  0.
        -13    1    3    3    0    0 -0.11294298228E+02 -0.86959039559E+02 -0.55784522848E+02  0.10392953730E+03  0.00000000000E+00 0.  1.
         14    1    3    3    0    0  0.11656767923E+02 -0.91933267062E+01  0.19989042385E+02  0.24898982104E+02  0.00000000000E+00 0. -1.
        -13    1    4    4    0    0 -0.16717109401E+03 -0.10797528047E+03  0.26229805721E+03  0.32924930779E+03  0.00000000000E+00 0.  1.
         13    1    4    4    0    0 -0.24663462415E+02 -0.12254999072E+03  0.17406647401E+03  0.21430334570E+03  0.00000000000E+00 0. -1.
         21    1    1    2  502  501  0.19147208673E+03  0.32667763745E+03  0.13499699541E+04  0.14020694404E+04  0.00000000000E+00 0. -1.
<scales pt_clust_5="13000.00000" pt_clust_6="13000.00000" pt_clust_7="13000.00000" pt_clust_8="13000.00000" pt_clust_9="351.94705"></scales>
<clustering>
<clus scale="   77.911">  5  6 -1 -1</clus>
<clus scale="  122.854">  7  8 -1 -1</clus>
<clus scale="  123.756">  2  5  1 -1</clus>
<clus scale="  351.947">  1  9  2 -1</clus>
<clus scale="  351.947">  1  5  2 -1</clus>
</clustering>
</event>
<event>
 9    2  0.2984928E-005  0.3294727E+03  0.7546771E-02  0.1094369E+00
         -1   -1    0    0    0  501 -0.00000000000E+00  0.00000000000E+00  0.50837476781E+03  0.50837476781E+03  0.00000000000E+00 0.  1.
          2   -1    0    0  502    0  0.00000000000E+00 -0.00000000000E+00 -0.82511304471E+03  0.82511304471E+03  0.00000000000E+00 0. -1.
         23    2    1    2    0    0  0.24720333184E+03  0.23621449857E+03  0.39119125348E+03  0.52775113201E+03  0.92649252187E+02 0.  0.
         24    2    1    2    0    0 -0.14411829729E+03 -0.65362128791E+02 -0.41253225292E+03  0.44925861930E+03  0.81290564115E+02 0.  0.
        -11    1    4    4    0    0 -0.32416390767E+02 -0.25250758959E+02 -0.36568435454E+02  0.55006124113E+02  0.00000000000E+00 0.  1.
         12    1    4    4    0    0 -0.11170190653E+03 -0.40111369832E+02 -0.37596381747E+03  0.39425249518E+03  0.00000000000E+00 0. -1.
        -11    1    3    3    0    0  0.23196123412E+02  0.18816760536E+01  0.54933063618E+01  0.23911864438E+02  0.00000000000E+00 0. -1.
         11    1    3    3    0    0  0.22400720843E+03  0.23433282252E+03  0.38569794711E+03  0.50383926757E+03  0.00000000000E+00 0.  1.
         21    1    1    2  502  501 -0.10308503455E+03 -0.17085236978E+03 -0.29539727744E+03  0.35647806122E+03  0.00000000000E+00 0. -1.
<scales pt_clust_5="13000.00000" pt_clust_6="13000.00000" pt_clust_7="13000.00000" pt_clust_8="13000.00000" pt_clust_9="316.17779"></scales>
<clustering>
<clus scale="   81.291">  5  6 -1 -1</clus>
<clus scale="   92.649">  7  8 -1 -1</clus>
<clus scale="  177.906">  2  5  1 -1</clus>
<clus scale="  316.178">  2  9  1 -1</clus>
<clus scale="  177.906">  2  5  1 -1</clus>
</clustering>
</event>
<event>
 9    2  0.2984928E-005  0.9956276E+02  0.7546771E-02  0.1285587E+00
          2   -1    0    0  502    0  0.00000000000E+00  0.00000000000E+00  0.40198008836E+03  0.40198008836E+03  0.00000000000E+00 0. -1.
         -1   -1    0    0    0  501 -0.00000000000E+00 -0.00000000000E+00 -0.57188690173E+02  0.57188690173E+02  0.00000000000E+00 0.  1.
         23    2    1    2    0    0 -0.35892283335E+02  0.54524758243E+01  0.81774116848E+01  0.98883477031E+02  0.91613789749E+02 0.  0.
         24    2    1    2    0    0  0.47044895941E+02 -0.31189512344E+02  0.25883163561E+03  0.27759993444E+03  0.82957218441E+02 0.  0.
        -11    1    4    4    0    0  0.22567532962E+02 -0.11201206915E+02  0.10548262075E+02  0.27313484090E+02  0.00000000000E+00 0.  1.
         12    1    4    4    0    0  0.24477362980E+02 -0.19988305429E+02  0.24828337354E+03  0.25028645035E+03  0.00000000000E+00 0. -1.
        -13    1    3    3    0    0 -0.54750547104E+02  0.17223504245E+02  0.32478730010E+02  0.65948005351E+02  0.00000000000E+00 0.  1.
         13    1    3    3    0    0  0.18858263768E+02 -0.11771028421E+02 -0.24301318325E+02  0.32935471680E+02  0.00000000000E+00 0. -1.
         21    1    1    2  502  501 -0.11152612606E+02  0.25737036520E+02  0.77782350890E+02  0.82685367066E+02  0.00000000000E+00 0. -1.
<scales pt_clust_5="13000.00000" pt_clust_6="13000.00000" pt_clust_7="13000.00000" pt_clust_8="13000.00000" pt_clust_9="28.04952"></scales>
<clustering>
<clus scale="   28.050">  1  9  2 -1</clus>
<clus scale="   82.957">  5  6 -1 -1</clus>
<clus scale="   91.614">  7  8 -1 -1</clus>
<clus scale="   91.660">  1  5  2 -1</clus>
<clus scale="   28.050">  1  5  2 -1</clus>
</clustering>
</event>
<event>
 9    2  0.2984928E-005  0.1002011E+03  0.7546771E-02  0.1284307E+00
          2   -1    0    0  502    0  0.00000000000E+00  0.00000000000E+00  0.26872604149E+03  0.26872604149E+03  0.00000000000E+00 0. -1.
         -1   -1    0    0    0  501 -0.00000000000E+00 -0.00000000000E+00 -0.69216811537E+02  0.69216811537E+02  0.00000000000E+00 0.  1.
         24    2    1    2    0    0  0.33603241517E+02  0.34718217153E+02 -0.63485691394E+01  0.94388006139E+02  0.80834763129E+02 0.  0.
         23    2    1    2    0    0 -0.22169495556E+01 -0.37082106109E+02  0.13918335828E+03  0.16982447084E+03  0.89935233452E+02 0.  0.
        -11    1    3    3    0    0  0.27464496386E+02  0.30401852713E+02 -0.41575683846E+02  0.58370443697E+02  0.00000000000E+00 0.  1.
         12    1    3    3    0    0  0.61387451302E+01  0.43163644399E+01  0.35227114706E+02  0.36017562442E+02  0.00000000000E+00 0. -1.
        -13    1    4    4    0    0  0.41031352263E+02 -0.24879673896E+02  0.46487065053E+02  0.66810308030E+02  0.00000000000E+00 0.  1.
         13    1    4    4    0    0 -0.43248301819E+02 -0.12202432213E+02  0.92696293226E+02  0.10301416281E+03  0.00000000000E+00 0. -1.
         21    1    1    2  502  501 -0.31386291961E+02  0.23638889557E+01  0.66674440816E+02  0.73730376048E+02  0.00000000000E+00 0.  1.
<scales pt_clust_5="13000.00000" pt_clust_6="13000.00000" pt_clust_7="13000.00000" pt_clust_8="13000.00000" pt_clust_9="31.47519"></scales>
<clustering>
<clus scale="   31.475">  1  9  2 -1</clus>
<clus scale="   80.835">  5  6 -1 -1</clus>
<clus scale="   89.935">  7  8 -1 -1</clus>
<clus scale="   92.120">  2  5  1 -1</clus>
<clus scale="   31.475">  1  5  2 -1</clus>
</clustering>
</event>
<event>
 9    2  0.2984928E-005  0.9185035E+02  0.7546771E-02  0.1303526E+00
          2   -1    0    0  502    0  0.00000000000E+00  0.00000000000E+00  0.76590787627E+03  0.76590787627E+03  0.00000000000E+00 0. -1.
         -1   -1    0    0    0  501 -0.00000000000E+00 -0.00000000000E+00 -0.23633731355E+02  0.23633731355E+02  0.00000000000E+00 0.  1.
         24    2    1    2    0    0 -0.24623588807E+01 -0.23177871759E+02  0.89471659596E+02  0.12203554908E+03  0.79650614669E+02 0.  0.
         23    2    1    2    0    0  0.38094051038E+02  0.24690944089E+02  0.39628436235E+03  0.40852062597E+03  0.88244017124E+02 0.  0.
        -13    1    3    3    0    0  0.17207389734E+02 -0.40541746986E+02  0.21166621051E+02  0.48864643218E+02  0.00000000000E+00 0.  1.
         14    1    3    3    0    0 -0.19669748615E+02  0.17363875227E+02  0.68305038546E+02  0.73170905859E+02  0.00000000000E+00 0. -1.
        -13    1    4    4    0    0  0.61209164582E+02  0.36593562043E+02  0.25126811211E+03  0.26119210320E+03  0.00000000000E+00 0. -1.
         13    1    4    4    0    0 -0.23115113544E+02 -0.11902617954E+02  0.14501625024E+03  0.14732852277E+03  0.00000000000E+00 0.  1.
         21    1    1    2  502  501 -0.35631692157E+02 -0.15130723299E+01  0.25651812297E+03  0.25898543257E+03  0.00000000000E+00 0.  1.
<scales pt_clust_5="13000.00000" pt_clust_6="13000.00000" pt_clust_7="13000.00000" pt_clust_8="13000.00000" pt_clust_9="35.66380"></scales>
<clustering>
<clus scale="   35.664">  1  9  2 -1</clus>
<clus scale="   79.651">  5  6 -1 -1</clus>
<clus scale="   83.628">  2  5  1 -1</clus>
<clus scale="   88.244">  7  8 -1 -1</clus>
<clus scale="   35.664">  1  5  2 -1</clus>
</clustering>
</event>
<event>
 9    2  0.2984928E-005  0.1051882E+03  0.7546771E-02  0.1273545E+00
         -1   -1    0    0    0  501 -0.00000000000E+00  0.00000000000E+00  0.25030118857E+03  0.25030118857E+03  0.00000000000E+00 0.  1.
          2   -1    0    0  502    0  0.00000000000E+00 -0.00000000000E+00 -0.29883386674E+03  0.29883386674E+03  0.00000000000E+00 0. -1.
         24    2    1    2    0    0  0.23229624663E+02  0.49027800238E+02  0.20176395529E+03  0.22516846651E+03  0.83957155721E+02 0.  0.
         23    2    1    2    0    0 -0.20706775875E+02 -0.19703871721E+02 -0.29487033914E+02  0.10120407668E+03  0.92497388290E+02 0.  0.
        -11    1    3    3    0    0  0.38358874347E+02  0.66372773429E+02  0.16202999287E+03  0.17924973329E+03  0.00000000000E+00 0.  1.
         12    1    3    3    0    0 -0.15129249684E+02 -0.17344973190E+02  0.39733962416E+02  0.45918733217E+02  0.00000000000E+00 0. -1.
        -13    1    4    4    0    0  0.33395905180E+02 -0.18857859835E+02 -0.27251955733E+02  0.47048639211E+02  0.00000000000E+00 0. -1.
         13    1    4    4    0    0 -0.54102681055E+02 -0.84601188545E+00 -0.22350781808E+01  0.54155437473E+02  0.00000000000E+00 0.  1.
         21    1    1    2  502  501 -0.25228487884E+01 -0.29323928518E+02 -0.22080959955E+03  0.22276251211E+03  0.00000000000E+00 0. -1.
<scales pt_clust_5="13000.00000" pt_clust_6="13000.00000" pt_clust_7="13000.00000" pt_clust_8="13000.00000" pt_clust_9="29.43225"></scales>
<clustering>
<clus scale="   29.432">  2  9  1 -1</clus>
<clus scale="   83.957">  5  6 -1 -1</clus>
<clus scale="   92.497">  7  8 -1 -1</clus>
<clus scale="   97.763">  1  5  2 -1</clus>
<clus scale="   29.432">  2  5  1 -1</clus>
</clustering>
</event>
<event>
 9    2  0.2984928E-005  0.1264158E+03  0.7546771E-02  0.1235058E+00
         -1   -1    0    0    0  501 -0.00000000000E+00  0.00000000000E+00  0.16359387452E+03  0.16359387452E+03  0.00000000000E+00 0.  1.
          2   -1    0    0  502    0  0.00000000000E+00 -0.00000000000E+00 -0.17333975608E+03  0.17333975608E+03  0.00000000000E+00 0. -1.
         23    2    1    2    0    0  0.90634807596E+02  0.27392036949E+01  0.68965835303E+02  0.14479041135E+03  0.89363332492E+02 0.  0.
         24    2    1    2    0    0 -0.86785276597E+02  0.20355322327E+02 -0.11792405728E+02  0.12124632070E+03  0.81336253107E+02 0.  0.
        -11    1    4    4    0    0 -0.38909163405E+02 -0.29186914116E+02 -0.18469907794E+02  0.52028227401E+02  0.00000000000E+00 0.  1.
         12    1    4    4    0    0 -0.47876113192E+02  0.49542236444E+02  0.66775020668E+01  0.69218093300E+02  0.00000000000E+00 0. -1.
        -13    1    3    3    0    0  0.64996533370E+02  0.21319902891E+01  0.90404298673E+02  0.11136441061E+03  0.00000000000E+00 0.  1.
         13    1    3    3    0    0  0.25638274226E+02  0.60721340587E+00 -0.21438463370E+02  0.33426000734E+02  0.00000000000E+00 0. -1.
         21    1    1    2  502  501 -0.38495309984E+01 -0.23094526022E+02 -0.66919311137E+02  0.70896898551E+02  0.00000000000E+00 0. -1.
<scales pt_clust_5="13000.00000" pt_clust_6="13000.00000" pt_clust_7="13000.00000" pt_clust_8="13000.00000" pt_clust_9="23.41316"></scales>
<clustering>
<clus scale="   23.413">  2  9  1 -1</clus>
<clus scale="   81.336">  5  6 -1 -1</clus>
<clus scale="   89.363">  7  8 -1 -1</clus>
<clus scale="  120.875">  2  5  1 -1</clus>
<clus scale="   23.413">  2  5  1 -1</clus>
</clustering>
</event>
<event>
 9    2  0.2984928E-005  0.1937268E+03  0.7546771E-02  0.1173651E+00
         -1   -1    0    0    0  501 -0.00000000000E+00  0.00000000000E+00  0.14012620598E+03  0.14012620598E+03  0.00000000000E+00 0.  1.
          2   -1    0    0  502    0  0.00000000000E+00 -0.00000000000E+00 -0.67802490344E+03  0.67802490344E+03  0.00000000000E+00 0. -1.
         24    2    1    2    0    0 -0.91356966692E+02 -0.15443945527E+02  0.33264550184E+02  0.13063492021E+03  0.85873984791E+02 0.  0.
         23    2    1    2    0    0 -0.10761428444E+03  0.55581394909E+02 -0.12192575639E+03  0.19455077747E+03  0.91181079554E+02 0.  0.
        -13    1    3    3    0    0 -0.10377272303E+03 -0.26610379977E+02  0.37331365018E+02  0.11344831943E+03  0.00000000000E+00 0.  1.
         14    1    3    3    0    0  0.12415756335E+02  0.11166434450E+02 -0.40668148339E+01  0.17186600786E+02  0.00000000000E+00 0. -1.
        -13    1    4    4    0    0 -0.90523917061E+00 -0.20422227974E+02 -0.13550200034E+02  0.24525390401E+02  0.00000000000E+00 0. -1.
         13    1    4    4    0    0 -0.10670904527E+03  0.76003622882E+02 -0.10837555636E+03  0.17002538707E+03  0.00000000000E+00 0.  1.
         21    1    1    2  502  501  0.19897125113E+03 -0.40137449382E+02 -0.44923749125E+03  0.49296541173E+03  0.00000000000E+00 0. -1.
<scales pt_clust_5="13000.00000" pt_clust_6="13000.00000" pt_clust_7="13000.00000" pt_clust_8="13000.00000" pt_clust_9="170.92715"></scales>
<clustering>
<clus scale="   85.874">  5  6 -1 -1</clus>
<clus scale="   91.181">  7  8 -1 -1</clus>
<clus scale="  126.329">  1  5  2 -1</clus>
<clus scale="  170.927">  2  9  1 -1</clus>
<clus scale="  170.927">  2  5  1 -1</clus>
</clustering>
</event>
<event>
 9    2  0.7474464E-005  0.1589360E+03  0.7546771E-02  0.1191684E+00
          2   -1    0    0  502    0  0.00000000000E+00  0.00000000000E+00  0.87363861572E+03  0.87363861572E+03  0.00000000000E+00 0. -1.
         -1   -1    0    0    0  501 -0.00000000000E+00 -0.00000000000E+00 -0.24277516027E+03  0.24277516027E+03  0.00000000000E+00 0.  1.
         23    2    1    2    0    0 -0.13897471068E+02 -0.13025059896E+03 -0.20244809384E+03  0.25777872671E+03  0.91138811782E+02 0.  0.
         24    2    1    2    0    0  0.25308842170E+02  0.10496884060E+03  0.81356289991E+03  0.82458514696E+03  0.79981732174E+02 0.  0.
        -13    1    4    4    0    0  0.32421956222E+02  0.37087934116E+01  0.17793185073E+03  0.18089964593E+03  0.00000000000E+00 0.  1.
         14    1    4    4    0    0 -0.71131140515E+01  0.10126004718E+03  0.63563104919E+03  0.64368550103E+03  0.00000000000E+00 0. -1.
        -11    1    3    3    0    0  0.10043761459E+02 -0.10406029426E+03 -0.19538899918E+03  0.22159937497E+03  0.00000000000E+00 0.  1.
         11    1    3    3    0    0 -0.23941232527E+02 -0.26190304694E+02 -0.70590946614E+01  0.36179351740E+02  0.00000000000E+00 0. -1.
         21    1    1    2  502  501 -0.11411371103E+02  0.25281758363E+02  0.19748649367E+02  0.34049902323E+02  0.00000000000E+00 0. -1.
<scales pt_clust_5="13000.00000" pt_clust_6="13000.00000" pt_clust_7="13000.00000" pt_clust_8="13000.00000" pt_clust_9="27.73782"></scales>
<clustering>
<clus scale="   27.738">  1  9  2 -1</clus>
<clus scale="   79.982">  5  6 -1 -1</clus>
<clus scale="   91.139">  7  8 -1 -1</clus>
<clus scale="  152.812">  1  5  2 -1</clus>
<clus scale="   27.738">  1  5  2 -1</clus>
</clustering>
</event>
<event>
 9    2  0.2984928E-005  0.1103009E+03  0.7546771E-02  0.1264425E+00
          2   -1    0    0  502    0  0.00000000000E+00  0.00000000000E+00  0.38956000145E+03  0.38956000145E+03  0.00000000000E+00 0. -1.
         -1   -1    0    0    0  501 -0.00000000000E+00 -0.00000000000E+00 -0.12922204640E+03  0.12922204640E+03  0.00000000000E+00 0.  1.
         24    2    1    2    0    0 -0.66323108423E+02 -0.10262362849E+02 -0.77333323434E+02  0.13043300667E+03  0.80797620719E+02 0.  0.
         23    2    1    2    0    0  0.22093828108E+02  0.45870439432E+02  0.10398940034E+03  0.14786747321E+03  0.91971516226E+02 0.  0.
        -11    1    3    3    0    0 -0.39046967311E+02 -0.45699640985E+02 -0.40276571002E+02  0.72355545841E+02  0.00000000000E+00 0.  1.
         12    1    3    3    0    0 -0.27276141112E+02  0.35437278136E+02 -0.37056752432E+02  0.58077460830E+02  0.00000000000E+00 0. -1.
        -11    1    4    4    0    0 -0.23676779791E+02 -0.15659038638E+02  0.26078849230E+02  0.38547396404E+02  0.00000000000E+00 0.  1.
         11    1    4    4    0    0  0.45770607900E+02  0.61529478070E+02  0.77910551107E+02  0.10932007681E+03  0.00000000000E+00 0. -1.
         21    1    1    2  502  501  0.44229280315E+02 -0.35608076583E+02  0.23368187815E+03  0.24048156797E+03  0.00000000000E+00 0. -1.
<scales pt_clust_5="13000.00000" pt_clust_6="13000.00000" pt_clust_7="13000.00000" pt_clust_8="13000.00000" pt_clust_9="56.78173"></scales>
<clustering>
<clus scale="   56.782">  1  9  2 -1</clus>
<clus scale="   80.798">  5  6 -1 -1</clus>
<clus scale="   91.972">  7  8 -1 -1</clus>
<clus scale="  101.172">  2  5  1 -1</clus>
<clus scale="   56.782">  1  5  2 -1</clus>
</clustering>
</event>
<event>
 9    2  0.2984928E-005  0.1637127E+03  0.7546771E-02  0.1184821E+00
         -1   -1    0    0    0  501 -0.00000000000E+00  0.00000000000E+00  0.21028360123E+03  0.21028360123E+03  0.00000000000E+00 0.  1.
          2   -1    0    0  502    0  0.00000000000E+00 -0.00000000000E+00 -0.61032897153E+03  0.61032897153E+03  0.00000000000E+00 0. -1.
         24    2    1    2    0    0 -0.11327904017E+03  0.70272253771E+02  0.14739695418E+03  0.21969703174E+03  0.93651444538E+02 0.  0.
         23    2    1    2    0    0  0.89962177882E+02 -0.12585170722E+03 -0.33762718818E+03  0.38261496125E+03  0.92033932405E+02 0.  0.
        -13    1    3    3    0    0 -0.26488207276E+02  0.66403432705E+02  0.92584262271E+02  0.11697387153E+03  0.00000000000E+00 0.  1.
         14    1    3    3    0    0 -0.86790832892E+02  0.38688210658E+01  0.54812691904E+02  0.10272316021E+03  0.00000000000E+00 0. -1.
        -13    1    4    4    0    0  0.21378628607E+02  0.11567069849E+02 -0.28649724632E+02  0.37571925523E+02  0.00000000000E+00 0.  1.
         13    1    4    4    0    0  0.68583549275E+02 -0.13741877707E+03 -0.30897746355E+03  0.34504303573E+03  0.00000000000E+00 0. -1.
         21    1    1    2  502  501  0.23316862286E+02  0.55579453453E+02 -0.20981513629E+03  0.21830057978E+03  0.00000000000E+00 0.  1.
<scales pt_clust_5="13000.00000" pt_clust_6="13000.00000" pt_clust_7="13000.00000" pt_clust_8="13000.00000" pt_clust_9="60.27231"></scales>
<clustering>
<clus scale="   60.272">  2  9  1 -1</clus>
<clus scale="   92.034">  7  8 -1 -1</clus>
<clus scale="   93.651">  5  6 -1 -1</clus>
<clus scale="  162.793">  2  7  1 -1</clus>
<clus scale="   60.272">  2  5  1 -1</clus>
</clustering>
</event>
<event>
 9    2  0.2984928E-005  0.1195053E+03  0.7546771E-02  0.1247483E+00
         -1   -1    0    0    0  501 -0.00000000000E+00  0.00000000000E+00  0.27773996499E+03  0.27773996499E+03  0.00000000000E+00 0.  1.
          2   -1    0    0  502    0  0.00000000000E+00 -0.00000000000E+00 -0.13259100340E+03  0.13259100340E+03  0.00000000000E+00 0. -1.
         23    2    1    2    0    0 -0.48839252463E+02  0.43609855303E+02  0.13879393525E+03  0.17823967521E+03  0.90656126629E+02 0.  0.
         24    2    1    2    0    0  0.39102521439E+02 -0.11514241753E+03  0.42532129602E+02  0.15134171615E+03  0.79426377866E+02 0.  0.
        -13    1    4    4    0    0  0.38358781058E+02 -0.24459482142E+02  0.40067366813E+02  0.60622242075E+02  0.00000000000E+00 0.  1.
         14    1    4    4    0    0  0.74374038052E+00 -0.90682935393E+02  0.24647627884E+01  0.90719474077E+02  0.00000000000E+00 0. -1.
        -13    1    3    3    0    0  0.22064727564E+02  0.42853871211E+00  0.59405290925E+02  0.63372110883E+02  0.00000000000E+00 0.  1.
         13    1    3    3    0    0 -0.70903980027E+02  0.43181316591E+02  0.79388644325E+02  0.11486756432E+03  0.00000000000E+00 0. -1.
         21    1    1    2  502  501  0.97367310239E+01  0.71532562231E+02 -0.36177103264E+02  0.80749577033E+02  0.00000000000E+00 0. -1.
<scales pt_clust_5="13000.00000" pt_clust_6="13000.00000" pt_clust_7="13000.00000" pt_clust_8="13000.00000" pt_clust_9="72.19218"></scales>
<clustering>
<clus scale="   72.192">  2  9  1 -1</clus>
<clus scale="   79.426">  5  6 -1 -1</clus>
<clus scale="   90.656">  7  8 -1 -1</clus>
<clus scale="  111.227">  2  5  1 -1</clus>
<clus scale="   72.192">  2  5  1 -1</clus>
</clustering>
</event>
<event>
 9    2  0.2984928E-005  0.1473041E+03  0.7546771E-02  0.1226246E+00
         -1   -1    0    0    0  501 -0.00000000000E+00  0.00000000000E+00  0.12623459044E+03  0.12623459044E+03  0.00000000000E+00 0.  1.
          2   -1    0    0  502    0  0.00000000000E+00 -0.00000000000E+00 -0.52084249607E+03  0.52084249607E+03  0.00000000000E+00 0. -1.
         24    2    1    2    0    0  0.39124699336E+02  0.20924390718E+02  0.59881679758E+02  0.10946092402E+03  0.80170481421E+02 0.  0.
         23    2    1    2    0    0 -0.90384993080E+02 -0.11247276701E+03 -0.20657007763E+03  0.26840842626E+03  0.92478732816E+02 0.  0.
        -13    1    3    3    0    0  0.78719958280E+01 -0.27049430112E+02  0.23112603698E+01  0.28266268098E+02  0.00000000000E+00 0.  1.
         14    1    3    3    0    0  0.31252703508E+02  0.47973820830E+02  0.57570419388E+02  0.81194655921E+02  0.00000000000E+00 0. -1.
        -11    1    4    4    0    0 -0.10291237176E+03 -0.91769100006E+02 -0.20071080087E+03  0.24351047116E+03  0.00000000000E+00 0. -1.
         11    1    4    4    0    0  0.12527378681E+02 -0.20703667007E+02 -0.58592767540E+01  0.24897955101E+02  0.00000000000E+00 0.  1.
         21    1    1    2  502  501  0.51260293744E+02  0.91548376294E+02 -0.24791950776E+03  0.26920773623E+03  0.00000000000E+00 0. -1.
<scales pt_clust_5="13000.00000" pt_clust_6="13000.00000" pt_clust_7="13000.00000" pt_clust_8="13000.00000" pt_clust_9="114.65684"></scales>
<clustering>
<clus scale="   80.170">  5  6 -1 -1</clus>
<clus scale="   91.629">  1  5  2 -1</clus>
<clus scale="   92.479">  7  8 -1 -1</clus>
<clus scale="  114.657">  2  9  1 -1</clus>
<clus scale="  114.657">  2  5  1 -1</clus>
</clustering>
</event>
<event>
 9    2  0.2984928E-005  0.9453822E+02  0.7546771E-02  0.1298609E+00
          2   -1    0    0  502    0  0.00000000000E+00  0.00000000000E+00  0.22434385057E+03  0.22434385057E+03  0.00000000000E+00 0. -1.
         -1   -1    0    0    0  501 -0.00000000000E+00 -0.00000000000E+00 -0.85572368507E+02  0.85572368507E+02  0.00000000000E+00 0.  1.
         24    2    1    2    0    0  0.95667032291E+01 -0.28123177512E+02 -0.35808610484E+02  0.92503004063E+02  0.79950698883E+02 0.  0.
         23    2    1    2    0    0 -0.11268515716E+02  0.70780935546E+01  0.84492678125E+02  0.12488465747E+03  0.90994978758E+02 0.  0.
        -11    1    3    3    0    0  0.15082897587E+02  0.22074499065E+02  0.54579142891E+01  0.27286739215E+02  0.00000000000E+00 0.  1.
         12    1    3    3    0    0 -0.55161943581E+01 -0.50197676577E+02 -0.41266524773E+02  0.65216264848E+02  0.00000000000E+00 0. -1.
        -11    1    4    4    0    0  0.75215729834E+01 -0.40294699497E+02  0.36799961819E+02  0.55086060465E+02  0.00000000000E+00 0. -1.
         11    1    4    4    0    0 -0.18790088700E+02  0.47372793051E+02  0.47692716306E+02  0.69798597002E+02  0.00000000000E+00 0.  1.
         21    1    1    2  502  501  0.17018124871E+01  0.21045083957E+02  0.90087414423E+02  0.92528557548E+02  0.00000000000E+00 0. -1.
<scales pt_clust_5="13000.00000" pt_clust_6="13000.00000" pt_clust_7="13000.00000" pt_clust_8="13000.00000" pt_clust_9="21.11378"></scales>
<clustering>
<clus scale="   21.114">  1  9  2 -1</clus>
<clus scale="   79.951">  5  6 -1 -1</clus>
<clus scale="   83.961">  2  5  1 -1</clus>
<clus scale="   90.995">  7  8 -1 -1</clus>
<clus scale="   21.114">  1  5  2 -1</clus>
</clustering>
</event>
<event>
 9    2  0.2984928E-005  0.9919072E+02  0.7546771E-02  0.1287618E+00
         -1   -1    0    0    0  501 -0.00000000000E+00  0.00000000000E+00  0.37597820452E+02  0.37597820452E+02  0.00000000000E+00 0.  1.
          2   -1    0    0  502    0  0.00000000000E+00 -0.00000000000E+00 -0.10735965804E+04  0.10735965804E+04  0.00000000000E+00 0. -1.
         23    2    1    2    0    0 -0.17284005150E+02 -0.32798286065E+02 -0.55795410939E+02  0.11327613760E+03  0.91344901688E+02 0.  0.
         24    2    1    2    0    0  0.77432209650E+02  0.14048014516E+02 -0.77896527053E+03  0.78704829522E+03  0.80405425933E+02 0.  0.
        -13    1    4    4    0    0  0.31954155729E+02  0.11230638772E+02 -0.83725366841E+02  0.90316844322E+02  0.00000000000E+00 0.  1.
         14    1    4    4    0    0  0.45478053921E+02  0.28173757443E+01 -0.69523990369E+03  0.69673145090E+03  0.00000000000E+00 0. -1.
        -11    1    3    3    0    0 -0.36525718888E+02  0.14020464698E+02 -0.16559624487E+01  0.39159210695E+02  0.00000000000E+00 0. -1.
         11    1    3    3    0    0  0.19241713738E+02 -0.46818750763E+02 -0.54139448490E+02  0.74116926902E+02  0.00000000000E+00 0.  1.
         21    1    1    2  502  501 -0.60148204500E+02  0.18750271549E+02 -0.20123807849E+03  0.21086996804E+03  0.00000000000E+00 0.  1.
<scales pt_clust_5="13000.00000" pt_clust_6="13000.00000" pt_clust_7="13000.00000" pt_clust_8="13000.00000" pt_clust_9="63.00301"></scales>
<clustering>
<clus scale="   63.003">  2  9  1 -1</clus>
<clus scale="   80.405">  5  6 -1 -1</clus>
<clus scale="   89.218">  2  5  1 -1</clus>
<clus scale="   91.345">  7  8 -1 -1</clus>
<clus scale="   63.003">  2  5  1 -1</clus>
</clustering>
</event>
<event>
 9    2  0.2984928E-005  0.1706124E+03  0.7546771E-02  0.1178983E+00
         -1   -1    0    0    0  501 -0.00000000000E+00  0.00000000000E+00  0.14809256079E+03  0.14809256079E+03  0.00000000000E+00 0.  1.
          2   -1    0    0  502    0  0.00000000000E+00 -0.00000000000E+00 -0.40207267700E+03  0.40207267700E+03  0.00000000000E+00 0. -1.
         24    2    1    2    0    0  0.12350586080E+03 -0.52838650769E+02  0.18410695121E+02  0.15687559745E+03  0.78901069170E+02 0.  0.
         23    2    1    2    0    0 -0.12824163015E+03  0.12652364778E+03 -0.15596023470E+03  0.25542018950E+03  0.91987658126E+02 0.  0.
        -13    1    3    3    0    0  0.41460252580E+02 -0.60305224938E+02  0.44612093932E+01  0.73318313456E+02  0.00000000000E+00 0.  1.
         14    1    3    3    0    0  0.82045608215E+02  0.74665741688E+01  0.13949485727E+02  0.83557283999E+02  0.00000000000E+00 0. -1.
        -13    1    4    4    0    0 -0.13404054185E+03  0.83133492753E+02 -0.13095818491E+03  0.20500753808E+03  0.00000000000E+00 0. -1.
         13    1    4    4    0    0  0.57989116910E+01  0.43390155023E+02 -0.25002049791E+02  0.50412651423E+02  0.00000000000E+00 0.  1.
         21    1    1    2  502  501  0.47357693595E+01 -0.73684997007E+02 -0.11643057664E+03  0.13786945083E+03  0.00000000000E+00 0. -1.
<scales pt_clust_5="13000.00000" pt_clust_6="13000.00000" pt_clust_7="13000.00000" pt_clust_8="13000.00000" pt_clust_9="73.83703"></scales>
<clustering>
<clus scale="   73.837">  2  9  1 -1</clus>
<clus scale="   78.901">  5  6 -1 -1</clus>
<clus scale="   91.988">  7  8 -1 -1</clus>
<clus scale="  163.928">  1  5  2 -1</clus>
<clus scale="   73.837">  2  5  1 -1</clus>
</clustering>
</event>
<event>
 9    2  0.2984928E-005  0.1300676E+03  0.7546771E-02  0.1232663E+00
         -1   -1    0    0    0  501 -0.00000000000E+00  0.00000000000E+00  0.31397160384E+03  0.31397160384E+03  0.00000000000E+00 0.  1.
          2   -1    0    0  502    0  0.00000000000E+00 -0.00000000000E+00 -0.55701865354E+03  0.55701865354E+03  0.00000000000E+00 0. -1.
         24    2    1    2    0    0  0.48534727153E+02 -0.78467199651E+02  0.28750438444E+03  0.31043816993E+03  0.72113557093E+02 0.  0.
         23    2    1    2    0    0 -0.75359436621E+02  0.38751190678E+02 -0.30106878900E+03  0.32611827841E+03  0.92358087546E+02 0.  0.
        -13    1    3    3    0    0  0.54930427983E+02 -0.26957669400E+02  0.19489846387E+03  0.20427794564E+03  0.00000000000E+00 0.  1.
         14    1    3    3    0    0 -0.63957008297E+01 -0.51509530251E+02  0.92605920568E+02  0.10616022428E+03  0.00000000000E+00 0. -1.
        -11    1    4    4    0    0 -0.56552689084E+02  0.60782181843E+02 -0.27461357276E+03  0.28688899355E+03  0.00000000000E+00 0. -1.
         11    1    4    4    0    0 -0.18806747537E+02 -0.22030991165E+02 -0.26455216237E+02  0.39229284862E+02  0.00000000000E+00 0.  1.
         21    1    1    2  502  501  0.26824709468E+02  0.39716008973E+02 -0.22948264513E+03  0.23443380905E+03  0.00000000000E+00 0. -1.
<scales pt_clust_5="13000.00000" pt_clust_6="13000.00000" pt_clust_7="13000.00000" pt_clust_8="13000.00000" pt_clust_9="47.92626"></scales>
<clustering>
<clus scale="   47.926">  2  9  1 -1</clus>
<clus scale="   72.114">  5  6 -1 -1</clus>
<clus scale="   92.358">  7  8 -1 -1</clus>
<clus scale="  116.567">  1  5  2 -1</clus>
<clus scale="   47.926">  2  5  1 -1</clus>
</clustering>
</event>
<event>
 9    2  0.2984928E-005  0.2579588E+03  0.7546771E-02  0.1108953E+00
         -1   -1    0    0    0  501 -0.00000000000E+00  0.00000000000E+00  0.16091122706E+03  0.16091122706E+03  0.00000000000E+00 0.  1.
          2   -1    0    0  502    0  0.00000000000E+00 -0.00000000000E+00 -0.73363305075E+03  0.73363305075E+03  0.00000000000E+00 0. -1.
         23    2    1    2    0    0 -0.53557530169E+01  0.23783792791E+03 -0.55618689667E+02  0.26108382433E+03  0.92063894350E+02 0.  0.
         24    2    1    2    0    0  0.91467337412E+02 -0.24442091709E+03 -0.43865665082E+03  0.51678829981E+03  0.80886531573E+02 0.  0.
        -11    1    4    4    0    0  0.61940236489E+01 -0.75923439953E+02 -0.74357139668E+02  0.10645054665E+03  0.00000000000E+00 0.  1.
         12    1    4    4    0    0  0.85273313763E+02 -0.16849747714E+03 -0.36429951115E+03  0.41033775316E+03  0.00000000000E+00 0. -1.
        -11    1    3    3    0    0  0.33838693593E+02  0.15991111889E+03 -0.12910424636E+02  0.16396128261E+03  0.00000000000E+00 0.  1.
         11    1    3    3    0    0 -0.39194446610E+02  0.77926809019E+02 -0.42708265031E+02  0.97122541724E+02  0.00000000000E+00 0. -1.
         21    1    1    2  502  501 -0.86111584395E+02  0.65829891769E+01 -0.78446483209E+02  0.11667215367E+03  0.00000000000E+00 0. -1.
<scales pt_clust_5="13000.00000" pt_clust_6="13000.00000" pt_clust_7="13000.00000" pt_clust_8="13000.00000" pt_clust_9="86.36284"></scales>
<clustering>
<clus scale="   80.887">  5  6 -1 -1</clus>
<clus scale="   86.363">  2  9  1 -1</clus>
<clus scale="   92.064">  7  8 -1 -1</clus>
<clus scale="  254.184">  2  5  1 -1</clus>
<clus scale="   86.363">  2  5  1 -1</clus>
</clustering>
</event>
<event>
 9    2  0.2984928E-005  0.1758099E+03  0.7546771E-02  0.1185345E+00
         -1   -1    0    0    0  501 -0.00000000000E+00  0.00000000000E+00  0.43054216812E+03  0.43054216812E+03  0.00000000000E+00 0.  1.
          2   -1    0    0  502    0  0.00000000000E+00 -0.00000000000E+00 -0.12809198782E+04  0.12809198782E+04  0.00000000000E+00 0. -1.
         24    2    1    2    0    0 -0.13680067529E+03 -0.76891785842E+02  0.39233099835E+03  0.42989776344E+03  0.79130924736E+02 0.  0.
         23    2    1    2    0    0 -0.46092724418E+02  0.77653038436E+02 -0.48591407003E+03  0.50298307332E+03  0.93407467415E+02 0.  0.
        -11    1    3    3    0    0 -0.13710718999E+03 -0.81357130305E+02  0.32084783753E+03  0.35827461401E+03  0.00000000000E+00 0.  1.
         12    1    3    3    0    0  0.30651469297E+00  0.44653444633E+01  0.71483160828E+02  0.71623149431E+02  0.00000000000E+00 0. -1.
        -13    1    4    4    0    0 -0.35614281361E+02  0.99032285647E+02 -0.41686549449E+03  0.42994489314E+03  0.00000000000E+00 0. -1.
         13    1    4    4    0    0 -0.10478443057E+02 -0.21379247211E+02 -0.69048575542E+02  0.73038180184E+02  0.00000000000E+00 0.  1.
         21    1    1    2  502  501  0.18289339971E+03 -0.76125259429E+00 -0.75679463844E+03  0.77858120960E+03  0.00000000000E+00 0. -1.
<scales pt_clust_5="13000.00000" pt_clust_6="13000.00000" pt_clust_7="13000.00000" pt_clust_8="13000.00000" pt_clust_9="156.99493"></scales>
<clustering>
<clus scale="   79.131">  5  6 -1 -1</clus>
<clus scale="   93.407">  7  8 -1 -1</clus>
<clus scale="  129.921">  2  7  1 -1</clus>
<clus scale="  156.995">  2  9  1 -1</clus>
<clus scale="  129.921">  2  5  1 -1</clus>
</clustering>
</event>
<event>
 9    2  0.2984928E-005  0.1068557E+03  0.7546771E-02  0.1269651E+00
         -3   -1    0    0    0  501 -0.00000000000E+00  0.00000000000E+00  0.40696061453E+02  0.40696061453E+02  0.00000000000E+00 0.  1.
          4   -1    0    0  502    0  0.00000000000E+00 -0.00000000000E+00 -0.55658806909E+03  0.55658806909E+03  0.00000000000E+00 0. -1.
         23    2    1    2    0    0  0.15498629991E+02 -0.70683061661E+02 -0.77536127598E+02  0.13853606981E+03  0.89129618073E+02 0.  0.
         24    2    1    2    0    0 -0.16341334671E+02  0.24967471749E+02 -0.24003143484E+03  0.25522113161E+03  0.81439071999E+02 0.  0.
        -11    1    4    4    0    0  0.33219764952E+02  0.10533201495E+02 -0.87123601335E+02  0.93835084200E+02  0.00000000000E+00 0.  1.
         12    1    4    4    0    0 -0.49561099624E+02  0.14434270253E+02 -0.15290783350E+03  0.16138604741E+03  0.00000000000E+00 0. -1.
        -13    1    3    3    0    0  0.52731141797E+02 -0.47308221454E+02 -0.48209518060E+02  0.85690132244E+02  0.00000000000E+00 0.  1.
         13    1    3    3    0    0 -0.37232511807E+02 -0.23374840207E+02 -0.29326609538E+02  0.52845937565E+02  0.00000000000E+00 0. -1.
         21    1    1    2  502  501  0.84270468071E+00  0.45715589912E+02 -0.19832444520E+03  0.20352692912E+03  0.00000000000E+00 0.  1.
<scales pt_clust_5="13000.00000" pt_clust_6="13000.00000" pt_clust_7="13000.00000" pt_clust_8="13000.00000" pt_clust_9="45.72336"></scales>
<clustering>
<clus scale="   45.723">  2  9  1 -1</clus>
<clus scale="   81.439">  5  6 -1 -1</clus>
<clus scale="   89.130">  7  8 -1 -1</clus>
<clus scale="  100.530">  2  5  1 -1</clus>
<clus scale="   45.723">  2  5  1 -1</clus>
</clustering>
</event>
<event>
 9    2  0.2984928E-005  0.9096664E+02  0.7546771E-02  0.1306608E+00
         -1   -1    0    0    0  501 -0.00000000000E+00  0.00000000000E+00  0.52271613365E+03  0.52271613365E+03  0.00000000000E+00 0.  1.
          2   -1    0    0  502    0  0.00000000000E+00 -0.00000000000E+00 -0.84202289168E+02  0.84202289168E+02  0.00000000000E+00 0. -1.
         23    2    1    2    0    0 -0.13488213199E+02  0.14909612085E+01  0.45770324136E+03  0.46668931922E+03  0.90124961394E+02 0.  0.
         24    2    1    2    0    0  0.46984802886E+01  0.16840095856E+02  0.29524639213E+02  0.87443268669E+02  0.80429822637E+02 0.  0.
        -11    1    4    4    0    0  0.26230407829E+02  0.28937554557E+02  0.43985962735E+02  0.58823305555E+02  0.00000000000E+00 0.  1.
         12    1    4    4    0    0 -0.21531927540E+02 -0.12097458702E+02 -0.14461323523E+02  0.28619963114E+02  0.00000000000E+00 0. -1.
        -11    1    3    3    0    0 -0.92066167417E+01  0.45726761543E+02  0.24240539976E+03  0.24685233713E+03  0.00000000000E+00 0.  1.
         11    1    3    3    0    0 -0.42815964576E+01 -0.44235800335E+02  0.21529784160E+03  0.21983698210E+03  0.00000000000E+00 0. -1.
         21    1    1    2  502  501  0.87897329107E+01 -0.18331057064E+02 -0.48714036084E+02  0.52785834930E+02  0.00000000000E+00 0. -1.
<scales pt_clust_5="13000.00000" pt_clust_6="13000.00000" pt_clust_7="13000.00000" pt_clust_8="13000.00000" pt_clust_9="20.32946"></scales>
<clustering>
<clus scale="   20.329">  2  9  1 -1</clus>
<clus scale="   80.430">  5  6 -1 -1</clus>
<clus scale="   81.372">  2  5  1 -1</clus>
<clus scale="   90.125">  7  8 -1 -1</clus>
<clus scale="   20.329">  2  5  1 -1</clus>
</clustering>
</event>
<event>
 9    2  0.2984928E-005  0.9645818E+02  0.7546771E-02  0.1293269E+00
         -1   -1    0    0    0  501 -0.00000000000E+00  0.00000000000E+00  0.38925462355E+03  0.38925462355E+03  0.00000000000E+00 0.  1.
          2   -1    0    0  502    0  0.00000000000E+00 -0.00000000000E+00 -0.41655551514E+02  0.41655551514E+02  0.00000000000E+00 0. -1.
         23    2    1    2    0    0 -0.46481780275E+02  0.16381988812E+02  0.23984593835E+03  0.26142080044E+03  0.91574206548E+02 0.  0.
         24    2    1    2    0    0  0.24678116264E+02  0.13245132147E+02  0.46959195965E+02  0.98432573935E+02  0.81849633950E+02 0.  0.
        -13    1    4    4    0    0  0.12722076423E+02 -0.30992758017E+02  0.39846049642E+02  0.52058716370E+02  0.00000000000E+00 0.  1.
         14    1    4    4    0    0  0.11956039841E+02  0.44237890164E+02  0.71131463231E+01  0.46373857565E+02  0.00000000000E+00 0. -1.
        -11    1    3    3    0    0 -0.31035775067E+02  0.47512462282E+02  0.20295112530E+03  0.21073635820E+03  0.00000000000E+00 0. -1.
         11    1    3    3    0    0 -0.15446005208E+02 -0.31130473470E+02  0.36894813049E+02  0.50684442241E+02  0.00000000000E+00 0.  1.
         21    1    1    2  502  501  0.21803664011E+02 -0.29627120959E+02  0.60793937725E+02  0.71056800693E+02  0.00000000000E+00 0.  1.
<scales pt_clust_5="13000.00000" pt_clust_6="13000.00000" pt_clust_7="13000.00000" pt_clust_8="13000.00000" pt_clust_9="36.78541"></scales>
<clustering>
<clus scale="   36.785">  1  9  2 -1</clus>
<clus scale="   81.850">  5  6 -1 -1</clus>
<clus scale="   87.279">  2  5  1 -1</clus>
<clus scale="   91.574">  7  8 -1 -1</clus>
<clus scale="   87.279">  2  5  1 -1</clus>
</clustering>
</event>
<event>
 9    2  0.2984928E-005  0.1422019E+03  0.7546771E-02  0.1212459E+00
          2   -1    0    0  502    0  0.00000000000E+00  0.00000000000E+00  0.23244333051E+03  0.23244333051E+03  0.00000000000E+00 0. -1.
         -1   -1    0    0    0  501 -0.00000000000E+00 -0.00000000000E+00 -0.17327238149E+03  0.17327238149E+03  0.00000000000E+00 0.  1.
         24    2    1    2    0    0  0.90699126763E+02  0.44872804504E+02 -0.71034002637E+02  0.14798461080E+03  0.81324752226E+02 0.  0.
         23    2    1    2    0    0 -0.11538287457E+03 -0.60678052504E+02  0.41652459151E+02  0.16445389498E+03  0.91187293079E+02 0.  0.
        -11    1    3    3    0    0  0.83006645361E+02  0.66044181212E+02 -0.65908004282E+02  0.12488315369E+03  0.00000000000E+00 0.  1.
         12    1    3    3    0    0  0.76924814018E+01 -0.21171376709E+02 -0.51259983552E+01  0.23101457118E+02  0.00000000000E+00 0. -1.
        -11    1    4    4    0    0 -0.73057894064E+02 -0.12769363698E+02 -0.18756010366E+02  0.76500329798E+02  0.00000000000E+00 0.  1.
         11    1    4    4    0    0 -0.42324980508E+02 -0.47908688806E+02  0.60408469517E+02  0.87953565178E+02  0.00000000000E+00 0. -1.
         21    1    1    2  502  501  0.24683747809E+02  0.15805248001E+02  0.88552492506E+02  0.93277206215E+02  0.00000000000E+00 0. -1.
<scales pt_clust_5="13000.00000" pt_clust_6="13000.00000" pt_clust_7="13000.00000" pt_clust_8="13000.00000" pt_clust_9="29.31029"></scales>
<clustering>
<clus scale="   29.310">  1  9  2 -1</clus>
<clus scale="   81.325">  5  6 -1 -1</clus>
<clus scale="   91.187">  7  8 -1 -1</clus>
<clus scale="  136.088">  2  5  1 -1</clus>
<clus scale="   29.310">  1  5  2 -1</clus>
</clustering>
</event>
<event>
 9    2  0.2984928E-005  0.1543986E+03  0.7546771E-02  0.1197297E+00
          2   -1    0    0  502    0  0.00000000000E+00  0.00000000000E+00  0.51289358724E+03  0.51289358724E+03  0.00000000000E+00 0. -1.
         -1   -1    0    0    0  501 -0.00000000000E+00 -0.00000000000E+00 -0.12203743012E+03  0.12203743012E+03  0.00000000000E+00 0.  1.
         23    2    1    2    0    0  0.59983782064E+02  0.10828266696E+03 -0.43992153865E+02  0.16075059920E+03  0.92640463441E+02 0.  0.
         24    2    1    2    0    0 -0.81988393082E+02 -0.93699836251E+02  0.27717783605E+03  0.31431534843E+03  0.80404163721E+02 0.  0.
        -13    1    4    4    0    0 -0.36517321835E+02 -0.95873708648E+02  0.18671385506E+03  0.21304306249E+03  0.00000000000E+00 0.  1.
         14    1    4    4    0    0 -0.45471071247E+02  0.21738723967E+01  0.90463980998E+02  0.10127228594E+03  0.00000000000E+00 0. -1.
        -11    1    3    3    0    0  0.22359184895E+02 -0.14178368325E+02 -0.63938676229E+01  0.27236754960E+02  0.00000000000E+00 0.  1.
         11    1    3    3    0    0  0.37624597169E+02  0.12246103529E+03 -0.37598286242E+02  0.13351384424E+03  0.00000000000E+00 0. -1.
         21    1    1    2  502  501  0.22004611018E+02 -0.14582830711E+02  0.15767047493E+03  0.15986506973E+03  0.00000000000E+00 0. -1.
<scales pt_clust_5="13000.00000" pt_clust_6="13000.00000" pt_clust_7="13000.00000" pt_clust_8="13000.00000" pt_clust_9="26.39814"></scales>
<clustering>
<clus scale="   26.398">  1  9  2 -1</clus>
<clus scale="   80.404">  5  6 -1 -1</clus>
<clus scale="   92.640">  7  8 -1 -1</clus>
<clus scale="  147.382">  1  5  2 -1</clus>
<clus scale="   26.398">  1  5  2 -1</clus>
</clustering>
</event>
<event>
 9    2  0.2984928E-005  0.9240912E+02  0.7546771E-02  0.1301679E+00
          2   -1    0    0  502    0  0.00000000000E+00  0.00000000000E+00  0.53388407345E+03  0.53388407345E+03  0.00000000000E+00 0. -1.
         -1   -1    0    0    0  501 -0.00000000000E+00 -0.00000000000E+00 -0.37324521548E+02  0.37324521548E+02  0.00000000000E+00 0.  1.
         23    2    1    2    0    0 -0.24558850995E+01  0.15005720650E+02  0.40019391203E+02  0.10077979653E+03  0.91234931323E+02 0.  0.
         24    2    1    2    0    0 -0.21103957582E+02 -0.12599361157E+02  0.39444192467E+03  0.40396792522E+03  0.83675156101E+02 0.  0.
        -13    1    4    4    0    0 -0.51652830486E+02  0.21941881295E+01  0.27399333779E+03  0.27882822402E+03  0.00000000000E+00 0.  1.
         14    1    4    4    0    0  0.30548872904E+02 -0.14793549287E+02  0.12044858688E+03  0.12513970120E+03  0.00000000000E+00 0. -1.
        -13    1    3    3    0    0  0.40750486311E+02  0.24620684283E+02  0.26546728062E+02  0.54511549235E+02  0.00000000000E+00 0. -1.
         13    1    3    3    0    0 -0.43206371410E+02 -0.96149636334E+01  0.13472663141E+02  0.46268247300E+02  0.00000000000E+00 0.  1.
         21    1    1    2  502  501  0.23559842681E+02 -0.24063594926E+01  0.62098236029E+02  0.66460873235E+02  0.00000000000E+00 0.  1.
<scales pt_clust_5="13000.00000" pt_clust_6="13000.00000" pt_clust_7="13000.00000" pt_clust_8="13000.00000" pt_clust_9="23.68241"></scales>
<clustering>
<clus scale="   23.682">  1  9  2 -1</clus>
<clus scale="   83.675">  5  6 -1 -1</clus>
<clus scale="   84.954">  1  5  2 -1</clus>
<clus scale="   91.235">  7  8 -1 -1</clus>
<clus scale="   23.682">  1  5  2 -1</clus>
</clustering>
</event>
<event>
 9    2  0.2984928E-005  0.1174715E+03  0.7546771E-02  0.1251605E+00
         -1   -1    0    0    0  501 -0.00000000000E+00  0.00000000000E+00  0.79594246364E+02  0.79594246364E+02  0.00000000000E+00 0.  1.
          2   -1    0    0  502    0  0.00000000000E+00 -0.00000000000E+00 -0.33240568635E+03  0.33240568635E+03  0.00000000000E+00 0. -1.
         23    2    1    2    0    0  0.12485486889E+02  0.61493879339E+02 -0.15247565180E+02  0.11199550559E+03  0.91504756425E+02 0.  0.
         24    2    1    2    0    0  0.11766084026E+01 -0.10858367277E+03 -0.17143905742E+03  0.21768436295E+03  0.78761240869E+02 0.  0.
        -13    1    4    4    0    0 -0.27168237894E+02 -0.75770558324E+02 -0.14780259205E+03  0.16830002042E+03  0.00000000000E+00 0.  1.
         14    1    4    4    0    0  0.28344846297E+02 -0.32813114444E+02 -0.23636465375E+02  0.49384342524E+02  0.00000000000E+00 0. -1.
        -11    1    3    3    0    0 -0.32880700791E+02 -0.11549922279E+01  0.11737962322E+01  0.32921911991E+02  0.00000000000E+00 0.  1.
         11    1    3    3    0    0  0.45366187680E+02  0.62648871567E+02 -0.16421361412E+02  0.79073593594E+02  0.00000000000E+00 0. -1.
         21    1    1    2  502  501 -0.13662095291E+02  0.47089793428E+02 -0.66124817388E+02  0.82320064185E+02  0.00000000000E+00 0.  1.
<scales pt_clust_5="13000.00000" pt_clust_6="13000.00000" pt_clust_7="13000.00000" pt_clust_8="13000.00000" pt_clust_9="49.03164"></scales>
<clustering>
<clus scale="   49.032">  2  9  1 -1</clus>
<clus scale="   78.761">  5  6 -1 -1</clus>
<clus scale="   91.505">  7  8 -1 -1</clus>
<clus scale="  107.841">  2  5  1 -1</clus>
<clus scale="   49.032">  2  5  1 -1</clus>
</clustering>
</event>
<event>
 9    2  0.2984928E-005  0.1718160E+03  0.7546771E-02  0.1178129E+00
          2   -1    0    0  502    0  0.00000000000E+00  0.00000000000E+00  0.13355162086E+04  0.13355162086E+04  0.00000000000E+00 0. -1.
         -1   -1    0    0    0  501 -0.00000000000E+00 -0.00000000000E+00 -0.15113967554E+03  0.15113967554E+03  0.00000000000E+00 0.  1.
         23    2    1    2    0    0 -0.13631708576E+03 -0.36454839840E+02 -0.84707275055E+02  0.19034788271E+03  0.95633105080E+02 0.  0.
         24    2    1    2    0    0  0.14990371139E+03  0.10123458042E+03  0.92326352889E+03  0.94421046278E+03  0.79989319909E+02 0.  0.
        -13    1    4    4    0    0  0.42883715289E+02  0.74691628678E+02  0.46120919199E+03  0.46918202354E+03  0.00000000000E+00 0.  1.
         14    1    4    4    0    0  0.10701999610E+03  0.26542951745E+02  0.46205433689E+03  0.47502843925E+03  0.00000000000E+00 0. -1.
        -13    1    3    3    0    0 -0.68576932716E+02  0.16305562457E+02 -0.76609608684E+02  0.10410427086E+03  0.00000000000E+00 0.  1.
         13    1    3    3    0    0 -0.67740153046E+02 -0.52760402297E+02 -0.80976663711E+01  0.86243611855E+02  0.00000000000E+00 0. -1.
         21    1    1    2  502  501 -0.13586625624E+02 -0.64779740583E+02  0.34582027921E+03  0.35209753862E+03  0.00000000000E+00 0.  1.
<scales pt_clust_5="13000.00000" pt_clust_6="13000.00000" pt_clust_7="13000.00000" pt_clust_8="13000.00000" pt_clust_9="66.18921"></scales>
<clustering>
<clus scale="   66.189">  1  9  2 -1</clus>
<clus scale="   79.989">  5  6 -1 -1</clus>
<clus scale="   95.633">  7  8 -1 -1</clus>
<clus scale="  163.626">  1  5  2 -1</clus>
<clus scale="   66.189">  1  5  2 -1</clus>
</clustering>
</event>
<event>
 9    2  0.2984928E-005  0.1060457E+03  0.7546771E-02  0.1273288E+00
          2   -1    0    0  502    0  0.00000000000E+00  0.00000000000E+00  0.64219603329E+02  0.64219603329E+02  0.00000000000E+00 0. -1.
         -1   -1    0    0    0  501 -0.00000000000E+00 -0.00000000000E+00 -0.27286996951E+03  0.27286996951E+03  0.00000000000E+00 0.  1.
         24    2    1    2    0    0 -0.49403387284E+02  0.93005197828E+01 -0.15211376737E+03  0.17811048874E+03  0.77830287378E+02 0.  0.
         23    2    1    2    0    0  0.74943442449E+02  0.79508435339E+01 -0.49054942453E+02  0.12726348642E+03  0.90054828396E+02 0.  0.
        -13    1    3    3    0    0 -0.46712703640E+02  0.39428809016E+02 -0.11494894429E+03  0.13019204068E+03  0.00000000000E+00 0.  1.
         14    1    3    3    0    0 -0.26906836443E+01 -0.30128289233E+02 -0.37164823074E+02  0.47918448062E+02  0.00000000000E+00 0. -1.
        -11    1    4    4    0    0 -0.40527446188E+01  0.32713100186E+02 -0.45588243101E+01  0.33276937086E+02  0.00000000000E+00 0.  1.
         11    1    4    4    0    0  0.78996187067E+02 -0.24762256652E+02 -0.44496118143E+02  0.93986549333E+02  0.00000000000E+00 0. -1.
         21    1    1    2  502  501 -0.25540055164E+02 -0.17251363317E+02 -0.74816563556E+01  0.31715597675E+02  0.00000000000E+00 0. -1.
<scales pt_clust_5="13000.00000" pt_clust_6="13000.00000" pt_clust_7="13000.00000" pt_clust_8="13000.00000" pt_clust_9="30.82051"></scales>
<clustering>
<clus scale="   30.821">  1  9  2 -1</clus>
<clus scale="   77.830">  5  6 -1 -1</clus>
<clus scale="   90.055">  7  8 -1 -1</clus>
<clus scale="   95.882">  2  5  1 -1</clus>
<clus scale="   30.821">  1  5  2 -1</clus>
</clustering>
</event>
<event>
 9    2  0.2984928E-005  0.1898991E+03  0.7546771E-02  0.1159385E+00
          2   -1    0    0  502    0  0.00000000000E+00  0.00000000000E+00  0.86595905023E+02  0.86595905023E+02  0.00000000000E+00 0. -1.
         -1   -1    0    0    0  501 -0.00000000000E+00 -0.00000000000E+00 -0.10649993841E+04  0.10649993841E+04  0.00000000000E+00 0.  1.
         24    2    1    2    0    0  0.98188405557E+02 -0.12881665283E+03 -0.83391553135E+03  0.85360980593E+03  0.83665371157E+02 0.  0.
         23    2    1    2    0    0 -0.99938079909E+02  0.17050855383E+03 -0.11081576912E+03  0.24436560270E+03  0.91507520741E+02 0.  0.
        -13    1    3    3    0    0  0.98898572190E+02 -0.13620589765E+03 -0.71840154146E+03  0.73785753971E+03  0.00000000000E+00 0.  1.
         14    1    3    3    0    0 -0.71016663282E+00  0.73892448250E+01 -0.11551398989E+03  0.11575226623E+03  0.00000000000E+00 0. -1.
        -13    1    4    4    0    0 -0.21378397083E+02 -0.74131800615E+01 -0.17717451262E+02  0.28738461679E+02  0.00000000000E+00 0.  1.
         13    1    4    4    0    0 -0.78559682826E+02  0.17792173390E+03 -0.93098317861E+02  0.21562714102E+03  0.00000000000E+00 0. -1.
         21    1    1    2  502  501  0.17496743517E+01 -0.41691901007E+02 -0.33672178573E+02  0.53619880453E+02  0.00000000000E+00 0.  1.
<scales pt_clust_5="13000.00000" pt_clust_6="13000.00000" pt_clust_7="13000.00000" pt_clust_8="13000.00000" pt_clust_9="41.72860"></scales>
<clustering>
<clus scale="   41.729">  1  9  2 -1</clus>
<clus scale="   83.665">  5  6 -1 -1</clus>
<clus scale="   91.508">  7  8 -1 -1</clus>
<clus scale="  186.247">  2  5  1 -1</clus>
<clus scale="   41.729">  1  5  2 -1</clus>
</clustering>
</event>
<event>
 9    2  0.2984928E-005  0.1350598E+03  0.7546771E-02  0.1222806E+00
          2   -1    0    0  502    0  0.00000000000E+00  0.00000000000E+00  0.51040363253E+03  0.51040363253E+03  0.00000000000E+00 0. -1.
         -1   -1    0    0    0  501 -0.00000000000E+00 -0.00000000000E+00 -0.72438271547E+02  0.72438271547E+02  0.00000000000E+00 0.  1.
         24    2    1    2    0    0 -0.34014955213E+02  0.10818707192E+03  0.62230855153E+02  0.15214945998E+03  0.80095687343E+02 0.  0.
         23    2    1    2    0    0  0.53021562358E+02 -0.64761807904E+02  0.12679748781E+03  0.17728241349E+03  0.91356846375E+02 0.  0.
        -11    1    3    3    0    0 -0.92827988340E+01  0.91122401351E+02  0.10325649296E+02  0.92174190615E+02  0.00000000000E+00 0.  1.
         12    1    3    3    0    0 -0.24732156379E+02  0.17064670573E+02  0.51905205856E+02  0.59975269369E+02  0.00000000000E+00 0. -1.
        -11    1    4    4    0    0 -0.12988127800E+02 -0.55686355338E+02  0.61923291337E+02  0.84286153339E+02  0.00000000000E+00 0.  1.
         11    1    4    4    0    0  0.66009690157E+02 -0.90754525661E+01  0.64874196475E+02  0.92996260152E+02  0.00000000000E+00 0. -1.
         21    1    1    2  502  501 -0.19006607145E+02 -0.43425264019E+02  0.24893701802E+03  0.25341003060E+03  0.00000000000E+00 0.  1.
<scales pt_clust_5="13000.00000" pt_clust_6="13000.00000" pt_clust_7="13000.00000" pt_clust_8="13000.00000" pt_clust_9="47.40258"></scales>
<clustering>
<clus scale="   47.403">  1  9  2 -1</clus>
<clus scale="   80.096">  5  6 -1 -1</clus>
<clus scale="   91.357">  7  8 -1 -1</clus>
<clus scale="  127.712">  2  5  1 -1</clus>
<clus scale="   47.403">  1  5  2 -1</clus>
</clustering>
</event>
<event>
 9    2  0.2984928E-005  0.9264779E+02  0.7546771E-02  0.1302719E+00
          2   -1    0    0  502    0  0.00000000000E+00  0.00000000000E+00  0.22759581468E+03  0.22759581468E+03  0.00000000000E+00 0. -1.
         -1   -1    0    0    0  501 -0.00000000000E+00 -0.00000000000E+00 -0.43343577102E+02  0.43343577102E+02  0.00000000000E+00 0.  1.
         24    2    1    2    0    0 -0.24381957322E+02  0.18048066417E+00  0.63047278352E+02  0.10477656669E+03  0.80054089243E+02 0.  0.
         23    2    1    2    0    0  0.12889314702E+02 -0.16743579453E+02  0.91585916519E+02  0.13033399917E+03  0.90291136601E+02 0.  0.
        -11    1    3    3    0    0  0.23730453874E+01 -0.37438961572E+02  0.28964548714E+02  0.47394643898E+02  0.00000000000E+00 0.  1.
         12    1    3    3    0    0 -0.26755002709E+02  0.37619442236E+02  0.34082729638E+02  0.57381922796E+02  0.00000000000E+00 0. -1.
        -11    1    4    4    0    0  0.21982651857E+01  0.35706238480E+02  0.20118103649E+02  0.41042732982E+02  0.00000000000E+00 0. -1.
         11    1    4    4    0    0  0.10691049516E+02 -0.52449817933E+02  0.71467812870E+02  0.89291266188E+02  0.00000000000E+00 0.  1.
         21    1    1    2  502  501  0.11492642620E+02  0.16563098788E+02  0.29619042711E+02  0.35828825923E+02  0.00000000000E+00 0. -1.
<scales pt_clust_5="13000.00000" pt_clust_6="13000.00000" pt_clust_7="13000.00000" pt_clust_8="13000.00000" pt_clust_9="20.15979"></scales>
<clustering>
<clus scale="   20.160">  1  9  2 -1</clus>
<clus scale="   80.054">  5  6 -1 -1</clus>
<clus scale="   82.703">  2  5  1 -1</clus>
<clus scale="   90.291">  7  8 -1 -1</clus>
<clus scale="   20.160">  1  5  2 -1</clus>
</clustering>
</event>
<event>
 9    2  0.2984928E-005  0.9350752E+02  0.7546771E-02  0.1299670E+00
         -1   -1    0    0    0  501 -0.00000000000E+00  0.00000000000E+00  0.68019524957E+02  0.68019524957E+02  0.00000000000E+00 0.  1.
          2   -1    0    0  502    0  0.00000000000E+00 -0.00000000000E+00 -0.53393170179E+03  0.53393170179E+03  0.00000000000E+00 0. -1.
         23    2    1    2    0    0  0.13973685114E+02  0.24775842563E+02  0.26669889082E+02  0.97567153930E+02  0.89436906766E+02 0.  0.
         24    2    1    2    0    0 -0.18740882439E+02 -0.39040093911E+01 -0.43779986191E+03  0.44556698801E+03  0.80590072253E+02 0.  0.
        -13    1    4    4    0    0  0.27114696134E+02 -0.20448061843E+02 -0.19182118730E+03  0.19480425528E+03  0.00000000000E+00 0.  1.
         14    1    4    4    0    0 -0.45855578573E+02  0.16544052452E+02 -0.24597867462E+03  0.25076273272E+03  0.00000000000E+00 0. -1.
        -11    1    3    3    0    0  0.73343984022E+00 -0.24010451487E+02  0.38751005834E+02  0.45592545090E+02  0.00000000000E+00 0.  1.
         11    1    3    3    0    0  0.13240245274E+02  0.48786294050E+02 -0.12081116752E+02  0.51974608840E+02  0.00000000000E+00 0. -1.
         21    1    1    2  502  501  0.47671973248E+01 -0.20871833172E+02 -0.54782203997E+02  0.58817084805E+02  0.00000000000E+00 0.  1.
<scales pt_clust_5="13000.00000" pt_clust_6="13000.00000" pt_clust_7="13000.00000" pt_clust_8="13000.00000" pt_clust_9="21.40933"></scales>
<clustering>
<clus scale="   21.409">  2  9  1 -1</clus>
<clus scale="   80.590">  5  6 -1 -1</clus>
<clus scale="   85.085">  2  5  1 -1</clus>
<clus scale="   89.437">  7  8 -1 -1</clus>
<clus scale="   21.409">  2  5  1 -1</clus>
</clustering>
</event>
<event>
 9    2  0.2984928E-005  0.1246386E+03  0.7546771E-02  0.1245849E+00
         -1   -1    0    0    0  501 -0.00000000000E+00  0.00000000000E+00  0.31176789463E+03  0.31176789463E+03  0.00000000000E+00 0.  1.
          2   -1    0    0  502    0  0.00000000000E+00 -0.00000000000E+00 -0.59992604000E+03  0.59992604000E+03  0.00000000000E+00 0. -1.
         24    2    1    2    0    0  0.53718142947E+02 -0.30375780808E+02  0.28924521194E+03  0.30635639755E+03  0.79894447542E+02 0.  0.
         23    2    1    2    0    0 -0.87799779206E+02  0.28193325420E+02 -0.39442087289E+03  0.41919535851E+03  0.10795026075E+03 0.  0.
        -13    1    3    3    0    0  0.33712898482E+02 -0.48071968253E+02  0.26083852885E+03  0.26736531523E+03  0.00000000000E+00 0.  1.
         14    1    3    3    0    0  0.20005244465E+02  0.17696187446E+02  0.28406683090E+02  0.38991082319E+02  0.00000000000E+00 0. -1.
        -11    1    4    4    0    0 -0.27058351093E+02 -0.38821442179E+02 -0.90823752820E+02  0.10241197593E+03  0.00000000000E+00 0.  1.
         11    1    4    4    0    0 -0.60741428113E+02  0.67014767599E+02 -0.30359712007E+03  0.31678338258E+03  0.00000000000E+00 0. -1.
         21    1    1    2  502  501  0.34081636259E+02  0.21824553873E+01 -0.18298248442E+03  0.18614217858E+03  0.00000000000E+00 0.  1.
<scales pt_clust_5="13000.00000" pt_clust_6="13000.00000" pt_clust_7="13000.00000" pt_clust_8="13000.00000" pt_clust_9="34.15144"></scales>
<clustering>
<clus scale="   34.151">  2  9  1 -1</clus>
<clus scale="   79.894">  5  6 -1 -1</clus>
<clus scale="  101.315">  1  5  2 -1</clus>
<clus scale="  107.950">  7  8 -1 -1</clus>
<clus scale="   34.151">  2  5  1 -1</clus>
</clustering>
</event>
<event>
 9    2  0.2984928E-005  0.1328522E+03  0.7546771E-02  0.1223791E+00
         -1   -1    0    0    0  501 -0.00000000000E+00  0.00000000000E+00  0.69039935124E+02  0.69039935124E+02  0.00000000000E+00 0.  1.
          2   -1    0    0  502    0  0.00000000000E+00 -0.00000000000E+00 -0.62055255491E+03  0.62055255491E+03  0.00000000000E+00 0. -1.
         23    2    1    2    0    0  0.11724223312E+03 -0.29851443684E+02 -0.32099509817E+02  0.14584483481E+03  0.74856445228E+02 0.  0.
         24    2    1    2    0    0 -0.64589782009E+02  0.28246645478E+01 -0.29869407985E+03  0.31523153401E+03  0.77284849920E+02 0.  0.
        -13    1    4    4    0    0 -0.67881148177E+02 -0.24322806326E+02 -0.19215603580E+03  0.20523983843E+03  0.00000000000E+00 0.  1.
         14    1    4    4    0    0  0.32913661679E+01  0.27147470873E+02 -0.10653804405E+03  0.10999169558E+03  0.00000000000E+00 0. -1.
        -13    1    3    3    0    0  0.60161362372E+02 -0.24398904692E+02 -0.54020782015E+02  0.84456740181E+02  0.00000000000E+00 0. -1.
         13    1    3    3    0    0  0.57080870751E+02 -0.54525389923E+01  0.21921272198E+02  0.61388094627E+02  0.00000000000E+00 0.  1.
         21    1    1    2  502  501 -0.52652451114E+02  0.27026779136E+02 -0.22071903012E+03  0.22851612122E+03  0.00000000000E+00 0. -1.
<scales pt_clust_5="13000.00000" pt_clust_6="13000.00000" pt_clust_7="13000.00000" pt_clust_8="13000.00000" pt_clust_9="59.18384"></scales>
<clustering>
<clus scale="   59.184">  2  9  1 -1</clus>
<clus scale="   74.856">  7  8 -1 -1</clus>
<clus scale="   77.285">  5  6 -1 -1</clus>
<clus scale="  131.454">  1  7  2 -1</clus>
<clus scale="   59.184">  2  5  1 -1</clus>
</clustering>
</event>
<event>
 9    2  0.2984928E-005  0.1853479E+03  0.7546771E-02  0.1163833E+00
         -1   -1    0    0    0  501 -0.00000000000E+00  0.00000000000E+00  0.13180473187E+03  0.13180473187E+03  0.00000000000E+00 0.  1.
          2   -1    0    0  502    0  0.00000000000E+00 -0.00000000000E+00 -0.17657723603E+04  0.17657723603E+04  0.00000000000E+00 0. -1.
         23    2    1    2    0    0  0.29573849007E+02  0.16282152223E+03  0.45758717019E+02  0.19398781022E+03  0.90288148082E+02 0.  0.
         24    2    1    2    0    0  0.42070535367E+02 -0.10052626131E+03 -0.14306012710E+04  0.14369867312E+04  0.80221006591E+02 0.  0.
        -11    1    4    4    0    0  0.30100690391E+02 -0.36152388820E+01 -0.17607631697E+03  0.17866726313E+03  0.00000000000E+00 0.  1.
         12    1    4    4    0    0  0.11969844976E+02 -0.96911022428E+02 -0.12545249540E+04  0.12583194681E+04  0.00000000000E+00 0. -1.
        -11    1    3    3    0    0  0.58115148766E+02  0.98234443711E+02  0.92922154510E+01  0.11451515933E+03  0.00000000000E+00 0.  1.
         11    1    3    3    0    0 -0.28541299759E+02  0.64587078520E+02  0.36466501568E+02  0.79472650895E+02  0.00000000000E+00 0. -1.
         21    1    1    2  502  501 -0.71644384374E+02 -0.62295260921E+02 -0.24912507439E+03  0.26660255069E+03  0.00000000000E+00 0. -1.
<scales pt_clust_5="13000.00000" pt_clust_6="13000.00000" pt_clust_7="13000.00000" pt_clust_8="13000.00000" pt_clust_9="94.94007"></scales>
<clustering>
<clus scale="   80.221">  5  6 -1 -1</clus>
<clus scale="   90.288">  7  8 -1 -1</clus>
<clus scale="   94.940">  2  9  1 -1</clus>
<clus scale="  180.658">  2  5  1 -1</clus>
<clus scale="   94.940">  2  5  1 -1</clus>
</clustering>
</event>
<event>
 9    2  0.2984928E-005  0.3316432E+03  0.7546771E-02  0.1088967E+00
          2   -1    0    0  502    0  0.00000000000E+00  0.00000000000E+00  0.12160412949E+04  0.12160412949E+04  0.00000000000E+00 0. -1.
         -1   -1    0    0    0  501 -0.00000000000E+00 -0.00000000000E+00 -0.17968742791E+03  0.17968742791E+03  0.00000000000E+00 0.  1.
         24    2    1    2    0    0 -0.28145014046E+03 -0.24539838409E+03  0.15302324487E+03  0.41203408201E+03  0.83195088705E+02 0.  0.
         23    2    1    2    0    0  0.71245943529E+02  0.16388711638E+03  0.33371527858E+03  0.38963494933E+03  0.92274239082E+02 0.  0.
        -13    1    3    3    0    0 -0.23468033407E+03 -0.21986405476E+03  0.99779679192E+02  0.33670617184E+03  0.00000000000E+00 0.  1.
         14    1    3    3    0    0 -0.46769806394E+02 -0.25534329328E+02  0.53243565674E+02  0.75327910167E+02  0.00000000000E+00 0. -1.
        -13    1    4    4    0    0  0.69545904465E+02  0.10728052371E+03  0.29361560349E+03  0.32024344835E+03  0.00000000000E+00 0. -1.
         13    1    4    4    0    0  0.17000390642E+01  0.56606592674E+02  0.40099675089E+02  0.69391500987E+02  0.00000000000E+00 0.  1.
         21    1    1    2  502  501  0.21020419693E+03  0.81511267709E+02  0.54961534351E+03  0.59405969144E+03  0.00000000000E+00 0. -1.
<scales pt_clust_5="13000.00000" pt_clust_6="13000.00000" pt_clust_7="13000.00000" pt_clust_8="13000.00000" pt_clust_9="321.03858"></scales>
<clustering>
<clus scale="   83.195">  5  6 -1 -1</clus>
<clus scale="   92.274">  7  8 -1 -1</clus>
<clus scale="  201.121">  1  7  2 -1</clus>
<clus scale="  321.039">  1  9  2 -1</clus>
<clus scale="  201.121">  1  5  2 -1</clus>
</clustering>
</event>
<event>
 9    2  0.2984928E-005  0.1854461E+03  0.7546771E-02  0.1181035E+00
          2   -1    0    0  502    0  0.00000000000E+00  0.00000000000E+00  0.44598719262E+03  0.44598719262E+03  0.00000000000E+00 0. -1.
         -1   -1    0    0    0  501 -0.00000000000E+00 -0.00000000000E+00 -0.22946608980E+03  0.22946608980E+03  0.00000000000E+00 0.  1.
         23    2    1    2    0    0 -0.19167370009E+02  0.76242425944E+02 -0.97568491429E+02  0.15613801453E+03  0.93162081745E+02 0.  0.
         24    2    1    2    0    0  0.11940367375E+03  0.72067627186E+02  0.34505306094E+01  0.16079076899E+03  0.79942385740E+02 0.  0.
        -11    1    4    4    0    0  0.12276006067E+03  0.41665497201E+02 -0.23467831584E+01  0.12965937507E+03  0.00000000000E+00 0.  1.
         12    1    4    4    0    0 -0.33563869141E+01  0.30402129984E+02  0.57973137678E+01  0.31131393924E+02  0.00000000000E+00 0. -1.
        -13    1    3    3    0    0 -0.69247223279E+01  0.44587095211E+02 -0.11085775717E+03  0.11968877627E+03  0.00000000000E+00 0.  1.
         13    1    3    3    0    0 -0.12242647681E+02  0.31655330733E+02  0.13289265744E+02  0.36449238265E+02  0.00000000000E+00 0. -1.
         21    1    1    2  502  501 -0.10023630374E+03 -0.14831005313E+03  0.31063906364E+03  0.35852449890E+03  0.00000000000E+00 0. -1.
<scales pt_clust_5="13000.00000" pt_clust_6="13000.00000" pt_clust_7="13000.00000" pt_clust_8="13000.00000" pt_clust_9="167.33040"></scales>
<clustering>
<clus scale="   79.942">  5  6 -1 -1</clus>
<clus scale="   93.162">  7  8 -1 -1</clus>
<clus scale="  121.899">  2  7  1 -1</clus>
<clus scale="  167.330">  1  9  2 -1</clus>
<clus scale="  167.330">  1  5  2 -1</clus>
</clustering>
</event>
<event>
 9    2  0.2984928E-005  0.1317506E+03  0.7546771E-02  0.1227852E+00
         -1   -1    0    0    0  501 -0.00000000000E+00  0.00000000000E+00  0.75405599896E+02  0.75405599896E+02  0.00000000000E+00 0.  1.
          2   -1    0    0  502    0  0.00000000000E+00 -0.00000000000E+00 -0.61904055114E+03  0.61904055114E+03  0.00000000000E+00 0. -1.
         24    2    1    2    0    0 -0.50762578452E+02 -0.79219465025E+02 -0.13012250129E+02  0.12441997400E+03  0.80364471425E+02 0.  0.
         23    2    1    2    0    0  0.99504846304E+02  0.46568279929E+02 -0.43326782236E+03  0.45636052268E+03  0.92054883788E+02 0.  0.
        -11    1    3    3    0    0 -0.30032778587E+02 -0.93728813827E+02 -0.11041636119E+02  0.99040274936E+02  0.00000000000E+00 0.  1.
         12    1    3    3    0    0 -0.20729799865E+02  0.14509348803E+02 -0.19706140096E+01  0.25379699066E+02  0.00000000000E+00 0. -1.
        -11    1    4    4    0    0  0.82438021357E+02 -0.99175800956E+01 -0.28274458187E+03  0.29468438088E+03  0.00000000000E+00 0.  1.
         11    1    4    4    0    0  0.17066824947E+02  0.56485860025E+02 -0.15052324049E+03  0.16167614179E+03  0.00000000000E+00 0. -1.
         21    1    1    2  502  501 -0.48742267853E+02  0.32651185095E+02 -0.97354878751E+02  0.11366565436E+03  0.00000000000E+00 0.  1.
<scales pt_clust_5="13000.00000" pt_clust_6="13000.00000" pt_clust_7="13000.00000" pt_clust_8="13000.00000" pt_clust_9="58.66778"></scales>
<clustering>
<clus scale="   58.668">  2  9  1 -1</clus>
<clus scale="   80.364">  5  6 -1 -1</clus>
<clus scale="   92.055">  7  8 -1 -1</clus>
<clus scale="  123.865">  1  5  2 -1</clus>
<clus scale="   58.668">  2  5  1 -1</clus>
</clustering>
</event>
<event>
 9    2  0.2984928E-005  0.1380215E+03  0.7546771E-02  0.1219327E+00
         -3   -1    0    0    0  501 -0.00000000000E+00  0.00000000000E+00  0.86321384152E+02  0.86321384152E+02  0.00000000000E+00 0.  1.
          4   -1    0    0  502    0  0.00000000000E+00 -0.00000000000E+00 -0.35131249288E+03  0.35131249288E+03  0.00000000000E+00 0. -1.
         23    2    1    2    0    0  0.95693534015E+02 -0.19226564659E+02 -0.13120948554E+02  0.13613059995E+03  0.93981209346E+02 0.  0.
         24    2    1    2    0    0 -0.10430781851E+03  0.39800729083E+02 -0.18034632650E+03  0.22658224584E+03  0.79690009483E+02 0.  0.
        -11    1    4    4    0    0 -0.39949144712E+02 -0.22983842095E+02 -0.75584181359E+02  0.88527733690E+02  0.00000000000E+00 0.  1.
         12    1    4    4    0    0 -0.64358673798E+02  0.62784571178E+02 -0.10476214514E+03  0.13805451215E+03  0.00000000000E+00 0. -1.
        -13    1    3    3    0    0 -0.49468506942E+01 -0.33474433097E+02 -0.41511333803E+01  0.34091654570E+02  0.00000000000E+00 0. -1.
         13    1    3    3    0    0  0.10064038471E+03  0.14247868438E+02 -0.89698151737E+01  0.10203894538E+03  0.00000000000E+00 0.  1.
         21    1    1    2  502  501  0.86142844952E+01 -0.20574164423E+02 -0.71523833672E+02  0.74921031241E+02  0.00000000000E+00 0. -1.
<scales pt_clust_5="13000.00000" pt_clust_6="13000.00000" pt_clust_7="13000.00000" pt_clust_8="13000.00000" pt_clust_9="22.30476"></scales>
<clustering>
<clus scale="   22.305">  2  9  1 -1</clus>
<clus scale="   79.690">  5  6 -1 -1</clus>
<clus scale="   93.981">  7  8 -1 -1</clus>
<clus scale="  128.717">  2  5  1 -1</clus>
<clus scale="   22.305">  2  5  1 -1</clus>
</clustering>
</event>
<event>
 9    2  0.2984928E-005  0.1054212E+03  0.7546771E-02  0.1274961E+00
         -1   -1    0    0    0  501 -0.00000000000E+00  0.00000000000E+00  0.26534593071E+02  0.26534593071E+02  0.00000000000E+00 0.  1.
          2   -1    0    0  502    0  0.00000000000E+00 -0.00000000000E+00 -0.72351980534E+03  0.72351980534E+03  0.00000000000E+00 0. -1.
         24    2    1    2    0    0  0.57946604367E+02  0.40040588256E+01 -0.19785116645E+03  0.22062672755E+03  0.78468002389E+02 0.  0.
         23    2    1    2    0    0 -0.37768448368E+02  0.48573509198E+02 -0.23725233298E+03  0.26155906471E+03  0.91316117650E+02 0.  0.
        -11    1    3    3    0    0  0.42408806759E+02  0.19904923163E+01 -0.29855465479E+02  0.51902001593E+02  0.00000000000E+00 0.  1.
         12    1    3    3    0    0  0.15537797608E+02  0.20135665093E+01 -0.16799570097E+03  0.16872472595E+03  0.00000000000E+00 0. -1.
        -11    1    4    4    0    0 -0.64014965040E+02  0.20876842552E+02 -0.11259168110E+03  0.13118934773E+03  0.00000000000E+00 0. -1.
         11    1    4    4    0    0  0.26246516672E+02  0.27696666646E+02 -0.12466065188E+03  0.13036971699E+03  0.00000000000E+00 0.  1.
         21    1    1    2  502  501 -0.20178155999E+02 -0.52577568023E+02 -0.26188171285E+03  0.26786860615E+03  0.00000000000E+00 0. -1.
<scales pt_clust_5="13000.00000" pt_clust_6="13000.00000" pt_clust_7="13000.00000" pt_clust_8="13000.00000" pt_clust_9="56.31659"></scales>
<clustering>
<clus scale="   56.317">  2  9  1 -1</clus>
<clus scale="   78.468">  5  6 -1 -1</clus>
<clus scale="   91.316">  7  8 -1 -1</clus>
<clus scale="   94.510">  1  5  2 -1</clus>
<clus scale="   56.317">  2  5  1 -1</clus>
</clustering>
</event>
<event>
 9    2  0.2984928E-005  0.1093105E+03  0.7546771E-02  0.1266405E+00
          2   -1    0    0  502    0  0.00000000000E+00  0.00000000000E+00  0.66476817646E+03  0.66476817646E+03  0.00000000000E+00 0. -1.
         -1   -1    0    0    0  501 -0.00000000000E+00 -0.00000000000E+00 -0.22258273697E+02  0.22258273697E+02  0.00000000000E+00 0.  1.
         23    2    1    2    0    0 -0.47664268809E+02 -0.39197089091E+02  0.21146118318E+03  0.23892930698E+03  0.92536951668E+02 0.  0.
         24    2    1    2    0    0  0.28837810634E+02  0.46982973572E+02  0.30574880793E+03  0.32115178729E+03  0.81345668583E+02 0.  0.
        -11    1    4    4    0    0  0.11803875947E+02  0.56667871557E+02  0.29080242535E+03  0.29650738564E+03  0.00000000000E+00 0.  1.
         12    1    4    4    0    0  0.17033934686E+02 -0.96848979852E+01  0.14946382585E+02  0.24644401642E+02  0.00000000000E+00 0. -1.
        -11    1    3    3    0    0 -0.25906675871E+01 -0.40326313408E+02  0.17865889646E+03  0.18317184390E+03  0.00000000000E+00 0. -1.
         11    1    3    3    0    0 -0.45073601222E+02  0.11292243176E+01  0.32802286720E+02  0.55757463076E+02  0.00000000000E+00 0.  1.
         21    1    1    2  502  501  0.18826458175E+02 -0.77858844814E+01  0.12529991164E+03  0.12694535589E+03  0.00000000000E+00 0. -1.
<scales pt_clust_5="13000.00000" pt_clust_6="13000.00000" pt_clust_7="13000.00000" pt_clust_8="13000.00000" pt_clust_9="20.37291"></scales>
<clustering>
<clus scale="   20.373">  1  9  2 -1</clus>
<clus scale="   81.346">  5  6 -1 -1</clus>
<clus scale="   92.537">  7  8 -1 -1</clus>
<clus scale="  100.014">  1  5  2 -1</clus>
<clus scale="   20.373">  1  5  2 -1</clus>
</clustering>
</event>
<event>
 9    2  0.2984928E-005  0.1090538E+03  0.7546771E-02  0.1264666E+00
          2   -1    0    0  502    0  0.00000000000E+00  0.00000000000E+00  0.26645530044E+03  0.26645530044E+03  0.00000000000E+00 0. -1.
         -1   -1    0    0    0  501 -0.00000000000E+00 -0.00000000000E+00 -0.30198410227E+03  0.30198410227E+03  0.00000000000E+00 0.  1.
         24    2    1    2    0    0  0.19833206459E+02  0.59945890242E+02 -0.26712076611E+03  0.28826153428E+03  0.88058745286E+02 0.  0.
         23    2    1    2    0    0 -0.50869075834E+02 -0.75362690957E+02  0.19030329012E+03  0.22627371696E+03  0.81958859763E+02 0.  0.
        -13    1    3    3    0    0 -0.68535168997E+01  0.71609512382E+02 -0.13501503983E+03  0.15298350872E+03  0.00000000000E+00 0.  1.
         14    1    3    3    0    0  0.26686723359E+02 -0.11663622140E+02 -0.13210572628E+03  0.13527802556E+03  0.00000000000E+00 0. -1.
        -11    1    4    4    0    0  0.38927554302E+01 -0.21974819694E+02  0.12107696601E+03  0.12311652181E+03  0.00000000000E+00 0.  1.
         11    1    4    4    0    0 -0.54761831264E+02 -0.53387871264E+02  0.69226324109E+02  0.10315719515E+03  0.00000000000E+00 0. -1.
         21    1    1    2  502  501  0.31035869374E+02  0.15416800715E+02  0.41288674159E+02  0.53904151472E+02  0.00000000000E+00 0. -1.
<scales pt_clust_5="13000.00000" pt_clust_6="13000.00000" pt_clust_7="13000.00000" pt_clust_8="13000.00000" pt_clust_9="34.65405"></scales>
<clustering>
<clus scale="   34.654">  1  9  2 -1</clus>
<clus scale="   81.959">  7  8 -1 -1</clus>
<clus scale="   88.059">  5  6 -1 -1</clus>
<clus scale="  104.190">  1  7  2 -1</clus>
<clus scale="   34.654">  1  5  2 -1</clus>
</clustering>
</event>
<event>
 9    2  0.2984928E-005  0.2336804E+03  0.7546771E-02  0.1162183E+00
         -1   -1    0    0    0  501 -0.00000000000E+00  0.00000000000E+00  0.11825033954E+03  0.11825033954E+03  0.00000000000E+00 0.  1.
          2   -1    0    0  502    0  0.00000000000E+00 -0.00000000000E+00 -0.10170146833E+04  0.10170146833E+04  0.00000000000E+00 0. -1.
         23    2    1    2    0    0  0.15487165064E+02  0.13161324664E+02 -0.28464282894E+02  0.97887445019E+02  0.91425728015E+02 0.  0.
         24    2    1    2    0    0  0.80400254690E+01  0.21668149183E+03 -0.73323365455E+03  0.76873571822E+03  0.79419779571E+02 0.  0.
        -11    1    4    4    0    0  0.28091379072E+02  0.38067671436E+02 -0.21731500711E+03  0.22240522813E+03  0.00000000000E+00 0.  1.
         12    1    4    4    0    0 -0.20051353603E+02  0.17861382039E+03 -0.51591864745E+03  0.54633049009E+03  0.00000000000E+00 0. -1.
        -11    1    3    3    0    0  0.81750246088E+01 -0.37993916231E+02  0.57628493287E-01  0.38863504975E+02  0.00000000000E+00 0. -1.
         11    1    3    3    0    0  0.73121404549E+01  0.51155240895E+02 -0.28521911388E+02  0.59023940044E+02  0.00000000000E+00 0.  1.
         21    1    1    2  502  501 -0.23527190533E+02 -0.22984281649E+03 -0.13706640629E+03  0.26864185958E+03  0.00000000000E+00 0.  1.
<scales pt_clust_5="13000.00000" pt_clust_6="13000.00000" pt_clust_7="13000.00000" pt_clust_8="13000.00000" pt_clust_9="219.77041"></scales>
<clustering>
<clus scale="   79.420">  5  6 -1 -1</clus>
<clus scale="   91.426">  7  8 -1 -1</clus>
<clus scale="   93.658">  1  7  2 -1</clus>
<clus scale="  219.770">  1  9  2 -1</clus>
<clus scale="  233.680">  2  5  1 -1</clus>
</clustering>
</event>
<event>
 9    2  0.2984928E-005  0.1639011E+03  0.7546771E-02  0.1186245E+00
          2   -1    0    0  502    0  0.00000000000E+00  0.00000000000E+00  0.11804525936E+04  0.11804525936E+04  0.00000000000E+00 0. -1.
         -1   -1    0    0    0  501 -0.00000000000E+00 -0.00000000000E+00 -0.53933638951E+02  0.53933638951E+02  0.00000000000E+00 0.  1.
         23    2    1    2    0    0  0.18705170053E+03  0.82676712131E+02  0.41741317937E+03  0.47375618022E+03  0.91582632527E+02 0.  0.
         24    2    1    2    0    0 -0.11464159446E+03  0.26511095634E+02  0.41924826398E+03  0.44253796240E+03  0.78899986935E+02 0.  0.
        -13    1    4    4    0    0 -0.47433283667E+02 -0.24939371332E+02  0.11750794806E+03  0.12915109948E+03  0.00000000000E+00 0.  1.
         14    1    4    4    0    0 -0.67208310795E+02  0.51450466965E+02  0.30174031593E+03  0.31338686291E+03  0.00000000000E+00 0. -1.
        -11    1    3    3    0    0  0.15892164614E+03  0.85097682370E+02  0.40421066664E+03  0.44258780844E+03  0.00000000000E+00 0. -1.
         11    1    3    3    0    0  0.28130054385E+02 -0.24209702394E+01  0.13202512735E+02  0.31168371775E+02  0.00000000000E+00 0.  1.
         21    1    1    2  502  501 -0.72410106067E+02 -0.10918780776E+03  0.28985751126E+03  0.31809208990E+03  0.00000000000E+00 0.  1.
<scales pt_clust_5="13000.00000" pt_clust_6="13000.00000" pt_clust_7="13000.00000" pt_clust_8="13000.00000" pt_clust_9="131.01603"></scales>
<clustering>
<clus scale="   78.900">  5  6 -1 -1</clus>
<clus scale="   91.583">  7  8 -1 -1</clus>
<clus scale="  131.016">  2  9  1 -1</clus>
<clus scale="  157.167">  1  5  2 -1</clus>
<clus scale="  157.167">  1  5  2 -1</clus>
</clustering>
</event>
<event>
 9    2  0.2984928E-005  0.1110322E+03  0.7546771E-02  0.1262214E+00
          2   -1    0    0  502    0  0.00000000000E+00  0.00000000000E+00  0.49095784266E+02  0.49095784266E+02  0.00000000000E+00 0. -1.
         -1   -1    0    0    0  501 -0.00000000000E+00 -0.00000000000E+00 -0.47504967625E+03  0.47504967625E+03  0.00000000000E+00 0.  1.
         24    2    1    2    0    0 -0.40377377713E+02 -0.71507203423E+02 -0.23435539585E+03  0.26117309661E+03  0.80903164671E+02 0.  0.
         23    2    1    2    0    0  0.47678453815E+01  0.60072994601E+02 -0.55635542652E+02  0.12195922749E+03  0.90262076941E+02 0.  0.
        -11    1    3    3    0    0 -0.36216593884E+02 -0.88309481644E+02 -0.21483373068E+03  0.23508240696E+03  0.00000000000E+00 0.  1.
         12    1    3    3    0    0 -0.41607838290E+01  0.16802278221E+02 -0.19521665170E+02  0.26090689652E+02  0.00000000000E+00 0. -1.
        -13    1    4    4    0    0 -0.11328427821E+02 -0.21125115050E+02 -0.37455342430E+01  0.24261755698E+02  0.00000000000E+00 0.  1.
         13    1    4    4    0    0  0.16096273203E+02  0.81198109650E+02 -0.51890008409E+02  0.97697471792E+02  0.00000000000E+00 0. -1.
         21    1    1    2  502  501  0.35609532331E+02  0.11434208822E+02 -0.13596295347E+03  0.14101313642E+03  0.00000000000E+00 0.  1.
<scales pt_clust_5="13000.00000" pt_clust_6="13000.00000" pt_clust_7="13000.00000" pt_clust_8="13000.00000" pt_clust_9="37.40027"></scales>
<clustering>
<clus scale="   37.400">  2  9  1 -1</clus>
<clus scale="   80.903">  5  6 -1 -1</clus>
<clus scale="   90.262">  7  8 -1 -1</clus>
<clus scale="  103.568">  2  5  1 -1</clus>
<clus scale="  111.032">  1  5  2 -1</clus>
</clustering>
</event>
<event>
 9    2  0.2984928E-005  0.1662160E+03  0.7546771E-02  0.1206154E+00
         -1   -1    0    0    0  501 -0.00000000000E+00  0.00000000000E+00  0.58096162577E+02  0.58096162577E+02  0.00000000000E+00 0.  1.
          2   -1    0    0  502    0  0.00000000000E+00 -0.00000000000E+00 -0.14419511206E+04  0.14419511206E+04  0.00000000000E+00 0. -1.
         24    2    1    2    0    0 -0.19473754445E+02  0.14896623894E+03 -0.10889747739E+03  0.20112698128E+03  0.77609500453E+02 0.  0.
         23    2    1    2    0    0  0.26901930643E+02 -0.20774319948E+02 -0.29770792564E+03  0.31327075026E+03  0.91396212939E+02 0.  0.
        -13    1    3    3    0    0  0.11766469935E+01  0.14735048302E+03 -0.10231327125E+03  0.17939218159E+03  0.00000000000E+00 0.  1.
         14    1    3    3    0    0 -0.20650401439E+02  0.16157559221E+01 -0.65842061390E+01  0.21734799683E+02  0.00000000000E+00 0. -1.
        -13    1    4    4    0    0  0.60915339826E+02 -0.15530833239E+02 -0.18183637458E+03  0.19239634229E+03  0.00000000000E+00 0. -1.
         13    1    4    4    0    0 -0.34013409182E+02 -0.52434867095E+01 -0.11587155105E+03  0.12087440796E+03  0.00000000000E+00 0.  1.
         21    1    1    2  502  501 -0.74281761978E+01 -0.12819191899E+03 -0.97724955498E+03  0.98564955162E+03  0.00000000000E+00 0. -1.
<scales pt_clust_5="13000.00000" pt_clust_6="13000.00000" pt_clust_7="13000.00000" pt_clust_8="13000.00000" pt_clust_9="146.98479"></scales>
<clustering>
<clus scale="   77.610">  5  6 -1 -1</clus>
<clus scale="   91.396">  7  8 -1 -1</clus>
<clus scale="   97.512">  2  7  1 -1</clus>
<clus scale="  146.985">  2  9  1 -1</clus>
<clus scale="   97.512">  2  5  1 -1</clus>
</clustering>
</event>
<event>
 9    2  0.2984928E-005  0.1630936E+03  0.7546771E-02  0.1186336E+00
         -3   -1    0    0    0  501 -0.00000000000E+00  0.00000000000E+00  0.21825113594E+03  0.21825113594E+03  0.00000000000E+00 0.  1.
          4   -1    0    0  502    0  0.00000000000E+00 -0.00000000000E+00 -0.36332495165E+03  0.36332495165E+03  0.00000000000E+00 0. -1.
         23    2    1    2    0    0 -0.71611126698E+02  0.10913744296E+03  0.12354920708E+03  0.20050186870E+03  0.88867642356E+02 0.  0.
         24    2    1    2    0    0  0.13228855986E+03 -0.11004706782E+03 -0.13227956031E+03  0.23183575845E+03  0.81482001810E+02 0.  0.
        -13    1    4    4    0    0  0.77685344894E+02 -0.10969049754E+03 -0.10629453544E+03  0.17136378359E+03  0.00000000000E+00 0.  1.
         14    1    4    4    0    0  0.54603214964E+02 -0.35657027610E+00 -0.25985024871E+02  0.60471974867E+02  0.00000000000E+00 0. -1.
        -11    1    3    3    0    0 -0.66414632741E+02  0.80989071976E+02  0.13395828071E+03  0.17004397723E+03  0.00000000000E+00 0.  1.
         11    1    3    3    0    0 -0.51964939570E+01  0.28148370987E+02 -0.10409073632E+02  0.30457891466E+02  0.00000000000E+00 0. -1.
         21    1    1    2  502  501 -0.60677433159E+02  0.90962485340E+00 -0.13634346248E+03  0.14923846044E+03  0.00000000000E+00 0.  1.
<scales pt_clust_5="13000.00000" pt_clust_6="13000.00000" pt_clust_7="13000.00000" pt_clust_8="13000.00000" pt_clust_9="60.68425"></scales>
<clustering>
<clus scale="   60.684">  2  9  1 -1</clus>
<clus scale="   81.482">  5  6 -1 -1</clus>
<clus scale="   88.868">  7  8 -1 -1</clus>
<clus scale="  159.190">  2  5  1 -1</clus>
<clus scale="   60.684">  2  5  1 -1</clus>
</clustering>
</event>
<event>
 9    2  0.2984928E-005  0.1044780E+03  0.7546771E-02  0.1276514E+00
          2   -1    0    0  502    0  0.00000000000E+00  0.00000000000E+00  0.28849428210E+03  0.28849428210E+03  0.00000000000E+00 0. -1.
         -1   -1    0    0    0  501 -0.00000000000E+00 -0.00000000000E+00 -0.92892660530E+02  0.92892660530E+02  0.00000000000E+00 0.  1.
         23    2    1    2    0    0 -0.63447782151E+02  0.65448977537E+01 -0.28078687310E+02  0.11453274121E+03  0.90889379918E+02 0.  0.
         24    2    1    2    0    0  0.21248613437E+02  0.23968044991E+02  0.92606955101E+02  0.12581508065E+03  0.78913976160E+02 0.  0.
        -11    1    4    4    0    0  0.90938386339E+01  0.19106327993E+02 -0.92692183184E+01  0.23101257081E+02  0.00000000000E+00 0.  1.
         12    1    4    4    0    0  0.12154774803E+02  0.48617169981E+01  0.10187617342E+03  0.10271382357E+03  0.00000000000E+00 0. -1.
        -11    1    3    3    0    0 -0.77805663798E+01  0.42167089314E+02 -0.39786267033E+00  0.42880752432E+02  0.00000000000E+00 0.  1.
         11    1    3    3    0    0 -0.55667215771E+02 -0.35622191561E+02 -0.27680824640E+02  0.71651988779E+02  0.00000000000E+00 0. -1.
         21    1    1    2  502  501  0.42199168714E+02 -0.30512942745E+02  0.13107335378E+03  0.14103912076E+03  0.00000000000E+00 0.  1.
<scales pt_clust_5="13000.00000" pt_clust_6="13000.00000" pt_clust_7="13000.00000" pt_clust_8="13000.00000" pt_clust_9="52.07504"></scales>
<clustering>
<clus scale="   52.075">  1  9  2 -1</clus>
<clus scale="   78.914">  5  6 -1 -1</clus>
<clus scale="   90.889">  7  8 -1 -1</clus>
<clus scale="   94.245">  1  5  2 -1</clus>
<clus scale="   52.075">  1  5  2 -1</clus>
</clustering>
</event>
<event>
 9    2  0.2984928E-005  0.1043597E+03  0.7546771E-02  0.1278368E+00
          2   -1    0    0  502    0  0.00000000000E+00  0.00000000000E+00  0.36365870271E+03  0.36365870271E+03  0.00000000000E+00 0. -1.
         -1   -1    0    0    0  501 -0.00000000000E+00 -0.00000000000E+00 -0.36248445860E+02  0.36248445860E+02  0.00000000000E+00 0.  1.
         23    2    1    2    0    0  0.19499669165E+02  0.54621463785E+02  0.11183416430E+03  0.15643906085E+03  0.92749976022E+02 0.  0.
         24    2    1    2    0    0 -0.18712574826E+02 -0.31749518465E+02  0.13829228079E+03  0.16286701477E+03  0.77734916186E+02 0.  0.
        -13    1    4    4    0    0  0.28445769069E+02 -0.84064838088E+01  0.74407506607E+02  0.80101858826E+02  0.00000000000E+00 0.  1.
         14    1    4    4    0    0 -0.47158343896E+02 -0.23343034656E+02  0.63884774187E+02  0.82765155947E+02  0.00000000000E+00 0. -1.
        -13    1    3    3    0    0 -0.79130564140E+01  0.38093465731E+02  0.11764009823E+03  0.12390690580E+03  0.00000000000E+00 0. -1.
         13    1    3    3    0    0  0.27412725579E+02  0.16527998054E+02 -0.58059339338E+01  0.32532155050E+02  0.00000000000E+00 0.  1.
         21    1    1    2  502  501 -0.78709433823E+00 -0.22871945320E+02  0.77283811754E+02  0.80601072943E+02  0.00000000000E+00 0. -1.
<scales pt_clust_5="13000.00000" pt_clust_6="13000.00000" pt_clust_7="13000.00000" pt_clust_8="13000.00000" pt_clust_9="22.88548"></scales>
<clustering>
<clus scale="   22.885">  1  9  2 -1</clus>
<clus scale="   77.735">  5  6 -1 -1</clus>
<clus scale="   91.275">  1  5  2 -1</clus>
<clus scale="   92.750">  7  8 -1 -1</clus>
<clus scale="   22.885">  1  5  2 -1</clus>
</clustering>
</event>
<event>
 9    2  0.2984928E-005  0.1017703E+03  0.7546771E-02  0.1281345E+00
          4   -1    0    0  502    0  0.00000000000E+00  0.00000000000E+00  0.67841761764E+03  0.67841761764E+03  0.00000000000E+00 0. -1.
         -3   -1    0    0    0  501 -0.00000000000E+00 -0.00000000000E+00 -0.97607533563E+02  0.97607533563E+02  0.00000000000E+00 0.  1.
         23    2    1    2    0    0  0.14777948811E+02  0.46307506869E+02 -0.54618244795E+02  0.11644235973E+03  0.90625037997E+02 0.  0.
         24    2    1    2    0    0 -0.52691483906E+02  0.87954702240E+01  0.49072074234E+03  0.50016491347E+03  0.80649494278E+02 0.  0.
        -11    1    4    4    0    0 -0.15920942539E+02 -0.16523431148E+02  0.32552379070E+02  0.39826593770E+02  0.00000000000E+00 0.  1.
         12    1    4    4    0    0 -0.36770541367E+02  0.25318901372E+02  0.45816836327E+03  0.46033831970E+03  0.00000000000E+00 0. -1.
        -11    1    3    3    0    0  0.71517880224E+01  0.73584749159E+02 -0.44902121625E+02  0.86498924312E+02  0.00000000000E+00 0. -1.
         11    1    3    3    0    0  0.76261607885E+01 -0.27277242289E+02 -0.97161231692E+01  0.29943435420E+02  0.00000000000E+00 0.  1.
         21    1    1    2  502  501  0.37913535095E+02 -0.55102977093E+02  0.14470758653E+03  0.15941787800E+03  0.00000000000E+00 0.  1.
<scales pt_clust_5="13000.00000" pt_clust_6="13000.00000" pt_clust_7="13000.00000" pt_clust_8="13000.00000" pt_clust_9="66.88628"></scales>
<clustering>
<clus scale="   66.886">  1  9  2 -1</clus>
<clus scale="   80.649">  5  6 -1 -1</clus>
<clus scale="   90.625">  7  8 -1 -1</clus>
<clus scale="   92.998">  1  5  2 -1</clus>
<clus scale="   66.886">  1  5  2 -1</clus>
</clustering>
</event>
<event>
 9    2  0.2984928E-005  0.1021634E+03  0.7546771E-02  0.1288760E+00
         -1   -1    0    0    0  501 -0.00000000000E+00  0.00000000000E+00  0.24961702176E+03  0.24961702176E+03  0.00000000000E+00 0.  1.
          2   -1    0    0  502    0  0.00000000000E+00 -0.00000000000E+00 -0.12844978033E+03  0.12844978033E+03  0.00000000000E+00 0. -1.
         24    2    1    2    0    0 -0.15114072587E+02  0.70188773693E+01  0.19495571060E+03  0.21095981994E+03  0.78858206334E+02 0.  0.
         23    2    1    2    0    0 -0.28622351245E+02  0.16710247630E+01 -0.53376646180E+02  0.11806585975E+03  0.10133335861E+03 0.  0.
        -11    1    3    3    0    0  0.14183416421E+01 -0.35205020038E+02  0.87643568247E+02  0.94460574759E+02  0.00000000000E+00 0.  1.
         12    1    3    3    0    0 -0.16532414229E+02  0.42223897407E+02  0.10731214235E+03  0.11649924518E+03  0.00000000000E+00 0. -1.
        -13    1    4    4    0    0 -0.38810308776E+02 -0.41686096789E+02 -0.45361606251E+02  0.72812403163E+02  0.00000000000E+00 0.  1.
         13    1    4    4    0    0  0.10187957531E+02  0.43357121552E+02 -0.80150399292E+01  0.45253456586E+02  0.00000000000E+00 0. -1.
         21    1    1    2  502  501  0.43736423832E+02 -0.86899021323E+01 -0.20411822983E+02  0.49041122399E+02  0.00000000000E+00 0. -1.
<scales pt_clust_5="13000.00000" pt_clust_6="13000.00000" pt_clust_7="13000.00000" pt_clust_8="13000.00000" pt_clust_9="44.59136"></scales>
<clustering>
<clus scale="   44.591">  2  9  1 -1</clus>
<clus scale="   78.858">  5  6 -1 -1</clus>
<clus scale="   79.922">  1  5  2 -1</clus>
<clus scale="  101.333">  7  8 -1 -1</clus>
<clus scale="   44.591">  2  5  1 -1</clus>
</clustering>
</event>
<event>
 9    2  0.2984928E-005  0.9061888E+02  0.7546771E-02  0.1301817E+00
         -1   -1    0    0    0  501 -0.00000000000E+00  0.00000000000E+00  0.58430317223E+02  0.58430317223E+02  0.00000000000E+00 0.  1.
          2   -1    0    0  502    0  0.00000000000E+00 -0.00000000000E+00 -0.49672467148E+03  0.49672467148E+03  0.00000000000E+00 0. -1.
         23    2    1    2    0    0 -0.21486494042E+02 -0.94820370542E+01  0.99798969537E+01  0.83489766795E+02  0.79494429763E+02 0.  0.
         24    2    1    2    0    0  0.41801196272E+02  0.12965306323E+02 -0.44006983330E+03  0.44948115635E+03  0.80351804921E+02 0.  0.
        -13    1    4    4    0    0 -0.20752159550E+02  0.15248539082E+02 -0.80966243369E+02  0.84962948604E+02  0.00000000000E+00 0.  1.
         14    1    4    4    0    0  0.62553355822E+02 -0.22832327587E+01 -0.35910358993E+03  0.36451820775E+03  0.00000000000E+00 0. -1.
        -11    1    3    3    0    0 -0.12147933530E+02 -0.42942216983E+02  0.17517765533E+02  0.47942448808E+02  0.00000000000E+00 0.  1.
         11    1    3    3    0    0 -0.93385605120E+01  0.33460179929E+02 -0.75378685796E+01  0.35547317987E+02  0.00000000000E+00 0. -1.
         21    1    1    2  502  501 -0.20314702230E+02 -0.34832692689E+01 -0.82044179121E+01  0.22184065560E+02  0.00000000000E+00 0.  1.
<scales pt_clust_5="13000.00000" pt_clust_6="13000.00000" pt_clust_7="13000.00000" pt_clust_8="13000.00000" pt_clust_9="20.61117"></scales>
<clustering>
<clus scale="   20.611">  1  9  2 -1</clus>
<clus scale="   79.494">  7  8 -1 -1</clus>
<clus scale="   80.352">  5  6 -1 -1</clus>
<clus scale="   89.860">  1  7  2 -1</clus>
<clus scale="   90.619">  2  5  1 -1</clus>
</clustering>
</event>
<event>
 9    2  0.2984928E-005  0.1082683E+03  0.7546771E-02  0.1269986E+00
         -1   -1    0    0    0  501 -0.00000000000E+00  0.00000000000E+00  0.49669321238E+02  0.49669321238E+02  0.00000000000E+00 0.  1.
          2   -1    0    0  502    0  0.00000000000E+00 -0.00000000000E+00 -0.66944200301E+03  0.66944200301E+03  0.00000000000E+00 0. -1.
         23    2    1    2    0    0 -0.57915325910E+02 -0.55528315500E+01 -0.25023499190E+02  0.11124334412E+03  0.91454290148E+02 0.  0.
         24    2    1    2    0    0  0.57743331835E+02 -0.20327046520E+02 -0.50662577408E+03  0.51602282350E+03  0.76566299453E+02 0.  0.
        -13    1    4    4    0    0  0.66361237797E+02 -0.25753321726E+02 -0.27149667260E+03  0.28067328105E+03  0.00000000000E+00 0.  1.
         14    1    4    4    0    0 -0.86179059619E+01  0.54262752060E+01 -0.23512910149E+03  0.23534954245E+03  0.00000000000E+00 0. -1.
        -11    1    3    3    0    0 -0.27104640024E+02 -0.29778960297E+02 -0.50430581154E+02  0.64534421070E+02  0.00000000000E+00 0. -1.
         11    1    3    3    0    0 -0.30810685886E+02  0.24226128747E+02  0.25407081965E+02  0.46708923053E+02  0.00000000000E+00 0.  1.
         21    1    1    2  502  501  0.17199407481E+00  0.25879878070E+02 -0.88123408501E+02  0.91845156631E+02  0.00000000000E+00 0. -1.
<scales pt_clust_5="13000.00000" pt_clust_6="13000.00000" pt_clust_7="13000.00000" pt_clust_8="13000.00000" pt_clust_9="25.88045"></scales>
<clustering>
<clus scale="   25.880">  2  9  1 -1</clus>
<clus scale="   76.566">  5  6 -1 -1</clus>
<clus scale="   91.454">  7  8 -1 -1</clus>
<clus scale="   96.024">  2  5  1 -1</clus>
<clus scale="   25.880">  2  5  1 -1</clus>
</clustering>
</event>
<event>
 9    2  0.2984928E-005  0.1541959E+03  0.7546771E-02  0.1216251E+00
          2   -1    0    0  502    0  0.00000000000E+00  0.00000000000E+00  0.81333332881E+03  0.81333332881E+03  0.00000000000E+00 0. -1.
         -1   -1    0    0    0  501 -0.00000000000E+00 -0.00000000000E+00 -0.10985978117E+03  0.10985978117E+03  0.00000000000E+00 0.  1.
         24    2    1    2    0    0 -0.27700842605E+02  0.49679438628E+02 -0.54729944220E+02  0.11268012007E+03  0.80411811074E+02 0.  0.
         23    2    1    2    0    0 -0.62617488524E+01 -0.15288722098E+03  0.48441262778E+03  0.51595104190E+03  0.90200730896E+02 0.  0.
        -13    1    3    3    0    0  0.16509474625E+02  0.43019430664E+02 -0.58687587806E+01  0.46450796513E+02  0.00000000000E+00 0.  1.
         14    1    3    3    0    0 -0.44210317230E+02  0.66600079641E+01 -0.48861185440E+02  0.66229323553E+02  0.00000000000E+00 0. -1.
        -11    1    4    4    0    0 -0.10909653256E+02 -0.30169199612E+02  0.25763857033E+02  0.41145807425E+02  0.00000000000E+00 0.  1.
         11    1    4    4    0    0  0.46479044040E+01 -0.12271802136E+03  0.45864877074E+03  0.47480523448E+03  0.00000000000E+00 0. -1.
         21    1    1    2  502  501  0.33962591457E+02  0.10320778235E+03  0.27379086408E+03  0.29456194800E+03  0.00000000000E+00 0.  1.
<scales pt_clust_5="13000.00000" pt_clust_6="13000.00000" pt_clust_7="13000.00000" pt_clust_8="13000.00000" pt_clust_9="125.06079"></scales>
<clustering>
<clus scale="   80.412">  5  6 -1 -1</clus>
<clus scale="   90.201">  7  8 -1 -1</clus>
<clus scale="   98.496">  2  5  1 -1</clus>
<clus scale="  125.061">  1  9  2 -1</clus>
<clus scale="  125.061">  1  5  2 -1</clus>
</clustering>
</event>
<event>
 9    2  0.2984928E-005  0.1035461E+03  0.7546771E-02  0.1278832E+00
         -1   -1    0    0    0  501 -0.00000000000E+00  0.00000000000E+00  0.26681278719E+02  0.26681278719E+02  0.00000000000E+00 0.  1.
          2   -1    0    0  502    0  0.00000000000E+00 -0.00000000000E+00 -0.81410442937E+03  0.81410442937E+03  0.00000000000E+00 0. -1.
         23    2    1    2    0    0 -0.44170379747E+02 -0.55953853890E+01 -0.11124691538E+03  0.15088576059E+03  0.91696814460E+02 0.  0.
         24    2    1    2    0    0  0.65169751901E+02 -0.16863820987E+02 -0.56860026261E+03  0.57801617086E+03  0.79151437834E+02 0.  0.
        -13    1    4    4    0    0  0.58001208669E+02 -0.18375391826E+02 -0.19340364176E+03  0.20274803052E+03  0.00000000000E+00 0.  1.
         14    1    4    4    0    0  0.71685432320E+01  0.15115708394E+01 -0.37519662085E+03  0.37526814034E+03  0.00000000000E+00 0. -1.
        -13    1    3    3    0    0  0.45294629115E+01  0.35324411632E+02 -0.57374825039E+02  0.67529257656E+02  0.00000000000E+00 0. -1.
         13    1    3    3    0    0 -0.48699842658E+02 -0.40919797021E+02 -0.53872090338E+02  0.83356502929E+02  0.00000000000E+00 0.  1.
         21    1    1    2  502  501 -0.20999372154E+02  0.22459206376E+02 -0.10757597267E+03  0.11188377665E+03  0.00000000000E+00 0.  1.
<scales pt_clust_5="13000.00000" pt_clust_6="13000.00000" pt_clust_7="13000.00000" pt_clust_8="13000.00000" pt_clust_9="30.74719"></scales>
<clustering>
<clus scale="   30.747">  2  9  1 -1</clus>
<clus scale="   79.151">  5  6 -1 -1</clus>
<clus scale="   91.697">  7  8 -1 -1</clus>
<clus scale="   92.620">  2  5  1 -1</clus>
<clus scale="   30.747">  2  5  1 -1</clus>
</clustering>
</event>
<event>
 9    2  0.2984928E-005  0.1195476E+03  0.7546771E-02  0.1247189E+00
          2   -1    0    0  502    0  0.00000000000E+00  0.00000000000E+00  0.58441395740E+02  0.58441395740E+02  0.00000000000E+00 0. -1.
         -1   -1    0    0    0  501 -0.00000000000E+00 -0.00000000000E+00 -0.39305963320E+03  0.39305963320E+03  0.00000000000E+00 0.  1.
         24    2    1    2    0    0 -0.35092306315E+02  0.67368245321E+02 -0.18486085152E+03  0.21535875322E+03  0.80224109374E+02 0.  0.
         23    2    1    2    0    0 -0.12359030249E+02 -0.91355824412E+02 -0.10862823175E+03  0.16892144102E+03  0.90750913063E+02 0.  0.
        -11    1    3    3    0    0 -0.29334076541E+02 -0.10242524132E+02 -0.37409038181E+02  0.48629553614E+02  0.00000000000E+00 0.  1.
         12    1    3    3    0    0 -0.57582297737E+01  0.77610769452E+02 -0.14745181334E+03  0.16672919961E+03  0.00000000000E+00 0. -1.
        -11    1    4    4    0    0  0.24044941483E+02 -0.33629726089E+02 -0.88642397996E+02  0.97808958742E+02  0.00000000000E+00 0. -1.
         11    1    4    4    0    0 -0.36403971732E+02 -0.57726098323E+02 -0.19985833754E+02  0.71112482282E+02  0.00000000000E+00 0.  1.
         21    1    1    2  502  501  0.47451336564E+02  0.23987579091E+02 -0.41129154193E+02  0.67220834694E+02  0.00000000000E+00 0. -1.
<scales pt_clust_5="13000.00000" pt_clust_6="13000.00000" pt_clust_7="13000.00000" pt_clust_8="13000.00000" pt_clust_9="53.16985"></scales>
<clustering>
<clus scale="   53.170">  1  9  2 -1</clus>
<clus scale="   80.224">  5  6 -1 -1</clus>
<clus scale="   90.751">  7  8 -1 -1</clus>
<clus scale="  111.767">  2  5  1 -1</clus>
<clus scale="   53.170">  1  5  2 -1</clus>
</clustering>
</event>
<event>
 9    2  0.2984928E-005  0.1111562E+03  0.7546771E-02  0.1258542E+00
         -1   -1    0    0    0  501 -0.00000000000E+00  0.00000000000E+00  0.18964540412E+02  0.18964540412E+02  0.00000000000E+00 0.  1.
          2   -1    0    0  502    0  0.00000000000E+00 -0.00000000000E+00 -0.10835901376E+04  0.10835901376E+04  0.00000000000E+00 0. -1.
         23    2    1    2    0    0 -0.64785054115E+02 -0.35172907272E+01 -0.23979120939E+03  0.26275280406E+03  0.85613885355E+02 0.  0.
         24    2    1    2    0    0  0.86027108186E+02 -0.22328060579E+02 -0.68126972336E+03  0.69239081630E+03  0.85891797632E+02 0.  0.
        -13    1    4    4    0    0  0.40139462360E+02 -0.18029429143E+01 -0.85133906236E+02  0.94139306523E+02  0.00000000000E+00 0.  1.
         14    1    4    4    0    0  0.45887645826E+02 -0.20525117665E+02 -0.59613581712E+03  0.59825150978E+03  0.00000000000E+00 0. -1.
        -11    1    3    3    0    0 -0.63656336247E+02  0.23461740106E+02 -0.10309151041E+03  0.12341167656E+03  0.00000000000E+00 0.  1.
         11    1    3    3    0    0 -0.11287178685E+01 -0.26979030833E+02 -0.13669969899E+03  0.13934112750E+03  0.00000000000E+00 0. -1.
         21    1    1    2  502  501 -0.21242054071E+02  0.25845351306E+02 -0.14356466448E+03  0.14741105770E+03  0.00000000000E+00 0.  1.
<scales pt_clust_5="13000.00000" pt_clust_6="13000.00000" pt_clust_7="13000.00000" pt_clust_8="13000.00000" pt_clust_9="33.45455"></scales>
<clustering>
<clus scale="   33.455">  2  9  1 -1</clus>
<clus scale="   85.614">  7  8 -1 -1</clus>
<clus scale="   85.892">  5  6 -1 -1</clus>
<clus scale="  110.942">  1  7  2 -1</clus>
<clus scale="   33.455">  2  5  1 -1</clus>
</clustering>
</event>
<event>
 9    2  0.2984928E-005  0.1284124E+03  0.7546771E-02  0.1233259E+00
         -1   -1    0    0    0  501 -0.00000000000E+00  0.00000000000E+00  0.13924994735E+03  0.13924994735E+03  0.00000000000E+00 0.  1.
          2   -1    0    0  502    0  0.00000000000E+00 -0.00000000000E+00 -0.38499349325E+03  0.38499349325E+03  0.00000000000E+00 0. -1.
         24    2    1    2    0    0 -0.91167887632E+02  0.15945671904E+02  0.88771955318E+02  0.15042900420E+03  0.78629365156E+02 0.  0.
         23    2    1    2    0    0  0.60198463151E+02 -0.46646752694E+02 -0.27833733588E+03  0.30269729449E+03  0.91401340473E+02 0.  0.
        -11    1    3    3    0    0 -0.70229658654E+02  0.25937961243E+02  0.99784661622E+02  0.12474759109E+03  0.00000000000E+00 0.  1.
         12    1    3    3    0    0 -0.20938228978E+02 -0.99922893397E+01 -0.11012706303E+02  0.25681413105E+02  0.00000000000E+00 0. -1.
        -13    1    4    4    0    0  0.63510154199E+01  0.26339821485E+02 -0.47565512682E+02  0.54741205590E+02  0.00000000000E+00 0.  1.
         13    1    4    4    0    0  0.53847447731E+02 -0.72986574178E+02 -0.23077182320E+03  0.24795608890E+03  0.00000000000E+00 0. -1.
         21    1    1    2  502  501  0.30969424481E+02  0.30701080790E+02 -0.56178165335E+02  0.71117141919E+02  0.00000000000E+00 0. -1.
<scales pt_clust_5="13000.00000" pt_clust_6="13000.00000" pt_clust_7="13000.00000" pt_clust_8="13000.00000" pt_clust_9="43.60805"></scales>
<clustering>
<clus scale="   43.608">  2  9  1 -1</clus>
<clus scale="   78.629">  5  6 -1 -1</clus>
<clus scale="   91.401">  7  8 -1 -1</clus>
<clus scale="  119.658">  1  5  2 -1</clus>
<clus scale="   43.608">  2  5  1 -1</clus>
</clustering>
</event>
<event>
 9    2  0.2984928E-005  0.8993869E+02  0.7546771E-02  0.1309938E+00
         -1   -1    0    0    0  501 -0.00000000000E+00  0.00000000000E+00  0.64442426046E+03  0.64442426046E+03  0.00000000000E+00 0.  1.
          2   -1    0    0  502    0  0.00000000000E+00 -0.00000000000E+00 -0.14107167278E+03  0.14107167278E+03  0.00000000000E+00 0. -1.
         24    2    1    2    0    0 -0.47080104612E+02 -0.19128703887E+02  0.47353883489E+02  0.10493386700E+03  0.78652924925E+02 0.  0.
         23    2    1    2    0    0 -0.19453863556E+02  0.45259384034E+01 -0.91120061335E+02  0.12921920261E+03  0.89419236291E+02 0.  0.
        -11    1    3    3    0    0 -0.21562277152E+02  0.30187659905E+02  0.11507605679E+02  0.38841364483E+02  0.00000000000E+00 0.  1.
         12    1    3    3    0    0 -0.25517827460E+02 -0.49316363792E+02  0.35846277811E+02  0.66092502516E+02  0.00000000000E+00 0. -1.
        -13    1    4    4    0    0  0.19592148086E+02  0.33875897889E+02 -0.58856824454E+02  0.70679236762E+02  0.00000000000E+00 0.  1.
         13    1    4    4    0    0 -0.39046011643E+02 -0.29349959486E+02 -0.32263236881E+02  0.58539965844E+02  0.00000000000E+00 0. -1.
         21    1    1    2  502  501  0.66533968168E+02  0.14602765484E+02  0.54711876553E+03  0.55134286363E+03  0.00000000000E+00 0.  1.
<scales pt_clust_5="13000.00000" pt_clust_6="13000.00000" pt_clust_7="13000.00000" pt_clust_8="13000.00000" pt_clust_9="68.11762"></scales>
<clustering>
<clus scale="   68.118">  1  9  2 -1</clus>
<clus scale="   78.653">  5  6 -1 -1</clus>
<clus scale="   79.243">  1  5  2 -1</clus>
<clus scale="   89.419">  7  8 -1 -1</clus>
<clus scale="   89.939">  2  5  1 -1</clus>
</clustering>
</event>
<event>
 9    2  0.2984928E-005  0.1302694E+03  0.7546771E-02  0.1229724E+00
          2   -1    0    0  502    0  0.00000000000E+00  0.00000000000E+00  0.22125686310E+04  0.22125686310E+04  0.00000000000E+00 0. -1.
         -1   -1    0    0    0  501 -0.00000000000E+00 -0.00000000000E+00 -0.20510842655E+02  0.20510842655E+02  0.00000000000E+00 0.  1.
         23    2    1    2    0    0  0.98314926572E+02  0.59344506865E+00  0.41852097309E+03  0.43939862877E+03  0.90802935433E+02 0.  0.
         24    2    1    2    0    0 -0.52503483876E+02 -0.88873089010E+02  0.14317168071E+04  0.14376851963E+04  0.80440451551E+02 0.  0.
        -11    1    4    4    0    0 -0.28358886681E+02 -0.16617339426E+02  0.14343723822E+03  0.14715503298E+03  0.00000000000E+00 0.  1.
         12    1    4    4    0    0 -0.24144597195E+02 -0.72255749584E+02  0.12882795688E+04  0.12905301633E+04  0.00000000000E+00 0. -1.
        -11    1    3    3    0    0 -0.61969295819E+01 -0.25318619712E+02  0.88167166272E+02  0.91939565198E+02  0.00000000000E+00 0.  1.
         11    1    3    3    0    0  0.10451185615E+03  0.25912064780E+02  0.33035380682E+03  0.34745906357E+03  0.00000000000E+00 0. -1.
         21    1    1    2  502  501 -0.45811442696E+02  0.88279643941E+02  0.34182000817E+03  0.35599564857E+03  0.00000000000E+00 0.  1.
<scales pt_clust_5="13000.00000" pt_clust_6="13000.00000" pt_clust_7="13000.00000" pt_clust_8="13000.00000" pt_clust_9="99.45845"></scales>
<clustering>
<clus scale="   80.440">  5  6 -1 -1</clus>
<clus scale="   90.803">  7  8 -1 -1</clus>
<clus scale="   99.458">  2  9  1 -1</clus>
<clus scale="  123.270">  1  5  2 -1</clus>
<clus scale="  123.270">  1  5  2 -1</clus>
</clustering>
</event>
<event>
 9    2  0.2984928E-005  0.1510998E+03  0.7546771E-02  0.1219973E+00
          2   -1    0    0  502    0  0.00000000000E+00  0.00000000000E+00  0.26514203262E+03  0.26514203262E+03  0.00000000000E+00 0. -1.
         -1   -1    0    0    0  501 -0.00000000000E+00 -0.00000000000E+00 -0.37187581046E+03  0.37187581046E+03  0.00000000000E+00 0.  1.
         23    2    1    2    0    0 -0.20475522896E+02 -0.33202686926E+02 -0.26617320558E+03  0.28322208430E+03  0.88571486412E+02 0.  0.
         24    2    1    2    0    0 -0.89778487454E+02 -0.47453711329E+02 -0.17067511180E+02  0.13060055080E+03  0.80331640113E+02 0.  0.
        -11    1    4    4    0    0 -0.44599432953E+02 -0.64812348243E+02 -0.22675892536E+02  0.81877628244E+02  0.00000000000E+00 0.  1.
         12    1    4    4    0    0 -0.45179054501E+02  0.17358636914E+02  0.56083813561E+01  0.48722922557E+02  0.00000000000E+00 0. -1.
        -13    1    3    3    0    0 -0.47561569040E+02  0.31351617865E+01 -0.17543266295E+03  0.18179260524E+03  0.00000000000E+00 0.  1.
         13    1    3    3    0    0  0.27086046144E+02 -0.36337848712E+02 -0.90740542629E+02  0.10142947906E+03  0.00000000000E+00 0. -1.
         21    1    1    2  502  501  0.11025401035E+03  0.80656398255E+02  0.17650693892E+03  0.22319520798E+03  0.00000000000E+00 0. -1.
<scales pt_clust_5="13000.00000" pt_clust_6="13000.00000" pt_clust_7="13000.00000" pt_clust_8="13000.00000" pt_clust_9="127.97652"></scales>
<clustering>
<clus scale="   80.332">  5  6 -1 -1</clus>
<clus scale="   88.571">  7  8 -1 -1</clus>
<clus scale="   96.781">  2  7  1 -1</clus>
<clus scale="  127.977">  1  9  2 -1</clus>
<clus scale="  127.977">  1  5  2 -1</clus>
</clustering>
</event>
<event>
 9    2  0.2984928E-005  0.1046410E+03  0.7546771E-02  0.1279675E+00
          2   -1    0    0  502    0  0.00000000000E+00  0.00000000000E+00  0.66760193594E+03  0.66760193594E+03  0.00000000000E+00 0. -1.
         -1   -1    0    0    0  501 -0.00000000000E+00 -0.00000000000E+00 -0.34143088023E+02  0.34143088023E+02  0.00000000000E+00 0.  1.
         24    2    1    2    0    0 -0.24494112897E+02  0.40619789574E+02  0.53753641473E+02  0.10597537843E+03  0.78047408600E+02 0.  0.
         23    2    1    2    0    0  0.17686667641E+02 -0.31301238180E+01  0.37463782052E+03  0.38719244372E+03  0.96134676476E+02 0.  0.
        -13    1    3    3    0    0 -0.38702060123E+02  0.55556020425E+02  0.28721591690E+02  0.73547608339E+02  0.00000000000E+00 0.  1.
         14    1    3    3    0    0  0.14207947226E+02 -0.14936230851E+02  0.25032049783E+02  0.32427770086E+02  0.00000000000E+00 0. -1.
        -13    1    4    4    0    0 -0.14372702397E+02 -0.40976847336E+02  0.23569390530E+03  0.23966078859E+03  0.00000000000E+00 0.  1.
         13    1    4    4    0    0  0.32059370038E+02  0.37846723518E+02  0.13894391522E+03  0.14753165513E+03  0.00000000000E+00 0. -1.
         21    1    1    2  502  501  0.68074452557E+01 -0.37489665756E+02  0.20506738592E+03  0.20857720182E+03  0.00000000000E+00 0.  1.
<scales pt_clust_5="13000.00000" pt_clust_6="13000.00000" pt_clust_7="13000.00000" pt_clust_8="13000.00000" pt_clust_9="38.10271"></scales>
<clustering>
<clus scale="   38.103">  1  9  2 -1</clus>
<clus scale="   78.047">  5  6 -1 -1</clus>
<clus scale="   88.313">  2  5  1 -1</clus>
<clus scale="   96.135">  7  8 -1 -1</clus>
<clus scale="   38.103">  1  5  2 -1</clus>
</clustering>
</event>
<event>
 9    2  0.2984928E-005  0.9333001E+02  0.7546771E-02  0.1308946E+00
         -1   -1    0    0    0  501 -0.00000000000E+00  0.00000000000E+00  0.18977733087E+03  0.18977733087E+03  0.00000000000E+00 0.  1.
          2   -1    0    0  502    0  0.00000000000E+00 -0.00000000000E+00 -0.69173834740E+03  0.69173834740E+03  0.00000000000E+00 0. -1.
         23    2    1    2    0    0  0.10033608827E+02 -0.16176112892E+02  0.17130376983E+03  0.19522946941E+03  0.91690916842E+02 0.  0.
         24    2    1    2    0    0  0.10331606207E+02 -0.34067599446E+02 -0.37785153473E+03  0.38593947282E+03  0.70072469362E+02 0.  0.
        -11    1    4    4    0    0 -0.24002618448E+02  0.29122929695E+01 -0.71953122513E+02  0.75906909976E+02  0.00000000000E+00 0.  1.
         12    1    4    4    0    0  0.34334224655E+02 -0.36979892416E+02 -0.30589841222E+03  0.31003256284E+03  0.00000000000E+00 0. -1.
        -13    1    3    3    0    0 -0.19748319731E+02 -0.29961117485E+02  0.21411200451E+02  0.41786411642E+02  0.00000000000E+00 0. -1.
         13    1    3    3    0    0  0.29781928558E+02  0.13785004593E+02  0.14989256938E+03  0.15344305776E+03  0.00000000000E+00 0.  1.
         21    1    1    2  502  501 -0.20365215034E+02  0.50243712338E+02 -0.29541325163E+03  0.30034673604E+03  0.00000000000E+00 0.  1.
<scales pt_clust_5="13000.00000" pt_clust_6="13000.00000" pt_clust_7="13000.00000" pt_clust_8="13000.00000" pt_clust_9="54.21414"></scales>
<clustering>
<clus scale="   54.214">  2  9  1 -1</clus>
<clus scale="   70.072">  5  6 -1 -1</clus>
<clus scale="   72.204">  2  5  1 -1</clus>
<clus scale="   91.691">  7  8 -1 -1</clus>
<clus scale="   54.214">  2  5  1 -1</clus>
</clustering>
</event>
<event>
 9    2  0.2984928E-005  0.1263716E+03  0.7546771E-02  0.1251826E+00
         -1   -1    0    0    0  501 -0.00000000000E+00  0.00000000000E+00  0.72654613028E+03  0.72654613028E+03  0.00000000000E+00 0.  1.
          2   -1    0    0  502    0  0.00000000000E+00 -0.00000000000E+00 -0.31863368216E+02  0.31863368216E+02  0.00000000000E+00 0. -1.
         24    2    1    2    0    0  0.14769210016E+02 -0.34246655437E+02  0.47347445198E+03  0.48163748420E+03  0.80035283073E+02 0.  0.
         23    2    1    2    0    0  0.19039995169E+02  0.15748332052E+02  0.18960526021E+03  0.22693224017E+03  0.12221929288E+03 0.  0.
        -11    1    3    3    0    0  0.40765156515E+02 -0.43034713289E+02  0.27826248322E+03  0.28450622858E+03  0.00000000000E+00 0.  1.
         12    1    3    3    0    0 -0.25995946499E+02  0.87880578516E+01  0.19521196877E+03  0.19713125563E+03  0.00000000000E+00 0. -1.
        -11    1    4    4    0    0  0.68887375900E+02 -0.45595945449E+01  0.86983713339E+02  0.11105146036E+03  0.00000000000E+00 0.  1.
         11    1    4    4    0    0 -0.49847380731E+02  0.20307926597E+02  0.10262154687E+03  0.11588077982E+03  0.00000000000E+00 0. -1.
         21    1    1    2  502  501 -0.33809205186E+02  0.18498323385E+02  0.31603049872E+02  0.49839774122E+02  0.00000000000E+00 0.  1.
<scales pt_clust_5="13000.00000" pt_clust_6="13000.00000" pt_clust_7="13000.00000" pt_clust_8="13000.00000" pt_clust_9="38.53895"></scales>
<clustering>
<clus scale="   38.539">  2  9  1 -1</clus>
<clus scale="   80.035">  5  6 -1 -1</clus>
<clus scale="   86.243">  1  5  2 -1</clus>
<clus scale="  122.219">  7  8 -1 -1</clus>
<clus scale="   38.539">  2  5  1 -1</clus>
</clustering>
</event>
<event>
 9    2  0.2984928E-005  0.2223270E+03  0.7546771E-02  0.1134045E+00
         -1   -1    0    0    0  501 -0.00000000000E+00  0.00000000000E+00  0.86075495677E+03  0.86075495677E+03  0.00000000000E+00 0.  1.
          2   -1    0    0  502    0  0.00000000000E+00 -0.00000000000E+00 -0.72362494147E+02  0.72362494147E+02  0.00000000000E+00 0. -1.
         24    2    1    2    0    0  0.20099829603E+03 -0.40913895969E+02  0.57036985108E+03  0.61077353341E+03  0.75155041118E+02 0.  0.
         23    2    1    2    0    0 -0.17667988410E+03  0.53146140684E+02  0.19840093434E+03  0.28878764856E+03  0.99975404443E+02 0.  0.
        -13    1    3    3    0    0  0.16117973604E+03 -0.94490334525E+00  0.44508775275E+03  0.47337396190E+03  0.00000000000E+00 0.  1.
         14    1    3    3    0    0  0.39818559990E+02 -0.39968992624E+02  0.12528209833E+03  0.13739957151E+03  0.00000000000E+00 0. -1.
        -13    1    4    4    0    0 -0.23647741448E+02  0.38802879454E+02  0.89629939262E+02  0.10049082118E+03  0.00000000000E+00 0.  1.
         13    1    4    4    0    0 -0.15303214265E+03  0.14343261229E+02  0.10877099508E+03  0.18829682737E+03  0.00000000000E+00 0. -1.
         21    1    1    2  502  501 -0.24318411932E+02 -0.12232244714E+02  0.19621677199E+02  0.33556268948E+02  0.00000000000E+00 0.  1.
<scales pt_clust_5="13000.00000" pt_clust_6="13000.00000" pt_clust_7="13000.00000" pt_clust_8="13000.00000" pt_clust_9="27.22155"></scales>
<clustering>
<clus scale="   27.222">  2  9  1 -1</clus>
<clus scale="   75.155">  5  6 -1 -1</clus>
<clus scale="   99.975">  7  8 -1 -1</clus>
<clus scale="  212.326">  1  5  2 -1</clus>
<clus scale="   27.222">  2  5  1 -1</clus>
</clustering>
</event>
<event>
 9    2  0.2984928E-005  0.2040317E+03  0.7546771E-02  0.1147131E+00
          2   -1    0    0  502    0  0.00000000000E+00  0.00000000000E+00  0.69312233705E+03  0.69312233705E+03  0.00000000000E+00 0. -1.
         -1   -1    0    0    0  501 -0.00000000000E+00 -0.00000000000E+00 -0.14334600228E+03  0.14334600228E+03  0.00000000000E+00 0.  1.
         23    2    1    2    0    0 -0.17213301672E+03 -0.43283499025E+02 -0.24925002661E+02  0.20055460947E+03  0.89986992895E+02 0.  0.
         24    2    1    2    0    0  0.21097338535E+03  0.51287276139E+02  0.50551920632E+03  0.55617163339E+03  0.81468176653E+02 0.  0.
        -11    1    4    4    0    0  0.67051506820E+02 -0.45985518887E+01  0.86014918692E+02  0.10915868030E+03  0.00000000000E+00 0.  1.
         12    1    4    4    0    0  0.14392187853E+03  0.55885828027E+02  0.41950428763E+03  0.44701295310E+03  0.00000000000E+00 0. -1.
        -11    1    3    3    0    0 -0.38533794883E+02  0.27200924401E+02  0.15841793160E+01  0.47193784130E+02  0.00000000000E+00 0. -1.
         11    1    3    3    0    0 -0.13359922184E+03 -0.70484423425E+02 -0.26509181977E+02  0.15336082534E+03  0.00000000000E+00 0.  1.
         21    1    1    2  502  501 -0.38840368627E+02 -0.80037771140E+01  0.69182131106E+02  0.79742096458E+02  0.00000000000E+00 0. -1.
<scales pt_clust_5="13000.00000" pt_clust_6="13000.00000" pt_clust_7="13000.00000" pt_clust_8="13000.00000" pt_clust_9="39.65646"></scales>
<clustering>
<clus scale="   39.656">  1  9  2 -1</clus>
<clus scale="   81.468">  5  6 -1 -1</clus>
<clus scale="   89.987">  7  8 -1 -1</clus>
<clus scale="  200.420">  1  5  2 -1</clus>
<clus scale="   39.656">  1  5  2 -1</clus>
</clustering>
</event>
<event>
 9    2  0.6488541E-005  0.2783380E+03  0.7546771E-02  0.1097418E+00
          2   -1    0    0  502    0  0.00000000000E+00  0.00000000000E+00  0.21917584175E+04  0.21917584175E+04  0.00000000000E+00 0. -1.
         -1   -1    0    0    0  501 -0.00000000000E+00 -0.00000000000E+00 -0.13554367802E+03  0.13554367802E+03  0.00000000000E+00 0.  1.
         23    2    1    2    0    0 -0.26337215656E+03 -0.15865867462E+02  0.33597698651E+02  0.28145898787E+03  0.92052908140E+02 0.  0.
         24    2    1    2    0    0  0.24912599834E+03 -0.11271580057E+02  0.19471706306E+04  0.19644087482E+04  0.72370254977E+02 0.  0.
        -11    1    4    4    0    0  0.50658058525E+02  0.15199726157E+02  0.25454172603E+03  0.25997838537E+03  0.00000000000E+00 0.  1.
         12    1    4    4    0    0  0.19846793982E+03 -0.26471306214E+02  0.16926289046E+04  0.17044303629E+04  0.00000000000E+00 0. -1.
        -11    1    3    3    0    0 -0.17796124576E+03  0.73757747088E+01 -0.17967437186E+02  0.17901797631E+03  0.00000000000E+00 0.  1.
         11    1    3    3    0    0 -0.85410910797E+02 -0.23241642171E+02  0.51565135837E+02  0.10244101155E+03  0.00000000000E+00 0. -1.
         21    1    1    2  502  501  0.14246158214E+02  0.27137447520E+02  0.75446410235E+02  0.81434359450E+02  0.00000000000E+00 0.  1.
<scales pt_clust_5="13000.00000" pt_clust_6="13000.00000" pt_clust_7="13000.00000" pt_clust_8="13000.00000" pt_clust_9="30.64954"></scales>
<clustering>
<clus scale="   30.650">  1  9  2 -1</clus>
<clus scale="   72.370">  5  6 -1 -1</clus>
<clus scale="   92.053">  7  8 -1 -1</clus>
<clus scale="  272.462">  1  5  2 -1</clus>
<clus scale="   30.650">  1  5  2 -1</clus>
</clustering>
</event>
<event>
 9    2  0.2984928E-005  0.1540801E+03  0.7546771E-02  0.1197479E+00
          2   -1    0    0  502    0  0.00000000000E+00  0.00000000000E+00  0.18445977985E+03  0.18445977985E+03  0.00000000000E+00 0. -1.
         -1   -1    0    0    0  501 -0.00000000000E+00 -0.00000000000E+00 -0.27874941188E+03  0.27874941188E+03  0.00000000000E+00 0.  1.
         24    2    1    2    0    0 -0.84879585650E+02 -0.85691381305E+02 -0.19206878948E+03  0.24034549265E+03  0.79548595578E+02 0.  0.
         23    2    1    2    0    0  0.98939069806E+02  0.10886089101E+03  0.88470598574E+02  0.19420807933E+03  0.90830050877E+02 0.  0.
        -11    1    3    3    0    0 -0.33932581258E+01 -0.52606387022E+02 -0.46610384270E+02  0.70366711434E+02  0.00000000000E+00 0.  1.
         12    1    3    3    0    0 -0.81486327525E+02 -0.33084994283E+02 -0.14545840521E+03  0.16997878122E+03  0.00000000000E+00 0. -1.
        -13    1    4    4    0    0  0.44142437501E+02  0.19290947830E+02  0.73878183607E+02  0.88196833672E+02  0.00000000000E+00 0. -1.
         13    1    4    4    0    0  0.54796632305E+02  0.89569943175E+02  0.14592414967E+02  0.10601124566E+03  0.00000000000E+00 0.  1.
         21    1    1    2  502  501 -0.14059484155E+02 -0.23169509700E+02  0.93085588726E+01  0.28655619741E+02  0.00000000000E+00 0.  1.
<scales pt_clust_5="13000.00000" pt_clust_6="13000.00000" pt_clust_7="13000.00000" pt_clust_8="13000.00000" pt_clust_9="27.10157"></scales>
<clustering>
<clus scale="   27.102">  1  9  2 -1</clus>
<clus scale="   79.549">  5  6 -1 -1</clus>
<clus scale="   90.830">  7  8 -1 -1</clus>
<clus scale="  147.711">  2  5  1 -1</clus>
<clus scale="   27.102">  1  5  2 -1</clus>
</clustering>
</event>
<event>
 9    2  0.2984928E-005  0.1679955E+03  0.7546771E-02  0.1181937E+00
         -1   -1    0    0    0  501 -0.00000000000E+00  0.00000000000E+00  0.14538283869E+03  0.14538283869E+03  0.00000000000E+00 0.  1.
          2   -1    0    0  502    0  0.00000000000E+00 -0.00000000000E+00 -0.25377685482E+03  0.25377685482E+03  0.00000000000E+00 0. -1.
         23    2    1    2    0    0 -0.49293784143E+02 -0.14508896822E+03 -0.30609243887E+01  0.17896589606E+03  0.92405285785E+02 0.  0.
         24    2    1    2    0    0  0.65840564816E+02  0.10766348184E+03 -0.63080620242E+02  0.16137429108E+03  0.78333210555E+02 0.  0.
        -13    1    4    4    0    0 -0.69038090514E+01  0.62519734885E+02 -0.25375127376E+02  0.67825341273E+02  0.00000000000E+00 0.  1.
         14    1    4    4    0    0  0.72744373867E+02  0.45143746952E+02 -0.37705492867E+02  0.93548949810E+02  0.00000000000E+00 0. -1.
        -13    1    3    3    0    0  0.74760242955E+01 -0.96743133819E+02 -0.26883037887E+02  0.10068675487E+03  0.00000000000E+00 0.  1.
         13    1    3    3    0    0 -0.56769808438E+02 -0.48345834397E+02  0.23822113498E+02  0.78279141188E+02  0.00000000000E+00 0. -1.
         21    1    1    2  502  501 -0.16546780673E+02  0.37425486379E+02 -0.42252471501E+02  0.58819506367E+02  0.00000000000E+00 0.  1.
<scales pt_clust_5="13000.00000" pt_clust_6="13000.00000" pt_clust_7="13000.00000" pt_clust_8="13000.00000" pt_clust_9="40.92020"></scales>
<clustering>
<clus scale="   40.920">  2  9  1 -1</clus>
<clus scale="   78.333">  5  6 -1 -1</clus>
<clus scale="   92.405">  7  8 -1 -1</clus>
<clus scale="  160.686">  2  5  1 -1</clus>
<clus scale="   40.920">  2  5  1 -1</clus>
</clustering>
</event>
<event>
 9    2  0.2984928E-005  0.1009694E+03  0.7546771E-02  0.1281107E+00
          2   -1    0    0  502    0  0.00000000000E+00  0.00000000000E+00  0.51861959962E+03  0.51861959962E+03  0.00000000000E+00 0. -1.
         -1   -1    0    0    0  501 -0.00000000000E+00 -0.00000000000E+00 -0.30034347302E+02  0.30034347302E+02  0.00000000000E+00 0.  1.
         23    2    1    2    0    0 -0.41927614537E+02 -0.34958231176E+02  0.10257789461E+03  0.14566523823E+03  0.87841529917E+02 0.  0.
         24    2    1    2    0    0  0.20679090011E+02  0.35269696055E+02  0.26951713802E+03  0.28457600630E+03  0.81685001392E+02 0.  0.
        -13    1    4    4    0    0  0.34583088954E+02 -0.14549343602E+02  0.84294841069E+02  0.92267511464E+02  0.00000000000E+00 0.  1.
         14    1    4    4    0    0 -0.13903998943E+02  0.49819039657E+02  0.18522229695E+03  0.19230849484E+03  0.00000000000E+00 0. -1.
        -13    1    3    3    0    0 -0.12963401543E+02 -0.42632785482E+02  0.65102876191E+01  0.45033188011E+02  0.00000000000E+00 0.  1.
         13    1    3    3    0    0 -0.28964212994E+02  0.76745543059E+01  0.96067606994E+02  0.10063205022E+03  0.00000000000E+00 0. -1.
         21    1    1    2  502  501  0.21248524525E+02 -0.31146487908E+00  0.11649021968E+03  0.11841270239E+03  0.00000000000E+00 0.  1.
<scales pt_clust_5="13000.00000" pt_clust_6="13000.00000" pt_clust_7="13000.00000" pt_clust_8="13000.00000" pt_clust_9="21.25081"></scales>
<clustering>
<clus scale="   21.251">  1  9  2 -1</clus>
<clus scale="   81.685">  5  6 -1 -1</clus>
<clus scale="   87.842">  7  8 -1 -1</clus>
<clus scale="   95.661">  1  5  2 -1</clus>
<clus scale="   21.251">  1  5  2 -1</clus>
</clustering>
</event>
<event>
 9    2  0.2984928E-005  0.2058623E+03  0.7546771E-02  0.1146182E+00
          2   -1    0    0  502    0  0.00000000000E+00  0.00000000000E+00  0.31551847090E+03  0.31551847090E+03  0.00000000000E+00 0. -1.
         -1   -1    0    0    0  501 -0.00000000000E+00 -0.00000000000E+00 -0.36714143909E+03  0.36714143909E+03  0.00000000000E+00 0.  1.
         23    2    1    2    0    0 -0.39168769747E+02 -0.18433735284E+03 -0.29309912870E+03  0.36074350913E+03  0.93350564892E+02 0.  0.
         24    2    1    2    0    0  0.36829825957E+02  0.14292951998E+03  0.21634427004E+03  0.27342216203E+03  0.78546494188E+02 0.  0.
        -13    1    4    4    0    0 -0.17782007289E+02  0.77019659330E+02  0.80204855378E+02  0.11261015288E+03  0.00000000000E+00 0.  1.
         14    1    4    4    0    0  0.54611833246E+02  0.65909860650E+02  0.13613941466E+03  0.16081200915E+03  0.00000000000E+00 0. -1.
        -11    1    3    3    0    0 -0.30642661136E+02 -0.15293750191E+03 -0.15891906807E+03  0.22267492532E+03  0.00000000000E+00 0.  1.
         11    1    3    3    0    0 -0.85261086108E+01 -0.31399850933E+02 -0.13418006063E+03  0.13806858381E+03  0.00000000000E+00 0. -1.
         21    1    1    2  502  501  0.23389437904E+01  0.41407832859E+02  0.25131890469E+02  0.48494238820E+02  0.00000000000E+00 0. -1.
<scales pt_clust_5="13000.00000" pt_clust_6="13000.00000" pt_clust_7="13000.00000" pt_clust_8="13000.00000" pt_clust_9="41.47384"></scales>
<clustering>
<clus scale="   41.474">  1  9  2 -1</clus>
<clus scale="   78.546">  5  6 -1 -1</clus>
<clus scale="   93.351">  7  8 -1 -1</clus>
<clus scale="  199.586">  1  5  2 -1</clus>
<clus scale="   41.474">  1  5  2 -1</clus>
</clustering>
</event>
<event>
 9    2  0.2984928E-005  0.1361752E+03  0.7546771E-02  0.1220921E+00
         -1   -1    0    0    0  501 -0.00000000000E+00  0.00000000000E+00  0.30566681038E+03  0.30566681038E+03  0.00000000000E+00 0.  1.
          2   -1    0    0  502    0  0.00000000000E+00 -0.00000000000E+00 -0.40817163328E+03  0.40817163328E+03  0.00000000000E+00 0. -1.
         23    2    1    2    0    0  0.84075022321E+02 -0.61868763414E+02  0.26695018189E+03  0.30082384905E+03  0.91302986148E+02 0.  0.
         24    2    1    2    0    0 -0.54666961283E+02 -0.36609048583E+01 -0.28907550643E+03  0.30521925504E+03  0.81192772748E+02 0.  0.
        -11    1    4    4    0    0  0.13024008857E+02 -0.19252870850E+02 -0.12341184208E+03  0.12558176862E+03  0.00000000000E+00 0.  1.
         12    1    4    4    0    0 -0.67690970140E+02  0.15591965991E+02 -0.16566366435E+03  0.17963748642E+03  0.00000000000E+00 0. -1.
        -11    1    3    3    0    0  0.65652032978E+02  0.81910862334E+01  0.13250289223E+03  0.14810232874E+03  0.00000000000E+00 0.  1.
         11    1    3    3    0    0  0.18422989342E+02 -0.70059849647E+02  0.13444728967E+03  0.15272152032E+03  0.00000000000E+00 0. -1.
         21    1    1    2  502  501 -0.29408061038E+02  0.65529668272E+02 -0.80379498354E+02  0.10779533957E+03  0.00000000000E+00 0. -1.
<scales pt_clust_5="13000.00000" pt_clust_6="13000.00000" pt_clust_7="13000.00000" pt_clust_8="13000.00000" pt_clust_9="71.82598"></scales>
<clustering>
<clus scale="   71.826">  2  9  1 -1</clus>
<clus scale="   81.193">  5  6 -1 -1</clus>
<clus scale="   91.303">  7  8 -1 -1</clus>
<clus scale="  129.614">  2  5  1 -1</clus>
<clus scale="   71.826">  2  5  1 -1</clus>
</clustering>
</event>
<event>
 9    2  0.2984928E-005  0.1828126E+03  0.7546771E-02  0.1166362E+00
         -1   -1    0    0    0  501 -0.00000000000E+00  0.00000000000E+00  0.13454828657E+03  0.13454828657E+03  0.00000000000E+00 0.  1.
          2   -1    0    0  502    0  0.00000000000E+00 -0.00000000000E+00 -0.44076754933E+03  0.44076754933E+03  0.00000000000E+00 0. -1.
         23    2    1    2    0    0  0.13196978617E+03  0.93319912907E+02  0.33038681781E+02  0.18903478661E+03  0.92292824456E+02 0.  0.
         24    2    1    2    0    0 -0.11821519358E+03 -0.77987251099E+02 -0.31101165163E+03  0.35132203904E+03  0.81498983631E+02 0.  0.
        -13    1    4    4    0    0  0.70589407589E+01 -0.25422691574E+02 -0.36560573421E+02  0.45086776557E+02  0.00000000000E+00 0.  1.
         14    1    4    4    0    0 -0.12527413434E+03 -0.52564559525E+02 -0.27445107821E+03  0.30623526248E+03  0.00000000000E+00 0. -1.
        -13    1    3    3    0    0  0.95041579545E+02  0.10609893919E+03  0.80885698258E+01  0.14267204247E+03  0.00000000000E+00 0.  1.
         13    1    3    3    0    0  0.36928206628E+02 -0.12779026284E+02  0.24950111956E+02  0.46362744139E+02  0.00000000000E+00 0. -1.
         21    1    1    2  502  501 -0.13754592588E+02 -0.15332661808E+02 -0.28246292902E+02  0.34959010256E+02  0.00000000000E+00 0.  1.
<scales pt_clust_5="13000.00000" pt_clust_6="13000.00000" pt_clust_7="13000.00000" pt_clust_8="13000.00000" pt_clust_9="20.59804"></scales>
<clustering>
<clus scale="   20.598">  2  9  1 -1</clus>
<clus scale="   81.499">  5  6 -1 -1</clus>
<clus scale="   92.293">  7  8 -1 -1</clus>
<clus scale="  177.608">  2  5  1 -1</clus>
<clus scale="   20.598">  2  5  1 -1</clus>
</clustering>
</event>
<event>
 9    2  0.2984928E-005  0.9283139E+02  0.7546771E-02  0.1302084E+00
          2   -1    0    0  502    0  0.00000000000E+00  0.00000000000E+00  0.48261884468E+03  0.48261884468E+03  0.00000000000E+00 0. -1.
         -1   -1    0    0    0  501 -0.00000000000E+00 -0.00000000000E+00 -0.32003038338E+02  0.32003038338E+02  0.00000000000E+00 0.  1.
         23    2    1    2    0    0 -0.53280187686E+01 -0.23592182874E+02  0.63281557967E+02  0.11288406621E+03  0.90295503479E+02 0.  0.
         24    2    1    2    0    0 -0.12364548046E+02  0.13083228052E+02  0.34472119887E+03  0.35441618285E+03  0.80337244257E+02 0.  0.
        -13    1    4    4    0    0 -0.51857274841E+01 -0.34037454469E+02  0.13153423755E+03  0.13596578880E+03  0.00000000000E+00 0.  1.
         14    1    4    4    0    0 -0.71788205620E+01  0.47120682522E+02  0.21318696131E+03  0.21845039405E+03  0.00000000000E+00 0. -1.
        -13    1    3    3    0    0 -0.47794067085E+02 -0.12888520432E+02  0.37092584613E+02  0.61856662056E+02  0.00000000000E+00 0. -1.
         13    1    3    3    0    0  0.42466048316E+02 -0.10703662442E+02  0.26188973354E+02  0.51027404153E+02  0.00000000000E+00 0.  1.
         21    1    1    2  502  501  0.17692566815E+02  0.10508954821E+02  0.42613049510E+02  0.47321633958E+02  0.00000000000E+00 0.  1.
<scales pt_clust_5="13000.00000" pt_clust_6="13000.00000" pt_clust_7="13000.00000" pt_clust_8="13000.00000" pt_clust_9="20.57827"></scales>
<clustering>
<clus scale="   20.578">  1  9  2 -1</clus>
<clus scale="   80.337">  5  6 -1 -1</clus>
<clus scale="   83.177">  1  5  2 -1</clus>
<clus scale="   90.296">  7  8 -1 -1</clus>
<clus scale="   20.578">  1  5  2 -1</clus>
</clustering>
</event>
<event>
 9    2  0.2984928E-005  0.3961809E+03  0.7546771E-02  0.1073613E+00
          2   -1    0    0  502    0  0.00000000000E+00  0.00000000000E+00  0.14263872301E+04  0.14263872301E+04  0.00000000000E+00 0. -1.
         -1   -1    0    0    0  501 -0.00000000000E+00 -0.00000000000E+00 -0.19454142822E+03  0.19454142822E+03  0.00000000000E+00 0.  1.
         23    2    1    2    0    0  0.22438336711E+03 -0.22682416928E+03  0.37562193074E+03  0.50179882654E+03  0.94409365289E+02 0.  0.
         24    2    1    2    0    0  0.20273301562E+02 -0.15746895980E+03  0.52901848969E+03  0.55823638715E+03  0.80992724678E+02 0.  0.
        -13    1    4    4    0    0  0.39062194235E+02 -0.57544267917E+02  0.29493698897E+03  0.30302644315E+03  0.00000000000E+00 0.  1.
         14    1    4    4    0    0 -0.18788892673E+02 -0.99924691887E+02  0.23408150072E+03  0.25520994400E+03  0.00000000000E+00 0. -1.
        -11    1    3    3    0    0 -0.51574771605E+01 -0.28243848711E+02  0.40702292317E+02  0.49809548889E+02  0.00000000000E+00 0.  1.
         11    1    3    3    0    0  0.22954084427E+03 -0.19858032057E+03  0.33491963842E+03  0.45198927765E+03  0.00000000000E+00 0. -1.
         21    1    1    2  502  501 -0.24465666867E+03  0.38429312908E+03  0.32720538145E+03  0.56089344464E+03  0.00000000000E+00 0.  1.
<scales pt_clust_5="13000.00000" pt_clust_6="13000.00000" pt_clust_7="13000.00000" pt_clust_8="13000.00000" pt_clust_9="384.76771"></scales>
<clustering>
<clus scale="   80.993">  5  6 -1 -1</clus>
<clus scale="   94.409">  7  8 -1 -1</clus>
<clus scale="  178.234">  1  5  2 -1</clus>
<clus scale="  384.768">  1  9  2 -1</clus>
<clus scale="  178.234">  1  5  2 -1</clus>
</clustering>
</event>
<event>
 9    2  0.2984928E-005  0.1303048E+03  0.7546771E-02  0.1230131E+00
         -1   -1    0    0    0  501 -0.00000000000E+00  0.00000000000E+00  0.16555684866E+03  0.16555684866E+03  0.00000000000E+00 0.  1.
          2   -1    0    0  502    0  0.00000000000E+00 -0.00000000000E+00 -0.31858836877E+03  0.31858836877E+03  0.00000000000E+00 0. -1.
         24    2    1    2    0    0  0.25785619107E+01 -0.79198163811E+02  0.11555466177E+03  0.17352622816E+03  0.10236930141E+03 0.  0.
         23    2    1    2    0    0 -0.23946076906E+02  0.90898978586E+02 -0.21901238924E+03  0.25538276311E+03  0.91749060737E+02 0.  0.
        -13    1    3    3    0    0  0.58139198576E+01 -0.69377297499E+02  0.13477853459E+03  0.15169793821E+03  0.00000000000E+00 0.  1.
         14    1    3    3    0    0 -0.32353579470E+01 -0.98208663122E+01 -0.19223872816E+02  0.21828289951E+02  0.00000000000E+00 0. -1.
        -11    1    4    4    0    0 -0.44772276218E+02  0.20239209091E+02 -0.13491873926E+03  0.14358707639E+03  0.00000000000E+00 0. -1.
         11    1    4    4    0    0  0.20826199312E+02  0.70659769495E+02 -0.84093649987E+02  0.11179568673E+03  0.00000000000E+00 0.  1.
         21    1    1    2  502  501  0.21367514995E+02 -0.11700814775E+02 -0.49573792636E+02  0.55236226155E+02  0.00000000000E+00 0. -1.
<scales pt_clust_5="13000.00000" pt_clust_6="13000.00000" pt_clust_7="13000.00000" pt_clust_8="13000.00000" pt_clust_9="24.36144"></scales>
<clustering>
<clus scale="   24.361">  2  9  1 -1</clus>
<clus scale="   91.749">  7  8 -1 -1</clus>
<clus scale="  102.369">  5  6 -1 -1</clus>
<clus scale="  122.138">  2  7  1 -1</clus>
<clus scale="   24.361">  2  5  1 -1</clus>
</clustering>
</event>
<event>
 9    2  0.2984928E-005  0.1051103E+03  0.7546771E-02  0.1270911E+00
         -1   -1    0    0    0  501 -0.00000000000E+00  0.00000000000E+00  0.10884763103E+03  0.10884763103E+03  0.00000000000E+00 0.  1.
          2   -1    0    0  502    0  0.00000000000E+00 -0.00000000000E+00 -0.56813627270E+03  0.56813627270E+03  0.00000000000E+00 0. -1.
         23    2    1    2    0    0 -0.48255939442E+02  0.69045122942E+01  0.69117805254E+02  0.12313628593E+03  0.89492826128E+02 0.  0.
         24    2    1    2    0    0  0.82737699398E+02  0.18545319816E+01 -0.33244849859E+03  0.35468630093E+03  0.91822664190E+02 0.  0.
        -13    1    4    4    0    0  0.75242113250E+02  0.83810823822E+01 -0.11922363625E+03  0.14122993163E+03  0.00000000000E+00 0.  1.
         14    1    4    4    0    0  0.74955861487E+01 -0.65265504006E+01 -0.21322486234E+03  0.21345636930E+03  0.00000000000E+00 0. -1.
        -11    1    3    3    0    0  0.25474649409E+02  0.22066678221E+01  0.30405782018E+02  0.39728311385E+02  0.00000000000E+00 0. -1.
         11    1    3    3    0    0 -0.73730588851E+02  0.46978444721E+01  0.38712023236E+02  0.83407974547E+02  0.00000000000E+00 0.  1.
         21    1    1    2  502  501 -0.34481759956E+02 -0.87590442758E+01 -0.19595794833E+03  0.19916131687E+03  0.00000000000E+00 0.  1.
<scales pt_clust_5="13000.00000" pt_clust_6="13000.00000" pt_clust_7="13000.00000" pt_clust_8="13000.00000" pt_clust_9="35.57686"></scales>
<clustering>
<clus scale="   35.577">  2  9  1 -1</clus>
<clus scale="   89.493">  7  8 -1 -1</clus>
<clus scale="   91.823">  5  6 -1 -1</clus>
<clus scale="  103.081">  1  7  2 -1</clus>
<clus scale="   35.577">  2  5  1 -1</clus>
</clustering>
</event>
<event>
 9    2  0.2984928E-005  0.1493656E+03  0.7546771E-02  0.1203778E+00
          2   -1    0    0  502    0  0.00000000000E+00  0.00000000000E+00  0.18924607571E+03  0.18924607571E+03  0.00000000000E+00 0. -1.
         -1   -1    0    0    0  501 -0.00000000000E+00 -0.00000000000E+00 -0.14276725639E+03  0.14276725639E+03  0.00000000000E+00 0.  1.
         24    2    1    2    0    0 -0.96495205029E+02  0.65101215656E+02 -0.98198358747E+01  0.14083699441E+03  0.78671068034E+02 0.  0.
         23    2    1    2    0    0  0.81738099577E+02 -0.89488427458E+02  0.36830985695E+02  0.15665824943E+03  0.92173694929E+02 0.  0.
        -13    1    3    3    0    0 -0.79923674259E+02  0.76103513731E+02 -0.28034359084E+02  0.11386599053E+03  0.00000000000E+00 0.  1.
         14    1    3    3    0    0 -0.16571530769E+02 -0.11002298075E+02  0.18214523209E+02  0.26971003888E+02  0.00000000000E+00 0. -1.
        -11    1    4    4    0    0 -0.18436596641E+02 -0.30846864982E+02  0.12583737824E+02  0.38076076906E+02  0.00000000000E+00 0.  1.
         11    1    4    4    0    0  0.10017469622E+03 -0.58641562475E+02  0.24247247871E+02  0.11858217253E+03  0.00000000000E+00 0. -1.
         21    1    1    2  502  501  0.14757105451E+02  0.24387211802E+02  0.19467669497E+02  0.34518088249E+02  0.00000000000E+00 0.  1.
<scales pt_clust_5="13000.00000" pt_clust_6="13000.00000" pt_clust_7="13000.00000" pt_clust_8="13000.00000" pt_clust_9="28.50453"></scales>
<clustering>
<clus scale="   28.505">  1  9  2 -1</clus>
<clus scale="   78.671">  5  6 -1 -1</clus>
<clus scale="   92.174">  7  8 -1 -1</clus>
<clus scale="  141.433">  2  5  1 -1</clus>
<clus scale="   28.505">  1  5  2 -1</clus>
</clustering>
</event>
<event>
 9    2  0.2984928E-005  0.1829527E+03  0.7546771E-02  0.1165057E+00
         -1   -1    0    0    0  501 -0.00000000000E+00  0.00000000000E+00  0.78655533094E+02  0.78655533094E+02  0.00000000000E+00 0.  1.
          2   -1    0    0  502    0  0.00000000000E+00 -0.00000000000E+00 -0.10136112926E+04  0.10136112926E+04  0.00000000000E+00 0. -1.
         23    2    1    2    0    0 -0.14635288245E+03  0.31189773472E+02 -0.67189384186E+02  0.19284619479E+03  0.10140647577E+03 0.  0.
         24    2    1    2    0    0  0.15529665359E+03 -0.68667717466E+02 -0.70261154933E+03  0.72983082025E+03  0.10078556890E+03 0.  0.
        -13    1    4    4    0    0  0.67769139245E+02  0.14138274850E+02 -0.36138087178E+03  0.36795200983E+03  0.00000000000E+00 0.  1.
         14    1    4    4    0    0  0.87527514345E+02 -0.82805992316E+02 -0.34123067755E+03  0.36187881042E+03  0.00000000000E+00 0. -1.
        -13    1    3    3    0    0 -0.10312876371E+03  0.54148466299E+02 -0.90243270797E+01  0.11682909220E+03  0.00000000000E+00 0.  1.
         13    1    3    3    0    0 -0.43224118747E+02 -0.22958692827E+02 -0.58165057107E+02  0.76017102589E+02  0.00000000000E+00 0. -1.
         21    1    1    2  502  501 -0.89437711377E+01  0.37477943994E+02 -0.16515482603E+03  0.16958981069E+03  0.00000000000E+00 0.  1.
<scales pt_clust_5="13000.00000" pt_clust_6="13000.00000" pt_clust_7="13000.00000" pt_clust_8="13000.00000" pt_clust_9="38.53034"></scales>
<clustering>
<clus scale="   38.530">  2  9  1 -1</clus>
<clus scale="  100.786">  5  6 -1 -1</clus>
<clus scale="  101.406">  7  8 -1 -1</clus>
<clus scale="  182.609">  2  5  1 -1</clus>
<clus scale="   38.530">  2  5  1 -1</clus>
</clustering>
</event>
<event>
 9    2  0.2984928E-005  0.1045946E+03  0.7546771E-02  0.1276052E+00
          2   -1    0    0  502    0  0.00000000000E+00  0.00000000000E+00  0.20149334118E+03  0.20149334118E+03  0.00000000000E+00 0. -1.
         -1   -1    0    0    0  501 -0.00000000000E+00 -0.00000000000E+00 -0.74190499434E+03  0.74190499434E+03  0.00000000000E+00 0.  1.
         24    2    1    2    0    0  0.69460580193E+01  0.52812581786E+02 -0.63699130939E+03  0.64431513259E+03  0.80911342373E+02 0.  0.
         23    2    1    2    0    0 -0.22397152564E+02 -0.20592394346E+02 -0.75700644726E+02  0.12313611175E+03  0.92229253800E+02 0.  0.
        -13    1    3    3    0    0 -0.68019255279E+01  0.71538051747E+02 -0.42227399417E+03  0.42834482044E+03  0.00000000000E+00 0.  1.
         14    1    3    3    0    0  0.13747983547E+02 -0.18725469961E+02 -0.21471731522E+03  0.21597031215E+03  0.00000000000E+00 0. -1.
        -11    1    4    4    0    0 -0.53765042329E+02 -0.33330756020E+02 -0.49839195875E+02  0.80533002669E+02  0.00000000000E+00 0.  1.
         11    1    4    4    0    0  0.31367889765E+02  0.12738361674E+02 -0.25861448851E+02  0.42603109078E+02  0.00000000000E+00 0. -1.
         21    1    1    2  502  501  0.15451094544E+02 -0.32220187441E+02  0.17228030095E+03  0.17594709119E+03  0.00000000000E+00 0. -1.
<scales pt_clust_5="13000.00000" pt_clust_6="13000.00000" pt_clust_7="13000.00000" pt_clust_8="13000.00000" pt_clust_9="35.73341"></scales>
<clustering>
<clus scale="   35.733">  1  9  2 -1</clus>
<clus scale="   80.911">  5  6 -1 -1</clus>
<clus scale="   92.229">  7  8 -1 -1</clus>
<clus scale="   94.765">  2  5  1 -1</clus>
<clus scale="   35.733">  1  5  2 -1</clus>
</clustering>
</event>
<event>
 9    2  0.2984928E-005  0.3264258E+03  0.7546771E-02  0.1073003E+00
         -1   -1    0    0    0  501 -0.00000000000E+00  0.00000000000E+00  0.42110907660E+03  0.42110907660E+03  0.00000000000E+00 0.  1.
          2   -1    0    0  502    0  0.00000000000E+00 -0.00000000000E+00 -0.40220808025E+03  0.40220808025E+03  0.00000000000E+00 0. -1.
         23    2    1    2    0    0 -0.91300933918E+02 -0.27292494427E+03  0.86005878865E+02  0.31373212794E+03  0.90592224629E+02 0.  0.
         24    2    1    2    0    0  0.13751195795E+02  0.36445490132E+03 -0.32893393793E+01  0.37370229099E+03  0.81400933989E+02 0.  0.
        -13    1    4    4    0    0  0.35682830482E+02  0.26037623120E+03 -0.28618994685E+02  0.26436356220E+03  0.00000000000E+00 0.  1.
         14    1    4    4    0    0 -0.21931634686E+02  0.10407867012E+03  0.25329655305E+02  0.10933872878E+03  0.00000000000E+00 0. -1.
        -13    1    3    3    0    0  0.12244616645E+02 -0.86890448555E+02  0.13302941037E+02  0.88751613659E+02  0.00000000000E+00 0.  1.
         13    1    3    3    0    0 -0.10354555056E+03 -0.18603449572E+03  0.72702937828E+02  0.22498051428E+03  0.00000000000E+00 0. -1.
         21    1    1    2  502  501  0.77549738123E+02 -0.91529957046E+02 -0.63815543138E+02  0.13588273792E+03  0.00000000000E+00 0. -1.
<scales pt_clust_5="13000.00000" pt_clust_6="13000.00000" pt_clust_7="13000.00000" pt_clust_8="13000.00000" pt_clust_9="119.96539"></scales>
<clustering>
<clus scale="   81.401">  5  6 -1 -1</clus>
<clus scale="   90.592">  7  8 -1 -1</clus>
<clus scale="  119.965">  2  9  1 -1</clus>
<clus scale="  323.995">  2  5  1 -1</clus>
<clus scale="  119.965">  2  5  1 -1</clus>
</clustering>
</event>
<event>
 9    2  0.2984928E-005  0.2042233E+03  0.7546771E-02  0.1146948E+00
         -1   -1    0    0    0  501 -0.00000000000E+00  0.00000000000E+00  0.10230125119E+04  0.10230125119E+04  0.00000000000E+00 0.  1.
          2   -1    0    0  502    0  0.00000000000E+00 -0.00000000000E+00 -0.13175170281E+03  0.13175170281E+03  0.00000000000E+00 0. -1.
         23    2    1    2    0    0 -0.14024815183E+03 -0.12843478509E+03  0.75445525577E+03  0.78324434775E+03  0.90021870796E+02 0.  0.
         24    2    1    2    0    0  0.12151784511E+03  0.11456959199E+03  0.21829484346E+03  0.28676390913E+03  0.81780944065E+02 0.  0.
        -11    1    4    4    0    0  0.76911443479E+02  0.31573857666E+02  0.14595587903E+03  0.16797439462E+03  0.00000000000E+00 0.  1.
         12    1    4    4    0    0  0.44606401631E+02  0.82995734328E+02  0.72338964427E+02  0.11878951451E+03  0.00000000000E+00 0. -1.
        -13    1    3    3    0    0 -0.47499998586E+02 -0.57250440220E+01  0.98621032123E+02  0.10961356655E+03  0.00000000000E+00 0.  1.
         13    1    3    3    0    0 -0.92748153241E+02 -0.12270974107E+03  0.65583422364E+03  0.67363078120E+03  0.00000000000E+00 0. -1.
         21    1    1    2  502  501  0.18730306718E+02  0.13865193101E+02 -0.81489290167E+02  0.84755957793E+02  0.00000000000E+00 0. -1.
<scales pt_clust_5="13000.00000" pt_clust_6="13000.00000" pt_clust_7="13000.00000" pt_clust_8="13000.00000" pt_clust_9="23.30382"></scales>
<clustering>
<clus scale="   23.304">  2  9  1 -1</clus>
<clus scale="   81.781">  5  6 -1 -1</clus>
<clus scale="   90.022">  7  8 -1 -1</clus>
<clus scale="  200.727">  2  5  1 -1</clus>
<clus scale="   23.304">  2  5  1 -1</clus>
</clustering>
</event>
<event>
 9    2  0.2984928E-005  0.1052113E+03  0.7546771E-02  0.1275486E+00
         -1   -1    0    0    0  501 -0.00000000000E+00  0.00000000000E+00  0.28388016011E+03  0.28388016011E+03  0.00000000000E+00 0.  1.
          2   -1    0    0  502    0  0.00000000000E+00 -0.00000000000E+00 -0.11170292699E+03  0.11170292699E+03  0.00000000000E+00 0. -1.
         23    2    1    2    0    0 -0.46497398466E+02  0.33776449489E+02  0.19587638954E+03  0.22445482261E+03  0.93324974203E+02 0.  0.
         24    2    1    2    0    0  0.40347954940E+02  0.12984735010E+02  0.33449549686E+02  0.97031040233E+02  0.80620032147E+02 0.  0.
        -11    1    4    4    0    0  0.46249936058E+02  0.27650452717E+02 -0.63010219611E+01  0.54252253396E+02  0.00000000000E+00 0.  1.
         12    1    4    4    0    0 -0.59019811182E+01 -0.14665717706E+02  0.39750571647E+02  0.42778786837E+02  0.00000000000E+00 0. -1.
        -13    1    3    3    0    0 -0.24740370320E+02 -0.31628877940E+02  0.82847475868E+02  0.92066150679E+02  0.00000000000E+00 0.  1.
         13    1    3    3    0    0 -0.21757028146E+02  0.65405327429E+02  0.11302891368E+03  0.13238867193E+03  0.00000000000E+00 0. -1.
         21    1    1    2  502  501  0.61494435265E+01 -0.46761184500E+02 -0.57148706114E+02  0.74097224253E+02  0.00000000000E+00 0. -1.
<scales pt_clust_5="13000.00000" pt_clust_6="13000.00000" pt_clust_7="13000.00000" pt_clust_8="13000.00000" pt_clust_9="47.16380"></scales>
<clustering>
<clus scale="   47.164">  2  9  1 -1</clus>
<clus scale="   80.620">  5  6 -1 -1</clus>
<clus scale="   93.325">  7  8 -1 -1</clus>
<clus scale="   94.125">  2  5  1 -1</clus>
<clus scale="   47.164">  2  5  1 -1</clus>
</clustering>
</event>
<event>
 9    2  0.2984928E-005  0.9355297E+02  0.7546771E-02  0.1299143E+00
         -1   -1    0    0    0  501 -0.00000000000E+00  0.00000000000E+00  0.30505300921E+03  0.30505300921E+03  0.00000000000E+00 0.  1.
          2   -1    0    0  502    0  0.00000000000E+00 -0.00000000000E+00 -0.64166298233E+02  0.64166298233E+02  0.00000000000E+00 0. -1.
         23    2    1    2    0    0  0.12892626370E+02  0.28226917909E+02  0.22759883113E+03  0.24626717346E+03  0.88788028932E+02 0.  0.
         24    2    1    2    0    0 -0.29249262076E+02 -0.11437395650E+02  0.32768382549E+02  0.92473984849E+02  0.80568837820E+02 0.  0.
        -13    1    4    4    0    0 -0.55606374084E+02 -0.68421417989E+01  0.91143577774E+01  0.56762269695E+02  0.00000000000E+00 0.  1.
         14    1    4    4    0    0  0.26357112008E+02 -0.45952538506E+01  0.23654024771E+02  0.35711715154E+02  0.00000000000E+00 0. -1.
        -13    1    3    3    0    0  0.36073515532E+02  0.50273585209E+02  0.14252443372E+03  0.15537678752E+03  0.00000000000E+00 0.  1.
         13    1    3    3    0    0 -0.23180889162E+02 -0.22046667300E+02  0.85074397405E+02  0.90890385934E+02  0.00000000000E+00 0. -1.
         21    1    1    2  502  501  0.16356635706E+02 -0.16789522260E+02 -0.19480502701E+02  0.30478149137E+02  0.00000000000E+00 0. -1.
<scales pt_clust_5="13000.00000" pt_clust_6="13000.00000" pt_clust_7="13000.00000" pt_clust_8="13000.00000" pt_clust_9="23.43987"></scales>
<clustering>
<clus scale="   23.440">  2  9  1 -1</clus>
<clus scale="   80.569">  5  6 -1 -1</clus>
<clus scale="   85.791">  2  5  1 -1</clus>
<clus scale="   88.788">  7  8 -1 -1</clus>
<clus scale="   23.440">  2  5  1 -1</clus>
</clustering>
</event>
<event>
 9    2  0.2984928E-005  0.9369785E+02  0.7546771E-02  0.1301287E+00
         -1   -1    0    0    0  501 -0.00000000000E+00  0.00000000000E+00  0.14958269472E+03  0.14958269472E+03  0.00000000000E+00 0.  1.
          2   -1    0    0  502    0  0.00000000000E+00 -0.00000000000E+00 -0.40429445736E+03  0.40429445736E+03  0.00000000000E+00 0. -1.
         24    2    1    2    0    0 -0.18775498222E+02 -0.80673298358E+01  0.12111433667E+03  0.14670230196E+03  0.80220207609E+02 0.  0.
         23    2    1    2    0    0 -0.17845718196E+02 -0.21603352961E+02 -0.16385472557E+03  0.19002668366E+03  0.92068425060E+02 0.  0.
        -11    1    3    3    0    0 -0.47738256465E+02 -0.17935619007E+02  0.87265506786E+02  0.10107371683E+03  0.00000000000E+00 0.  1.
         12    1    3    3    0    0  0.28962758243E+02  0.98682891716E+01  0.33848829888E+02  0.45628585130E+02  0.00000000000E+00 0. -1.
        -11    1    4    4    0    0 -0.52831396943E+02 -0.18220412866E+01 -0.11638659327E+03  0.12782924325E+03  0.00000000000E+00 0.  1.
         11    1    4    4    0    0  0.34985678747E+02 -0.19781311674E+02 -0.47468132298E+02  0.62197440403E+02  0.00000000000E+00 0. -1.
         21    1    1    2  502  501  0.36621216418E+02  0.29670682797E+02 -0.21197137375E+03  0.21714816646E+03  0.00000000000E+00 0. -1.
<scales pt_clust_5="13000.00000" pt_clust_6="13000.00000" pt_clust_7="13000.00000" pt_clust_8="13000.00000" pt_clust_9="47.13240"></scales>
<clustering>
<clus scale="   47.132">  2  9  1 -1</clus>
<clus scale="   80.220">  5  6 -1 -1</clus>
<clus scale="   82.085">  1  5  2 -1</clus>
<clus scale="   92.068">  7  8 -1 -1</clus>
<clus scale="   47.132">  2  5  1 -1</clus>
</clustering>
</event>
<event>
 9    2  0.2984928E-005  0.2278936E+03  0.7546771E-02  0.1162182E+00
          2   -1    0    0  502    0  0.00000000000E+00  0.00000000000E+00  0.80586000277E+03  0.80586000277E+03  0.00000000000E+00 0. -1.
         -1   -1    0    0    0  501 -0.00000000000E+00 -0.00000000000E+00 -0.25858058622E+03  0.25858058622E+03  0.00000000000E+00 0.  1.
         23    2    1    2    0    0 -0.71656760112E+02  0.15133140544E+03  0.33324067702E+03  0.38389634517E+03  0.91055859077E+02 0.  0.
         24    2    1    2    0    0 -0.57592031570E+02  0.20801218206E+02  0.38978779479E+03  0.40265466018E+03  0.80291454196E+02 0.  0.
        -13    1    4    4    0    0  0.10817518834E+02  0.29955311915E+02  0.13190310588E+03  0.13569365780E+03  0.00000000000E+00 0.  1.
         14    1    4    4    0    0 -0.68409550404E+02 -0.91540937091E+01  0.25788468891E+03  0.26696100238E+03  0.00000000000E+00 0. -1.
        -11    1    3    3    0    0 -0.13489327933E+02  0.12504467949E+03  0.23900997249E+03  0.27008128552E+03  0.00000000000E+00 0.  1.
         11    1    3    3    0    0 -0.58167432179E+02  0.26286725946E+02  0.94230704526E+02  0.11381505965E+03  0.00000000000E+00 0. -1.
         21    1    1    2  502  501  0.12924879168E+03 -0.17213262365E+03 -0.17574905525E+03  0.27788958364E+03  0.00000000000E+00 0.  1.
<scales pt_clust_5="13000.00000" pt_clust_6="13000.00000" pt_clust_7="13000.00000" pt_clust_8="13000.00000" pt_clust_9="208.91229"></scales>
<clustering>
<clus scale="   80.291">  5  6 -1 -1</clus>
<clus scale="   91.056">  7  8 -1 -1</clus>
<clus scale="  100.976">  1  5  2 -1</clus>
<clus scale="  208.912">  2  9  1 -1</clus>
<clus scale="  100.976">  1  5  2 -1</clus>
</clustering>
</event>
<event>
 9    2  0.2984928E-005  0.1137817E+03  0.7546771E-02  0.1258659E+00
          2   -1    0    0  502    0  0.00000000000E+00  0.00000000000E+00  0.33356983484E+03  0.33356983484E+03  0.00000000000E+00 0. -1.
         -1   -1    0    0    0  501 -0.00000000000E+00 -0.00000000000E+00 -0.13428657146E+03  0.13428657146E+03  0.00000000000E+00 0.  1.
         23    2    1    2    0    0  0.34099689244E+02 -0.57160806575E+02 -0.89006102655E+02  0.14472388022E+03  0.92697187560E+02 0.  0.
         24    2    1    2    0    0 -0.78459451735E+01  0.64765480005E+02  0.27327968880E+03  0.29194950912E+03  0.79351126697E+02 0.  0.
        -11    1    4    4    0    0 -0.29437058757E+02 -0.47935592023E+01  0.74622852635E+02  0.80362234747E+02  0.00000000000E+00 0.  1.
         12    1    4    4    0    0  0.21591113583E+02  0.69559039207E+02  0.19865683616E+03  0.21158727437E+03  0.00000000000E+00 0. -1.
        -11    1    3    3    0    0  0.16150252581E+02 -0.79436888748E+02 -0.81929041241E+02  0.11525371036E+03  0.00000000000E+00 0.  1.
         11    1    3    3    0    0  0.17949436664E+02  0.22276082174E+02 -0.70770614141E+01  0.29470169864E+02  0.00000000000E+00 0. -1.
         21    1    1    2  502  501 -0.26253744071E+02 -0.76046734301E+01  0.15009677236E+02  0.31183016956E+02  0.00000000000E+00 0.  1.
<scales pt_clust_5="13000.00000" pt_clust_6="13000.00000" pt_clust_7="13000.00000" pt_clust_8="13000.00000" pt_clust_9="27.33295"></scales>
<clustering>
<clus scale="   27.333">  1  9  2 -1</clus>
<clus scale="   79.351">  5  6 -1 -1</clus>
<clus scale="   92.697">  7  8 -1 -1</clus>
<clus scale="  103.199">  1  5  2 -1</clus>
<clus scale="   27.333">  1  5  2 -1</clus>
</clustering>
</event>
<event>
 9    2  0.2984928E-005  0.9329002E+02  0.7546771E-02  0.1301889E+00
          2   -1    0    0  502    0  0.00000000000E+00  0.00000000000E+00  0.61169496067E+02  0.61169496067E+02  0.00000000000E+00 0. -1.
         -1   -1    0    0    0  501 -0.00000000000E+00 -0.00000000000E+00 -0.25018450278E+03  0.25018450278E+03  0.00000000000E+00 0.  1.
         23    2    1    2    0    0 -0.97605768940E+01  0.20387086834E+02 -0.17891627829E+03  0.20181368998E+03  0.90591548492E+02 0.  0.
         24    2    1    2    0    0  0.29216680377E+02 -0.63193199789E+01 -0.37925874465E+01  0.84716742622E+02  0.79176982411E+02 0.  0.
        -13    1    4    4    0    0  0.41988764210E+02  0.23264170387E+02 -0.15484148873E+02  0.50438445753E+02  0.00000000000E+00 0.  1.
         14    1    4    4    0    0 -0.12772083832E+02 -0.29583490366E+02  0.11691561427E+02  0.34278296869E+02  0.00000000000E+00 0. -1.
        -13    1    3    3    0    0 -0.48636828804E+02 -0.98840508843E-01 -0.10698509919E+03  0.11752175260E+03  0.00000000000E+00 0. -1.
         13    1    3    3    0    0  0.38876251910E+02  0.20485927343E+02 -0.71931179093E+02  0.84291937381E+02  0.00000000000E+00 0.  1.
         21    1    1    2  502  501 -0.19456103483E+02 -0.14067766855E+02 -0.63061409851E+01  0.24823566246E+02  0.00000000000E+00 0. -1.
<scales pt_clust_5="13000.00000" pt_clust_6="13000.00000" pt_clust_7="13000.00000" pt_clust_8="13000.00000" pt_clust_9="24.00921"></scales>
<clustering>
<clus scale="   24.009">  1  9  2 -1</clus>
<clus scale="   79.177">  5  6 -1 -1</clus>
<clus scale="   82.251">  1  5  2 -1</clus>
<clus scale="   90.592">  7  8 -1 -1</clus>
<clus scale="   24.009">  1  5  2 -1</clus>
</clustering>
</event>
<event>
 9    2  0.2984928E-005  0.1673905E+03  0.7546771E-02  0.1180977E+00
         -1   -1    0    0    0  501 -0.00000000000E+00  0.00000000000E+00  0.32429231420E+02  0.32429231420E+02  0.00000000000E+00 0.  1.
          2   -1    0    0  502    0  0.00000000000E+00 -0.00000000000E+00 -0.10245092256E+04  0.10245092256E+04  0.00000000000E+00 0. -1.
         24    2    1    2    0    0  0.15325150545E+03 -0.29318710463E+02 -0.46339596468E+03  0.49666180847E+03  0.87129336042E+02 0.  0.
         23    2    1    2    0    0 -0.13179839577E+03  0.19747997124E+02 -0.49245720325E+03  0.51710006452E+03  0.84365746472E+02 0.  0.
        -11    1    3    3    0    0  0.65169400709E+02  0.98758465026E+01 -0.93429098481E+02  0.11433975501E+03  0.00000000000E+00 0.  1.
         12    1    3    3    0    0  0.88082104736E+02 -0.39194556966E+02 -0.36996686620E+03  0.38232205346E+03  0.00000000000E+00 0. -1.
        -13    1    4    4    0    0 -0.85105589257E+02  0.37462594320E+02 -0.20191735084E+03  0.22229940140E+03  0.00000000000E+00 0.  1.
         13    1    4    4    0    0 -0.46692806512E+02 -0.17714597195E+02 -0.29053985242E+03  0.29480066312E+03  0.00000000000E+00 0. -1.
         21    1    1    2  502  501 -0.21453109676E+02  0.95707133389E+01 -0.36226826226E+02  0.43176584013E+02  0.00000000000E+00 0.  1.
<scales pt_clust_5="13000.00000" pt_clust_6="13000.00000" pt_clust_7="13000.00000" pt_clust_8="13000.00000" pt_clust_9="23.49116"></scales>
<clustering>
<clus scale="   23.491">  1  9  2 -1</clus>
<clus scale="   84.366">  7  8 -1 -1</clus>
<clus scale="   87.129">  5  6 -1 -1</clus>
<clus scale="  165.969">  2  7  1 -1</clus>
<clus scale="  165.969">  2  5  1 -1</clus>
</clustering>
</event>
<event>
 9    2  0.2984928E-005  0.2064910E+03  0.7546771E-02  0.1179755E+00
          2   -1    0    0  502    0  0.00000000000E+00  0.00000000000E+00  0.15490225811E+03  0.15490225811E+03  0.00000000000E+00 0. -1.
         -1   -1    0    0    0  501 -0.00000000000E+00 -0.00000000000E+00 -0.81125859382E+03  0.81125859382E+03  0.00000000000E+00 0.  1.
         24    2    1    2    0    0  0.18317216224E+03  0.42127098020E+02 -0.63173830989E+03  0.66447527440E+03  0.84305187864E+02 0.  0.
         23    2    1    2    0    0  0.28106998004E+01  0.25548227928E+00  0.41364610843E+02  0.99845005728E+02  0.90829669349E+02 0.  0.
        -11    1    3    3    0    0  0.12567487985E+03  0.12517329802E+02 -0.28461338397E+03  0.31137700189E+03  0.00000000000E+00 0.  1.
         12    1    3    3    0    0  0.57497282391E+02  0.29609768218E+02 -0.34712492592E+03  0.35309827251E+03  0.00000000000E+00 0. -1.
        -11    1    4    4    0    0 -0.30587288006E+02 -0.28649391053E+02  0.41973473415E+01  0.42118731225E+02  0.00000000000E+00 0. -1.
         11    1    4    4    0    0  0.33397987806E+02  0.28904873332E+02  0.37167263501E+02  0.57726274503E+02  0.00000000000E+00 0.  1.
         21    1    1    2  502  501 -0.18598286204E+03 -0.42382580299E+02 -0.65982636659E+02  0.20184057181E+03  0.00000000000E+00 0. -1.
<scales pt_clust_5="13000.00000" pt_clust_6="13000.00000" pt_clust_7="13000.00000" pt_clust_8="13000.00000" pt_clust_9="188.49709"></scales>
<clustering>
<clus scale="   84.305">  5  6 -1 -1</clus>
<clus scale="   90.830">  7  8 -1 -1</clus>
<clus scale="   90.874">  1  7  2 -1</clus>
<clus scale="  188.497">  1  9  2 -1</clus>
<clus scale="   90.874">  1  5  2 -1</clus>
</clustering>
</event>
<event>
 9    2  0.2984928E-005  0.3083422E+03  0.7546771E-02  0.1081522E+00
         -1   -1    0    0    0  501 -0.00000000000E+00  0.00000000000E+00  0.67896971846E+03  0.67896971846E+03  0.00000000000E+00 0.  1.
          2   -1    0    0  502    0  0.00000000000E+00 -0.00000000000E+00 -0.10553108960E+04  0.10553108960E+04  0.00000000000E+00 0. -1.
         23    2    1    2    0    0  0.30679624709E+03  0.23766865031E+02  0.59534277932E+03  0.67643946997E+03  0.91915888456E+02 0.  0.
         24    2    1    2    0    0 -0.15207799898E+03 -0.12775495959E+03 -0.36676105099E+03  0.42484589795E+03  0.80816588688E+02 0.  0.
        -13    1    4    4    0    0 -0.33385266882E+02  0.77501928165E+01 -0.56546890789E+02  0.66122555844E+02  0.00000000000E+00 0.  1.
         14    1    4    4    0    0 -0.11869273210E+03 -0.13550515241E+03 -0.31021416020E+03  0.35872334211E+03  0.00000000000E+00 0. -1.
        -11    1    3    3    0    0  0.21026786978E+03 -0.22728168318E+02  0.43358703724E+03  0.48241772932E+03  0.00000000000E+00 0.  1.
         11    1    3    3    0    0  0.96528377315E+02  0.46495033348E+02  0.16175574208E+03  0.19402174066E+03  0.00000000000E+00 0. -1.
         21    1    1    2  502  501 -0.15471824811E+03  0.10398809456E+03 -0.60492290589E+03  0.63299524657E+03  0.00000000000E+00 0. -1.
<scales pt_clust_5="13000.00000" pt_clust_6="13000.00000" pt_clust_7="13000.00000" pt_clust_8="13000.00000" pt_clust_9="186.41690"></scales>
<clustering>
<clus scale="   80.817">  5  6 -1 -1</clus>
<clus scale="   91.916">  7  8 -1 -1</clus>
<clus scale="  186.417">  2  9  1 -1</clus>
<clus scale="  305.217">  2  5  1 -1</clus>
<clus scale="  186.417">  2  5  1 -1</clus>
</clustering>
</event>
<event>
 9    2  0.2984928E-005  0.3186685E+03  0.7546771E-02  0.1076264E+00
         -3   -1    0    0    0  501 -0.00000000000E+00  0.00000000000E+00  0.91439558195E+02  0.91439558195E+02  0.00000000000E+00 0.  1.
          4   -1    0    0  502    0  0.00000000000E+00 -0.00000000000E+00 -0.91794909326E+03  0.91794909326E+03  0.00000000000E+00 0. -1.
         24    2    1    2    0    0  0.12550399159E+03 -0.64432645270E+02 -0.23482139185E+03  0.28607612858E+03  0.82435717947E+02 0.  0.
         23    2    1    2    0    0  0.11137873561E+03  0.24200063543E+02 -0.36418098381E+03  0.39241738139E+03  0.91502712682E+02 0.  0.
        -11    1    3    3    0    0  0.86146367360E+02 -0.18638487587E+02 -0.19430010078E+03  0.21335678801E+03  0.00000000000E+00 0.  1.
         12    1    3    3    0    0  0.39357624229E+02 -0.45794157683E+02 -0.40521291072E+02  0.72719340570E+02  0.00000000000E+00 0. -1.
        -11    1    4    4    0    0  0.84953999615E+02  0.30415890659E+02 -0.35067262819E+03  0.36209612069E+03  0.00000000000E+00 0. -1.
         11    1    4    4    0    0  0.26424735991E+02 -0.62158271152E+01 -0.13508355614E+02  0.30321260698E+02  0.00000000000E+00 0.  1.
         21    1    1    2  502  501 -0.23688272720E+03  0.40232581726E+02 -0.22750715941E+03  0.33089514148E+03  0.00000000000E+00 0.  1.
<scales pt_clust_5="13000.00000" pt_clust_6="13000.00000" pt_clust_7="13000.00000" pt_clust_8="13000.00000" pt_clust_9="240.27502"></scales>
<clustering>
<clus scale="   82.436">  5  6 -1 -1</clus>
<clus scale="   91.503">  7  8 -1 -1</clus>
<clus scale="  138.728">  5  7 -1 -1</clus>
<clus scale="  240.275">  1  9  2 -1</clus>
<clus scale="  318.668">  2  5  1 -1</clus>
</clustering>
</event>
<event>
 9    2  0.2984928E-005  0.9170134E+02  0.7546771E-02  0.1300524E+00
         -1   -1    0    0    0  501 -0.00000000000E+00  0.00000000000E+00  0.27478594588E+03  0.27478594588E+03  0.00000000000E+00 0.  1.
          2   -1    0    0  502    0  0.00000000000E+00 -0.00000000000E+00 -0.11728620976E+03  0.11728620976E+03  0.00000000000E+00 0. -1.
         24    2    1    2    0    0 -0.39819194466E+02 -0.27215263648E+01  0.22759455158E+03  0.24575458214E+03  0.83684286348E+02 0.  0.
         23    2    1    2    0    0  0.10934327986E+02  0.21772324755E+02 -0.73305420073E+02  0.11156737332E+03  0.80498450449E+02 0.  0.
        -11    1    3    3    0    0 -0.31863710669E+02 -0.27190124529E+02  0.21104611290E+03  0.21516287017E+03  0.00000000000E+00 0.  1.
         12    1    3    3    0    0 -0.79554837970E+01  0.24468598164E+02  0.16548438675E+02  0.30591711968E+02  0.00000000000E+00 0. -1.
        -11    1    4    4    0    0 -0.17953682628E+01 -0.26533557012E+02 -0.51879598717E+01  0.27095533258E+02  0.00000000000E+00 0.  1.
         11    1    4    4    0    0  0.12729696248E+02  0.48305881767E+02 -0.68117460201E+02  0.84471840066E+02  0.00000000000E+00 0. -1.
         21    1    1    2  502  501  0.28884866480E+02 -0.19050798390E+02  0.32106046187E+01  0.34750200185E+02  0.00000000000E+00 0. -1.
<scales pt_clust_5="13000.00000" pt_clust_6="13000.00000" pt_clust_7="13000.00000" pt_clust_8="13000.00000" pt_clust_9="34.60157"></scales>
<clustering>
<clus scale="   34.602">  2  9  1 -1</clus>
<clus scale="   80.498">  7  8 -1 -1</clus>
<clus scale="   83.684">  5  6 -1 -1</clus>
<clus scale="   88.804">  2  7  1 -1</clus>
<clus scale="   34.602">  2  5  1 -1</clus>
</clustering>
</event>
<event>
 9    2  0.2984928E-005  0.1245834E+03  0.7546771E-02  0.1238739E+00
         -1   -1    0    0    0  501 -0.00000000000E+00  0.00000000000E+00  0.27195294940E+03  0.27195294940E+03  0.00000000000E+00 0.  1.
          2   -1    0    0  502    0  0.00000000000E+00 -0.00000000000E+00 -0.30127072609E+03  0.30127072609E+03  0.00000000000E+00 0. -1.
         24    2    1    2    0    0 -0.90238661099E+01  0.12433955900E+03  0.20534017322E+03  0.25298490870E+03  0.79341169652E+02 0.  0.
         23    2    1    2    0    0  0.20234355148E+02 -0.81372295311E+02 -0.24545482240E+03  0.27453938750E+03  0.89960690707E+02 0.  0.
        -11    1    3    3    0    0 -0.20527810022E+02  0.12696059285E+03  0.20393694276E+03  0.24110300651E+03  0.00000000000E+00 0.  1.
         12    1    3    3    0    0  0.11503943912E+02 -0.26210338578E+01  0.14032304521E+01  0.11881902193E+02  0.00000000000E+00 0. -1.
        -11    1    4    4    0    0 -0.31319057179E+02 -0.27783340006E+02 -0.48816499373E+02  0.64310558507E+02  0.00000000000E+00 0.  1.
         11    1    4    4    0    0  0.51553412327E+02 -0.53588955305E+02 -0.19663832303E+03  0.21022882899E+03  0.00000000000E+00 0. -1.
         21    1    1    2  502  501 -0.11210489038E+02 -0.42967263685E+02  0.10796872498E+02  0.45699379304E+02  0.00000000000E+00 0. -1.
<scales pt_clust_5="13000.00000" pt_clust_6="13000.00000" pt_clust_7="13000.00000" pt_clust_8="13000.00000" pt_clust_9="44.40564"></scales>
<clustering>
<clus scale="   44.406">  1  9  2 -1</clus>
<clus scale="   79.341">  5  6 -1 -1</clus>
<clus scale="   89.961">  7  8 -1 -1</clus>
<clus scale="  117.146">  1  5  2 -1</clus>
<clus scale="  124.583">  2  5  1 -1</clus>
</clustering>
</event>
<event>
 9    2  0.2984928E-005  0.1897181E+03  0.7546771E-02  0.1160518E+00
         -1   -1    0    0    0  501 -0.00000000000E+00  0.00000000000E+00  0.21251727458E+03  0.21251727458E+03  0.00000000000E+00 0.  1.
          2   -1    0    0  502    0  0.00000000000E+00 -0.00000000000E+00 -0.30096490850E+03  0.30096490850E+03  0.00000000000E+00 0. -1.
         23    2    1    2    0    0  0.10800480231E+03  0.12593318461E+03  0.10415680837E+03  0.21777709949E+03  0.95152614403E+02 0.  0.
         24    2    1    2    0    0 -0.70922405345E+02 -0.14529409167E+03 -0.17321130799E+03  0.24959605470E+03  0.78458094871E+02 0.  0.
        -13    1    4    4    0    0 -0.36230918143E+02 -0.54553425844E+02 -0.20533337006E+02  0.68632161772E+02  0.00000000000E+00 0.  1.
         14    1    4    4    0    0 -0.34691487202E+02 -0.90740665827E+02 -0.15267797099E+03  0.18096389293E+03  0.00000000000E+00 0. -1.
        -11    1    3    3    0    0  0.46174067055E+02  0.26914022240E+01  0.22213010326E+01  0.46305747943E+02  0.00000000000E+00 0.  1.
         11    1    3    3    0    0  0.61830735251E+02  0.12324178238E+03  0.10193550733E+03  0.17147135155E+03  0.00000000000E+00 0. -1.
         21    1    1    2  502  501 -0.37082396961E+02  0.19360907066E+02 -0.19393134295E+02  0.46109028883E+02  0.00000000000E+00 0. -1.
<scales pt_clust_5="13000.00000" pt_clust_6="13000.00000" pt_clust_7="13000.00000" pt_clust_8="13000.00000" pt_clust_9="41.83239"></scales>
<clustering>
<clus scale="   41.832">  2  9  1 -1</clus>
<clus scale="   78.458">  5  6 -1 -1</clus>
<clus scale="   95.153">  7  8 -1 -1</clus>
<clus scale="  181.919">  2  5  1 -1</clus>
<clus scale="   41.832">  2  5  1 -1</clus>
</clustering>
</event>
<event>
 9    2  0.2984928E-005  0.9531101E+02  0.7546771E-02  0.1292110E+00
         -1   -1    0    0    0  501 -0.00000000000E+00  0.00000000000E+00  0.11259815860E+03  0.11259815860E+03  0.00000000000E+00 0.  1.
          2   -1    0    0  502    0  0.00000000000E+00 -0.00000000000E+00 -0.28891309780E+03  0.28891309780E+03  0.00000000000E+00 0. -1.
         23    2    1    2    0    0 -0.24099135550E+02 -0.13987728729E+02  0.56296111254E+02  0.11191639373E+03  0.92626141845E+02 0.  0.
         24    2    1    2    0    0 -0.40551654623E+02  0.32057073522E+02 -0.16133923330E+03  0.19168726435E+03  0.89674781590E+02 0.  0.
        -11    1    4    4    0    0 -0.48161536644E+02 -0.13540402483E+02 -0.48209325296E+02  0.69476723849E+02  0.00000000000E+00 0.  1.
         12    1    4    4    0    0  0.76098820203E+01  0.45597476004E+02 -0.11312990801E+03  0.12221054050E+03  0.00000000000E+00 0. -1.
        -13    1    3    3    0    0 -0.43850382089E+02  0.18806902470E+02  0.56082180447E+02  0.73632645977E+02  0.00000000000E+00 0.  1.
         13    1    3    3    0    0  0.19751246539E+02 -0.32794631199E+02  0.21393080782E+00  0.38283747749E+02  0.00000000000E+00 0. -1.
         21    1    1    2  502  501  0.64650790173E+02 -0.18069344793E+02 -0.71271817148E+02  0.97907598330E+02  0.00000000000E+00 0. -1.
<scales pt_clust_5="13000.00000" pt_clust_6="13000.00000" pt_clust_7="13000.00000" pt_clust_8="13000.00000" pt_clust_9="67.12843"></scales>
<clustering>
<clus scale="   67.128">  2  9  1 -1</clus>
<clus scale="   89.675">  5  6 -1 -1</clus>
<clus scale="   92.445">  2  5  1 -1</clus>
<clus scale="   92.626">  7  8 -1 -1</clus>
<clus scale="   67.128">  2  5  1 -1</clus>
</clustering>
</event>
<event>
 9    2  0.2984928E-005  0.1297508E+03  0.7546771E-02  0.1230363E+00
          2   -1    0    0  502    0  0.00000000000E+00  0.00000000000E+00  0.50820064227E+03  0.50820064227E+03  0.00000000000E+00 0. -1.
         -1   -1    0    0    0  501 -0.00000000000E+00 -0.00000000000E+00 -0.54275908014E+02  0.54275908014E+02  0.00000000000E+00 0.  1.
         23    2    1    2    0    0  0.18799241135E+02  0.73267724820E+02  0.53108453698E+02  0.12959202154E+03  0.90840592390E+02 0.  0.
         24    2    1    2    0    0 -0.39691478825E+01 -0.97679684077E+02  0.36839526680E+03  0.38967576165E+03  0.81086693100E+02 0.  0.
        -11    1    4    4    0    0  0.29526950221E+02 -0.67311703801E+02  0.29006783224E+03  0.29923578255E+03  0.00000000000E+00 0.  1.
         12    1    4    4    0    0 -0.33496098104E+02 -0.30367980275E+02  0.78327434561E+02  0.90439979097E+02  0.00000000000E+00 0. -1.
        -13    1    3    3    0    0  0.34528723828E+02  0.55588092738E+02 -0.62046759964E+01  0.65732540097E+02  0.00000000000E+00 0.  1.
         13    1    3    3    0    0 -0.15729482693E+02  0.17679632082E+02  0.59313129695E+02  0.63859481446E+02  0.00000000000E+00 0. -1.
         21    1    1    2  502  501 -0.14830093252E+02  0.24411959257E+02  0.32421013750E+02  0.43208767087E+02  0.00000000000E+00 0. -1.
<scales pt_clust_5="13000.00000" pt_clust_6="13000.00000" pt_clust_7="13000.00000" pt_clust_8="13000.00000" pt_clust_9="28.56353"></scales>
<clustering>
<clus scale="   28.564">  2  9  1 -1</clus>
<clus scale="   81.087">  5  6 -1 -1</clus>
<clus scale="   90.841">  7  8 -1 -1</clus>
<clus scale="  123.119">  1  5  2 -1</clus>
<clus scale="  123.119">  1  5  2 -1</clus>
</clustering>
</event>
<event>
 9    2  0.2984928E-005  0.1068549E+03  0.7546771E-02  0.1267118E+00
          2   -1    0    0  502    0  0.00000000000E+00  0.00000000000E+00  0.14821736234E+03  0.14821736234E+03  0.00000000000E+00 0. -1.
         -1   -1    0    0    0  501 -0.00000000000E+00 -0.00000000000E+00 -0.25856659165E+03  0.25856659165E+03  0.00000000000E+00 0.  1.
         24    2    1    2    0    0  0.55626596994E+02 -0.41703976516E+00 -0.19140966137E+03  0.21986781393E+03  0.92788495642E+02 0.  0.
         23    2    1    2    0    0 -0.42629932176E+02  0.19179269773E+02 -0.10624332089E+00  0.10260146895E+03  0.91333973073E+02 0.  0.
        -13    1    3    3    0    0  0.64995553449E+02  0.33204667450E+02 -0.13692344934E+03  0.15516121580E+03  0.00000000000E+00 0.  1.
         14    1    3    3    0    0 -0.93689564548E+01 -0.33621707215E+02 -0.54486212024E+02  0.64706598133E+02  0.00000000000E+00 0. -1.
        -13    1    4    4    0    0 -0.62235296632E+01  0.31613931038E+02  0.37060979381E+02  0.49108951830E+02  0.00000000000E+00 0. -1.
         13    1    4    4    0    0 -0.36406402513E+02 -0.12434661265E+02 -0.37167222702E+02  0.53492517123E+02  0.00000000000E+00 0.  1.
         21    1    1    2  502  501 -0.12996664818E+02 -0.18762230008E+02  0.81166675383E+02  0.84314671108E+02  0.00000000000E+00 0. -1.
<scales pt_clust_5="13000.00000" pt_clust_6="13000.00000" pt_clust_7="13000.00000" pt_clust_8="13000.00000" pt_clust_9="22.82399"></scales>
<clustering>
<clus scale="   22.824">  1  9  2 -1</clus>
<clus scale="   91.334">  7  8 -1 -1</clus>
<clus scale="   92.788">  5  6 -1 -1</clus>
<clus scale="  105.594">  1  7  2 -1</clus>
<clus scale="   22.824">  1  5  2 -1</clus>
</clustering>
</event>
<event>
 9    2  0.2984928E-005  0.1292269E+03  0.7546771E-02  0.1228677E+00
         -1   -1    0    0    0  501 -0.00000000000E+00  0.00000000000E+00  0.86504069585E+02  0.86504069585E+02  0.00000000000E+00 0.  1.
          2   -1    0    0  502    0  0.00000000000E+00 -0.00000000000E+00 -0.36829662703E+03  0.36829662703E+03  0.00000000000E+00 0. -1.
         24    2    1    2    0    0 -0.59983456557E+02  0.72929683205E+02 -0.13065758664E+02  0.13268023700E+03  0.92285304836E+02 0.  0.
         23    2    1    2    0    0  0.38666244233E+02 -0.74114225971E+02 -0.12317247786E+03  0.17500864152E+03  0.92024824756E+02 0.  0.
        -13    1    3    3    0    0 -0.82406955049E+02  0.41074144077E+02 -0.16689789019E+01  0.92091134441E+02  0.00000000000E+00 0.  1.
         14    1    3    3    0    0  0.22423498492E+02  0.31855539129E+02 -0.11396779762E+02  0.40589102562E+02  0.00000000000E+00 0. -1.
        -11    1    4    4    0    0 -0.18672754078E+02 -0.45995013718E+02 -0.90625466292E+02  0.10333048036E+03  0.00000000000E+00 0. -1.
         11    1    4    4    0    0  0.57338998312E+02 -0.28119212254E+02 -0.32547011569E+02  0.71678161160E+02  0.00000000000E+00 0.  1.
         21    1    1    2  502  501  0.21317212324E+02  0.11845427658E+01 -0.14555432092E+03  0.14711181809E+03  0.00000000000E+00 0.  1.
<scales pt_clust_5="13000.00000" pt_clust_6="13000.00000" pt_clust_7="13000.00000" pt_clust_8="13000.00000" pt_clust_9="21.35010"></scales>
<clustering>
<clus scale="   21.350">  2  9  1 -1</clus>
<clus scale="   92.025">  7  8 -1 -1</clus>
<clus scale="   92.285">  5  6 -1 -1</clus>
<clus scale="  129.041">  2  7  1 -1</clus>
<clus scale="   21.350">  2  5  1 -1</clus>
</clustering>
</event>
<event>
 9    2  0.2984928E-005  0.9817270E+02  0.7546771E-02  0.1290118E+00
          2   -1    0    0  502    0  0.00000000000E+00  0.00000000000E+00  0.23052763693E+03  0.23052763693E+03  0.00000000000E+00 0. -1.
         -1   -1    0    0    0  501 -0.00000000000E+00 -0.00000000000E+00 -0.59843722336E+02  0.59843722336E+02  0.00000000000E+00 0.  1.
         23    2    1    2    0    0  0.40038627905E+02  0.21998552110E+02  0.26573087248E+02  0.10559615654E+03  0.91418768805E+02 0.  0.
         24    2    1    2    0    0 -0.18175361598E+02 -0.11804152086E+02  0.76239522517E+02  0.11274436055E+03  0.80181944771E+02 0.  0.
        -13    1    4    4    0    0  0.26906383006E+02  0.14793317762E+02  0.29084106230E+02  0.42292800003E+02  0.00000000000E+00 0.  1.
         14    1    4    4    0    0 -0.45081744604E+02 -0.26597469848E+02  0.47155416287E+02  0.70451560550E+02  0.00000000000E+00 0. -1.
        -11    1    3    3    0    0  0.53297223714E+02 -0.20480465747E+02  0.20588856978E+02  0.60695506954E+02  0.00000000000E+00 0.  1.
         11    1    3    3    0    0 -0.13258595809E+02  0.42479017857E+02  0.59842302697E+01  0.44900649581E+02  0.00000000000E+00 0. -1.
         21    1    1    2  502  501 -0.21863266307E+02 -0.10194400024E+02  0.67871304830E+02  0.72030842177E+02  0.00000000000E+00 0. -1.
<scales pt_clust_5="13000.00000" pt_clust_6="13000.00000" pt_clust_7="13000.00000" pt_clust_8="13000.00000" pt_clust_9="24.12319"></scales>
<clustering>
<clus scale="   24.123">  1  9  2 -1</clus>
<clus scale="   80.182">  5  6 -1 -1</clus>
<clus scale="   87.805">  1  5  2 -1</clus>
<clus scale="   91.419">  7  8 -1 -1</clus>
<clus scale="   24.123">  1  5  2 -1</clus>
</clustering>
</event>
<event>
 9    2  0.2984928E-005  0.1410614E+03  0.7546771E-02  0.1230643E+00
         -1   -1    0    0    0  501 -0.00000000000E+00  0.00000000000E+00  0.22300850359E+02  0.22300850359E+02  0.00000000000E+00 0.  1.
          2   -1    0    0  502    0  0.00000000000E+00 -0.00000000000E+00 -0.14480897441E+04  0.14480897441E+04  0.00000000000E+00 0. -1.
         24    2    1    2    0    0  0.49374146410E+02 -0.15592101246E+02 -0.34620629522E+03  0.35907324262E+03  0.79961708107E+02 0.  0.
         23    2    1    2    0    0  0.24312650089E+02 -0.78631377723E+02 -0.32990817487E+03  0.35216022090E+03  0.91670163217E+02 0.  0.
        -13    1    3    3    0    0  0.22228279748E+02 -0.15957334932E+02 -0.26089570917E+02  0.37807389084E+02  0.00000000000E+00 0.  1.
         14    1    3    3    0    0  0.27145866662E+02  0.36523368627E+00 -0.32011672430E+03  0.32126585354E+03  0.00000000000E+00 0. -1.
        -11    1    4    4    0    0 -0.13141656347E+02  0.15086441829E+02 -0.33263190326E+02  0.38816796484E+02  0.00000000000E+00 0. -1.
         11    1    4    4    0    0  0.37454306436E+02 -0.93717819552E+02 -0.29664498454E+03  0.31334342442E+03  0.00000000000E+00 0.  1.
         21    1    1    2  502  501 -0.73686796499E+02  0.94223478969E+02 -0.74967442366E+03  0.75915713094E+03  0.00000000000E+00 0. -1.
<scales pt_clust_5="13000.00000" pt_clust_6="13000.00000" pt_clust_7="13000.00000" pt_clust_8="13000.00000" pt_clust_9="107.21429"></scales>
<clustering>
<clus scale="   79.962">  5  6 -1 -1</clus>
<clus scale="   91.670">  7  8 -1 -1</clus>
<clus scale="   95.262">  1  5  2 -1</clus>
<clus scale="  107.214">  2  9  1 -1</clus>
<clus scale="  107.214">  2  5  1 -1</clus>
</clustering>
</event>
<event>
 9    2  0.2984928E-005  0.1071623E+03  0.7546771E-02  0.1271294E+00
          4   -1    0    0  502    0  0.00000000000E+00  0.00000000000E+00  0.27135286995E+03  0.27135286995E+03  0.00000000000E+00 0. -1.
         -3   -1    0    0    0  501 -0.00000000000E+00 -0.00000000000E+00 -0.11756437876E+03  0.11756437876E+03  0.00000000000E+00 0.  1.
         24    2    1    2    0    0 -0.63063921971E+02  0.17795183816E+02 -0.68932384751E+02  0.12173354279E+03  0.75984570482E+02 0.  0.
         23    2    1    2    0    0  0.16413102505E+02 -0.34624997320E+02  0.13194582628E+03  0.16374458749E+03  0.89074735405E+02 0.  0.
        -13    1    3    3    0    0 -0.64738429201E+02  0.41177448059E+02 -0.55736546009E+02  0.94832531365E+02  0.00000000000E+00 0.  1.
         14    1    3    3    0    0  0.16745072300E+01 -0.23382264243E+02 -0.13195838742E+02  0.26901011425E+02  0.00000000000E+00 0. -1.
        -11    1    4    4    0    0 -0.25671290696E+02 -0.18316948326E+02  0.90286692927E+01  0.32803088744E+02  0.00000000000E+00 0.  1.
         11    1    4    4    0    0  0.42084393201E+02 -0.16308048994E+02  0.12291715698E+03  0.13094149875E+03  0.00000000000E+00 0. -1.
         21    1    1    2  502  501  0.46650819466E+02  0.16829813504E+02  0.90775049662E+02  0.10343911843E+03  0.00000000000E+00 0. -1.
<scales pt_clust_5="13000.00000" pt_clust_6="13000.00000" pt_clust_7="13000.00000" pt_clust_8="13000.00000" pt_clust_9="49.59377"></scales>
<clustering>
<clus scale="   49.594">  1  9  2 -1</clus>
<clus scale="   75.985">  5  6 -1 -1</clus>
<clus scale="   89.075">  7  8 -1 -1</clus>
<clus scale="   96.556">  2  5  1 -1</clus>
<clus scale="   49.594">  1  5  2 -1</clus>
</clustering>
</event>
<event>
 9    2  0.2984928E-005  0.9880059E+02  0.7546771E-02  0.1289407E+00
         -1   -1    0    0    0  501 -0.00000000000E+00  0.00000000000E+00  0.18849088360E+03  0.18849088360E+03  0.00000000000E+00 0.  1.
          2   -1    0    0  502    0  0.00000000000E+00 -0.00000000000E+00 -0.19564664751E+03  0.19564664751E+03  0.00000000000E+00 0. -1.
         24    2    1    2    0    0  0.30087902702E+02 -0.20415913402E+02  0.15613017455E+03  0.17919118173E+03  0.80067201730E+02 0.  0.
         23    2    1    2    0    0 -0.57505233214E+01  0.13833305327E+02 -0.14890195496E+03  0.17591984863E+03  0.92474710579E+02 0.  0.
        -11    1    3    3    0    0  0.56866149268E+02 -0.10796242522E+02  0.87676753622E+02  0.10505965406E+03  0.00000000000E+00 0.  1.
         12    1    3    3    0    0 -0.26778246566E+02 -0.96196708792E+01  0.68453420933E+02  0.74131527668E+02  0.00000000000E+00 0. -1.
        -13    1    4    4    0    0 -0.39768374961E+02 -0.16409862463E+02 -0.10130510026E+03  0.11006148541E+03  0.00000000000E+00 0. -1.
         13    1    4    4    0    0  0.34017851639E+02  0.30243167790E+02 -0.47596854700E+02  0.65858363215E+02  0.00000000000E+00 0.  1.
         21    1    1    2  502  501 -0.24337379380E+02  0.65826080749E+01 -0.14383983506E+02  0.29026500748E+02  0.00000000000E+00 0. -1.
<scales pt_clust_5="13000.00000" pt_clust_6="13000.00000" pt_clust_7="13000.00000" pt_clust_8="13000.00000" pt_clust_9="25.21188"></scales>
<clustering>
<clus scale="   25.212">  2  9  1 -1</clus>
<clus scale="   80.067">  5  6 -1 -1</clus>
<clus scale="   87.297">  1  5  2 -1</clus>
<clus scale="   92.475">  7  8 -1 -1</clus>
<clus scale="   25.212">  2  5  1 -1</clus>
</clustering>
</event>
<event>
 9    2  0.2984928E-005  0.1135838E+03  0.7546771E-02  0.1261691E+00
         -1   -1    0    0    0  501 -0.00000000000E+00  0.00000000000E+00  0.81831099856E+02  0.81831099856E+02  0.00000000000E+00 0.  1.
          2   -1    0    0  502    0  0.00000000000E+00 -0.00000000000E+00 -0.33725145000E+03  0.33725145000E+03  0.00000000000E+00 0. -1.
         23    2    1    2    0    0 -0.37727282707E+02  0.16523613083E+01  0.25993174699E+02  0.10148910316E+03  0.90544545777E+02 0.  0.
         24    2    1    2    0    0  0.30001614917E+02  0.24382680528E+02 -0.25636078165E+03  0.28064552000E+03  0.10745438808E+03 0.  0.
        -11    1    4    4    0    0  0.67442331642E+02  0.30549766073E+02 -0.14182454752E+03  0.15998737008E+03  0.00000000000E+00 0.  1.
         12    1    4    4    0    0 -0.37440716725E+02 -0.61670855449E+01 -0.11453623413E+03  0.12065814992E+03  0.00000000000E+00 0. -1.
        -11    1    3    3    0    0 -0.55290031894E+02 -0.25490919584E+02  0.31728358226E+02  0.68654667167E+02  0.00000000000E+00 0. -1.
         11    1    3    3    0    0  0.17562749187E+02  0.27143280892E+02 -0.57351835266E+01  0.32834435988E+02  0.00000000000E+00 0.  1.
         21    1    1    2  502  501  0.77256677897E+01 -0.26035041837E+02 -0.25052743185E+02  0.36947926698E+02  0.00000000000E+00 0. -1.
<scales pt_clust_5="13000.00000" pt_clust_6="13000.00000" pt_clust_7="13000.00000" pt_clust_8="13000.00000" pt_clust_9="27.15712"></scales>
<clustering>
<clus scale="   27.157">  2  9  1 -1</clus>
<clus scale="   90.545">  7  8 -1 -1</clus>
<clus scale="   97.740">  1  7  2 -1</clus>
<clus scale="  107.454">  5  6 -1 -1</clus>
<clus scale="   27.157">  2  5  1 -1</clus>
</clustering>
</event>
<event>
 9    2  0.2984928E-005  0.9759231E+02  0.7546771E-02  0.1291675E+00
          2   -1    0    0  502    0  0.00000000000E+00  0.00000000000E+00  0.34771769772E+03  0.34771769772E+03  0.00000000000E+00 0. -1.
         -1   -1    0    0    0  501 -0.00000000000E+00 -0.00000000000E+00 -0.11482650883E+03  0.11482650883E+03  0.00000000000E+00 0.  1.
         23    2    1    2    0    0  0.38453923374E+01  0.32513625076E+02 -0.83195761830E+02  0.12828791339E+03  0.92001799313E+02 0.  0.
         24    2    1    2    0    0 -0.23373452098E+02 -0.27431781957E+02  0.24624338662E+03  0.26155626776E+03  0.80480151759E+02 0.  0.
        -13    1    4    4    0    0  0.24845826677E+02 -0.15848978271E+02  0.41542861547E+02  0.50934414309E+02  0.00000000000E+00 0.  1.
         14    1    4    4    0    0 -0.48219278775E+02 -0.11582803686E+02  0.20470052507E+03  0.21062185345E+03  0.00000000000E+00 0. -1.
        -11    1    3    3    0    0 -0.25163777187E+02  0.20272107051E+01  0.91124852825E+01  0.26839572530E+02  0.00000000000E+00 0. -1.
         11    1    3    3    0    0  0.29009169524E+02  0.30486414370E+02 -0.92308247113E+02  0.10144834086E+03  0.00000000000E+00 0.  1.
         21    1    1    2  502  501  0.19528059761E+02 -0.50818431191E+01  0.69843564094E+02  0.72700025398E+02  0.00000000000E+00 0.  1.
<scales pt_clust_5="13000.00000" pt_clust_6="13000.00000" pt_clust_7="13000.00000" pt_clust_8="13000.00000" pt_clust_9="20.17846"></scales>
<clustering>
<clus scale="   20.178">  1  9  2 -1</clus>
<clus scale="   80.480">  5  6 -1 -1</clus>
<clus scale="   86.816">  1  5  2 -1</clus>
<clus scale="   92.002">  7  8 -1 -1</clus>
<clus scale="   20.178">  1  5  2 -1</clus>
</clustering>
</event>
<event>
 9    2  0.2984928E-005  0.3371225E+03  0.7546771E-02  0.1068318E+00
         -1   -1    0    0    0  501 -0.00000000000E+00  0.00000000000E+00  0.37751220898E+03  0.37751220898E+03  0.00000000000E+00 0.  1.
          2   -1    0    0  502    0  0.00000000000E+00 -0.00000000000E+00 -0.56514922662E+03  0.56514922662E+03  0.00000000000E+00 0. -1.
         23    2    1    2    0    0 -0.33405201757E+01  0.33359805776E+03  0.20759276132E+03  0.40354272692E+03  0.91941039183E+02 0.  0.
         24    2    1    2    0    0 -0.37809043611E+02 -0.28972120304E+03 -0.30113220694E+03  0.42743693738E+03  0.81571012678E+02 0.  0.
        -13    1    4    4    0    0 -0.25798599649E+02 -0.24011538544E+02 -0.20446128242E+02  0.40745133295E+02  0.00000000000E+00 0.  1.
         14    1    4    4    0    0 -0.12010443962E+02 -0.26570966449E+03 -0.28068607870E+03  0.38669180408E+03  0.00000000000E+00 0. -1.
        -13    1    3    3    0    0  0.31345014851E+02  0.13504125407E+03  0.12158880690E+03  0.18439763616E+03  0.00000000000E+00 0. -1.
         13    1    3    3    0    0 -0.34685535027E+02  0.19855680369E+03  0.86003954415E+02  0.21914509076E+03  0.00000000000E+00 0.  1.
         21    1    1    2  502  501  0.41149563787E+02 -0.43876854718E+02 -0.94097572024E+02  0.11168177130E+03  0.00000000000E+00 0.  1.
<scales pt_clust_5="13000.00000" pt_clust_6="13000.00000" pt_clust_7="13000.00000" pt_clust_8="13000.00000" pt_clust_9="60.15368"></scales>
<clustering>
<clus scale="   60.154">  2  9  1 -1</clus>
<clus scale="   81.571">  5  6 -1 -1</clus>
<clus scale="   91.941">  7  8 -1 -1</clus>
<clus scale="  334.443">  2  5  1 -1</clus>
<clus scale="   60.154">  2  5  1 -1</clus>
</clustering>
</event>
<event>
 9    2  0.2984928E-005  0.1425631E+03  0.7546771E-02  0.1211785E+00
          2   -1    0    0  502    0  0.00000000000E+00  0.00000000000E+00  0.15812596186E+03  0.15812596186E+03  0.00000000000E+00 0. -1.
         -1   -1    0    0    0  501 -0.00000000000E+00 -0.00000000000E+00 -0.24636672842E+03  0.24636672842E+03  0.00000000000E+00 0.  1.
         24    2    1    2    0    0  0.66261077789E+02  0.10745271661E+03 -0.15253294364E+03  0.21362456879E+03  0.80203121876E+02 0.  0.
         23    2    1    2    0    0 -0.14213051008E+02 -0.69411602814E+02  0.51555792864E+02  0.12515405211E+03  0.89361935732E+02 0.  0.
        -13    1    3    3    0    0  0.83284454305E+02  0.10122223097E+03 -0.13854528679E+03  0.19072765102E+03  0.00000000000E+00 0.  1.
         14    1    3    3    0    0 -0.17023376515E+02  0.62304856423E+01 -0.13987656847E+02  0.22896917771E+02  0.00000000000E+00 0. -1.
        -11    1    4    4    0    0  0.32665266007E+02 -0.56693685187E+02  0.31187637247E+02  0.72483530961E+02  0.00000000000E+00 0. -1.
         11    1    4    4    0    0 -0.46878317016E+02 -0.12717917626E+02  0.20368155617E+02  0.52670521150E+02  0.00000000000E+00 0.  1.
         21    1    1    2  502  501 -0.52048026781E+02 -0.38041113797E+02  0.12736384220E+02  0.65714069374E+02  0.00000000000E+00 0. -1.
<scales pt_clust_5="13000.00000" pt_clust_6="13000.00000" pt_clust_7="13000.00000" pt_clust_8="13000.00000" pt_clust_9="64.46800"></scales>
<clustering>
<clus scale="   64.468">  1  9  2 -1</clus>
<clus scale="   80.203">  5  6 -1 -1</clus>
<clus scale="   89.362">  7  8 -1 -1</clus>
<clus scale="  137.008">  2  5  1 -1</clus>
<clus scale="   64.468">  1  5  2 -1</clus>
</clustering>
</event>
<event>
 9    2  0.2984928E-005  0.1437535E+03  0.7546771E-02  0.1210016E+00
          2   -1    0    0  502    0  0.00000000000E+00  0.00000000000E+00  0.49857074635E+03  0.49857074635E+03  0.00000000000E+00 0. -1.
         -1   -1    0    0    0  501 -0.00000000000E+00 -0.00000000000E+00 -0.85265510596E+02  0.85265510596E+02  0.00000000000E+00 0.  1.
         23    2    1    2    0    0 -0.90339257348E+02 -0.61744831657E+02  0.68538378098E+01  0.14207687878E+03  0.90361821230E+02 0.  0.
         24    2    1    2    0    0  0.11257818082E+03  0.53803977532E+02  0.35351151234E+03  0.38379164257E+03  0.82200491240E+02 0.  0.
        -13    1    4    4    0    0 -0.93530326754E+01  0.18374791298E+02  0.31474583451E+02  0.37626607326E+02  0.00000000000E+00 0.  1.
         14    1    4    4    0    0  0.12193121350E+03  0.35429186234E+02  0.32203692888E+03  0.34616503525E+03  0.00000000000E+00 0. -1.
        -13    1    3    3    0    0 -0.66095157510E+02 -0.52153266711E+01 -0.27323723186E+02  0.71710217733E+02  0.00000000000E+00 0.  1.
         13    1    3    3    0    0 -0.24244099837E+02 -0.56529504986E+02  0.34177560996E+02  0.70366661044E+02  0.00000000000E+00 0. -1.
         21    1    1    2  502  501 -0.22238923476E+02  0.79408541250E+01  0.52939885607E+02  0.57967735592E+02  0.00000000000E+00 0. -1.
<scales pt_clust_5="13000.00000" pt_clust_6="13000.00000" pt_clust_7="13000.00000" pt_clust_8="13000.00000" pt_clust_9="23.61412"></scales>
<clustering>
<clus scale="   23.614">  1  9  2 -1</clus>
<clus scale="   82.200">  5  6 -1 -1</clus>
<clus scale="   90.362">  7  8 -1 -1</clus>
<clus scale="  138.769">  1  5  2 -1</clus>
<clus scale="   23.614">  1  5  2 -1</clus>
</clustering>
</event>
<event>
 9    2  0.2984928E-005  0.1721399E+03  0.7546771E-02  0.1176895E+00
         -1   -1    0    0    0  501 -0.00000000000E+00  0.00000000000E+00  0.27517685152E+02  0.27517685152E+02  0.00000000000E+00 0.  1.
          2   -1    0    0  502    0  0.00000000000E+00 -0.00000000000E+00 -0.21644345097E+04  0.21644345097E+04  0.00000000000E+00 0. -1.
         23    2    1    2    0    0 -0.63003557451E+02  0.13607630261E+03 -0.30602272103E+03  0.35257839617E+03  0.90417980940E+02 0.  0.
         24    2    1    2    0    0  0.57648620337E+02 -0.11503932685E+03 -0.16899347883E+04  0.16967527685E+04  0.80826719537E+02 0.  0.
        -13    1    4    4    0    0  0.14694250834E+02 -0.35697146142E+02 -0.17845523730E+03  0.18258280031E+03  0.00000000000E+00 0.  1.
         14    1    4    4    0    0  0.42954369502E+02 -0.79342180703E+02 -0.15114795510E+04  0.15141699682E+04  0.00000000000E+00 0. -1.
        -11    1    3    3    0    0 -0.45275970483E+02  0.92923056638E+01 -0.97384948984E+02  0.10779651542E+03  0.00000000000E+00 0. -1.
         11    1    3    3    0    0 -0.17727586968E+02  0.12678399694E+03 -0.20863777205E+03  0.24478188075E+03  0.00000000000E+00 0.  1.
         21    1    1    2  502  501  0.53549371145E+01 -0.21036975760E+02 -0.14095931525E+03  0.14262103020E+03  0.00000000000E+00 0.  1.
<scales pt_clust_5="13000.00000" pt_clust_6="13000.00000" pt_clust_7="13000.00000" pt_clust_8="13000.00000" pt_clust_9="21.70783"></scales>
<clustering>
<clus scale="   21.708">  2  9  1 -1</clus>
<clus scale="   80.827">  5  6 -1 -1</clus>
<clus scale="   90.418">  7  8 -1 -1</clus>
<clus scale="  167.301">  2  5  1 -1</clus>
<clus scale="   21.708">  2  5  1 -1</clus>
</clustering>
</event>
<event>
 9    2  0.2984928E-005  0.9118710E+02  0.7546771E-02  0.1304032E+00
          2   -1    0    0  502    0  0.00000000000E+00  0.00000000000E+00  0.10611218148E+04  0.10611218148E+04  0.00000000000E+00 0. -1.
         -1   -1    0    0    0  501 -0.00000000000E+00 -0.00000000000E+00 -0.29228288087E+02  0.29228288087E+02  0.00000000000E+00 0.  1.
         23    2    1    2    0    0  0.23486020019E+01 -0.14888828449E+02  0.79574814759E+02  0.12113425044E+03  0.90078645321E+02 0.  0.
         24    2    1    2    0    0 -0.62011096827E+02 -0.23844252114E+02  0.64561039627E+03  0.65436691132E+03  0.83482611150E+02 0.  0.
        -11    1    4    4    0    0 -0.34889542739E+02  0.29536002356E+02  0.23385780401E+03  0.23828371351E+03  0.00000000000E+00 0.  1.
         12    1    4    4    0    0 -0.27121554089E+02 -0.53380254470E+02  0.41175259226E+03  0.41608319781E+03  0.00000000000E+00 0. -1.
        -11    1    3    3    0    0  0.42086839505E+02 -0.25974539911E+02  0.50345146850E+02  0.70573455310E+02  0.00000000000E+00 0.  1.
         11    1    3    3    0    0 -0.39738237503E+02  0.11085711462E+02  0.29229667909E+02  0.50560795134E+02  0.00000000000E+00 0. -1.
         21    1    1    2  502  501  0.59662494825E+02  0.38733080563E+02  0.30670831566E+03  0.31484894110E+03  0.00000000000E+00 0.  1.
<scales pt_clust_5="13000.00000" pt_clust_6="13000.00000" pt_clust_7="13000.00000" pt_clust_8="13000.00000" pt_clust_9="71.13273"></scales>
<clustering>
<clus scale="   71.133">  1  9  2 -1</clus>
<clus scale="   83.483">  5  6 -1 -1</clus>
<clus scale="   84.677">  1  5  2 -1</clus>
<clus scale="   90.079">  7  8 -1 -1</clus>
<clus scale="   71.133">  1  5  2 -1</clus>
</clustering>
</event>
<event>
 9    2  0.2984928E-005  0.1029078E+03  0.7546771E-02  0.1281201E+00
         -3   -1    0    0    0  501 -0.00000000000E+00  0.00000000000E+00  0.91605897250E+02  0.91605897250E+02  0.00000000000E+00 0.  1.
          4   -1    0    0  502    0  0.00000000000E+00 -0.00000000000E+00 -0.36851626472E+03  0.36851626472E+03  0.00000000000E+00 0. -1.
         24    2    1    2    0    0  0.18172351610E+02 -0.41769909351E+02  0.38593645460E+02  0.10041775481E+03  0.80742159506E+02 0.  0.
         23    2    1    2    0    0  0.38939197034E+02  0.25337899497E+02 -0.14637914925E+03  0.18044214272E+03  0.94732472351E+02 0.  0.
        -11    1    3    3    0    0  0.18762674751E+02 -0.24388611030E+02  0.63195939750E+02  0.70289182045E+02  0.00000000000E+00 0.  1.
         12    1    3    3    0    0 -0.59032314108E+00 -0.17381298321E+02 -0.24602294290E+02  0.30128572768E+02  0.00000000000E+00 0. -1.
        -13    1    4    4    0    0  0.84506862745E+01 -0.35333271897E+02 -0.64923820851E+02  0.74397289704E+02  0.00000000000E+00 0.  1.
         13    1    4    4    0    0  0.30488510760E+02  0.60671171394E+02 -0.81455328400E+02  0.10604485302E+03  0.00000000000E+00 0. -1.
         21    1    1    2  502  501 -0.57111548644E+02  0.16432009854E+02 -0.16912486368E+03  0.17926226444E+03  0.00000000000E+00 0.  1.
<scales pt_clust_5="13000.00000" pt_clust_6="13000.00000" pt_clust_7="13000.00000" pt_clust_8="13000.00000" pt_clust_9="59.42844"></scales>
<clustering>
<clus scale="   59.428">  2  9  1 -1</clus>
<clus scale="   80.742">  5  6 -1 -1</clus>
<clus scale="   90.195">  1  5  2 -1</clus>
<clus scale="   94.732">  7  8 -1 -1</clus>
<clus scale="   59.428">  2  5  1 -1</clus>
</clustering>
</event>
<event>
 9    2  0.2984928E-005  0.2685252E+03  0.7546771E-02  0.1102127E+00
         -1   -1    0    0    0  501 -0.00000000000E+00  0.00000000000E+00  0.57134596515E+02  0.57134596515E+02  0.00000000000E+00 0.  1.
          2   -1    0    0  502    0  0.00000000000E+00 -0.00000000000E+00 -0.94807275259E+03  0.94807275259E+03  0.00000000000E+00 0. -1.
         24    2    1    2    0    0  0.77151393205E+02  0.45062919975E+02 -0.24263692122E+03  0.27007815081E+03  0.78016202000E+02 0.  0.
         23    2    1    2    0    0  0.34222684234E+02  0.11253736414E+03 -0.33916279604E+03  0.37070004328E+03  0.92473074042E+02 0.  0.
        -11    1    3    3    0    0  0.43845053287E+02  0.30489728851E+02 -0.22187654736E+03  0.22821309018E+03  0.00000000000E+00 0.  1.
         12    1    3    3    0    0  0.33306339918E+02  0.14573191124E+02 -0.20760373863E+02  0.41865060626E+02  0.00000000000E+00 0. -1.
        -13    1    4    4    0    0  0.58156951306E+02  0.90559579227E+02 -0.19311109576E+03  0.22107727988E+03  0.00000000000E+00 0.  1.
         13    1    4    4    0    0 -0.23934267072E+02  0.21977784909E+02 -0.14605170029E+03  0.14962276340E+03  0.00000000000E+00 0. -1.
         21    1    1    2  502  501 -0.11137407744E+03 -0.15760028411E+03 -0.30913843881E+03  0.36442915502E+03  0.00000000000E+00 0.  1.
<scales pt_clust_5="13000.00000" pt_clust_6="13000.00000" pt_clust_7="13000.00000" pt_clust_8="13000.00000" pt_clust_9="192.98195"></scales>
<clustering>
<clus scale="   78.016">  5  6 -1 -1</clus>
<clus scale="   92.473">  7  8 -1 -1</clus>
<clus scale="  113.610">  5  7 -1 -1</clus>
<clus scale="  192.982">  1  9  2 -1</clus>
<clus scale="  268.525">  2  5  1 -1</clus>
</clustering>
</event>
<event>
 9    2  0.2984928E-005  0.1959651E+03  0.7546771E-02  0.1180224E+00
         -1   -1    0    0    0  501 -0.00000000000E+00  0.00000000000E+00  0.98110041092E+02  0.98110041092E+02  0.00000000000E+00 0.  1.
          2   -1    0    0  502    0  0.00000000000E+00 -0.00000000000E+00 -0.79049655570E+03  0.79049655570E+03  0.00000000000E+00 0. -1.
         24    2    1    2    0    0  0.93983386618E+02 -0.11918838860E+03 -0.17675344335E+03  0.24585573979E+03  0.78514432531E+02 0.  0.
         23    2    1    2    0    0  0.32354603868E+02 -0.40503574901E+02 -0.38897146769E+03  0.40294682688E+03  0.91542245120E+02 0.  0.
        -13    1    3    3    0    0 -0.12641506021E+02 -0.20026621716E+02 -0.14159694939E+02  0.27592937730E+02  0.00000000000E+00 0.  1.
         14    1    3    3    0    0  0.10662489264E+03 -0.99161766882E+02 -0.16259374841E+03  0.21826280206E+03  0.00000000000E+00 0. -1.
        -11    1    4    4    0    0 -0.98781567578E+01 -0.55133901584E+02 -0.15659074360E+03  0.16630690324E+03  0.00000000000E+00 0. -1.
         11    1    4    4    0    0  0.42232760626E+02  0.14630326684E+02 -0.23238072409E+03  0.23663992363E+03  0.00000000000E+00 0.  1.
         21    1    1    2  502  501 -0.12633799049E+03  0.15969196350E+03 -0.12666160357E+03  0.23980403013E+03  0.00000000000E+00 0.  1.
<scales pt_clust_5="13000.00000" pt_clust_6="13000.00000" pt_clust_7="13000.00000" pt_clust_8="13000.00000" pt_clust_9="179.54884"></scales>
<clustering>
<clus scale="   78.514">  5  6 -1 -1</clus>
<clus scale="   91.542">  7  8 -1 -1</clus>
<clus scale="  105.201">  2  7  1 -1</clus>
<clus scale="  179.549">  1  9  2 -1</clus>
<clus scale="  105.201">  2  5  1 -1</clus>
</clustering>
</event>
<event>
 9    2  0.2984928E-005  0.1348514E+03  0.7546771E-02  0.1229059E+00
          2   -1    0    0  502    0  0.00000000000E+00  0.00000000000E+00  0.23481160841E+03  0.23481160841E+03  0.00000000000E+00 0. -1.
         -1   -1    0    0    0  501 -0.00000000000E+00 -0.00000000000E+00 -0.11518224954E+03  0.11518224954E+03  0.00000000000E+00 0.  1.
         24    2    1    2    0    0 -0.14886603394E+02 -0.76814148564E+02 -0.32997582672E+02  0.11479040229E+03  0.77239702320E+02 0.  0.
         23    2    1    2    0    0  0.34047556568E+02  0.88827989022E+02  0.91280600443E+02  0.16982113347E+03  0.10703934611E+03 0.  0.
        -11    1    3    3    0    0 -0.13870206887E+02 -0.89007058804E+02 -0.42204636731E+02  0.99477990117E+02  0.00000000000E+00 0.  1.
         12    1    3    3    0    0 -0.10163965068E+01  0.12192910240E+02  0.92070540588E+01  0.15312412169E+02  0.00000000000E+00 0. -1.
        -13    1    4    4    0    0  0.49376146632E+02  0.52816809861E+02  0.10574151125E+03  0.12809717585E+03  0.00000000000E+00 0. -1.
         13    1    4    4    0    0 -0.15328590064E+02  0.36011179161E+02 -0.14460910809E+02  0.41723957618E+02  0.00000000000E+00 0.  1.
         21    1    1    2  502  501 -0.19160953174E+02 -0.12013840458E+02  0.61346341099E+02  0.65382322193E+02  0.00000000000E+00 0. -1.
<scales pt_clust_5="13000.00000" pt_clust_6="13000.00000" pt_clust_7="13000.00000" pt_clust_8="13000.00000" pt_clust_9="22.61580"></scales>
<clustering>
<clus scale="   22.616">  1  9  2 -1</clus>
<clus scale="   77.240">  5  6 -1 -1</clus>
<clus scale="  107.039">  7  8 -1 -1</clus>
<clus scale="  112.665">  2  5  1 -1</clus>
<clus scale="   22.616">  1  5  2 -1</clus>
</clustering>
</event>
<event>
 9    2  0.2984928E-005  0.1279498E+03  0.7546771E-02  0.1234830E+00
          2   -1    0    0  502    0  0.00000000000E+00  0.00000000000E+00  0.29530777446E+03  0.29530777446E+03  0.00000000000E+00 0. -1.
         -1   -1    0    0    0  501 -0.00000000000E+00 -0.00000000000E+00 -0.68789730705E+02  0.68789730705E+02  0.00000000000E+00 0.  1.
         24    2    1    2    0    0 -0.62420669900E+02 -0.56975081186E+02  0.75354467008E+02  0.13676532736E+03  0.76706969453E+02 0.  0.
         23    2    1    2    0    0  0.49798511311E+02  0.81043629925E+02  0.89610439324E+02  0.16004620117E+03  0.92394772534E+02 0.  0.
        -11    1    3    3    0    0 -0.52267243197E+02 -0.19312941211E+02  0.45241702773E+01  0.55904584126E+02  0.00000000000E+00 0.  1.
         12    1    3    3    0    0 -0.10153426703E+02 -0.37662139975E+02  0.70830296731E+02  0.80860743233E+02  0.00000000000E+00 0. -1.
        -11    1    4    4    0    0  0.76970515118E+02  0.52520839507E+02  0.64574134987E+02  0.11336982707E+03  0.00000000000E+00 0. -1.
         11    1    4    4    0    0 -0.27172003807E+02  0.28522790418E+02  0.25036304337E+02  0.46676374098E+02  0.00000000000E+00 0.  1.
         21    1    1    2  502  501  0.12622158589E+02 -0.24068548739E+02  0.61553137419E+02  0.67285976637E+02  0.00000000000E+00 0.  1.
<scales pt_clust_5="13000.00000" pt_clust_6="13000.00000" pt_clust_7="13000.00000" pt_clust_8="13000.00000" pt_clust_9="27.17745"></scales>
<clustering>
<clus scale="   27.177">  1  9  2 -1</clus>
<clus scale="   76.707">  5  6 -1 -1</clus>
<clus scale="   92.395">  7  8 -1 -1</clus>
<clus scale="  117.125">  2  5  1 -1</clus>
<clus scale="   27.177">  1  5  2 -1</clus>
</clustering>
</event>
<event>
 9    2  0.2984928E-005  0.9180984E+02  0.7546771E-02  0.1304070E+00
          4   -1    0    0  502    0  0.00000000000E+00  0.00000000000E+00  0.35861300658E+03  0.35861300658E+03  0.00000000000E+00 0. -1.
         -3   -1    0    0    0  501 -0.00000000000E+00 -0.00000000000E+00 -0.57741433005E+02  0.57741433005E+02  0.00000000000E+00 0.  1.
         23    2    1    2    0    0  0.16805498987E+02 -0.13313169714E+01  0.60639230010E+01  0.90729998245E+02  0.88943601334E+02 0.  0.
         24    2    1    2    0    0 -0.46260146448E+02  0.29568730162E+02  0.22145624530E+03  0.24168781991E+03  0.79723414125E+02 0.  0.
        -13    1    4    4    0    0  0.12545333938E+02  0.33547181353E+02  0.60851915399E+02  0.70609874579E+02  0.00000000000E+00 0.  1.
         14    1    4    4    0    0 -0.58805480385E+02 -0.39784511904E+01  0.16060432990E+03  0.17107794533E+03  0.00000000000E+00 0. -1.
        -11    1    3    3    0    0  0.15110065978E+02  0.43232359955E+02  0.55426882600E+01  0.46131035478E+02  0.00000000000E+00 0. -1.
         11    1    3    3    0    0  0.16954330098E+01 -0.44563676926E+02  0.52123474093E+00  0.44598962767E+02  0.00000000000E+00 0.  1.
         21    1    1    2  502  501  0.29454647460E+02 -0.28237413191E+02  0.73351405283E+02  0.83936621434E+02  0.00000000000E+00 0.  1.
<scales pt_clust_5="13000.00000" pt_clust_6="13000.00000" pt_clust_7="13000.00000" pt_clust_8="13000.00000" pt_clust_9="40.80353"></scales>
<clustering>
<clus scale="   40.804">  1  9  2 -1</clus>
<clus scale="   79.723">  5  6 -1 -1</clus>
<clus scale="   82.909">  1  5  2 -1</clus>
<clus scale="   88.944">  7  8 -1 -1</clus>
<clus scale="   40.804">  1  5  2 -1</clus>
</clustering>
</event>
<event>
 9    2  0.2984928E-005  0.9659227E+02  0.7546771E-02  0.1294336E+00
          4   -1    0    0  502    0  0.00000000000E+00  0.00000000000E+00  0.36032418587E+03  0.36032418587E+03  0.00000000000E+00 0. -1.
         -3   -1    0    0    0  501 -0.00000000000E+00 -0.00000000000E+00 -0.31160572774E+03  0.31160572774E+03  0.00000000000E+00 0.  1.
         24    2    1    2    0    0  0.35698582167E+02  0.37678263750E+02 -0.18386076741E+03  0.20679493622E+03  0.79153796668E+02 0.  0.
         23    2    1    2    0    0  0.16313479816E+02 -0.93646442954E+01 -0.94500105181E+02  0.13273791931E+03  0.91297640476E+02 0.  0.
        -13    1    3    3    0    0  0.25478813622E+02  0.48033816552E+02 -0.18438636410E+03  0.19223617958E+03  0.00000000000E+00 0.  1.
         14    1    3    3    0    0  0.10219768545E+02 -0.10355552802E+02  0.52559668933E+00  0.14558756637E+02  0.00000000000E+00 0. -1.
        -13    1    4    4    0    0  0.14542238064E+02  0.30955071827E+02 -0.50068586073E+01  0.34565326453E+02  0.00000000000E+00 0.  1.
         13    1    4    4    0    0  0.17712417520E+01 -0.40319716122E+02 -0.89493246573E+02  0.98172592854E+02  0.00000000000E+00 0. -1.
         21    1    1    2  502  501 -0.52012061983E+02 -0.28313619455E+02  0.32707933072E+03  0.33239705809E+03  0.00000000000E+00 0. -1.
<scales pt_clust_5="13000.00000" pt_clust_6="13000.00000" pt_clust_7="13000.00000" pt_clust_8="13000.00000" pt_clust_9="59.21922"></scales>
<clustering>
<clus scale="   59.219">  1  9  2 -1</clus>
<clus scale="   79.154">  5  6 -1 -1</clus>
<clus scale="   85.206">  2  5  1 -1</clus>
<clus scale="   91.298">  7  8 -1 -1</clus>
<clus scale="   59.219">  1  5  2 -1</clus>
</clustering>
</event>
<event>
 9    2  0.2984928E-005  0.1175438E+03  0.7546771E-02  0.1252379E+00
          2   -1    0    0  502    0  0.00000000000E+00  0.00000000000E+00  0.42298485923E+03  0.42298485923E+03  0.00000000000E+00 0. -1.
         -1   -1    0    0    0  501 -0.00000000000E+00 -0.00000000000E+00 -0.47473163018E+02  0.47473163018E+02  0.00000000000E+00 0.  1.
         23    2    1    2    0    0 -0.71970897053E+02  0.74537198068E+01  0.97012838428E+02  0.15219405380E+03  0.92283103707E+02 0.  0.
         24    2    1    2    0    0  0.73741506816E+02  0.13941929883E+02  0.13231796198E+03  0.17051498137E+03  0.77039785654E+02 0.  0.
        -13    1    4    4    0    0  0.42741649352E+02  0.37614462529E+02  0.38005785278E+02  0.68455358412E+02  0.00000000000E+00 0.  1.
         14    1    4    4    0    0  0.30999857464E+02 -0.23672532646E+02  0.94312176702E+02  0.10205962296E+03  0.00000000000E+00 0. -1.
        -13    1    3    3    0    0 -0.56082443312E+02  0.31786659793E+02  0.10395048603E+03  0.12231653909E+03  0.00000000000E+00 0.  1.
         13    1    3    3    0    0 -0.15888453741E+02 -0.24332939987E+02 -0.69376476062E+01  0.29877514706E+02  0.00000000000E+00 0. -1.
         21    1    1    2  502  501 -0.17706097631E+01 -0.21395649690E+02  0.14618089581E+03  0.14774898708E+03  0.00000000000E+00 0. -1.
<scales pt_clust_5="13000.00000" pt_clust_6="13000.00000" pt_clust_7="13000.00000" pt_clust_8="13000.00000" pt_clust_9="21.46879"></scales>
<clustering>
<clus scale="   21.469">  1  9  2 -1</clus>
<clus scale="   77.040">  5  6 -1 -1</clus>
<clus scale="   92.283">  7  8 -1 -1</clus>
<clus scale="  105.998">  1  5  2 -1</clus>
<clus scale="   21.469">  1  5  2 -1</clus>
</clustering>
</event>
<event>
 9    2  0.2984928E-005  0.1411953E+03  0.7546771E-02  0.1213978E+00
         -1   -1    0    0    0  501 -0.00000000000E+00  0.00000000000E+00  0.10705322803E+03  0.10705322803E+03  0.00000000000E+00 0.  1.
          2   -1    0    0  502    0  0.00000000000E+00 -0.00000000000E+00 -0.29541157054E+03  0.29541157054E+03  0.00000000000E+00 0. -1.
         24    2    1    2    0    0 -0.10187182989E+03 -0.14504270851E+02 -0.56220501642E+01  0.13128957423E+03  0.81345566898E+02 0.  0.
         23    2    1    2    0    0  0.10762294561E+03  0.55876749407E+02 -0.11152349936E+03  0.18861603831E+03  0.91834685447E+02 0.  0.
        -11    1    3    3    0    0 -0.30694771516E+02  0.45903769372E+01 -0.39456213399E+02  0.50199933611E+02  0.00000000000E+00 0.  1.
         12    1    3    3    0    0 -0.71177058376E+02 -0.19094647788E+02  0.33834163234E+02  0.81089640615E+02  0.00000000000E+00 0. -1.
        -13    1    4    4    0    0  0.12252525202E+03  0.38823423607E+02 -0.86831344600E+02  0.15511085715E+03  0.00000000000E+00 0.  1.
         13    1    4    4    0    0 -0.14902306411E+02  0.17053325799E+02 -0.24692154762E+02  0.33505181151E+02  0.00000000000E+00 0. -1.
         21    1    1    2  502  501 -0.57511157135E+01 -0.41372478555E+02 -0.71212792983E+02  0.82559186031E+02  0.00000000000E+00 0. -1.
<scales pt_clust_5="13000.00000" pt_clust_6="13000.00000" pt_clust_7="13000.00000" pt_clust_8="13000.00000" pt_clust_9="41.77029"></scales>
<clustering>
<clus scale="   41.770">  2  9  1 -1</clus>
<clus scale="   81.346">  5  6 -1 -1</clus>
<clus scale="   91.835">  7  8 -1 -1</clus>
<clus scale="  134.609">  1  5  2 -1</clus>
<clus scale="   41.770">  2  5  1 -1</clus>
</clustering>
</event>
<event>
 9    2  0.2984928E-005  0.1429920E+03  0.7546771E-02  0.1210048E+00
          2   -1    0    0  502    0  0.00000000000E+00  0.00000000000E+00  0.60824971200E+03  0.60824971200E+03  0.00000000000E+00 0. -1.
         -1   -1    0    0    0  501 -0.00000000000E+00 -0.00000000000E+00 -0.55991113814E+02  0.55991113814E+02  0.00000000000E+00 0.  1.
         24    2    1    2    0    0 -0.10077021119E+03  0.82427958198E+02  0.14270144847E+03  0.20873401279E+03  0.79102344750E+02 0.  0.
         23    2    1    2    0    0  0.37989656560E+02 -0.97724972384E+02  0.25205355737E+03  0.28526352158E+03  0.82770143920E+02 0.  0.
        -13    1    3    3    0    0 -0.72030456695E+01  0.18962705341E+02  0.73338608299E+02  0.76092177837E+02  0.00000000000E+00 0.  1.
         14    1    3    3    0    0 -0.93567165516E+02  0.63465252857E+02  0.69362840168E+02  0.13264183495E+03  0.00000000000E+00 0. -1.
        -11    1    4    4    0    0  0.39691832680E+02 -0.50976787550E+01  0.61347069888E+02  0.73245415515E+02  0.00000000000E+00 0.  1.
         11    1    4    4    0    0 -0.17021761204E+01 -0.92627293629E+02  0.19070648749E+03  0.21201810606E+03  0.00000000000E+00 0. -1.
         21    1    1    2  502  501  0.62780554625E+02  0.15297014186E+02  0.15750359234E+03  0.17024329145E+03  0.00000000000E+00 0. -1.
<scales pt_clust_5="13000.00000" pt_clust_6="13000.00000" pt_clust_7="13000.00000" pt_clust_8="13000.00000" pt_clust_9="64.61731"></scales>
<clustering>
<clus scale="   64.617">  1  9  2 -1</clus>
<clus scale="   79.102">  5  6 -1 -1</clus>
<clus scale="   82.770">  7  8 -1 -1</clus>
<clus scale="  140.901">  2  5  1 -1</clus>
<clus scale="   64.617">  1  5  2 -1</clus>
</clustering>
</event>
<event>
 9    2  0.2984928E-005  0.1163720E+03  0.7546771E-02  0.1253737E+00
          2   -1    0    0  502    0  0.00000000000E+00  0.00000000000E+00  0.19061924874E+03  0.19061924874E+03  0.00000000000E+00 0. -1.
         -1   -1    0    0    0  501 -0.00000000000E+00 -0.00000000000E+00 -0.16766294454E+03  0.16766294454E+03  0.00000000000E+00 0.  1.
         23    2    1    2    0    0 -0.57830400330E+02  0.50823226306E+02 -0.10116458642E+03  0.15731660167E+03  0.92665441671E+02 0.  0.
         24    2    1    2    0    0  0.55742615831E+02  0.39165518291E+01  0.10444882589E+03  0.14276084709E+03  0.79677623172E+02 0.  0.
        -13    1    4    4    0    0  0.22472734192E+02  0.39627039998E+02  0.33080879395E+02  0.56299828265E+02  0.00000000000E+00 0.  1.
         14    1    4    4    0    0  0.33269881639E+02 -0.35710488169E+02  0.71367946492E+02  0.86461018823E+02  0.00000000000E+00 0. -1.
        -11    1    3    3    0    0 -0.13354293370E+02  0.35278118367E+02 -0.10348452180E+03  0.11014503638E+03  0.00000000000E+00 0.  1.
         11    1    3    3    0    0 -0.44476106960E+02  0.15545107939E+02  0.23199353837E+01  0.47171565284E+02  0.00000000000E+00 0. -1.
         21    1    1    2  502  501  0.20877844993E+01 -0.54739778135E+02  0.19672064733E+02  0.58204744525E+02  0.00000000000E+00 0. -1.
<scales pt_clust_5="13000.00000" pt_clust_6="13000.00000" pt_clust_7="13000.00000" pt_clust_8="13000.00000" pt_clust_9="54.77958"></scales>
<clustering>
<clus scale="   54.780">  1  9  2 -1</clus>
<clus scale="   79.678">  5  6 -1 -1</clus>
<clus scale="   92.665">  7  8 -1 -1</clus>
<clus scale="  106.321">  1  5  2 -1</clus>
<clus scale="   54.780">  1  5  2 -1</clus>
</clustering>
</event>
<event>
 9    2  0.2984928E-005  0.1567714E+03  0.7546771E-02  0.1192752E+00
          2   -1    0    0  502    0  0.00000000000E+00  0.00000000000E+00  0.54071260048E+03  0.54071260048E+03  0.00000000000E+00 0. -1.
         -1   -1    0    0    0  501 -0.00000000000E+00 -0.00000000000E+00 -0.10012336606E+03  0.10012336606E+03  0.00000000000E+00 0.  1.
         24    2    1    2    0    0 -0.11054192749E+03  0.71208232684E+02  0.98122544111E+01  0.15513248646E+03  0.81729296365E+02 0.  0.
         23    2    1    2    0    0  0.12979224961E+03 -0.45721990915E+02  0.22137823419E+03  0.27388289993E+03  0.84065401871E+02 0.  0.
        -13    1    3    3    0    0 -0.17359710882E+02  0.11950226816E+02 -0.30930180394E+02  0.37427844476E+02  0.00000000000E+00 0.  1.
         14    1    3    3    0    0 -0.93182216611E+02  0.59258005868E+02  0.40742434806E+02  0.11770464199E+03  0.00000000000E+00 0. -1.
        -11    1    4    4    0    0  0.29813002383E+02 -0.22281358038E+01  0.33123370474E+01  0.30079083712E+02  0.00000000000E+00 0.  1.
         11    1    4    4    0    0  0.99979247231E+02 -0.43493855112E+02  0.21806589714E+03  0.24380381622E+03  0.00000000000E+00 0. -1.
         21    1    1    2  502  501 -0.19250322121E+02 -0.25486241769E+02  0.20939874582E+03  0.21182058015E+03  0.00000000000E+00 0. -1.
<scales pt_clust_5="13000.00000" pt_clust_6="13000.00000" pt_clust_7="13000.00000" pt_clust_8="13000.00000" pt_clust_9="31.93937"></scales>
<clustering>
<clus scale="   31.939">  1  9  2 -1</clus>
<clus scale="   81.729">  5  6 -1 -1</clus>
<clus scale="   84.065">  7  8 -1 -1</clus>
<clus scale="  155.531">  2  5  1 -1</clus>
<clus scale="   31.939">  1  5  2 -1</clus>
</clustering>
</event>
<event>
 9    2  0.2984928E-005  0.9789419E+02  0.7546771E-02  0.1289670E+00
         -1   -1    0    0    0  501 -0.00000000000E+00  0.00000000000E+00  0.42083984910E+02  0.42083984910E+02  0.00000000000E+00 0.  1.
          2   -1    0    0  502    0  0.00000000000E+00 -0.00000000000E+00 -0.52159877199E+03  0.52159877199E+03  0.00000000000E+00 0. -1.
         24    2    1    2    0    0 -0.27660889549E+02  0.52234024351E+01 -0.34846713346E+02  0.94500429077E+02  0.83208346463E+02 0.  0.
         23    2    1    2    0    0  0.47912337725E+02 -0.37794535930E+02 -0.34795220060E+03  0.36513925978E+03  0.92368425787E+02 0.  0.
        -13    1    3    3    0    0 -0.19622069294E+02  0.21349227042E+02  0.21010705178E+02  0.35808725623E+02  0.00000000000E+00 0.  1.
         14    1    3    3    0    0 -0.80388202550E+01 -0.16125824606E+02 -0.55857418523E+02  0.58691703455E+02  0.00000000000E+00 0. -1.
        -11    1    4    4    0    0  0.23198150420E+01  0.27271728234E+02 -0.52693102341E+02  0.59377535626E+02  0.00000000000E+00 0.  1.
         11    1    4    4    0    0  0.45592522683E+02 -0.65066264164E+02 -0.29525909826E+03  0.30576172416E+03  0.00000000000E+00 0. -1.
         21    1    1    2  502  501 -0.20251448176E+02  0.32571133495E+02 -0.96715873139E+02  0.10404306804E+03  0.00000000000E+00 0. -1.
<scales pt_clust_5="13000.00000" pt_clust_6="13000.00000" pt_clust_7="13000.00000" pt_clust_8="13000.00000" pt_clust_9="38.35362"></scales>
<clustering>
<clus scale="   38.354">  2  9  1 -1</clus>
<clus scale="   83.208">  5  6 -1 -1</clus>
<clus scale="   89.303">  1  5  2 -1</clus>
<clus scale="   92.368">  7  8 -1 -1</clus>
<clus scale="   38.354">  2  5  1 -1</clus>
</clustering>
</event>
<event>
 9    2  0.2984928E-005  0.9725840E+02  0.7546771E-02  0.1291880E+00
          4   -1    0    0  502    0  0.00000000000E+00  0.00000000000E+00  0.20031914169E+03  0.20031914169E+03  0.00000000000E+00 0. -1.
         -3   -1    0    0    0  501 -0.00000000000E+00 -0.00000000000E+00 -0.11586170013E+03  0.11586170013E+03  0.00000000000E+00 0.  1.
         23    2    1    2    0    0  0.54496519410E+01  0.28251018370E+02 -0.73621341743E+02  0.12186208734E+03  0.92749380725E+02 0.  0.
         24    2    1    2    0    0  0.14591978814E+02 -0.34788818247E+02  0.13892769865E+03  0.16583764085E+03  0.82328791736E+02 0.  0.
        -13    1    4    4    0    0 -0.27522743974E+02 -0.32113331234E+02  0.39691775844E+02  0.58001763322E+02  0.00000000000E+00 0.  1.
         14    1    4    4    0    0  0.42114722788E+02 -0.26754870121E+01  0.99235922809E+02  0.10783587753E+03  0.00000000000E+00 0. -1.
        -13    1    3    3    0    0 -0.22732215898E+01  0.53432393559E+02 -0.78587625715E+02  0.95058945572E+02  0.00000000000E+00 0.  1.
         13    1    3    3    0    0  0.77228735308E+01 -0.25181375189E+02  0.49662839719E+01  0.26803141765E+02  0.00000000000E+00 0. -1.
         21    1    1    2  502  501 -0.20041630755E+02  0.65377998768E+01  0.19151084647E+02  0.28481113632E+02  0.00000000000E+00 0.  1.
<scales pt_clust_5="13000.00000" pt_clust_6="13000.00000" pt_clust_7="13000.00000" pt_clust_8="13000.00000" pt_clust_9="21.08103"></scales>
<clustering>
<clus scale="   21.081">  1  9  2 -1</clus>
<clus scale="   82.329">  5  6 -1 -1</clus>
<clus scale="   87.377">  1  5  2 -1</clus>
<clus scale="   92.749">  7  8 -1 -1</clus>
<clus scale="   21.081">  1  5  2 -1</clus>
</clustering>
</event>
<event>
 9    2  0.2984928E-005  0.1073539E+03  0.7546771E-02  0.1271965E+00
          2   -1    0    0  502    0  0.00000000000E+00  0.00000000000E+00  0.76936893009E+03  0.76936893009E+03  0.00000000000E+00 0. -1.
         -1   -1    0    0    0  501 -0.00000000000E+00 -0.00000000000E+00 -0.19027847815E+02  0.19027847815E+02  0.00000000000E+00 0.  1.
         23    2    1    2    0    0  0.17986186724E+02 -0.23568624739E+02  0.22735795843E+03  0.24895440924E+03  0.96993162819E+02 0.  0.
         24    2    1    2    0    0 -0.15951430198E+02  0.52627252187E+02  0.44994789438E+03  0.46081229296E+03  0.82890203778E+02 0.  0.
        -11    1    4    4    0    0  0.28027164443E+02  0.40730042212E+02  0.16510297690E+03  0.17234689224E+03  0.00000000000E+00 0.  1.
         12    1    4    4    0    0 -0.43978594642E+02  0.11897209975E+02  0.28484491749E+03  0.28846540071E+03  0.00000000000E+00 0. -1.
        -11    1    3    3    0    0  0.52047920508E+02 -0.24208503708E+02  0.84933424166E+02  0.10251206866E+03  0.00000000000E+00 0.  1.
         11    1    3    3    0    0 -0.34061733784E+02  0.63987896892E+00  0.14242453426E+03  0.14644234058E+03  0.00000000000E+00 0. -1.
         21    1    1    2  502  501 -0.20347565253E+01 -0.29058627448E+02  0.73035229463E+02  0.78630075709E+02  0.00000000000E+00 0. -1.
<scales pt_clust_5="13000.00000" pt_clust_6="13000.00000" pt_clust_7="13000.00000" pt_clust_8="13000.00000" pt_clust_9="29.12978"></scales>
<clustering>
<clus scale="   29.130">  2  9  1 -1</clus>
<clus scale="   82.890">  5  6 -1 -1</clus>
<clus scale="   94.805">  1  5  2 -1</clus>
<clus scale="   96.993">  7  8 -1 -1</clus>
<clus scale="   94.805">  1  5  2 -1</clus>
</clustering>
</event>
<event>
 9    2  0.2984928E-005  0.8833335E+02  0.7546771E-02  0.1328288E+00
         -1   -1    0    0    0  501 -0.00000000000E+00  0.00000000000E+00  0.99225242733E+01  0.99225242733E+01  0.00000000000E+00 0.  1.
          2   -1    0    0  502    0  0.00000000000E+00 -0.00000000000E+00 -0.84326715352E+03  0.84326715352E+03  0.00000000000E+00 0. -1.
         23    2    1    2    0    0 -0.71795156014E+01  0.80141560366E-01 -0.29230938667E+03  0.30543054344E+03  0.88269402783E+02 0.  0.
         24    2    1    2    0    0 -0.15077452672E+02 -0.36938287239E+01 -0.35906169274E+03  0.36439391351E+03  0.60138598765E+02 0.  0.
        -13    1    4    4    0    0 -0.22334107828E+02 -0.10376646780E+02 -0.56049605550E+02  0.61221282682E+02  0.00000000000E+00 0.  1.
         14    1    4    4    0    0  0.72566551554E+01  0.66828180566E+01 -0.30301208719E+03  0.30317263083E+03  0.00000000000E+00 0. -1.
        -13    1    3    3    0    0  0.20141471994E+01  0.41166368295E+02 -0.93014771945E+02  0.10173728160E+03  0.00000000000E+00 0. -1.
         13    1    3    3    0    0 -0.91936628008E+01 -0.41086226735E+02 -0.19929461472E+03  0.20369326184E+03  0.00000000000E+00 0.  1.
         21    1    1    2  502  501  0.22256968274E+02  0.36136871635E+01 -0.18197354983E+03  0.18336522083E+03  0.00000000000E+00 0. -1.
<scales pt_clust_5="13000.00000" pt_clust_6="13000.00000" pt_clust_7="13000.00000" pt_clust_8="13000.00000" pt_clust_9="22.54842"></scales>
<clustering>
<clus scale="   22.548">  2  9  1 -1</clus>
<clus scale="   60.139">  5  6 -1 -1</clus>
<clus scale="   60.232">  2  5  1 -1</clus>
<clus scale="   88.269">  7  8 -1 -1</clus>
<clus scale="   22.548">  2  5  1 -1</clus>
</clustering>
</event>
<event>
 9    2  0.2984928E-005  0.2292699E+03  0.7546771E-02  0.1127852E+00
         -1   -1    0    0    0  501 -0.00000000000E+00  0.00000000000E+00  0.76821120870E+03  0.76821120870E+03  0.00000000000E+00 0.  1.
          2   -1    0    0  502    0  0.00000000000E+00 -0.00000000000E+00 -0.45579981187E+03  0.45579981187E+03  0.00000000000E+00 0. -1.
         23    2    1    2    0    0 -0.82367972624E+02  0.18861254593E+03  0.64982558757E+03  0.68772977960E+03  0.91322396482E+02 0.  0.
         24    2    1    2    0    0  0.18779817203E+03 -0.22506644171E+03 -0.22865028071E+03  0.38048008055E+03  0.81000519910E+02 0.  0.
        -13    1    4    4    0    0  0.24857315453E+02 -0.37025367750E+02 -0.31890791798E+01  0.44709442119E+02  0.00000000000E+00 0.  1.
         14    1    4    4    0    0  0.16294085658E+03 -0.18804107396E+03 -0.22546120153E+03  0.33577063843E+03  0.00000000000E+00 0. -1.
        -13    1    3    3    0    0 -0.17482498642E+02  0.11175225653E+03  0.45023259273E+03  0.46422364455E+03  0.00000000000E+00 0.  1.
         13    1    3    3    0    0 -0.64885473982E+02  0.76860289398E+02  0.19959299484E+03  0.22350613506E+03  0.00000000000E+00 0. -1.
         21    1    1    2  502  501 -0.10543019941E+03  0.36453895777E+02 -0.10876391003E+03  0.15580116042E+03  0.00000000000E+00 0.  1.
<scales pt_clust_5="13000.00000" pt_clust_6="13000.00000" pt_clust_7="13000.00000" pt_clust_8="13000.00000" pt_clust_9="111.55453"></scales>
<clustering>
<clus scale="   81.001">  5  6 -1 -1</clus>
<clus scale="   91.322">  7  8 -1 -1</clus>
<clus scale="  111.555">  2  9  1 -1</clus>
<clus scale="  225.357">  2  5  1 -1</clus>
<clus scale="  111.555">  2  5  1 -1</clus>
</clustering>
</event>
<event>
 9    2  0.2984928E-005  0.1139433E+03  0.7546771E-02  0.1254951E+00
          2   -1    0    0  502    0  0.00000000000E+00  0.00000000000E+00  0.41477220879E+03  0.41477220879E+03  0.00000000000E+00 0. -1.
         -1   -1    0    0    0  501 -0.00000000000E+00 -0.00000000000E+00 -0.46781267292E+02  0.46781267292E+02  0.00000000000E+00 0.  1.
         24    2    1    2    0    0  0.64977908476E+02  0.66537081105E+02  0.10601880842E+03  0.16270005811E+03  0.81129584122E+02 0.  0.
         23    2    1    2    0    0 -0.35618293388E+02 -0.57876043585E+02  0.22954840628E+03  0.25426307565E+03  0.85667622618E+02 0.  0.
        -13    1    3    3    0    0  0.28470494768E+02  0.51129080509E+02  0.10725236125E+02  0.59496072442E+02  0.00000000000E+00 0.  1.
         14    1    3    3    0    0  0.36507413708E+02  0.15408000595E+02  0.95293572294E+02  0.10320398567E+03  0.00000000000E+00 0. -1.
        -13    1    4    4    0    0  0.10563667242E+02 -0.62081457562E+02  0.13137684529E+03  0.14568999250E+03  0.00000000000E+00 0.  1.
         13    1    4    4    0    0 -0.46181960630E+02  0.42054139771E+01  0.98171560997E+02  0.10857308314E+03  0.00000000000E+00 0. -1.
         21    1    1    2  502  501 -0.29359615088E+02 -0.86610375199E+01  0.32423726797E+02  0.44590342323E+02  0.00000000000E+00 0. -1.
<scales pt_clust_5="13000.00000" pt_clust_6="13000.00000" pt_clust_7="13000.00000" pt_clust_8="13000.00000" pt_clust_9="30.61047"></scales>
<clustering>
<clus scale="   30.610">  2  9  1 -1</clus>
<clus scale="   81.130">  5  6 -1 -1</clus>
<clus scale="   85.668">  7  8 -1 -1</clus>
<clus scale="  110.572">  2  5  1 -1</clus>
<clus scale="  113.943">  1  5  2 -1</clus>
</clustering>
</event>
<event>
 9    2  0.2984928E-005  0.1011874E+03  0.7546771E-02  0.1283171E+00
         -1   -1    0    0    0  501 -0.00000000000E+00  0.00000000000E+00  0.85444319901E+02  0.85444319901E+02  0.00000000000E+00 0.  1.
          2   -1    0    0  502    0  0.00000000000E+00 -0.00000000000E+00 -0.26748561718E+03  0.26748561718E+03  0.00000000000E+00 0. -1.
         23    2    1    2    0    0 -0.14062860714E+02  0.39525861794E+02  0.33702512219E+02  0.10647540462E+03  0.91875430109E+02 0.  0.
         24    2    1    2    0    0  0.37217490823E+02 -0.33030776398E+02 -0.17519582039E+03  0.19931153244E+03  0.80965039796E+02 0.  0.
        -13    1    4    4    0    0  0.18513246464E+02  0.26422864336E+02 -0.50881480125E+02  0.60248096020E+02  0.00000000000E+00 0.  1.
         14    1    4    4    0    0  0.18704244359E+02 -0.59453640734E+02 -0.12431434026E+03  0.13906343642E+03  0.00000000000E+00 0. -1.
        -13    1    3    3    0    0 -0.36568571768E+02  0.23667540444E+02 -0.18603850112E+02  0.47365769821E+02  0.00000000000E+00 0. -1.
         13    1    3    3    0    0  0.22505711054E+02  0.15858321351E+02  0.52306362331E+02  0.59109634802E+02  0.00000000000E+00 0.  1.
         21    1    1    2  502  501 -0.23154630109E+02 -0.64950853968E+01 -0.40547989107E+02  0.47143000015E+02  0.00000000000E+00 0. -1.
<scales pt_clust_5="13000.00000" pt_clust_6="13000.00000" pt_clust_7="13000.00000" pt_clust_8="13000.00000" pt_clust_9="24.04835"></scales>
<clustering>
<clus scale="   24.048">  2  9  1 -1</clus>
<clus scale="   80.965">  5  6 -1 -1</clus>
<clus scale="   91.395">  2  5  1 -1</clus>
<clus scale="   91.875">  7  8 -1 -1</clus>
<clus scale="   24.048">  2  5  1 -1</clus>
</clustering>
</event>
<event>
 9    2  0.2984928E-005  0.9707231E+02  0.7546771E-02  0.1302356E+00
         -1   -1    0    0    0  501 -0.00000000000E+00  0.00000000000E+00  0.98804440830E+02  0.98804440830E+02  0.00000000000E+00 0.  1.
          2   -1    0    0  502    0  0.00000000000E+00 -0.00000000000E+00 -0.42501014085E+03  0.42501014085E+03  0.00000000000E+00 0. -1.
         24    2    1    2    0    0 -0.28561717894E+02 -0.87075471825E+01  0.44654954065E+02  0.85156162227E+02  0.66075062888E+02 0.  0.
         23    2    1    2    0    0  0.34053728045E+02 -0.45773427065E+02 -0.62230268877E+02  0.12520817874E+03  0.92464147860E+02 0.  0.
        -13    1    3    3    0    0 -0.36474612049E+02 -0.10322787274E+02 -0.18527415184E+01  0.37952469120E+02  0.00000000000E+00 0.  1.
         14    1    3    3    0    0  0.79128941546E+01  0.16152400911E+01  0.46507695583E+02  0.47203693107E+02  0.00000000000E+00 0. -1.
        -11    1    4    4    0    0  0.27989865698E+01 -0.48075469799E+02  0.75202998281E+01  0.48740537869E+02  0.00000000000E+00 0.  1.
         11    1    4    4    0    0  0.31254741475E+02  0.23020427343E+01 -0.69750568705E+02  0.76467640869E+02  0.00000000000E+00 0. -1.
         21    1    1    2  502  501 -0.54920101509E+01  0.54480974248E+02 -0.30863038520E+03  0.31345024071E+03  0.00000000000E+00 0. -1.
<scales pt_clust_5="13000.00000" pt_clust_6="13000.00000" pt_clust_7="13000.00000" pt_clust_8="13000.00000" pt_clust_9="54.75709"></scales>
<clustering>
<clus scale="   54.757">  2  9  1 -1</clus>
<clus scale="   66.075">  5  6 -1 -1</clus>
<clus scale="   72.383">  1  5  2 -1</clus>
<clus scale="   92.464">  7  8 -1 -1</clus>
<clus scale="   54.757">  2  5  1 -1</clus>
</clustering>
</event>
<event>
 9    2  0.2984928E-005  0.1865205E+03  0.7546771E-02  0.1190641E+00
         -1   -1    0    0    0  501 -0.00000000000E+00  0.00000000000E+00  0.11071601275E+03  0.11071601275E+03  0.00000000000E+00 0.  1.
          2   -1    0    0  502    0  0.00000000000E+00 -0.00000000000E+00 -0.57437555432E+03  0.57437555432E+03  0.00000000000E+00 0. -1.
         24    2    1    2    0    0 -0.44842105226E+02  0.26188931601E+02 -0.84882700681E+02  0.12870493174E+03  0.81628500161E+02 0.  0.
         23    2    1    2    0    0 -0.90511628945E+02 -0.12409776617E+03 -0.46651162163E+02  0.18461487779E+03  0.91179557068E+02 0.  0.
        -13    1    3    3    0    0  0.24116168437E+01  0.37934205487E+02 -0.98642947547E+01  0.39269888627E+02  0.00000000000E+00 0.  1.
         14    1    3    3    0    0 -0.47253722070E+02 -0.11745273886E+02 -0.75018405926E+02  0.89435043109E+02  0.00000000000E+00 0. -1.
        -13    1    4    4    0    0  0.15152723914E+02 -0.16299786758E+02  0.86195433710E+01  0.23865971975E+02  0.00000000000E+00 0. -1.
         13    1    4    4    0    0 -0.10566435286E+03 -0.10779797941E+03 -0.55270705534E+02  0.16074890581E+03  0.00000000000E+00 0.  1.
         21    1    1    2  502  501  0.13535373417E+03  0.97908834571E+02 -0.33212567872E+03  0.37177175755E+03  0.00000000000E+00 0. -1.
<scales pt_clust_5="13000.00000" pt_clust_6="13000.00000" pt_clust_7="13000.00000" pt_clust_8="13000.00000" pt_clust_9="162.71503"></scales>
<clustering>
<clus scale="   81.629">  5  6 -1 -1</clus>
<clus scale="   91.180">  7  8 -1 -1</clus>
<clus scale="   96.747">  1  5  2 -1</clus>
<clus scale="  162.715">  2  9  1 -1</clus>
<clus scale="  162.715">  2  5  1 -1</clus>
</clustering>
</event>
<event>
 9    2  0.2984928E-005  0.1316852E+03  0.7546771E-02  0.1227147E+00
          2   -1    0    0  502    0  0.00000000000E+00  0.00000000000E+00  0.39901431204E+03  0.39901431204E+03  0.00000000000E+00 0. -1.
         -1   -1    0    0    0  501 -0.00000000000E+00 -0.00000000000E+00 -0.97585234867E+02  0.97585234867E+02  0.00000000000E+00 0.  1.
         24    2    1    2    0    0  0.10137218142E+03 -0.61670457727E+02  0.87852018293E+01  0.14466001417E+03  0.82278644907E+02 0.  0.
         23    2    1    2    0    0 -0.59108263728E+02  0.13155775502E+02  0.97359030152E+02  0.14632804499E+03  0.90918945926E+02 0.  0.
        -11    1    3    3    0    0  0.30524279538E+02 -0.60652401155E+02 -0.15703127881E+02  0.69692421628E+02  0.00000000000E+00 0.  1.
         12    1    3    3    0    0  0.70847901881E+02 -0.10180565728E+01  0.24488329711E+02  0.74967592546E+02  0.00000000000E+00 0. -1.
        -13    1    4    4    0    0 -0.39419934012E+02 -0.37512832976E+02  0.55434361723E+02  0.77679548757E+02  0.00000000000E+00 0.  1.
         13    1    4    4    0    0 -0.19688329716E+02  0.50668608478E+02  0.41924668429E+02  0.68648496233E+02  0.00000000000E+00 0. -1.
         21    1    1    2  502  501 -0.42263917691E+02  0.48514682225E+02  0.19528484519E+03  0.20561148774E+03  0.00000000000E+00 0. -1.
<scales pt_clust_5="13000.00000" pt_clust_6="13000.00000" pt_clust_7="13000.00000" pt_clust_8="13000.00000" pt_clust_9="64.34216"></scales>
<clustering>
<clus scale="   64.342">  1  9  2 -1</clus>
<clus scale="   82.279">  5  6 -1 -1</clus>
<clus scale="   90.919">  7  8 -1 -1</clus>
<clus scale="  125.875">  2  5  1 -1</clus>
<clus scale="   64.342">  1  5  2 -1</clus>
</clustering>
</event>
<event>
 9    2  0.2984928E-005  0.9133892E+02  0.7546771E-02  0.1301670E+00
          2   -1    0    0  502    0  0.00000000000E+00  0.00000000000E+00  0.24685832478E+03  0.24685832478E+03  0.00000000000E+00 0. -1.
         -1   -1    0    0    0  501 -0.00000000000E+00 -0.00000000000E+00 -0.11262323241E+03  0.11262323241E+03  0.00000000000E+00 0.  1.
         23    2    1    2    0    0 -0.74183508969E+01  0.24542745044E+01 -0.78047144407E+02  0.11767715986E+03  0.87724009312E+02 0.  0.
         24    2    1    2    0    0 -0.10331244769E+02 -0.16396504782E+02  0.16698561661E+03  0.19119592244E+03  0.91082954602E+02 0.  0.
        -13    1    4    4    0    0 -0.10592099299E+02  0.35730675168E+02  0.97132223326E+02  0.10403625581E+03  0.00000000000E+00 0.  1.
         14    1    4    4    0    0  0.26085453051E+00 -0.52127179950E+02  0.69853393279E+02  0.87159666631E+02  0.00000000000E+00 0. -1.
        -11    1    3    3    0    0 -0.15134405339E+02 -0.40870951386E+02 -0.32694096927E+02  0.54482922701E+02  0.00000000000E+00 0. -1.
         11    1    3    3    0    0  0.77160544421E+01  0.43325225891E+02 -0.45353047480E+02  0.63194237161E+02  0.00000000000E+00 0.  1.
         21    1    1    2  502  501  0.17749595665E+02  0.13942230278E+02  0.45296620173E+02  0.50608474889E+02  0.00000000000E+00 0.  1.
<scales pt_clust_5="13000.00000" pt_clust_6="13000.00000" pt_clust_7="13000.00000" pt_clust_8="13000.00000" pt_clust_9="22.57064"></scales>
<clustering>
<clus scale="   22.571">  1  9  2 -1</clus>
<clus scale="   87.724">  7  8 -1 -1</clus>
<clus scale="   87.990">  2  7  1 -1</clus>
<clus scale="   91.083">  5  6 -1 -1</clus>
<clus scale="   22.571">  1  5  2 -1</clus>
</clustering>
</event>
<event>
 9    2  0.2984928E-005  0.3861628E+03  0.7546771E-02  0.1048921E+00
         -1   -1    0    0    0  501 -0.00000000000E+00  0.00000000000E+00  0.71557302487E+03  0.71557302487E+03  0.00000000000E+00 0.  1.
          2   -1    0    0  502    0  0.00000000000E+00 -0.00000000000E+00 -0.64609608071E+03  0.64609608071E+03  0.00000000000E+00 0. -1.
         24    2    1    2    0    0 -0.80679018179E+02 -0.36188945253E+03  0.55736543700E+03  0.67422525251E+03  0.80314263511E+02 0.  0.
         23    2    1    2    0    0  0.80100127001E+02  0.39963762839E+03 -0.35189402571E+03  0.54630649096E+03  0.92168933804E+02 0.  0.
        -11    1    3    3    0    0 -0.74038699504E+02 -0.17532205089E+03  0.24369021741E+03  0.30919972932E+03  0.00000000000E+00 0.  1.
         12    1    3    3    0    0 -0.66403186742E+01 -0.18656740164E+03  0.31367521960E+03  0.36502552318E+03  0.00000000000E+00 0. -1.
        -13    1    4    4    0    0  0.44748496841E+02  0.35845890280E+03 -0.32415226643E+03  0.48535544171E+03  0.00000000000E+00 0. -1.
         13    1    4    4    0    0  0.35351630159E+02  0.41178725590E+02 -0.27741759282E+02  0.60951049246E+02  0.00000000000E+00 0.  1.
         21    1    1    2  502  501  0.57889117789E+00 -0.37748175856E+02 -0.13599446713E+03  0.14113736212E+03  0.00000000000E+00 0. -1.
<scales pt_clust_5="13000.00000" pt_clust_6="13000.00000" pt_clust_7="13000.00000" pt_clust_8="13000.00000" pt_clust_9="37.75261"></scales>
<clustering>
<clus scale="   37.753">  2  9  1 -1</clus>
<clus scale="   80.314">  5  6 -1 -1</clus>
<clus scale="   92.169">  7  8 -1 -1</clus>
<clus scale="  383.506">  1  5  2 -1</clus>
<clus scale="   37.753">  2  5  1 -1</clus>
</clustering>
</event>
<event>
 9    2  0.2984928E-005  0.8848927E+02  0.7546771E-02  0.1311142E+00
          4   -1    0    0  502    0  0.00000000000E+00  0.00000000000E+00  0.42344554733E+03  0.42344554733E+03  0.00000000000E+00 0. -1.
         -3   -1    0    0    0  501 -0.00000000000E+00 -0.00000000000E+00 -0.13852775950E+03  0.13852775950E+03  0.00000000000E+00 0.  1.
         24    2    1    2    0    0 -0.65617835338E+01 -0.19769345288E+02 -0.11558811606E+03  0.14160651365E+03  0.79106941013E+02 0.  0.
         23    2    1    2    0    0  0.46997409625E+01 -0.19243281205E+02  0.27952585483E+03  0.29323841516E+03  0.86380976920E+02 0.  0.
        -13    1    3    3    0    0  0.78327368013E+01 -0.20380792624E+02 -0.12333196817E+03  0.12524976186E+03  0.00000000000E+00 0.  1.
         14    1    3    3    0    0 -0.14394520335E+02  0.61144733646E+00  0.77438521082E+01  0.16356751786E+02  0.00000000000E+00 0. -1.
        -11    1    4    4    0    0 -0.17064834901E+02 -0.46048394388E+02  0.11363786776E+03  0.12379510574E+03  0.00000000000E+00 0.  1.
         11    1    4    4    0    0  0.21764575863E+02  0.26805113183E+02  0.16588798707E+03  0.16944330943E+03  0.00000000000E+00 0. -1.
         21    1    1    2  502  501  0.18620425714E+01  0.39012626493E+02  0.12098004906E+03  0.12712837802E+03  0.00000000000E+00 0. -1.
<scales pt_clust_5="13000.00000" pt_clust_6="13000.00000" pt_clust_7="13000.00000" pt_clust_8="13000.00000" pt_clust_9="39.05704"></scales>
<clustering>
<clus scale="   39.057">  1  9  2 -1</clus>
<clus scale="   79.107">  5  6 -1 -1</clus>
<clus scale="   81.404">  2  5  1 -1</clus>
<clus scale="   86.381">  7  8 -1 -1</clus>
<clus scale="   39.057">  1  5  2 -1</clus>
</clustering>
</event>
<event>
 9    2  0.2984928E-005  0.1268172E+03  0.7546771E-02  0.1235012E+00
         -1   -1    0    0    0  501 -0.00000000000E+00  0.00000000000E+00  0.19537446859E+03  0.19537446859E+03  0.00000000000E+00 0.  1.
          2   -1    0    0  502    0  0.00000000000E+00 -0.00000000000E+00 -0.14032330684E+03  0.14032330684E+03  0.00000000000E+00 0. -1.
         24    2    1    2    0    0 -0.20572718401E+02 -0.92717786900E+02  0.12110448628E+03  0.17375596196E+03  0.80653660612E+02 0.  0.
         23    2    1    2    0    0  0.18023443795E+02  0.68333432110E+02 -0.30848666949E+02  0.11904119023E+03  0.90691026282E+02 0.  0.
        -11    1    3    3    0    0  0.92295733922E+01 -0.65449365482E+02  0.11536113644E+03  0.13295486553E+03  0.00000000000E+00 0.  1.
         12    1    3    3    0    0 -0.29802291793E+02 -0.27268421418E+02  0.57433498402E+01  0.40801096433E+02  0.00000000000E+00 0. -1.
        -13    1    4    4    0    0 -0.31048705079E+02  0.31250871583E+02 -0.36589347792E+02  0.57266215465E+02  0.00000000000E+00 0.  1.
         13    1    4    4    0    0  0.49072148875E+02  0.37082560527E+02  0.57406808432E+01  0.61774974763E+02  0.00000000000E+00 0. -1.
         21    1    1    2  502  501  0.25492746060E+01  0.24384354790E+02 -0.35204657580E+02  0.42900623245E+02  0.00000000000E+00 0. -1.
<scales pt_clust_5="13000.00000" pt_clust_6="13000.00000" pt_clust_7="13000.00000" pt_clust_8="13000.00000" pt_clust_9="24.51725"></scales>
<clustering>
<clus scale="   24.517">  2  9  1 -1</clus>
<clus scale="   80.654">  5  6 -1 -1</clus>
<clus scale="   90.691">  7  8 -1 -1</clus>
<clus scale="  119.845">  1  5  2 -1</clus>
<clus scale="   24.517">  2  5  1 -1</clus>
</clustering>
</event>
<event>
 9    2  0.2984928E-005  0.8613321E+03  0.7546771E-02  0.9475252E-01
         -1   -1    0    0    0  501 -0.00000000000E+00  0.00000000000E+00  0.34300724463E+03  0.34300724463E+03  0.00000000000E+00 0.  1.
          2   -1    0    0  502    0  0.00000000000E+00 -0.00000000000E+00 -0.19774294713E+04  0.19774294713E+04  0.00000000000E+00 0. -1.
         24    2    1    2    0    0  0.21797504206E+03 -0.31167352205E+02 -0.52534491722E+02  0.24042684506E+03  0.80997976508E+02 0.  0.
         23    2    1    2    0    0  0.54631401070E+03  0.15819705976E+03 -0.67341198694E+03  0.88602390467E+03  0.89829546802E+02 0.  0.
        -13    1    3    3    0    0  0.44727549929E+02 -0.41386332029E+02 -0.10143071943E+02  0.61775918527E+02  0.00000000000E+00 0.  1.
         14    1    3    3    0    0  0.17324749214E+03  0.10218979824E+02 -0.42391419780E+02  0.17865092653E+03  0.00000000000E+00 0. -1.
        -13    1    4    4    0    0  0.43255682478E+02  0.10506827200E+02 -0.97658519440E+02  0.10732489881E+03  0.00000000000E+00 0.  1.
         13    1    4    4    0    0  0.50305832822E+03  0.14769023256E+03 -0.57575346750E+03  0.77869900586E+03  0.00000000000E+00 0. -1.
         21    1    1    2  502  501 -0.76428905276E+03 -0.12702970755E+03 -0.90847574797E+03  0.11939859662E+04  0.00000000000E+00 0.  1.
<scales pt_clust_5="13000.00000" pt_clust_6="13000.00000" pt_clust_7="13000.00000" pt_clust_8="13000.00000" pt_clust_9="774.77371"></scales>
<clustering>
<clus scale="   80.998">  5  6 -1 -1</clus>
<clus scale="   89.830">  7  8 -1 -1</clus>
<clus scale="  224.712">  5  7 -1 -1</clus>
<clus scale="  774.774">  2  9  1 -1</clus>
<clus scale="  774.774">  2  5  1 -1</clus>
</clustering>
</event>
<event>
 9    2  0.2984928E-005  0.9295364E+02  0.7546771E-02  0.1302199E+00
         -1   -1    0    0    0  501 -0.00000000000E+00  0.00000000000E+00  0.10469829696E+03  0.10469829696E+03  0.00000000000E+00 0.  1.
          2   -1    0    0  502    0  0.00000000000E+00 -0.00000000000E+00 -0.51860759641E+03  0.51860759641E+03  0.00000000000E+00 0. -1.
         24    2    1    2    0    0 -0.16123482886E+02 -0.66909843034E+01  0.77229345953E+02  0.11320649071E+03  0.80911072741E+02 0.  0.
         23    2    1    2    0    0  0.19063279855E+02 -0.24643085501E+02 -0.27024655078E+03  0.28697660282E+03  0.91387537756E+02 0.  0.
        -11    1    3    3    0    0  0.23497221938E+02  0.43874057805E+01  0.66535529003E+02  0.70698977277E+02  0.00000000000E+00 0.  1.
         12    1    3    3    0    0 -0.39620704824E+02 -0.11078390084E+02  0.10693816949E+02  0.42507513436E+02  0.00000000000E+00 0. -1.
        -13    1    4    4    0    0  0.53923010019E+02 -0.15565344551E+02 -0.12006269923E+03  0.13253310042E+03  0.00000000000E+00 0.  1.
         13    1    4    4    0    0 -0.34859730165E+02 -0.90777409500E+01 -0.15018385155E+03  0.15444350240E+03  0.00000000000E+00 0. -1.
         21    1    1    2  502  501 -0.29397969686E+01  0.31334069804E+02 -0.22089209463E+03  0.22312279983E+03  0.00000000000E+00 0. -1.
<scales pt_clust_5="13000.00000" pt_clust_6="13000.00000" pt_clust_7="13000.00000" pt_clust_8="13000.00000" pt_clust_9="31.47168"></scales>
<clustering>
<clus scale="   31.472">  2  9  1 -1</clus>
<clus scale="   80.911">  5  6 -1 -1</clus>
<clus scale="   82.676">  1  5  2 -1</clus>
<clus scale="   91.388">  7  8 -1 -1</clus>
<clus scale="   31.472">  2  5  1 -1</clus>
</clustering>
</event>
<event>
 9    2  0.2984928E-005  0.9727191E+02  0.7546771E-02  0.1291167E+00
          2   -1    0    0  502    0  0.00000000000E+00  0.00000000000E+00  0.30023994816E+03  0.30023994816E+03  0.00000000000E+00 0. -1.
         -1   -1    0    0    0  501 -0.00000000000E+00 -0.00000000000E+00 -0.38546311349E+02  0.38546311349E+02  0.00000000000E+00 0.  1.
         23    2    1    2    0    0  0.35129967261E+02  0.17161397414E+02  0.79845783648E+02  0.12766814391E+03  0.91625202005E+02 0.  0.
         24    2    1    2    0    0 -0.14349998158E+02 -0.20894100699E+02  0.14334103061E+03  0.16720324827E+03  0.82266574516E+02 0.  0.
        -13    1    4    4    0    0  0.11826100034E+01 -0.21004114667E+02 -0.19101188592E+01  0.21123918989E+02  0.00000000000E+00 0.  1.
         14    1    4    4    0    0 -0.15532608161E+02  0.11001396872E+00  0.14525114947E+03  0.14607932928E+03  0.00000000000E+00 0. -1.
        -11    1    3    3    0    0  0.55646998028E+02  0.40282151731E+02  0.54222116835E+02  0.87517301671E+02  0.00000000000E+00 0.  1.
         11    1    3    3    0    0 -0.20517030768E+02 -0.23120754317E+02  0.25623666813E+02  0.40150842241E+02  0.00000000000E+00 0. -1.
         21    1    1    2  502  501 -0.20779969103E+02  0.37327032842E+01  0.38506822549E+02  0.43914867329E+02  0.00000000000E+00 0. -1.
<scales pt_clust_5="13000.00000" pt_clust_6="13000.00000" pt_clust_7="13000.00000" pt_clust_8="13000.00000" pt_clust_9="21.11256"></scales>
<clustering>
<clus scale="   21.113">  1  9  2 -1</clus>
<clus scale="   82.267">  5  6 -1 -1</clus>
<clus scale="   88.512">  1  5  2 -1</clus>
<clus scale="   91.625">  7  8 -1 -1</clus>
<clus scale="   21.113">  1  5  2 -1</clus>
</clustering>
</event>
<event>
 9    2  0.2984928E-005  0.2466543E+03  0.7546771E-02  0.1115506E+00
          4   -1    0    0  502    0  0.00000000000E+00  0.00000000000E+00  0.51204920982E+03  0.51204920982E+03  0.00000000000E+00 0. -1.
         -3   -1    0    0    0  501 -0.00000000000E+00 -0.00000000000E+00 -0.34081776570E+03  0.34081776570E+03  0.00000000000E+00 0.  1.
         23    2    1    2    0    0  0.10904581402E+03 -0.19638122045E+03 -0.22463685944E+03  0.33041857072E+03  0.90874308582E+02 0.  0.
         24    2    1    2    0    0 -0.11034551389E+03  0.22702730096E+03  0.22972004097E+03  0.35349244416E+03  0.92022187736E+02 0.  0.
        -13    1    4    4    0    0 -0.29082569647E+01  0.98328555016E+02  0.10947685831E+03  0.14718065497E+03  0.00000000000E+00 0.  1.
         14    1    4    4    0    0 -0.10743725693E+03  0.12869874594E+03  0.12024318266E+03  0.20631178919E+03  0.00000000000E+00 0. -1.
        -13    1    3    3    0    0  0.11199457118E+03 -0.11589909304E+03 -0.16061431525E+03  0.22753536429E+03  0.00000000000E+00 0.  1.
         13    1    3    3    0    0 -0.29487571578E+01 -0.80482127409E+02 -0.64022544191E+02  0.10288320643E+03  0.00000000000E+00 0. -1.
         21    1    1    2  502  501  0.12996998763E+01 -0.30646080513E+02  0.16614826259E+03  0.16895596063E+03  0.00000000000E+00 0. -1.
<scales pt_clust_5="13000.00000" pt_clust_6="13000.00000" pt_clust_7="13000.00000" pt_clust_8="13000.00000" pt_clust_9="30.67363"></scales>
<clustering>
<clus scale="   30.674">  1  9  2 -1</clus>
<clus scale="   90.874">  7  8 -1 -1</clus>
<clus scale="   92.022">  5  6 -1 -1</clus>
<clus scale="  246.228">  2  7  1 -1</clus>
<clus scale="   30.674">  1  5  2 -1</clus>
</clustering>
</event>
<event>
 9    2  0.2984928E-005  0.1370491E+03  0.7546771E-02  0.1239947E+00
         -3   -1    0    0    0  501 -0.00000000000E+00  0.00000000000E+00  0.31206910185E+03  0.31206910185E+03  0.00000000000E+00 0.  1.
          4   -1    0    0  502    0  0.00000000000E+00 -0.00000000000E+00 -0.13194859161E+03  0.13194859161E+03  0.00000000000E+00 0. -1.
         23    2    1    2    0    0  0.59904621256E+02 -0.90769270202E+02  0.22009846970E+03  0.26214145106E+03  0.91908541156E+02 0.  0.
         24    2    1    2    0    0 -0.30511786205E+01  0.24457137485E+02 -0.39530935313E+02  0.94527443231E+02  0.82251330763E+02 0.  0.
        -11    1    4    4    0    0 -0.31858537056E+02  0.40713710725E+02 -0.16668823987E+02  0.54317790064E+02  0.00000000000E+00 0.  1.
         12    1    4    4    0    0  0.28807358436E+02 -0.16256573240E+02 -0.22862111326E+02  0.40209653167E+02  0.00000000000E+00 0. -1.
        -11    1    3    3    0    0 -0.13184872852E+02 -0.19385981974E+02  0.49406153882E+01  0.23959692185E+02  0.00000000000E+00 0.  1.
         11    1    3    3    0    0  0.73089494108E+02 -0.71383288228E+02  0.21515785431E+03  0.23818175887E+03  0.00000000000E+00 0. -1.
         21    1    1    2  502  501 -0.56853442635E+02  0.66312132717E+02 -0.44702414424E+00  0.87348799165E+02  0.00000000000E+00 0.  1.
<scales pt_clust_5="13000.00000" pt_clust_6="13000.00000" pt_clust_7="13000.00000" pt_clust_8="13000.00000" pt_clust_9="101.66249"></scales>
<clustering>
<clus scale="   82.251">  5  6 -1 -1</clus>
<clus scale="   85.865">  2  5  1 -1</clus>
<clus scale="   91.909">  7  8 -1 -1</clus>
<clus scale="  101.662">  2  9  1 -1</clus>
<clus scale="   85.865">  2  5  1 -1</clus>
</clustering>
</event>
<event>
 9    2  0.2984928E-005  0.1063324E+03  0.7546771E-02  0.1271611E+00
          2   -1    0    0  502    0  0.00000000000E+00  0.00000000000E+00  0.11354182818E+03  0.11354182818E+03  0.00000000000E+00 0. -1.
         -1   -1    0    0    0  501 -0.00000000000E+00 -0.00000000000E+00 -0.28694162352E+03  0.28694162352E+03  0.00000000000E+00 0.  1.
         23    2    1    2    0    0  0.50040405123E+02  0.18896762882E+02 -0.22767127079E+03  0.25056459771E+03  0.89929307183E+02 0.  0.
         24    2    1    2    0    0 -0.76114135529E+02 -0.21292610641E+02  0.36844799029E+02  0.11846621411E+03  0.80187079855E+02 0.  0.
        -11    1    4    4    0    0 -0.73620118398E+02 -0.46185367173E+02  0.23117519507E+02  0.89930137785E+02  0.00000000000E+00 0.  1.
         12    1    4    4    0    0 -0.24940171308E+01  0.24892756531E+02  0.13727279522E+02  0.28536076329E+02  0.00000000000E+00 0. -1.
        -13    1    3    3    0    0 -0.23979704117E+02  0.26516908471E+01 -0.92553460937E+02  0.95646227344E+02  0.00000000000E+00 0.  1.
         13    1    3    3    0    0  0.74020109240E+02  0.16245072035E+02 -0.13511780985E+03  0.15491837037E+03  0.00000000000E+00 0. -1.
         21    1    1    2  502  501  0.26073730406E+02  0.23958477594E+01  0.17426676430E+02  0.31452639876E+02  0.00000000000E+00 0.  1.
<scales pt_clust_5="13000.00000" pt_clust_6="13000.00000" pt_clust_7="13000.00000" pt_clust_8="13000.00000" pt_clust_9="26.18357"></scales>
<clustering>
<clus scale="   26.184">  1  9  2 -1</clus>
<clus scale="   80.187">  5  6 -1 -1</clus>
<clus scale="   89.929">  7  8 -1 -1</clus>
<clus scale="   98.231">  1  5  2 -1</clus>
<clus scale="   26.184">  1  5  2 -1</clus>
</clustering>
</event>
<event>
 9    2  0.2984928E-005  0.1617078E+03  0.7546771E-02  0.1187832E+00
          2   -1    0    0  502    0  0.00000000000E+00  0.00000000000E+00  0.61547098082E+03  0.61547098082E+03  0.00000000000E+00 0. -1.
         -1   -1    0    0    0  501 -0.00000000000E+00 -0.00000000000E+00 -0.12380549368E+03  0.12380549368E+03  0.00000000000E+00 0.  1.
         23    2    1    2    0    0 -0.14730756027E+03  0.20171148185E+02 -0.33541620435E+02  0.17687240612E+03  0.89735250661E+02 0.  0.
         24    2    1    2    0    0  0.83220637921E+02  0.23249121685E+02  0.26196064360E+03  0.28801173203E+03  0.82832256755E+02 0.  0.
        -13    1    4    4    0    0  0.24157959905E+02 -0.29549507433E+02  0.11335482237E+03  0.11960809408E+03  0.00000000000E+00 0.  1.
         14    1    4    4    0    0  0.59062678015E+02  0.52798629117E+02  0.14860582123E+03  0.16840363795E+03  0.00000000000E+00 0. -1.
        -11    1    3    3    0    0 -0.12410374276E+03  0.51624079292E+02 -0.22752955418E+02  0.13632491156E+03  0.00000000000E+00 0.  1.
         11    1    3    3    0    0 -0.23203817510E+02 -0.31452931107E+02 -0.10788665017E+02  0.40547494560E+02  0.00000000000E+00 0. -1.
         21    1    1    2  502  501  0.64086922353E+02 -0.43420269870E+02  0.26324646398E+03  0.27439233635E+03  0.00000000000E+00 0. -1.
<scales pt_clust_5="13000.00000" pt_clust_6="13000.00000" pt_clust_7="13000.00000" pt_clust_8="13000.00000" pt_clust_9="77.41094"></scales>
<clustering>
<clus scale="   77.411">  1  9  2 -1</clus>
<clus scale="   82.832">  5  6 -1 -1</clus>
<clus scale="   89.735">  7  8 -1 -1</clus>
<clus scale="  157.982">  1  5  2 -1</clus>
<clus scale="   77.411">  1  5  2 -1</clus>
</clustering>
</event>
<event>
 9    2  0.2984928E-005  0.9794376E+02  0.7546771E-02  0.1289468E+00
          4   -1    0    0  502    0  0.00000000000E+00  0.00000000000E+00  0.10315576231E+04  0.10315576231E+04  0.00000000000E+00 0. -1.
         -3   -1    0    0    0  501 -0.00000000000E+00 -0.00000000000E+00 -0.29438349101E+02  0.29438349101E+02  0.00000000000E+00 0.  1.
         23    2    1    2    0    0  0.56238026778E+02 -0.10364770216E+02  0.93143617088E+02  0.14172568464E+03  0.90223567685E+02 0.  0.
         24    2    1    2    0    0 -0.36283470571E+02 -0.41463243121E+01  0.85852906363E+03  0.86311323144E+03  0.80985276157E+02 0.  0.
        -11    1    4    4    0    0 -0.71687644500E+01  0.30564424575E+02  0.15615121593E+03  0.15927579059E+03  0.00000000000E+00 0.  1.
         12    1    4    4    0    0 -0.29114706121E+02 -0.34710748887E+02  0.70237784770E+03  0.70383744085E+03  0.00000000000E+00 0. -1.
        -13    1    3    3    0    0 -0.23837107990E+02 -0.96334627105E+01  0.31551266722E+02  0.40700046104E+02  0.00000000000E+00 0. -1.
         13    1    3    3    0    0  0.80075134767E+02 -0.73130750592E+00  0.61592350366E+02  0.10102563854E+03  0.00000000000E+00 0.  1.
         21    1    1    2  502  501 -0.19954556206E+02  0.14511094529E+02  0.50446593281E+02  0.56157056115E+02  0.00000000000E+00 0. -1.
<scales pt_clust_5="13000.00000" pt_clust_6="13000.00000" pt_clust_7="13000.00000" pt_clust_8="13000.00000" pt_clust_9="24.67298"></scales>
<clustering>
<clus scale="   24.673">  2  9  1 -1</clus>
<clus scale="   80.985">  5  6 -1 -1</clus>
<clus scale="   89.506">  1  5  2 -1</clus>
<clus scale="   90.224">  7  8 -1 -1</clus>
<clus scale="   89.506">  1  5  2 -1</clus>
</clustering>
</event>
<event>
 9    2  0.2984928E-005  0.1402982E+03  0.7546771E-02  0.1215532E+00
         -3   -1    0    0    0  501 -0.00000000000E+00  0.00000000000E+00  0.22269801283E+03  0.22269801283E+03  0.00000000000E+00 0.  1.
          4   -1    0    0  502    0  0.00000000000E+00 -0.00000000000E+00 -0.99896150003E+02  0.99896150003E+02  0.00000000000E+00 0. -1.
         23    2    1    2    0    0  0.10461087519E+03  0.47446228748E+02  0.67807891140E+02  0.16082520634E+03  0.89845740375E+02 0.  0.
         24    2    1    2    0    0 -0.84992973213E+02 -0.58200121357E+02  0.40665170941E+02  0.13520163041E+03  0.77554916780E+02 0.  0.
        -13    1    4    4    0    0 -0.58630861858E+02 -0.33520051003E+02  0.63315252671E+02  0.92574256693E+02  0.00000000000E+00 0.  1.
         14    1    4    4    0    0 -0.26362111355E+02 -0.24680070354E+02 -0.22650081730E+02  0.42627373719E+02  0.00000000000E+00 0. -1.
        -13    1    3    3    0    0  0.62737866771E+02  0.73406049853E+02  0.44631645040E+02  0.10637890684E+03  0.00000000000E+00 0.  1.
         13    1    3    3    0    0  0.41873008419E+02 -0.25959821105E+02  0.23176246101E+02  0.54446299499E+02  0.00000000000E+00 0. -1.
         21    1    1    2  502  501 -0.19617901977E+02  0.10753892609E+02  0.14328800745E+02  0.26567326079E+02  0.00000000000E+00 0. -1.
<scales pt_clust_5="13000.00000" pt_clust_6="13000.00000" pt_clust_7="13000.00000" pt_clust_8="13000.00000" pt_clust_9="22.37204"></scales>
<clustering>
<clus scale="   22.372">  1  9  2 -1</clus>
<clus scale="   77.555">  5  6 -1 -1</clus>
<clus scale="   89.846">  7  8 -1 -1</clus>
<clus scale="  132.763">  2  5  1 -1</clus>
<clus scale="  132.763">  2  5  1 -1</clus>
</clustering>
</event>
<event>
 9    2  0.2984928E-005  0.1059581E+03  0.7546771E-02  0.1273593E+00
         -1   -1    0    0    0  501 -0.00000000000E+00  0.00000000000E+00  0.18058992871E+03  0.18058992871E+03  0.00000000000E+00 0.  1.
          2   -1    0    0  502    0  0.00000000000E+00 -0.00000000000E+00 -0.11108684409E+03  0.11108684409E+03  0.00000000000E+00 0. -1.
         24    2    1    2    0    0 -0.11114109127E+02  0.38454215026E+02  0.73451427133E+02  0.11585593581E+03  0.80157567575E+02 0.  0.
         23    2    1    2    0    0  0.39597814803E+02 -0.76190974968E+02  0.10163897448E+02  0.12647978049E+03  0.92308062792E+02 0.  0.
        -13    1    3    3    0    0 -0.29396685194E+02  0.25945280829E+02  0.82952509079E+02  0.91752065155E+02  0.00000000000E+00 0.  1.
         14    1    3    3    0    0  0.18282576067E+02  0.12508934197E+02 -0.95010819462E+01  0.24103870655E+02  0.00000000000E+00 0. -1.
        -13    1    4    4    0    0  0.47839017738E+02 -0.52696748808E+02 -0.31588435584E+02  0.77867504234E+02  0.00000000000E+00 0. -1.
         13    1    4    4    0    0 -0.82412029350E+01 -0.23494226160E+02  0.41752333032E+02  0.48612276251E+02  0.00000000000E+00 0.  1.
         21    1    1    2  502  501 -0.28483705676E+02  0.37736759942E+02 -0.14112239958E+02  0.49341056500E+02  0.00000000000E+00 0.  1.
<scales pt_clust_5="13000.00000" pt_clust_6="13000.00000" pt_clust_7="13000.00000" pt_clust_8="13000.00000" pt_clust_9="47.27985"></scales>
<clustering>
<clus scale="   47.280">  2  9  1 -1</clus>
<clus scale="   80.158">  5  6 -1 -1</clus>
<clus scale="   92.308">  7  8 -1 -1</clus>
<clus scale="   95.559">  1  5  2 -1</clus>
<clus scale="   47.280">  2  5  1 -1</clus>
</clustering>
</event>
<event>
 9    2  0.2984928E-005  0.1240523E+03  0.7546771E-02  0.1238774E+00
         -1   -1    0    0    0  501 -0.00000000000E+00  0.00000000000E+00  0.81807513904E+02  0.81807513904E+02  0.00000000000E+00 0.  1.
          2   -1    0    0  502    0  0.00000000000E+00 -0.00000000000E+00 -0.21773711338E+03  0.21773711338E+03  0.00000000000E+00 0. -1.
         23    2    1    2    0    0  0.46496180614E+02  0.79043480643E+02 -0.54543395124E+02  0.13857389808E+03  0.88419322742E+02 0.  0.
         24    2    1    2    0    0 -0.57422242666E+02 -0.61868499986E+02 -0.77970455196E+02  0.14033032866E+03  0.80549264514E+02 0.  0.
        -11    1    4    4    0    0 -0.89506079915E+01 -0.62794208581E+02 -0.24089798587E+02  0.67849424543E+02  0.00000000000E+00 0.  1.
         12    1    4    4    0    0 -0.48471634675E+02  0.92570859570E+00 -0.53880656609E+02  0.72480904113E+02  0.00000000000E+00 0. -1.
        -11    1    3    3    0    0  0.66588161791E+02  0.51088081694E+02 -0.13505563990E+02  0.85008091618E+02  0.00000000000E+00 0.  1.
         11    1    3    3    0    0 -0.20091981177E+02  0.27955398949E+02 -0.41037831134E+02  0.53565806464E+02  0.00000000000E+00 0. -1.
         21    1    1    2  502  501  0.10926062052E+02 -0.17174980657E+02 -0.34157491604E+01  0.20640400550E+02  0.00000000000E+00 0.  1.
<scales pt_clust_5="13000.00000" pt_clust_6="13000.00000" pt_clust_7="13000.00000" pt_clust_8="13000.00000" pt_clust_9="20.35580"></scales>
<clustering>
<clus scale="   20.356">  1  9  2 -1</clus>
<clus scale="   80.549">  5  6 -1 -1</clus>
<clus scale="   88.419">  7  8 -1 -1</clus>
<clus scale="  118.571">  2  5  1 -1</clus>
<clus scale="  118.571">  2  5  1 -1</clus>
</clustering>
</event>
<event>
 9    2  0.2984928E-005  0.1094688E+03  0.7546771E-02  0.1264156E+00
         -1   -1    0    0    0  501 -0.00000000000E+00  0.00000000000E+00  0.25556031606E+02  0.25556031606E+02  0.00000000000E+00 0.  1.
          2   -1    0    0  502    0  0.00000000000E+00 -0.00000000000E+00 -0.97897787036E+03  0.97897787036E+03  0.00000000000E+00 0. -1.
         23    2    1    2    0    0 -0.67168697527E+02 -0.65812103250E+02 -0.20615412224E+03  0.24311908166E+03  0.88116393995E+02 0.  0.
         24    2    1    2    0    0  0.40988512624E+02  0.42359898117E+02 -0.65553260668E+03  0.66317664857E+03  0.81276378273E+02 0.  0.
        -13    1    4    4    0    0  0.18461032942E+02  0.20733334815E+02 -0.52956574183E+02  0.59791969854E+02  0.00000000000E+00 0.  1.
         14    1    4    4    0    0  0.22527479682E+02  0.21626563302E+02 -0.60257603249E+03  0.60338467872E+03  0.00000000000E+00 0. -1.
        -11    1    3    3    0    0 -0.58033774993E+02 -0.15972019132E+01 -0.61418334561E+02  0.84514388800E+02  0.00000000000E+00 0.  1.
         11    1    3    3    0    0 -0.91349225332E+01 -0.64214901336E+02 -0.14473578768E+03  0.15860469286E+03  0.00000000000E+00 0. -1.
         21    1    1    2  502  501  0.26180184903E+02  0.23452205133E+02 -0.91735109841E+02  0.98238171730E+02  0.00000000000E+00 0. -1.
<scales pt_clust_5="13000.00000" pt_clust_6="13000.00000" pt_clust_7="13000.00000" pt_clust_8="13000.00000" pt_clust_9="35.14837"></scales>
<clustering>
<clus scale="   35.148">  1  9  2 -1</clus>
<clus scale="   81.276">  5  6 -1 -1</clus>
<clus scale="   88.116">  7  8 -1 -1</clus>
<clus scale="  104.042">  2  5  1 -1</clus>
<clus scale="  104.042">  2  5  1 -1</clus>
</clustering>
</event>
<event>
 9    2  0.2984928E-005  0.1653910E+03  0.7546771E-02  0.1184253E+00
         -1   -1    0    0    0  501 -0.00000000000E+00  0.00000000000E+00  0.15731428960E+03  0.15731428960E+03  0.00000000000E+00 0.  1.
          2   -1    0    0  502    0  0.00000000000E+00 -0.00000000000E+00 -0.25099602030E+03  0.25099602030E+03  0.00000000000E+00 0. -1.
         23    2    1    2    0    0 -0.76021968491E+01  0.14459630154E+03  0.45899234319E+02  0.17723085962E+03  0.91313493393E+02 0.  0.
         24    2    1    2    0    0  0.33163985201E+02 -0.12013719818E+03 -0.10869669292E+03  0.18411679465E+03  0.80939648603E+02 0.  0.
        -11    1    4    4    0    0  0.43755614054E+02 -0.20774572660E+02 -0.40500265251E+02  0.63138008488E+02  0.00000000000E+00 0.  1.
         12    1    4    4    0    0 -0.10591628853E+02 -0.99362625523E+02 -0.68196427674E+02  0.12097878616E+03  0.00000000000E+00 0. -1.
        -11    1    3    3    0    0 -0.41821476172E+02  0.31916520856E+02  0.22239116745E+02  0.57116359183E+02  0.00000000000E+00 0. -1.
         11    1    3    3    0    0  0.34219279323E+02  0.11267978068E+03  0.23660117575E+02  0.12011450044E+03  0.00000000000E+00 0.  1.
         21    1    1    2  502  501 -0.25561788352E+02 -0.24459103352E+02 -0.30884272095E+02  0.46962655625E+02  0.00000000000E+00 0. -1.
<scales pt_clust_5="13000.00000" pt_clust_6="13000.00000" pt_clust_7="13000.00000" pt_clust_8="13000.00000" pt_clust_9="35.37870"></scales>
<clustering>
<clus scale="   35.379">  2  9  1 -1</clus>
<clus scale="   80.940">  5  6 -1 -1</clus>
<clus scale="   91.313">  7  8 -1 -1</clus>
<clus scale="  159.898">  2  5  1 -1</clus>
<clus scale="   35.379">  2  5  1 -1</clus>
</clustering>
</event>
<event>
 9    2  0.2984928E-005  0.3458642E+03  0.7546771E-02  0.1099344E+00
          2   -1    0    0  502    0  0.00000000000E+00  0.00000000000E+00  0.36463755897E+04  0.36463755897E+04  0.00000000000E+00 0. -1.
         -1   -1    0    0    0  501 -0.00000000000E+00 -0.00000000000E+00 -0.18551910337E+03  0.18551910337E+03  0.00000000000E+00 0.  1.
         23    2    1    2    0    0  0.37221808642E+00 -0.10114166710E+03 -0.12271162172E+03  0.18248445186E+03  0.89513449794E+02 0.  0.
         24    2    1    2    0    0 -0.32242764689E+03  0.14970189257E+03  0.19245719990E+04  0.19587459089E+04  0.79611005189E+02 0.  0.
        -11    1    4    4    0    0 -0.28609561691E+03  0.10623212928E+03  0.15313498803E+04  0.15614635517E+04  0.00000000000E+00 0.  1.
         12    1    4    4    0    0 -0.36332029980E+02  0.43469763291E+02  0.39322211868E+03  0.39728235720E+03  0.00000000000E+00 0. -1.
        -13    1    3    3    0    0  0.36518817091E+02 -0.19796211102E+02 -0.18619060779E+02  0.45521241196E+02  0.00000000000E+00 0. -1.
         13    1    3    3    0    0 -0.36146599005E+02 -0.81345455999E+02 -0.10409256094E+03  0.13696321066E+03  0.00000000000E+00 0.  1.
         21    1    1    2  502  501  0.32205542881E+03 -0.48560225473E+02  0.16589961090E+04  0.16906643323E+04  0.00000000000E+00 0. -1.
<scales pt_clust_5="13000.00000" pt_clust_6="13000.00000" pt_clust_7="13000.00000" pt_clust_8="13000.00000" pt_clust_9="336.57712"></scales>
<clustering>
<clus scale="   79.611">  5  6 -1 -1</clus>
<clus scale="   89.513">  7  8 -1 -1</clus>
<clus scale="  135.065">  2  7  1 -1</clus>
<clus scale="  336.577">  1  9  2 -1</clus>
<clus scale="  336.577">  1  5  2 -1</clus>
</clustering>
</event>
<event>
 9    2  0.2984928E-005  0.9202391E+02  0.7546771E-02  0.1303732E+00
         -1   -1    0    0    0  501 -0.00000000000E+00  0.00000000000E+00  0.46039684998E+02  0.46039684998E+02  0.00000000000E+00 0.  1.
          2   -1    0    0  502    0  0.00000000000E+00 -0.00000000000E+00 -0.47220682771E+03  0.47220682771E+03  0.00000000000E+00 0. -1.
         24    2    1    2    0    0  0.16397851287E+01  0.53914359589E+01 -0.16402553297E+02  0.83829666201E+02  0.82015929573E+02 0.  0.
         23    2    1    2    0    0 -0.25404566788E+02 -0.32900942334E+02 -0.22851533633E+03  0.24955790154E+03  0.91279917103E+02 0.  0.
        -11    1    3    3    0    0 -0.30734729788E+02  0.28514313688E+02 -0.13029435049E+02  0.43902800343E+02  0.00000000000E+00 0.  1.
         12    1    3    3    0    0  0.32374514916E+02 -0.23122877729E+02 -0.33731182489E+01  0.39926865858E+02  0.00000000000E+00 0. -1.
        -13    1    4    4    0    0  0.29051078637E+02 -0.34616563168E+02 -0.11758584260E+03  0.12597103634E+03  0.00000000000E+00 0. -1.
         13    1    4    4    0    0 -0.54455645425E+02  0.17156208341E+01 -0.11092949372E+03  0.12358686520E+03  0.00000000000E+00 0.  1.
         21    1    1    2  502  501  0.23764781659E+02  0.27509506375E+02 -0.18124925309E+03  0.18485894497E+03  0.00000000000E+00 0. -1.
<scales pt_clust_5="13000.00000" pt_clust_6="13000.00000" pt_clust_7="13000.00000" pt_clust_8="13000.00000" pt_clust_9="36.35296"></scales>
<clustering>
<clus scale="   36.353">  2  9  1 -1</clus>
<clus scale="   82.016">  5  6 -1 -1</clus>
<clus scale="   82.843">  1  5  2 -1</clus>
<clus scale="   91.280">  7  8 -1 -1</clus>
<clus scale="   36.353">  2  5  1 -1</clus>
</clustering>
</event>
<event>
 9    2  0.2984928E-005  0.1033067E+03  0.7546771E-02  0.1279456E+00
         -1   -1    0    0    0  501 -0.00000000000E+00  0.00000000000E+00  0.24062837996E+03  0.24062837996E+03  0.00000000000E+00 0.  1.
          2   -1    0    0  502    0  0.00000000000E+00 -0.00000000000E+00 -0.31324340987E+03  0.31324340987E+03  0.00000000000E+00 0. -1.
         24    2    1    2    0    0  0.15081221850E+02 -0.44702149661E+02  0.21374198459E+03  0.23292047854E+03  0.79627808649E+02 0.  0.
         23    2    1    2    0    0  0.23123514932E+02  0.40007577154E+02 -0.17552015534E+03  0.20362079406E+03  0.92297343800E+02 0.  0.
        -11    1    3    3    0    0  0.31267263461E+02 -0.58585483450E+02  0.12381053395E+03  0.14049536986E+03  0.00000000000E+00 0.  1.
         12    1    3    3    0    0 -0.16186041611E+02  0.13883333789E+02  0.89931450641E+02  0.92425108680E+02  0.00000000000E+00 0. -1.
        -13    1    4    4    0    0  0.12575662582E+02  0.66109524012E+02 -0.15439578370E+03  0.16842409115E+03  0.00000000000E+00 0. -1.
         13    1    4    4    0    0  0.10547852350E+02 -0.26101946858E+02 -0.21124371635E+02  0.35196702913E+02  0.00000000000E+00 0.  1.
         21    1    1    2  502  501 -0.38204736782E+02  0.46945725074E+01 -0.11083685916E+03  0.11733051723E+03  0.00000000000E+00 0. -1.
<scales pt_clust_5="13000.00000" pt_clust_6="13000.00000" pt_clust_7="13000.00000" pt_clust_8="13000.00000" pt_clust_9="38.49209"></scales>
<clustering>
<clus scale="   38.492">  2  9  1 -1</clus>
<clus scale="   79.628">  5  6 -1 -1</clus>
<clus scale="   92.163">  1  5  2 -1</clus>
<clus scale="   92.297">  7  8 -1 -1</clus>
<clus scale="   38.492">  2  5  1 -1</clus>
</clustering>
</event>
<event>
 9    2  0.2984928E-005  0.9683944E+02  0.7546771E-02  0.1293222E+00
          2   -1    0    0  502    0  0.00000000000E+00  0.00000000000E+00  0.65774733826E+03  0.65774733826E+03  0.00000000000E+00 0. -1.
         -1   -1    0    0    0  501 -0.00000000000E+00 -0.00000000000E+00 -0.83952128709E+02  0.83952128709E+02  0.00000000000E+00 0.  1.
         23    2    1    2    0    0 -0.69067581690E+01  0.32411188988E+02 -0.48526936004E+02  0.10862595978E+03  0.91359439245E+02 0.  0.
         24    2    1    2    0    0  0.26331266484E+02 -0.12618055692E+02  0.39744232816E+03  0.40649016288E+03  0.80132998081E+02 0.  0.
        -13    1    4    4    0    0  0.47424181766E+02  0.15494663651E+01  0.14053103134E+03  0.14832540116E+03  0.00000000000E+00 0.  1.
         14    1    4    4    0    0 -0.21092915282E+02 -0.14167522057E+02  0.25691129682E+03  0.25816476172E+03  0.00000000000E+00 0. -1.
        -13    1    3    3    0    0  0.31884537409E+02 -0.14506649445E+02 -0.26355316955E+02  0.43836849062E+02  0.00000000000E+00 0. -1.
         13    1    3    3    0    0 -0.38791295578E+02  0.46917838433E+02 -0.22171619048E+02  0.64789110713E+02  0.00000000000E+00 0.  1.
         21    1    1    2  502  501 -0.19424508315E+02 -0.19793133295E+02  0.22487981739E+03  0.22658334431E+03  0.00000000000E+00 0.  1.
<scales pt_clust_5="13000.00000" pt_clust_6="13000.00000" pt_clust_7="13000.00000" pt_clust_8="13000.00000" pt_clust_9="27.73229"></scales>
<clustering>
<clus scale="   27.732">  1  9  2 -1</clus>
<clus scale="   80.133">  5  6 -1 -1</clus>
<clus scale="   86.329">  1  5  2 -1</clus>
<clus scale="   91.359">  7  8 -1 -1</clus>
<clus scale="   27.732">  1  5  2 -1</clus>
</clustering>
</event>
<event>
 9    2  0.2984928E-005  0.1590323E+03  0.7546771E-02  0.1191432E+00
         -1   -1    0    0    0  501 -0.00000000000E+00  0.00000000000E+00  0.54946932227E+02  0.54946932227E+02  0.00000000000E+00 0.  1.
          2   -1    0    0  502    0  0.00000000000E+00 -0.00000000000E+00 -0.72143826748E+03  0.72143826748E+03  0.00000000000E+00 0. -1.
         23    2    1    2    0    0 -0.10152581133E+03 -0.10943314520E+03 -0.19512890001E+03  0.26181156028E+03  0.90481499982E+02 0.  0.
         24    2    1    2    0    0  0.10053353700E+03  0.40761283129E+02 -0.35060866636E+03  0.37565538308E+03  0.80137729223E+02 0.  0.
        -13    1    4    4    0    0  0.10219181610E+03  0.12084106830E+02 -0.23520694433E+03  0.25673235008E+03  0.00000000000E+00 0.  1.
         14    1    4    4    0    0 -0.16582791057E+01  0.28677176298E+02 -0.11540172203E+03  0.11892303300E+03  0.00000000000E+00 0. -1.
        -11    1    3    3    0    0 -0.73622192224E+01 -0.49453772963E+02 -0.11188898723E+03  0.12255212521E+03  0.00000000000E+00 0.  1.
         11    1    3    3    0    0 -0.94163592108E+02 -0.59979372242E+02 -0.83239912785E+02  0.13925943506E+03  0.00000000000E+00 0. -1.
         21    1    1    2  502  501  0.99227433526E+00  0.68671862076E+02 -0.12075376888E+03  0.13891825635E+03  0.00000000000E+00 0. -1.
<scales pt_clust_5="13000.00000" pt_clust_6="13000.00000" pt_clust_7="13000.00000" pt_clust_8="13000.00000" pt_clust_9="68.67903"></scales>
<clustering>
<clus scale="   68.679">  2  9  1 -1</clus>
<clus scale="   80.138">  5  6 -1 -1</clus>
<clus scale="   90.481">  7  8 -1 -1</clus>
<clus scale="  153.383">  2  5  1 -1</clus>
<clus scale="   68.679">  2  5  1 -1</clus>
</clustering>
</event>
<event>
 9    2  0.2984928E-005  0.1291709E+03  0.7546771E-02  0.1231835E+00
          2   -1    0    0  502    0  0.00000000000E+00  0.00000000000E+00  0.72705724613E+03  0.72705724613E+03  0.00000000000E+00 0. -1.
         -1   -1    0    0    0  501 -0.00000000000E+00 -0.00000000000E+00 -0.22225105319E+03  0.22225105319E+03  0.00000000000E+00 0.  1.
         24    2    1    2    0    0 -0.66969585418E+02  0.67032652786E+02 -0.19119794730E+03  0.22759910532E+03  0.79160569606E+02 0.  0.
         23    2    1    2    0    0  0.10542460338E+02 -0.54692578386E+02  0.24812997364E+03  0.27012579420E+03  0.91088085228E+02 0.  0.
        -11    1    3    3    0    0 -0.82600546411E+01  0.63446542128E+02 -0.11139056298E+03  0.12845835797E+03  0.00000000000E+00 0.  1.
         12    1    3    3    0    0 -0.58709530777E+02  0.35861106581E+01 -0.79807384317E+02  0.99140747351E+02  0.00000000000E+00 0. -1.
        -11    1    4    4    0    0 -0.37175457784E+02 -0.11197871460E+02  0.12780516145E+03  0.13357232603E+03  0.00000000000E+00 0.  1.
         11    1    4    4    0    0  0.47717918123E+02 -0.43494706926E+02  0.12032481219E+03  0.13655346817E+03  0.00000000000E+00 0. -1.
         21    1    1    2  502  501  0.56427125079E+02 -0.12340074400E+02  0.44787416660E+03  0.45158339981E+03  0.00000000000E+00 0. -1.
<scales pt_clust_5="13000.00000" pt_clust_6="13000.00000" pt_clust_7="13000.00000" pt_clust_8="13000.00000" pt_clust_9="57.76069"></scales>
<clustering>
<clus scale="   57.761">  1  9  2 -1</clus>
<clus scale="   79.161">  5  6 -1 -1</clus>
<clus scale="   91.088">  7  8 -1 -1</clus>
<clus scale="  121.056">  2  5  1 -1</clus>
<clus scale="   57.761">  1  5  2 -1</clus>
</clustering>
</event>
<event>
 9    2  0.2984928E-005  0.2016102E+03  0.7546771E-02  0.1149591E+00
          2   -1    0    0  502    0  0.00000000000E+00  0.00000000000E+00  0.14751890777E+03  0.14751890777E+03  0.00000000000E+00 0. -1.
         -1   -1    0    0    0  501 -0.00000000000E+00 -0.00000000000E+00 -0.41692863026E+03  0.41692863026E+03  0.00000000000E+00 0.  1.
         24    2    1    2    0    0  0.94249116337E+02  0.15739089752E+03 -0.28860924256E+03  0.35126427710E+03  0.80227843819E+02 0.  0.
         23    2    1    2    0    0 -0.85645219718E+02 -0.13792352656E+03  0.29514119784E+02  0.18953169572E+03  0.93237211334E+02 0.  0.
        -13    1    3    3    0    0  0.76492181820E+02  0.11742620318E+03 -0.26904299230E+03  0.30335474082E+03  0.00000000000E+00 0.  1.
         14    1    3    3    0    0  0.17756934517E+02  0.39964694341E+02 -0.19566250257E+02  0.47909536277E+02  0.00000000000E+00 0. -1.
        -13    1    4    4    0    0 -0.60618912865E+02 -0.73833380948E+02  0.61544117350E+02  0.11363845792E+03  0.00000000000E+00 0. -1.
         13    1    4    4    0    0 -0.25026306852E+02 -0.64090145616E+02 -0.32029997565E+02  0.75893237800E+02  0.00000000000E+00 0.  1.
         21    1    1    2  502  501 -0.86038966196E+01 -0.19467370955E+02 -0.10314599717E+02  0.23651565197E+02  0.00000000000E+00 0. -1.
<scales pt_clust_5="13000.00000" pt_clust_6="13000.00000" pt_clust_7="13000.00000" pt_clust_8="13000.00000" pt_clust_9="21.28393"></scales>
<clustering>
<clus scale="   21.284">  1  9  2 -1</clus>
<clus scale="   80.228">  5  6 -1 -1</clus>
<clus scale="   93.237">  7  8 -1 -1</clus>
<clus scale="  195.934">  2  5  1 -1</clus>
<clus scale="   21.284">  1  5  2 -1</clus>
</clustering>
</event>
<event>
 9    2  0.2984928E-005  0.1308271E+03  0.7546771E-02  0.1228625E+00
          2   -1    0    0  502    0  0.00000000000E+00  0.00000000000E+00  0.65676822763E+02  0.65676822763E+02  0.00000000000E+00 0. -1.
         -1   -1    0    0    0  501 -0.00000000000E+00 -0.00000000000E+00 -0.35803010696E+03  0.35803010696E+03  0.00000000000E+00 0.  1.
         23    2    1    2    0    0 -0.33275132016E+02 -0.94948864913E+02 -0.17929362844E+03  0.22473979923E+03  0.90770318924E+02 0.  0.
         24    2    1    2    0    0 -0.57968681188E+01  0.90187518199E+02 -0.10014123983E+03  0.15754036274E+03  0.81383695278E+02 0.  0.
        -11    1    4    4    0    0  0.37663244541E+02  0.43863991935E+02 -0.53093842945E+02  0.78495387995E+02  0.00000000000E+00 0.  1.
         12    1    4    4    0    0 -0.43460112660E+02  0.46323526264E+02 -0.47047396887E+02  0.79044974741E+02  0.00000000000E+00 0. -1.
        -11    1    3    3    0    0 -0.88423830574E+01 -0.25164910245E+02 -0.13697544888E+03  0.13954832153E+03  0.00000000000E+00 0.  1.
         11    1    3    3    0    0 -0.24432748959E+02 -0.69783954668E+02 -0.42318179561E+02  0.85191477697E+02  0.00000000000E+00 0. -1.
         21    1    1    2  502  501  0.39072000135E+02  0.47613467143E+01 -0.12918415925E+02  0.41426767761E+02  0.00000000000E+00 0.  1.
<scales pt_clust_5="13000.00000" pt_clust_6="13000.00000" pt_clust_7="13000.00000" pt_clust_8="13000.00000" pt_clust_9="39.36104"></scales>
<clustering>
<clus scale="   39.361">  1  9  2 -1</clus>
<clus scale="   81.384">  5  6 -1 -1</clus>
<clus scale="   90.770">  7  8 -1 -1</clus>
<clus scale="  124.498">  1  5  2 -1</clus>
<clus scale="   39.361">  1  5  2 -1</clus>
</clustering>
</event>
<event>
 9    2  0.2984928E-005  0.3150565E+03  0.7546771E-02  0.1114594E+00
         -3   -1    0    0    0  501 -0.00000000000E+00  0.00000000000E+00  0.46754021466E+03  0.46754021466E+03  0.00000000000E+00 0.  1.
          4   -1    0    0  502    0  0.00000000000E+00 -0.00000000000E+00 -0.64176356656E+03  0.64176356656E+03  0.00000000000E+00 0. -1.
         23    2    1    2    0    0  0.23734135101E+03  0.17686661658E+03  0.30512556094E+03  0.43483166979E+03  0.91456307334E+02 0.  0.
         24    2    1    2    0    0 -0.12327580595E+02  0.89194380706E+02 -0.82575539998E+02  0.14641078871E+03  0.80683284837E+02 0.  0.
        -13    1    4    4    0    0 -0.34574637134E+02  0.13613185879E+02 -0.47132556240E+02  0.60018349031E+02  0.00000000000E+00 0.  1.
         14    1    4    4    0    0  0.22247056539E+02  0.75581194827E+02 -0.35442983758E+02  0.86392439680E+02  0.00000000000E+00 0. -1.
        -13    1    3    3    0    0  0.12059666837E+03  0.14536898686E+03  0.18520959796E+03  0.26453410733E+03  0.00000000000E+00 0.  1.
         13    1    3    3    0    0  0.11674468264E+03  0.31497629721E+02  0.11991596298E+03  0.17029756246E+03  0.00000000000E+00 0. -1.
         21    1    1    2  502  501 -0.22501377042E+03 -0.26606099729E+03 -0.39677337285E+03  0.52806132272E+03  0.00000000000E+00 0. -1.
<scales pt_clust_5="13000.00000" pt_clust_6="13000.00000" pt_clust_7="13000.00000" pt_clust_8="13000.00000" pt_clust_9="301.49018"></scales>
<clustering>
<clus scale="   80.683">  5  6 -1 -1</clus>
<clus scale="   91.456">  7  8 -1 -1</clus>
<clus scale="  120.902">  2  5  1 -1</clus>
<clus scale="  301.490">  2  9  1 -1</clus>
<clus scale="  120.902">  2  5  1 -1</clus>
</clustering>
</event>
<event>
 9    2  0.2984928E-005  0.1195814E+03  0.7546771E-02  0.1247731E+00
          2   -1    0    0  502    0  0.00000000000E+00  0.00000000000E+00  0.36260465009E+03  0.36260465009E+03  0.00000000000E+00 0. -1.
         -1   -1    0    0    0  501 -0.00000000000E+00 -0.00000000000E+00 -0.10935176203E+03  0.10935176203E+03  0.00000000000E+00 0.  1.
         23    2    1    2    0    0 -0.33976381314E+02 -0.73240732491E+02 -0.53984614964E+02  0.13348211039E+03  0.91567110678E+02 0.  0.
         24    2    1    2    0    0  0.13451494770E+02  0.47741091025E+02  0.28210610415E+03  0.29720579204E+03  0.79292334672E+02 0.  0.
        -13    1    4    4    0    0  0.41737124972E+02  0.32410351715E+02  0.10898350523E+03  0.12111904438E+03  0.00000000000E+00 0.  1.
         14    1    4    4    0    0 -0.28285630202E+02  0.15330739310E+02  0.17312259892E+03  0.17608674766E+03  0.00000000000E+00 0. -1.
        -13    1    3    3    0    0 -0.50617112031E+02 -0.85238158142E+02 -0.33894629814E+02  0.10476870508E+03  0.00000000000E+00 0.  1.
         13    1    3    3    0    0  0.16640730717E+02  0.11997425652E+02 -0.20089985150E+02  0.28713405308E+02  0.00000000000E+00 0. -1.
         21    1    1    2  502  501  0.20524886544E+02  0.25499641465E+02  0.25131398876E+02  0.41268509689E+02  0.00000000000E+00 0. -1.
<scales pt_clust_5="13000.00000" pt_clust_6="13000.00000" pt_clust_7="13000.00000" pt_clust_8="13000.00000" pt_clust_9="32.73382"></scales>
<clustering>
<clus scale="   32.734">  1  9  2 -1</clus>
<clus scale="   79.292">  5  6 -1 -1</clus>
<clus scale="   91.567">  7  8 -1 -1</clus>
<clus scale="  110.465">  1  5  2 -1</clus>
<clus scale="   32.734">  1  5  2 -1</clus>
</clustering>
</event>
<event>
 9    2  0.2984928E-005  0.1333835E+03  0.7546771E-02  0.1223819E+00
          2   -1    0    0  502    0  0.00000000000E+00  0.00000000000E+00  0.13200783466E+03  0.13200783466E+03  0.00000000000E+00 0. -1.
         -1   -1    0    0    0  501 -0.00000000000E+00 -0.00000000000E+00 -0.17824471217E+03  0.17824471217E+03  0.00000000000E+00 0.  1.
         23    2    1    2    0    0 -0.10548769340E+03 -0.19555607263E+02 -0.87578158220E+02  0.16342467147E+03  0.86761824622E+02 0.  0.
         24    2    1    2    0    0  0.85604972536E+02  0.24278717612E+02  0.34650355106E+02  0.12532441412E+03  0.81165843882E+02 0.  0.
        -11    1    4    4    0    0  0.19639531768E+02 -0.19040934136E+02 -0.15866348944E+02  0.31622925381E+02  0.00000000000E+00 0.  1.
         12    1    4    4    0    0  0.65965440768E+02  0.43319651749E+02  0.50516704050E+02  0.93701488736E+02  0.00000000000E+00 0. -1.
        -11    1    3    3    0    0 -0.98896249867E+02 -0.46828733634E+02 -0.75107870055E+02  0.13271997090E+03  0.00000000000E+00 0.  1.
         11    1    3    3    0    0 -0.65914435343E+01  0.27273126371E+02 -0.12470288165E+02  0.30704700565E+02  0.00000000000E+00 0. -1.
         21    1    1    2  502  501  0.19882720864E+02 -0.47231103491E+01  0.66909256019E+01  0.21503461251E+02  0.00000000000E+00 0. -1.
<scales pt_clust_5="13000.00000" pt_clust_6="13000.00000" pt_clust_7="13000.00000" pt_clust_8="13000.00000" pt_clust_9="20.43601"></scales>
<clustering>
<clus scale="   20.436">  1  9  2 -1</clus>
<clus scale="   81.166">  5  6 -1 -1</clus>
<clus scale="   86.762">  7  8 -1 -1</clus>
<clus scale="  129.813">  1  5  2 -1</clus>
<clus scale="   20.436">  1  5  2 -1</clus>
</clustering>
</event>
<event>
 9    2  0.2984928E-005  0.1589282E+03  0.7546771E-02  0.1192638E+00
          2   -1    0    0  502    0  0.00000000000E+00  0.00000000000E+00  0.88208841883E+02  0.88208841883E+02  0.00000000000E+00 0. -1.
         -1   -1    0    0    0  501 -0.00000000000E+00 -0.00000000000E+00 -0.71638448613E+03  0.71638448613E+03  0.00000000000E+00 0.  1.
         24    2    1    2    0    0 -0.11968968221E+03 -0.10706257663E+02 -0.44036423994E+03  0.46253643045E+03  0.74692982924E+02 0.  0.
         23    2    1    2    0    0  0.18350254416E+03 -0.31216576145E+02 -0.11895458855E+03  0.23924217867E+03  0.91863853473E+02 0.  0.
        -13    1    3    3    0    0 -0.86652921019E+02  0.22294272076E+02 -0.34412767977E+03  0.35556943523E+03  0.00000000000E+00 0.  1.
         14    1    3    3    0    0 -0.33036761186E+02 -0.33000529739E+02 -0.96236560168E+02  0.10696699522E+03  0.00000000000E+00 0. -1.
        -11    1    4    4    0    0  0.10079494628E+03 -0.50137314353E+02 -0.10365703018E+03  0.15302990359E+03  0.00000000000E+00 0.  1.
         11    1    4    4    0    0  0.82707597881E+02  0.18920738208E+02 -0.15297558367E+02  0.86212275075E+02  0.00000000000E+00 0. -1.
         21    1    1    2  502  501 -0.63812861958E+02  0.41922833808E+02 -0.68856815766E+02  0.10281471890E+03  0.00000000000E+00 0.  1.
<scales pt_clust_5="13000.00000" pt_clust_6="13000.00000" pt_clust_7="13000.00000" pt_clust_8="13000.00000" pt_clust_9="76.35185"></scales>
<clustering>
<clus scale="   74.693">  5  6 -1 -1</clus>
<clus scale="   76.352">  1  9  2 -1</clus>
<clus scale="   91.864">  7  8 -1 -1</clus>
<clus scale="  149.660">  2  5  1 -1</clus>
<clus scale="   76.352">  1  5  2 -1</clus>
</clustering>
</event>
<event>
 9    2  0.2984928E-005  0.1497065E+03  0.7546771E-02  0.1203366E+00
         -1   -1    0    0    0  501 -0.00000000000E+00  0.00000000000E+00  0.12859983451E+03  0.12859983451E+03  0.00000000000E+00 0.  1.
          2   -1    0    0  502    0  0.00000000000E+00 -0.00000000000E+00 -0.41155586548E+03  0.41155586548E+03  0.00000000000E+00 0. -1.
         23    2    1    2    0    0 -0.25987431042E+02 -0.11044192350E+03  0.51767343245E+02  0.15604835620E+03  0.93800141837E+02 0.  0.
         24    2    1    2    0    0  0.12382743525E+02  0.13639018476E+03 -0.28985696715E+03  0.33052195149E+03  0.80449264592E+02 0.  0.
        -11    1    4    4    0    0  0.22492988609E+02  0.59789270965E+02 -0.58556837400E+02  0.86657917500E+02  0.00000000000E+00 0.  1.
         12    1    4    4    0    0 -0.10110245085E+02  0.76600913793E+02 -0.23130012975E+03  0.24386403399E+03  0.00000000000E+00 0. -1.
        -11    1    3    3    0    0  0.28087787547E+02 -0.49930850610E+02  0.48115363634E+02  0.74813781281E+02  0.00000000000E+00 0. -1.
         11    1    3    3    0    0 -0.54075218588E+02 -0.60511072889E+02  0.36519796101E+01  0.81234574921E+02  0.00000000000E+00 0.  1.
         21    1    1    2  502  501  0.13604687517E+02 -0.25948261259E+02 -0.44866407066E+02  0.53585392299E+02  0.00000000000E+00 0.  1.
<scales pt_clust_5="13000.00000" pt_clust_6="13000.00000" pt_clust_7="13000.00000" pt_clust_8="13000.00000" pt_clust_9="29.29846"></scales>
<clustering>
<clus scale="   29.298">  2  9  1 -1</clus>
<clus scale="   80.449">  5  6 -1 -1</clus>
<clus scale="   93.800">  7  8 -1 -1</clus>
<clus scale="  141.724">  2  5  1 -1</clus>
<clus scale="   29.298">  2  5  1 -1</clus>
</clustering>
</event>
<event>
 9    2  0.2984928E-005  0.1021313E+03  0.7546771E-02  0.1281242E+00
         -1   -1    0    0    0  501 -0.00000000000E+00  0.00000000000E+00  0.95727843975E+02  0.95727843975E+02  0.00000000000E+00 0.  1.
          2   -1    0    0  502    0  0.00000000000E+00 -0.00000000000E+00 -0.23577936619E+03  0.23577936619E+03  0.00000000000E+00 0. -1.
         23    2    1    2    0    0 -0.30056646464E+02 -0.35107732137E+02  0.45178153171E+02  0.11167152163E+03  0.91068701358E+02 0.  0.
         24    2    1    2    0    0  0.12405995386E+02  0.49014072539E+02 -0.13442675011E+03  0.16428508994E+03  0.79766857811E+02 0.  0.
        -11    1    4    4    0    0  0.28523941340E+02 -0.12150792110E+02 -0.39494438236E+02  0.50210234316E+02  0.00000000000E+00 0.  1.
         12    1    4    4    0    0 -0.16117945954E+02  0.61164864649E+02 -0.94932311869E+02  0.11407485563E+03  0.00000000000E+00 0. -1.
        -13    1    3    3    0    0  0.24399204934E+02 -0.40329754572E+02  0.25061850875E+02  0.53384517180E+02  0.00000000000E+00 0.  1.
         13    1    3    3    0    0 -0.54455851398E+02  0.52220224356E+01  0.20116302297E+02  0.58287004451E+02  0.00000000000E+00 0. -1.
         21    1    1    2  502  501  0.17650651078E+02 -0.13906340402E+02 -0.50802925285E+02  0.55550598596E+02  0.00000000000E+00 0.  1.
<scales pt_clust_5="13000.00000" pt_clust_6="13000.00000" pt_clust_7="13000.00000" pt_clust_8="13000.00000" pt_clust_9="22.47069"></scales>
<clustering>
<clus scale="   22.471">  2  9  1 -1</clus>
<clus scale="   79.767">  5  6 -1 -1</clus>
<clus scale="   91.069">  7  8 -1 -1</clus>
<clus scale="   92.196">  2  5  1 -1</clus>
<clus scale="   22.471">  2  5  1 -1</clus>
</clustering>
</event>
<event>
 9    2  0.2984928E-005  0.1009382E+03  0.7546771E-02  0.1284123E+00
          2   -1    0    0  502    0  0.00000000000E+00  0.00000000000E+00  0.33780677238E+03  0.33780677238E+03  0.00000000000E+00 0. -1.
         -1   -1    0    0    0  501 -0.00000000000E+00 -0.00000000000E+00 -0.19818636670E+03  0.19818636670E+03  0.00000000000E+00 0.  1.
         23    2    1    2    0    0  0.13942875825E+02  0.42601260356E+02 -0.17415836584E+03  0.20165129109E+03  0.91229576543E+02 0.  0.
         24    2    1    2    0    0 -0.10481407371E+02 -0.10085412306E+02  0.24909701319E+03  0.26186432045E+03  0.79448252997E+02 0.  0.
        -11    1    4    4    0    0  0.28981366905E+02  0.15366890212E+02  0.82704212366E+02  0.88972173659E+02  0.00000000000E+00 0.  1.
         12    1    4    4    0    0 -0.39462774276E+02 -0.25452302518E+02  0.16639280082E+03  0.17289214679E+03  0.00000000000E+00 0. -1.
        -11    1    3    3    0    0  0.33028310199E+01  0.70358864474E+02 -0.10571812655E+03  0.12703385684E+03  0.00000000000E+00 0.  1.
         11    1    3    3    0    0  0.10640044805E+02 -0.27757604118E+02 -0.68440239288E+02  0.74617434247E+02  0.00000000000E+00 0. -1.
         21    1    1    2  502  501 -0.34614684536E+01 -0.32515848050E+02  0.64681758327E+02  0.72477527541E+02  0.00000000000E+00 0. -1.
<scales pt_clust_5="13000.00000" pt_clust_6="13000.00000" pt_clust_7="13000.00000" pt_clust_8="13000.00000" pt_clust_9="32.69957"></scales>
<clustering>
<clus scale="   32.700">  1  9  2 -1</clus>
<clus scale="   79.448">  5  6 -1 -1</clus>
<clus scale="   90.431">  1  5  2 -1</clus>
<clus scale="   91.230">  7  8 -1 -1</clus>
<clus scale="   32.700">  1  5  2 -1</clus>
</clustering>
</event>
<event>
 9    2  0.2984928E-005  0.1475484E+03  0.7546771E-02  0.1205684E+00
          2   -1    0    0  502    0  0.00000000000E+00  0.00000000000E+00  0.94098736320E+03  0.94098736320E+03  0.00000000000E+00 0. -1.
         -1   -1    0    0    0  501 -0.00000000000E+00 -0.00000000000E+00 -0.32551994468E+02  0.32551994468E+02  0.00000000000E+00 0.  1.
         23    2    1    2    0    0 -0.40342152823E+02  0.10782126859E+03  0.28030895536E+03  0.31667436680E+03  0.91959930810E+02 0.  0.
         24    2    1    2    0    0  0.82459214331E+02 -0.89154139723E+02  0.49189593447E+03  0.51305590927E+03  0.80726532377E+02 0.  0.
        -13    1    4    4    0    0  0.74460609715E+02 -0.10425452658E+03  0.41706749139E+03  0.43630113579E+03  0.00000000000E+00 0.  1.
         14    1    4    4    0    0  0.79986046151E+01  0.15100386857E+02  0.74828443076E+02  0.76754773481E+02  0.00000000000E+00 0. -1.
        -11    1    3    3    0    0 -0.36602050350E+01  0.83509750620E+02  0.24902756584E+03  0.26268232544E+03  0.00000000000E+00 0.  1.
         11    1    3    3    0    0 -0.36681947788E+02  0.24311517973E+02  0.31281389523E+02  0.53992041359E+02  0.00000000000E+00 0. -1.
         21    1    1    2  502  501 -0.42117061508E+02 -0.18667128870E+02  0.13623047890E+03  0.14380908161E+03  0.00000000000E+00 0. -1.
<scales pt_clust_5="13000.00000" pt_clust_6="13000.00000" pt_clust_7="13000.00000" pt_clust_8="13000.00000" pt_clust_9="46.06852"></scales>
<clustering>
<clus scale="   46.069">  1  9  2 -1</clus>
<clus scale="   80.727">  5  6 -1 -1</clus>
<clus scale="   91.960">  7  8 -1 -1</clus>
<clus scale="  140.821">  1  5  2 -1</clus>
<clus scale="   46.069">  1  5  2 -1</clus>
</clustering>
</event>
<event>
 9    2  0.2984928E-005  0.1449650E+03  0.7546771E-02  0.1217581E+00
          2   -1    0    0  502    0  0.00000000000E+00  0.00000000000E+00  0.11987363382E+04  0.11987363382E+04  0.00000000000E+00 0. -1.
         -1   -1    0    0    0  501 -0.00000000000E+00 -0.00000000000E+00 -0.48653971706E+02  0.48653971706E+02  0.00000000000E+00 0.  1.
         24    2    1    2    0    0 -0.32053350865E+02  0.75891128827E+02  0.88923632152E+02  0.14556934498E+03  0.80598642092E+02 0.  0.
         23    2    1    2    0    0 -0.90147146124E+02 -0.63134570447E+02  0.31115296495E+03  0.34181810614E+03  0.88943623407E+02 0.  0.
        -11    1    3    3    0    0 -0.15704929688E+02  0.39669135536E+02 -0.56006651724E+01  0.43030832912E+02  0.00000000000E+00 0.  1.
         12    1    3    3    0    0 -0.16348421177E+02  0.36221993291E+02  0.94524297324E+02  0.10253851207E+03  0.00000000000E+00 0. -1.
        -13    1    4    4    0    0 -0.22309647000E+02  0.22738868862E+02  0.78248669980E+02  0.84484500709E+02  0.00000000000E+00 0.  1.
         13    1    4    4    0    0 -0.67837499123E+02 -0.85873439310E+02  0.23290429497E+03  0.25733360543E+03  0.00000000000E+00 0. -1.
         21    1    1    2  502  501  0.12220049699E+03 -0.12756558380E+02  0.75000576937E+03  0.76000285877E+03  0.00000000000E+00 0. -1.
<scales pt_clust_5="13000.00000" pt_clust_6="13000.00000" pt_clust_7="13000.00000" pt_clust_8="13000.00000" pt_clust_9="114.47220"></scales>
<clustering>
<clus scale="   80.599">  5  6 -1 -1</clus>
<clus scale="   88.944">  7  8 -1 -1</clus>
<clus scale="  115.252">  2  5  1 -1</clus>
<clus scale="  114.472">  1  9  2 -1</clus>
<clus scale="  114.472">  1  5  2 -1</clus>
</clustering>
</event>
<event>
 9    2  0.2984928E-005  0.9666134E+02  0.7546771E-02  0.1293315E+00
          2   -1    0    0  502    0  0.00000000000E+00  0.00000000000E+00  0.40297788608E+03  0.40297788608E+03  0.00000000000E+00 0. -1.
         -1   -1    0    0    0  501 -0.00000000000E+00 -0.00000000000E+00 -0.52519838329E+02  0.52519838329E+02  0.00000000000E+00 0.  1.
         23    2    1    2    0    0  0.24077093771E+02 -0.19427896465E+02  0.16983181679E+02  0.97617641051E+02  0.91014426213E+02 0.  0.
         24    2    1    2    0    0 -0.40919042342E+02  0.65225015082E+01  0.16545052141E+03  0.18852134916E+03  0.80308860044E+02 0.  0.
        -13    1    4    4    0    0  0.24424129894E+02  0.14308026194E+01  0.37776789096E+02  0.45007456178E+02  0.00000000000E+00 0.  1.
         14    1    4    4    0    0 -0.65343172236E+02  0.50916988888E+01  0.12767373231E+03  0.14351389298E+03  0.00000000000E+00 0. -1.
        -11    1    3    3    0    0  0.61743729846E+01 -0.54320832547E+02  0.20165421876E+02  0.58271090343E+02  0.00000000000E+00 0.  1.
         11    1    3    3    0    0  0.17902720787E+02  0.34892936081E+02 -0.31822401970E+01  0.39346550708E+02  0.00000000000E+00 0. -1.
         21    1    1    2  502  501  0.16841948571E+02  0.12905394957E+02  0.16802434466E+03  0.16935873420E+03  0.00000000000E+00 0. -1.
<scales pt_clust_5="13000.00000" pt_clust_6="13000.00000" pt_clust_7="13000.00000" pt_clust_8="13000.00000" pt_clust_9="21.21793"></scales>
<clustering>
<clus scale="   21.218">  1  9  2 -1</clus>
<clus scale="   80.309">  5  6 -1 -1</clus>
<clus scale="   86.656">  1  5  2 -1</clus>
<clus scale="   91.014">  7  8 -1 -1</clus>
<clus scale="   21.218">  1  5  2 -1</clus>
</clustering>
</event>
<event>
 9    2  0.2984928E-005  0.1195482E+03  0.7546771E-02  0.1249111E+00
         -1   -1    0    0    0  501 -0.00000000000E+00  0.00000000000E+00  0.11775579498E+03  0.11775579498E+03  0.00000000000E+00 0.  1.
          2   -1    0    0  502    0  0.00000000000E+00 -0.00000000000E+00 -0.26105749171E+03  0.26105749171E+03  0.00000000000E+00 0. -1.
         23    2    1    2    0    0  0.92447239264E+01  0.85565731029E+02  0.44363010371E+02  0.13630718968E+03  0.95940679708E+02 0.  0.
         24    2    1    2    0    0 -0.20581623201E+02 -0.22347038586E+02 -0.13174343662E+03  0.15734556124E+03  0.80487882345E+02 0.  0.
        -11    1    4    4    0    0 -0.32606840522E+02  0.19064987636E+02 -0.35293172538E+02  0.51694175980E+02  0.00000000000E+00 0.  1.
         12    1    4    4    0    0  0.12025217321E+02 -0.41412026222E+02 -0.96450264077E+02  0.10565138526E+03  0.00000000000E+00 0. -1.
        -13    1    3    3    0    0 -0.15647184311E+02  0.35878247106E+02  0.65947649005E+02  0.76688821881E+02  0.00000000000E+00 0.  1.
         13    1    3    3    0    0  0.24891908238E+02  0.49687483922E+02 -0.21584638634E+02  0.59618367800E+02  0.00000000000E+00 0. -1.
         21    1    1    2  502  501  0.11336899275E+02 -0.63218692443E+02 -0.55921270490E+02  0.85160535770E+02  0.00000000000E+00 0. -1.
<scales pt_clust_5="13000.00000" pt_clust_6="13000.00000" pt_clust_7="13000.00000" pt_clust_8="13000.00000" pt_clust_9="64.22716"></scales>
<clustering>
<clus scale="   64.227">  2  9  1 -1</clus>
<clus scale="   80.488">  5  6 -1 -1</clus>
<clus scale="   95.941">  7  8 -1 -1</clus>
<clus scale="  107.543">  2  5  1 -1</clus>
<clus scale="   64.227">  2  5  1 -1</clus>
</clustering>
</event>
<event>
 9    2  0.2984928E-005  0.1411447E+03  0.7546771E-02  0.1214257E+00
          2   -1    0    0  502    0  0.00000000000E+00  0.00000000000E+00  0.83827633880E+03  0.83827633880E+03  0.00000000000E+00 0. -1.
         -1   -1    0    0    0  501 -0.00000000000E+00 -0.00000000000E+00 -0.40566337344E+02  0.40566337344E+02  0.00000000000E+00 0.  1.
         23    2    1    2    0    0 -0.96770833368E+02 -0.10119646669E+01  0.20644101335E+03  0.24581556091E+03  0.91879158304E+02 0.  0.
         24    2    1    2    0    0  0.11661299969E+03  0.65185535793E+02  0.36278514536E+03  0.39487417027E+03  0.80403997937E+02 0.  0.
        -13    1    4    4    0    0  0.10313111098E+03  0.20432601972E+02  0.28901338648E+03  0.30754228138E+03  0.00000000000E+00 0.  1.
         14    1    4    4    0    0  0.13481888703E+02  0.44752933820E+02  0.73771758879E+02  0.87331888888E+02  0.00000000000E+00 0. -1.
        -11    1    3    3    0    0  0.10540651463E+02 -0.19845174516E+02  0.53573500340E+02  0.58095234086E+02  0.00000000000E+00 0.  1.
         11    1    3    3    0    0 -0.10731148483E+03  0.18833209849E+02  0.15286751301E+03  0.18772032682E+03  0.00000000000E+00 0. -1.
         21    1    1    2  502  501 -0.19842166319E+02 -0.64173571126E+02  0.22848384275E+03  0.23815294496E+03  0.00000000000E+00 0. -1.
<scales pt_clust_5="13000.00000" pt_clust_6="13000.00000" pt_clust_7="13000.00000" pt_clust_8="13000.00000" pt_clust_9="67.17112"></scales>
<clustering>
<clus scale="   67.171">  1  9  2 -1</clus>
<clus scale="   80.404">  5  6 -1 -1</clus>
<clus scale="   91.879">  7  8 -1 -1</clus>
<clus scale="  133.958">  1  5  2 -1</clus>
<clus scale="   67.171">  1  5  2 -1</clus>
</clustering>
</event>
<event>
 9    2  0.2984928E-005  0.9593750E+02  0.7546771E-02  0.1296541E+00
         -1   -1    0    0    0  501 -0.00000000000E+00  0.00000000000E+00  0.12061679330E+03  0.12061679330E+03  0.00000000000E+00 0.  1.
          2   -1    0    0  502    0  0.00000000000E+00 -0.00000000000E+00 -0.19620771312E+03  0.19620771312E+03  0.00000000000E+00 0. -1.
         23    2    1    2    0    0 -0.11760138544E+02 -0.34517258607E+02  0.75641434042E+02  0.12387392439E+03  0.91067999869E+02 0.  0.
         24    2    1    2    0    0  0.11499884590E+02 -0.58931499336E+01 -0.10831453847E+03  0.13400138585E+03  0.77829015191E+02 0.  0.
        -11    1    4    4    0    0 -0.11931902823E+02  0.19621589257E+02 -0.93579382601E+02  0.96355995755E+02  0.00000000000E+00 0.  1.
         12    1    4    4    0    0  0.23431787412E+02 -0.25514739191E+02 -0.14735155868E+02  0.37645390100E+02  0.00000000000E+00 0. -1.
        -11    1    3    3    0    0  0.35734143189E+02 -0.35032420321E+02  0.45393624470E+02  0.67563160121E+02  0.00000000000E+00 0. -1.
         11    1    3    3    0    0 -0.47494281733E+02  0.51516171333E+00  0.30247809572E+02  0.56310764272E+02  0.00000000000E+00 0.  1.
         21    1    1    2  502  501  0.26025395445E+00  0.40410408541E+02 -0.42917815397E+02  0.58949196169E+02  0.00000000000E+00 0.  1.
<scales pt_clust_5="13000.00000" pt_clust_6="13000.00000" pt_clust_7="13000.00000" pt_clust_8="13000.00000" pt_clust_9="40.41125"></scales>
<clustering>
<clus scale="   40.411">  2  9  1 -1</clus>
<clus scale="   77.829">  5  6 -1 -1</clus>
<clus scale="   83.474">  2  5  1 -1</clus>
<clus scale="   91.068">  7  8 -1 -1</clus>
<clus scale="   40.411">  2  5  1 -1</clus>
</clustering>
</event>
<event>
 9    2  0.2984928E-005  0.1134990E+03  0.7546771E-02  0.1256227E+00
          2   -1    0    0  502    0  0.00000000000E+00  0.00000000000E+00  0.20993775431E+03  0.20993775431E+03  0.00000000000E+00 0. -1.
         -1   -1    0    0    0  501 -0.00000000000E+00 -0.00000000000E+00 -0.14847121257E+03  0.14847121257E+03  0.00000000000E+00 0.  1.
         24    2    1    2    0    0  0.64013808299E+02 -0.39439796865E+02 -0.90807738176E+02  0.14454464738E+03  0.83629208676E+02 0.  0.
         23    2    1    2    0    0 -0.39729484388E+02  0.10238959718E+02  0.14503679394E+03  0.17520169568E+03  0.89312341515E+02 0.  0.
        -13    1    3    3    0    0  0.39662323017E+02 -0.63720272022E+02 -0.76881799890E+02  0.10744386482E+03  0.00000000000E+00 0.  1.
         14    1    3    3    0    0  0.24351485282E+02  0.24280475156E+02 -0.13925938286E+02  0.37100782557E+02  0.00000000000E+00 0. -1.
        -13    1    4    4    0    0 -0.65359189183E+02  0.11855276026E+02  0.12851110172E+03  0.14466331410E+03  0.00000000000E+00 0. -1.
         13    1    4    4    0    0  0.25629704795E+02 -0.16163163072E+01  0.16525692217E+02  0.30538381580E+02  0.00000000000E+00 0.  1.
         21    1    1    2  502  501 -0.24284323911E+02  0.29200837147E+02  0.72374859780E+01  0.38662623827E+02  0.00000000000E+00 0. -1.
<scales pt_clust_5="13000.00000" pt_clust_6="13000.00000" pt_clust_7="13000.00000" pt_clust_8="13000.00000" pt_clust_9="37.97917"></scales>
<clustering>
<clus scale="   37.979">  1  9  2 -1</clus>
<clus scale="   83.629">  5  6 -1 -1</clus>
<clus scale="   89.312">  7  8 -1 -1</clus>
<clus scale="  109.083">  2  5  1 -1</clus>
<clus scale="   37.979">  1  5  2 -1</clus>
</clustering>
</event>
<event>
 9    2  0.2984928E-005  0.2608720E+03  0.7546771E-02  0.1107079E+00
         -1   -1    0    0    0  501 -0.00000000000E+00  0.00000000000E+00  0.81748060491E+03  0.81748060491E+03  0.00000000000E+00 0.  1.
          2   -1    0    0  502    0  0.00000000000E+00 -0.00000000000E+00 -0.33090225001E+03  0.33090225001E+03  0.00000000000E+00 0. -1.
         24    2    1    2    0    0  0.23558649907E+03 -0.58356302291E+02  0.70442886157E+03  0.74948819083E+03  0.81277737524E+02 0.  0.
         23    2    1    2    0    0 -0.26015563054E+03  0.47391153185E+02 -0.13231676890E+03  0.30922919129E+03  0.90488076094E+02 0.  0.
        -11    1    3    3    0    0  0.18495079197E+03 -0.69364321401E+02  0.61709300025E+03  0.64793670639E+03  0.00000000000E+00 0.  1.
         12    1    3    3    0    0  0.50635707108E+02  0.11008019109E+02  0.87335861323E+02  0.10155148444E+03  0.00000000000E+00 0. -1.
        -11    1    4    4    0    0 -0.17130167035E+03  0.72035719296E+02 -0.73382017571E+02  0.19979571473E+03  0.00000000000E+00 0.  1.
         11    1    4    4    0    0 -0.88853960182E+02 -0.24644566111E+02 -0.58934751332E+02  0.10943347657E+03  0.00000000000E+00 0. -1.
         21    1    1    2  502  501  0.24569131462E+02  0.10965149106E+02 -0.85533737763E+02  0.89665472794E+02  0.00000000000E+00 0.  1.
<scales pt_clust_5="13000.00000" pt_clust_6="13000.00000" pt_clust_7="13000.00000" pt_clust_8="13000.00000" pt_clust_9="26.90496"></scales>
<clustering>
<clus scale="   26.905">  2  9  1 -1</clus>
<clus scale="   81.278">  5  6 -1 -1</clus>
<clus scale="   90.488">  7  8 -1 -1</clus>
<clus scale="  257.822">  1  5  2 -1</clus>
<clus scale="   26.905">  2  5  1 -1</clus>
</clustering>
</event>
<event>
 9    2  0.2984928E-005  0.1162244E+03  0.7546771E-02  0.1253546E+00
         -1   -1    0    0    0  501 -0.00000000000E+00  0.00000000000E+00  0.11018856824E+03  0.11018856824E+03  0.00000000000E+00 0.  1.
          2   -1    0    0  502    0  0.00000000000E+00 -0.00000000000E+00 -0.22615432185E+03  0.22615432185E+03  0.00000000000E+00 0. -1.
         23    2    1    2    0    0  0.58584691500E+02 -0.19970185764E+02  0.13109148224E+02  0.11234050835E+03  0.92830844292E+02 0.  0.
         24    2    1    2    0    0 -0.70063748804E+02  0.44846273893E+02 -0.28363740190E+02  0.11963128135E+03  0.81160486324E+02 0.  0.
        -13    1    4    4    0    0 -0.51685120608E+02 -0.22798626209E+01  0.14061185643E+02  0.53612185252E+02  0.00000000000E+00 0.  1.
         14    1    4    4    0    0 -0.18378628196E+02  0.47126136514E+02 -0.42424925833E+02  0.66019096094E+02  0.00000000000E+00 0. -1.
        -13    1    3    3    0    0  0.26926781601E+02  0.73410836492E+01 -0.37467149021E+02  0.46719699617E+02  0.00000000000E+00 0. -1.
         13    1    3    3    0    0  0.31657909900E+02 -0.27311269413E+02  0.50576297244E+02  0.65620808736E+02  0.00000000000E+00 0.  1.
         21    1    1    2  502  501  0.11479057304E+02 -0.24876088129E+02 -0.10071116164E+03  0.10437110039E+03  0.00000000000E+00 0. -1.
<scales pt_clust_5="13000.00000" pt_clust_6="13000.00000" pt_clust_7="13000.00000" pt_clust_8="13000.00000" pt_clust_9="27.39687"></scales>
<clustering>
<clus scale="   27.397">  2  9  1 -1</clus>
<clus scale="   81.160">  5  6 -1 -1</clus>
<clus scale="   92.831">  7  8 -1 -1</clus>
<clus scale="  107.133">  2  5  1 -1</clus>
<clus scale="   27.397">  2  5  1 -1</clus>
</clustering>
</event>
<event>
 9    2  0.2984928E-005  0.1412859E+03  0.7546771E-02  0.1213140E+00
         -1   -1    0    0    0  501 -0.00000000000E+00  0.00000000000E+00  0.30816924000E+03  0.30816924000E+03  0.00000000000E+00 0.  1.
          2   -1    0    0  502    0  0.00000000000E+00 -0.00000000000E+00 -0.19790443276E+03  0.19790443276E+03  0.00000000000E+00 0. -1.
         23    2    1    2    0    0 -0.81340752474E+02 -0.79775460179E+02  0.25687478238E+03  0.29468925238E+03  0.88750546962E+02 0.  0.
         24    2    1    2    0    0  0.69171799305E+02  0.46450211320E+02 -0.10612088237E+03  0.15755113825E+03  0.81353300722E+02 0.  0.
        -13    1    4    4    0    0  0.82083410724E+01  0.21097850377E+02  0.93848491322E+01  0.24506561304E+02  0.00000000000E+00 0.  1.
         14    1    4    4    0    0  0.60963458233E+02  0.25352360943E+02 -0.11550573150E+03  0.13304457695E+03  0.00000000000E+00 0. -1.
        -13    1    3    3    0    0 -0.77909303006E+02 -0.17774773564E+02  0.17063444660E+03  0.18841952244E+03  0.00000000000E+00 0.  1.
         13    1    3    3    0    0 -0.34314494677E+01 -0.62000686615E+02  0.86240335779E+02  0.10626972994E+03  0.00000000000E+00 0. -1.
         21    1    1    2  502  501  0.12168953169E+02  0.33325248859E+02 -0.40489092759E+02  0.53833282133E+02  0.00000000000E+00 0. -1.
<scales pt_clust_5="13000.00000" pt_clust_6="13000.00000" pt_clust_7="13000.00000" pt_clust_8="13000.00000" pt_clust_9="35.47754"></scales>
<clustering>
<clus scale="   35.478">  2  9  1 -1</clus>
<clus scale="   81.353">  5  6 -1 -1</clus>
<clus scale="   88.751">  7  8 -1 -1</clus>
<clus scale="  136.760">  2  5  1 -1</clus>
<clus scale="   35.478">  2  5  1 -1</clus>
</clustering>
</event>
<event>
 9    2  0.2984928E-005  0.1565344E+03  0.7546771E-02  0.1212284E+00
         -1   -1    0    0    0  501 -0.00000000000E+00  0.00000000000E+00  0.16341416185E+03  0.16341416185E+03  0.00000000000E+00 0.  1.
          2   -1    0    0  502    0  0.00000000000E+00 -0.00000000000E+00 -0.42979136826E+03  0.42979136826E+03  0.00000000000E+00 0. -1.
         24    2    1    2    0    0 -0.34288807820E+02  0.23269540625E+02  0.55254390361E+02  0.11636114829E+03  0.93646544597E+02 0.  0.
         23    2    1    2    0    0 -0.44099667667E+02  0.84022095658E+02 -0.41375223452E+01  0.13266603329E+03  0.92621077792E+02 0.  0.
        -13    1    3    3    0    0 -0.21603024669E+02  0.91705262095E+01  0.81029688259E+02  0.84359940761E+02  0.00000000000E+00 0.  1.
         14    1    3    3    0    0 -0.12685783151E+02  0.14099014415E+02 -0.25775297899E+02  0.32001207530E+02  0.00000000000E+00 0. -1.
        -11    1    4    4    0    0 -0.26269802788E+02  0.98709977064E+02 -0.20724791936E+02  0.10422705556E+03  0.00000000000E+00 0.  1.
         11    1    4    4    0    0 -0.17829864878E+02 -0.14687881407E+02  0.16587269590E+02  0.28438977729E+02  0.00000000000E+00 0. -1.
         21    1    1    2  502  501  0.78388475486E+02 -0.10729163628E+03 -0.31749407442E+03  0.34417834853E+03  0.00000000000E+00 0. -1.
<scales pt_clust_5="13000.00000" pt_clust_6="13000.00000" pt_clust_7="13000.00000" pt_clust_8="13000.00000" pt_clust_9="126.19179"></scales>
<clustering>
<clus scale="   92.621">  7  8 -1 -1</clus>
<clus scale="   93.647">  5  6 -1 -1</clus>
<clus scale="  102.405">  1  5  2 -1</clus>
<clus scale="  126.192">  2  9  1 -1</clus>
<clus scale="  126.192">  2  5  1 -1</clus>
</clustering>
</event>
<event>
 9    2  0.2984928E-005  0.1001522E+03  0.7546771E-02  0.1285453E+00
          2   -1    0    0  502    0  0.00000000000E+00  0.00000000000E+00  0.34818495012E+03  0.34818495012E+03  0.00000000000E+00 0. -1.
         -1   -1    0    0    0  501 -0.00000000000E+00 -0.00000000000E+00 -0.22776293357E+03  0.22776293357E+03  0.00000000000E+00 0.  1.
         24    2    1    2    0    0 -0.40048714078E+02  0.12286405059E+02 -0.17191982689E+03  0.19457943351E+03  0.80931290716E+02 0.  0.
         23    2    1    2    0    0  0.36891653628E+02  0.28353294571E+02  0.18587594582E+02  0.10459608706E+03  0.91814701084E+02 0.  0.
        -13    1    3    3    0    0 -0.34425863061E+02 -0.31410355908E+02 -0.78471230075E+02  0.91266009309E+02  0.00000000000E+00 0.  1.
         14    1    3    3    0    0 -0.56228510167E+01  0.43696760966E+02 -0.93448596817E+02  0.10331342420E+03  0.00000000000E+00 0. -1.
        -11    1    4    4    0    0  0.59678000308E+02  0.42927463809E+02  0.23347442900E+02  0.77131925684E+02  0.00000000000E+00 0.  1.
         11    1    4    4    0    0 -0.22786346680E+02 -0.14574169239E+02 -0.47598483176E+01  0.27464161374E+02  0.00000000000E+00 0. -1.
         21    1    1    2  502  501  0.31570604495E+01 -0.40639699629E+02  0.27375424887E+03  0.27677236312E+03  0.00000000000E+00 0. -1.
<scales pt_clust_5="13000.00000" pt_clust_6="13000.00000" pt_clust_7="13000.00000" pt_clust_8="13000.00000" pt_clust_9="40.76214"></scales>
<clustering>
<clus scale="   40.762">  1  9  2 -1</clus>
<clus scale="   80.931">  5  6 -1 -1</clus>
<clus scale="   90.280">  2  5  1 -1</clus>
<clus scale="   91.815">  7  8 -1 -1</clus>
<clus scale="   40.762">  1  5  2 -1</clus>
</clustering>
</event>
<event>
 9    2  0.2984928E-005  0.9870184E+02  0.7546771E-02  0.1284303E+00
          2   -1    0    0  502    0  0.00000000000E+00  0.00000000000E+00  0.38539465712E+02  0.38539465712E+02  0.00000000000E+00 0. -1.
         -1   -1    0    0    0  501 -0.00000000000E+00 -0.00000000000E+00 -0.75083013165E+03  0.75083013165E+03  0.00000000000E+00 0.  1.
         23    2    1    2    0    0 -0.27223853901E+02 -0.46759961706E+02 -0.44022251315E+03  0.45117788078E+03  0.82692120427E+02 0.  0.
         24    2    1    2    0    0 -0.16916127273E+01  0.47439074459E+02 -0.28873328852E+03  0.30481070173E+03  0.85377541838E+02 0.  0.
        -11    1    4    4    0    0  0.31924199064E+02  0.30024056870E+02 -0.23516978778E+03  0.23921836794E+03  0.00000000000E+00 0.  1.
         12    1    4    4    0    0 -0.33615811792E+02  0.17415017588E+02 -0.53563500737E+02  0.65592333784E+02  0.00000000000E+00 0. -1.
        -13    1    3    3    0    0 -0.51192067072E+02 -0.53347764407E+02 -0.32477756693E+03  0.33308719531E+03  0.00000000000E+00 0. -1.
         13    1    3    3    0    0  0.23968213170E+02  0.65878027012E+01 -0.11544494622E+03  0.11809068547E+03  0.00000000000E+00 0.  1.
         21    1    1    2  502  501  0.28915466629E+02 -0.67911275323E+00  0.16665135723E+02  0.33381014861E+02  0.00000000000E+00 0.  1.
<scales pt_clust_5="13000.00000" pt_clust_6="13000.00000" pt_clust_7="13000.00000" pt_clust_8="13000.00000" pt_clust_9="28.92344"></scales>
<clustering>
<clus scale="   28.923">  1  9  2 -1</clus>
<clus scale="   82.692">  7  8 -1 -1</clus>
<clus scale="   85.378">  5  6 -1 -1</clus>
<clus scale="   96.388">  2  7  1 -1</clus>
<clus scale="   28.923">  1  5  2 -1</clus>
</clustering>
</event>
<event>
 9    2  0.2984928E-005  0.1508094E+03  0.7546771E-02  0.1201021E+00
         -1   -1    0    0    0  501 -0.00000000000E+00  0.00000000000E+00  0.48884213176E+02  0.48884213176E+02  0.00000000000E+00 0.  1.
          2   -1    0    0  502    0  0.00000000000E+00 -0.00000000000E+00 -0.70181692263E+03  0.70181692263E+03  0.00000000000E+00 0. -1.
         23    2    1    2    0    0  0.47096020238E+02 -0.11314804367E+03 -0.12705050918E+03  0.19759526308E+03  0.88778044578E+02 0.  0.
         24    2    1    2    0    0 -0.25579225124E+02  0.11896907163E+03 -0.41023254895E+03  0.43532769695E+03  0.80071984797E+02 0.  0.
        -13    1    4    4    0    0 -0.52040847396E+02  0.85497640773E+02 -0.24456872202E+03  0.26425736729E+03  0.00000000000E+00 0.  1.
         14    1    4    4    0    0  0.26461622272E+02  0.33471430858E+02 -0.16566382693E+03  0.17107032966E+03  0.00000000000E+00 0. -1.
        -11    1    3    3    0    0  0.49656078813E+02 -0.56367586806E+02 -0.11823072970E+03  0.14007689478E+03  0.00000000000E+00 0. -1.
         11    1    3    3    0    0 -0.25600585750E+01 -0.56780456867E+02 -0.88197794813E+01  0.57518368301E+02  0.00000000000E+00 0.  1.
         21    1    1    2  502  501 -0.21516795114E+02 -0.58210279575E+01 -0.11564965132E+03  0.11777817578E+03  0.00000000000E+00 0. -1.
<scales pt_clust_5="13000.00000" pt_clust_6="13000.00000" pt_clust_7="13000.00000" pt_clust_8="13000.00000" pt_clust_9="22.29029"></scales>
<clustering>
<clus scale="   22.290">  2  9  1 -1</clus>
<clus scale="   80.072">  5  6 -1 -1</clus>
<clus scale="   88.778">  7  8 -1 -1</clus>
<clus scale="  145.854">  2  5  1 -1</clus>
<clus scale="   22.290">  2  5  1 -1</clus>
</clustering>
</event>
<event>
 9    2  0.2984928E-005  0.9612759E+02  0.7546771E-02  0.1294492E+00
         -1   -1    0    0    0  501 -0.00000000000E+00  0.00000000000E+00  0.16079275380E+03  0.16079275380E+03  0.00000000000E+00 0.  1.
          2   -1    0    0  502    0  0.00000000000E+00 -0.00000000000E+00 -0.11531708272E+03  0.11531708272E+03  0.00000000000E+00 0. -1.
         23    2    1    2    0    0  0.36601076129E+02 -0.14894789022E+02  0.98377147249E+02  0.13918184909E+03  0.90177771666E+02 0.  0.
         24    2    1    2    0    0 -0.16140509421E+02  0.13840506766E+02 -0.22993822918E+01  0.82335696704E+02  0.79509773744E+02 0.  0.
        -13    1    4    4    0    0  0.16111415562E+02 -0.18535559582E+02 -0.21620760119E+02  0.32720054226E+02  0.00000000000E+00 0.  1.
         14    1    4    4    0    0 -0.32251924984E+02  0.32376066348E+02  0.19321377827E+02  0.49615642478E+02  0.00000000000E+00 0. -1.
        -11    1    3    3    0    0  0.46507223627E+02 -0.39937363131E+02  0.93513604549E+02  0.11181551350E+03  0.00000000000E+00 0.  1.
         11    1    3    3    0    0 -0.99061474981E+01  0.25042574109E+02  0.48635426992E+01  0.27366335594E+02  0.00000000000E+00 0. -1.
         21    1    1    2  502  501 -0.20460566708E+02  0.10542822556E+01 -0.50602093877E+02  0.54592290718E+02  0.00000000000E+00 0. -1.
<scales pt_clust_5="13000.00000" pt_clust_6="13000.00000" pt_clust_7="13000.00000" pt_clust_8="13000.00000" pt_clust_9="20.48771"></scales>
<clustering>
<clus scale="   20.488">  2  9  1 -1</clus>
<clus scale="   79.510">  5  6 -1 -1</clus>
<clus scale="   86.199">  2  5  1 -1</clus>
<clus scale="   90.178">  7  8 -1 -1</clus>
<clus scale="   20.488">  2  5  1 -1</clus>
</clustering>
</event>
<event>
 9    2  0.2984928E-005  0.9639026E+02  0.7546771E-02  0.1288404E+00
          2   -1    0    0  502    0  0.00000000000E+00  0.00000000000E+00  0.37880217451E+03  0.37880217451E+03  0.00000000000E+00 0. -1.
         -1   -1    0    0    0  501 -0.00000000000E+00 -0.00000000000E+00 -0.22738327299E+03  0.22738327299E+03  0.00000000000E+00 0.  1.
         24    2    1    2    0    0  0.49691808444E+02  0.29532420744E+01 -0.19278268936E+03  0.21469084246E+03  0.80305635275E+02 0.  0.
         23    2    1    2    0    0 -0.92445219451E+02  0.27024446676E+01  0.15712100692E+03  0.19950766319E+03  0.81011573544E+02 0.  0.
        -11    1    3    3    0    0  0.33989084248E+02 -0.21012987490E+02 -0.17803776196E+03  0.18246711533E+03  0.00000000000E+00 0.  1.
         12    1    3    3    0    0  0.15702724196E+02  0.23966229564E+02 -0.14744927394E+02  0.32223727137E+02  0.00000000000E+00 0. -1.
        -11    1    4    4    0    0 -0.45183796503E+02 -0.56423660441E+01  0.12628617020E+02  0.47253504937E+02  0.00000000000E+00 0. -1.
         11    1    4    4    0    0 -0.47261422948E+02  0.83448107117E+01  0.14449238990E+03  0.15225415825E+03  0.00000000000E+00 0.  1.
         21    1    1    2  502  501  0.42753411007E+02 -0.56556867420E+01  0.18708058396E+03  0.19198694184E+03  0.00000000000E+00 0. -1.
<scales pt_clust_5="13000.00000" pt_clust_6="13000.00000" pt_clust_7="13000.00000" pt_clust_8="13000.00000" pt_clust_9="43.12587"></scales>
<clustering>
<clus scale="   43.126">  1  9  2 -1</clus>
<clus scale="   80.306">  5  6 -1 -1</clus>
<clus scale="   81.012">  7  8 -1 -1</clus>
<clus scale="   95.798">  2  5  1 -1</clus>
<clus scale="   43.126">  1  5  2 -1</clus>
</clustering>
</event>
<event>
 9    2  0.2984928E-005  0.2091883E+03  0.7546771E-02  0.1174162E+00
          2   -1    0    0  502    0  0.00000000000E+00  0.00000000000E+00  0.60664294363E+03  0.60664294363E+03  0.00000000000E+00 0. -1.
         -1   -1    0    0    0  501 -0.00000000000E+00 -0.00000000000E+00 -0.17393666353E+03  0.17393666353E+03  0.00000000000E+00 0.  1.
         23    2    1    2    0    0 -0.14559354613E+02  0.39946692484E+02 -0.73342324385E+02  0.12334998444E+03  0.89601389878E+02 0.  0.
         24    2    1    2    0    0  0.18877409329E+03 -0.76473135896E+02  0.38176666858E+03  0.44013297181E+03  0.80544675944E+02 0.  0.
        -13    1    4    4    0    0  0.10111870386E+03  0.21590829390E+01  0.18384096874E+03  0.20982648950E+03  0.00000000000E+00 0.  1.
         14    1    4    4    0    0  0.87655389429E+02 -0.78632218835E+02  0.19792569984E+03  0.23030648231E+03  0.00000000000E+00 0. -1.
        -11    1    3    3    0    0 -0.74095521769E+01 -0.26084597378E+02 -0.41374183946E+01  0.27430383060E+02  0.00000000000E+00 0. -1.
         11    1    3    3    0    0 -0.71498024366E+01  0.66031289863E+02 -0.69204905990E+02  0.95919601380E+02  0.00000000000E+00 0.  1.
         21    1    1    2  502  501 -0.17421473868E+03  0.36526443412E+02  0.12428193590E+03  0.21709665090E+03  0.00000000000E+00 0. -1.
<scales pt_clust_5="13000.00000" pt_clust_6="13000.00000" pt_clust_7="13000.00000" pt_clust_8="13000.00000" pt_clust_9="193.06037"></scales>
<clustering>
<clus scale="   80.545">  5  6 -1 -1</clus>
<clus scale="   89.601">  7  8 -1 -1</clus>
<clus scale="   99.177">  2  7  1 -1</clus>
<clus scale="  193.060">  2  9  1 -1</clus>
<clus scale="  209.188">  1  5  2 -1</clus>
</clustering>
</event>
<event>
 9    2  0.2984928E-005  0.1419410E+03  0.7546771E-02  0.1213197E+00
          2   -1    0    0  502    0  0.00000000000E+00  0.00000000000E+00  0.63637872148E+03  0.63637872148E+03  0.00000000000E+00 0. -1.
         -1   -1    0    0    0  501 -0.00000000000E+00 -0.00000000000E+00 -0.46094858822E+02  0.46094858822E+02  0.00000000000E+00 0.  1.
         23    2    1    2    0    0  0.11447274419E+03 -0.20169554164E+02  0.13585759702E+03  0.20148758994E+03  0.92893176045E+02 0.  0.
         24    2    1    2    0    0 -0.84332998020E+02  0.34699335184E+02  0.32281231653E+03  0.34518558375E+03  0.81419881516E+02 0.  0.
        -13    1    4    4    0    0 -0.59741961765E+02  0.31527658551E+02  0.98091044208E+02  0.11910058020E+03  0.00000000000E+00 0.  1.
         14    1    4    4    0    0 -0.24591036255E+02  0.31716766330E+01  0.22472127232E+03  0.22608500355E+03  0.00000000000E+00 0. -1.
        -11    1    3    3    0    0  0.31054779567E+02  0.17700465794E+02 -0.21851233367E+01  0.35811738122E+02  0.00000000000E+00 0.  1.
         11    1    3    3    0    0  0.83417964623E+02 -0.37870019958E+02  0.13804272036E+03  0.16567585182E+03  0.00000000000E+00 0. -1.
         21    1    1    2  502  501 -0.30139746170E+02 -0.14529781020E+02  0.13161394911E+03  0.13580040661E+03  0.00000000000E+00 0. -1.
<scales pt_clust_5="13000.00000" pt_clust_6="13000.00000" pt_clust_7="13000.00000" pt_clust_8="13000.00000" pt_clust_9="33.45921"></scales>
<clustering>
<clus scale="   33.459">  1  9  2 -1</clus>
<clus scale="   81.420">  5  6 -1 -1</clus>
<clus scale="   92.893">  7  8 -1 -1</clus>
<clus scale="  134.712">  1  5  2 -1</clus>
<clus scale="   33.459">  1  5  2 -1</clus>
</clustering>
</event>
<event>
 9    2  0.2984928E-005  0.1013326E+03  0.7546771E-02  0.1278892E+00
          2   -1    0    0  502    0  0.00000000000E+00  0.00000000000E+00  0.83603080028E+03  0.83603080028E+03  0.00000000000E+00 0. -1.
         -1   -1    0    0    0  501 -0.00000000000E+00 -0.00000000000E+00 -0.61311701864E+02  0.61311701864E+02  0.00000000000E+00 0.  1.
         23    2    1    2    0    0 -0.12306589705E+02  0.39085608837E+02 -0.10874490375E+02  0.99064623150E+02  0.89534395908E+02 0.  0.
         24    2    1    2    0    0 -0.15547969091E+02 -0.55866831074E+02  0.59125458146E+03  0.60123692986E+03  0.92417658342E+02 0.  0.
        -11    1    4    4    0    0 -0.43668053481E+02 -0.16038157377E+02  0.14388389674E+03  0.15121738368E+03  0.00000000000E+00 0.  1.
         12    1    4    4    0    0  0.28120084390E+02 -0.39828673698E+02  0.44737068473E+03  0.45001954618E+03  0.00000000000E+00 0. -1.
        -13    1    3    3    0    0  0.32423138468E+01  0.66695586492E+02 -0.78120992216E+01  0.67229775776E+02  0.00000000000E+00 0.  1.
         13    1    3    3    0    0 -0.15548903552E+02 -0.27609977655E+02 -0.30623911533E+01  0.31834847374E+02  0.00000000000E+00 0. -1.
         21    1    1    2  502  501  0.27854558796E+02  0.16781222237E+02  0.19433900733E+03  0.19704094913E+03  0.00000000000E+00 0. -1.
<scales pt_clust_5="13000.00000" pt_clust_6="13000.00000" pt_clust_7="13000.00000" pt_clust_8="13000.00000" pt_clust_9="32.51901"></scales>
<clustering>
<clus scale="   32.519">  1  9  2 -1</clus>
<clus scale="   89.534">  7  8 -1 -1</clus>
<clus scale="   92.418">  5  6 -1 -1</clus>
<clus scale="   98.710">  2  7  1 -1</clus>
<clus scale="   32.519">  1  5  2 -1</clus>
</clustering>
</event>
<event>
 9    2  0.2984928E-005  0.1042733E+03  0.7546771E-02  0.1277586E+00
          2   -1    0    0  502    0  0.00000000000E+00  0.00000000000E+00  0.50925950096E+03  0.50925950096E+03  0.00000000000E+00 0. -1.
         -1   -1    0    0    0  501 -0.00000000000E+00 -0.00000000000E+00 -0.94064825841E+02  0.94064825841E+02  0.00000000000E+00 0.  1.
         24    2    1    2    0    0  0.57083082120E+01  0.43238850439E+02 -0.58885373592E+02  0.10940601265E+03  0.81240417347E+02 0.  0.
         23    2    1    2    0    0 -0.95178532686E+01 -0.65456162920E+02  0.37135892480E+03  0.38875296385E+03  0.94054862055E+02 0.  0.
        -11    1    3    3    0    0 -0.33356065727E+02  0.66004004903E+01 -0.67563790725E+01  0.34667579460E+02  0.00000000000E+00 0.  1.
         12    1    3    3    0    0  0.39064373939E+02  0.36638449949E+02 -0.52128994519E+02  0.74738433189E+02  0.00000000000E+00 0. -1.
        -11    1    4    4    0    0 -0.46496681264E+02 -0.21224285355E+02  0.23864651296E+03  0.24405853766E+03  0.00000000000E+00 0.  1.
         11    1    4    4    0    0  0.36978827995E+02 -0.44231877565E+02  0.13271241184E+03  0.14469442618E+03  0.00000000000E+00 0. -1.
         21    1    1    2  502  501  0.38095450566E+01  0.22217312480E+02  0.10272112391E+03  0.10516535031E+03  0.00000000000E+00 0. -1.
<scales pt_clust_5="13000.00000" pt_clust_6="13000.00000" pt_clust_7="13000.00000" pt_clust_8="13000.00000" pt_clust_9="22.54155"></scales>
<clustering>
<clus scale="   22.542">  1  9  2 -1</clus>
<clus scale="   81.240">  5  6 -1 -1</clus>
<clus scale="   92.880">  2  5  1 -1</clus>
<clus scale="   94.055">  7  8 -1 -1</clus>
<clus scale="   22.542">  1  5  2 -1</clus>
</clustering>
</event>
<event>
 9    2  0.2984928E-005  0.8976812E+02  0.7546771E-02  0.1309178E+00
          2   -1    0    0  502    0  0.00000000000E+00  0.00000000000E+00  0.13970409417E+03  0.13970409417E+03  0.00000000000E+00 0. -1.
         -1   -1    0    0    0  501 -0.00000000000E+00 -0.00000000000E+00 -0.14180101917E+03  0.14180101917E+03  0.00000000000E+00 0.  1.
         24    2    1    2    0    0  0.88354554340E+01  0.10239582269E+02 -0.87406992518E+02  0.11951319262E+03  0.80377276336E+02 0.  0.
         23    2    1    2    0    0  0.81175154568E+01  0.26096279595E+02  0.76864906526E+02  0.12101608853E+03  0.89385513149E+02 0.  0.
        -11    1    3    3    0    0  0.45896849898E+01 -0.28209519208E+02 -0.72722246437E+02  0.78136849879E+02  0.00000000000E+00 0.  1.
         12    1    3    3    0    0  0.42457704442E+01  0.38449101477E+02 -0.14684746081E+02  0.41376342740E+02  0.00000000000E+00 0. -1.
        -11    1    4    4    0    0  0.15469697510E+02  0.57632965087E+02  0.59514805803E+02  0.84278599392E+02  0.00000000000E+00 0. -1.
         11    1    4    4    0    0 -0.73521820533E+01 -0.31536685492E+02  0.17350100723E+02  0.36737489134E+02  0.00000000000E+00 0.  1.
         21    1    1    2  502  501 -0.16952970891E+02 -0.36335861865E+02  0.84451609977E+01  0.40975832191E+02  0.00000000000E+00 0.  1.
<scales pt_clust_5="13000.00000" pt_clust_6="13000.00000" pt_clust_7="13000.00000" pt_clust_8="13000.00000" pt_clust_9="40.09611"></scales>
<clustering>
<clus scale="   40.096">  1  9  2 -1</clus>
<clus scale="   80.377">  5  6 -1 -1</clus>
<clus scale="   80.803">  2  5  1 -1</clus>
<clus scale="   89.386">  7  8 -1 -1</clus>
<clus scale="   40.096">  1  5  2 -1</clus>
</clustering>
</event>
<event>
 9    2  0.2984928E-005  0.1329714E+03  0.7546771E-02  0.1229236E+00
         -1   -1    0    0    0  501 -0.00000000000E+00  0.00000000000E+00  0.95401755907E+02  0.95401755907E+02  0.00000000000E+00 0.  1.
          2   -1    0    0  502    0  0.00000000000E+00 -0.00000000000E+00 -0.80424442892E+03  0.80424442892E+03  0.00000000000E+00 0. -1.
         23    2    1    2    0    0  0.67490375021E+02  0.29091509370E+02  0.11927506072E+02  0.11768740218E+03  0.91141607368E+02 0.  0.
         24    2    1    2    0    0  0.82035859747E+02  0.30183851647E+02 -0.46332669921E+03  0.47839856022E+03  0.80948162643E+02 0.  0.
        -11    1    4    4    0    0  0.59699866316E+02  0.49991499453E+02 -0.22256685971E+03  0.23579489201E+03  0.00000000000E+00 0.  1.
         12    1    4    4    0    0  0.22335993431E+02 -0.19807647806E+02 -0.24075983950E+03  0.24260366821E+03  0.00000000000E+00 0. -1.
        -13    1    3    3    0    0 -0.82291127477E+01 -0.18411306192E+02 -0.14078391896E+02  0.24594625646E+02  0.00000000000E+00 0.  1.
         13    1    3    3    0    0  0.75719487769E+02  0.47502815562E+02  0.26005897968E+02  0.93092776537E+02  0.00000000000E+00 0. -1.
         21    1    1    2  502  501 -0.14952623477E+03 -0.59275361017E+02 -0.25744347988E+03  0.30356022242E+03  0.00000000000E+00 0.  1.
<scales pt_clust_5="13000.00000" pt_clust_6="13000.00000" pt_clust_7="13000.00000" pt_clust_8="13000.00000" pt_clust_9="105.49304"></scales>
<clustering>
<clus scale="   80.948">  5  6 -1 -1</clus>
<clus scale="   91.142">  7  8 -1 -1</clus>
<clus scale="  117.081">  1  7  2 -1</clus>
<clus scale="  105.493">  1  9  2 -1</clus>
<clus scale="  132.971">  2  5  1 -1</clus>
</clustering>
</event>
<event>
 9    2  0.2984928E-005  0.9104916E+02  0.7546771E-02  0.1304931E+00
         -1   -1    0    0    0  501 -0.00000000000E+00  0.00000000000E+00  0.11963902067E+03  0.11963902067E+03  0.00000000000E+00 0.  1.
          2   -1    0    0  502    0  0.00000000000E+00 -0.00000000000E+00 -0.20696587720E+03  0.20696587720E+03  0.00000000000E+00 0. -1.
         23    2    1    2    0    0  0.21780176756E+02 -0.12921916745E+02  0.81658802445E+02  0.12253030222E+03  0.87773361071E+02 0.  0.
         24    2    1    2    0    0  0.54552049532E+00  0.28783630104E+02 -0.14244558952E+03  0.16593792045E+03  0.80099016943E+02 0.  0.
        -11    1    4    4    0    0  0.17520960978E+02  0.17387881381E+02 -0.28447983385E+01  0.24847844375E+02  0.00000000000E+00 0.  1.
         12    1    4    4    0    0 -0.16975440482E+02  0.11395748723E+02 -0.13960079118E+03  0.14109007608E+03  0.00000000000E+00 0. -1.
        -11    1    3    3    0    0  0.23595769854E+02  0.33710991830E+02  0.21605870831E+02  0.46475853726E+02  0.00000000000E+00 0. -1.
         11    1    3    3    0    0 -0.18155930980E+01 -0.46632908575E+02  0.60052931614E+02  0.76054448495E+02  0.00000000000E+00 0.  1.
         21    1    1    2  502  501 -0.22325697252E+02 -0.15861713359E+02 -0.26540069459E+02  0.38136675201E+02  0.00000000000E+00 0. -1.
<scales pt_clust_5="13000.00000" pt_clust_6="13000.00000" pt_clust_7="13000.00000" pt_clust_8="13000.00000" pt_clust_9="27.38669"></scales>
<clustering>
<clus scale="   27.387">  2  9  1 -1</clus>
<clus scale="   80.099">  5  6 -1 -1</clus>
<clus scale="   83.676">  2  5  1 -1</clus>
<clus scale="   87.773">  7  8 -1 -1</clus>
<clus scale="   27.387">  2  5  1 -1</clus>
</clustering>
</event>
<event>
 9    2  0.2984928E-005  0.2884326E+03  0.7546771E-02  0.1091447E+00
         -1   -1    0    0    0  501 -0.00000000000E+00  0.00000000000E+00  0.51715954812E+03  0.51715954812E+03  0.00000000000E+00 0.  1.
          2   -1    0    0  502    0  0.00000000000E+00 -0.00000000000E+00 -0.23125898203E+03  0.23125898203E+03  0.00000000000E+00 0. -1.
         23    2    1    2    0    0 -0.26581791750E+03  0.90270850583E+02  0.32141996175E+03  0.43634745799E+03  0.90996266675E+02 0.  0.
         24    2    1    2    0    0  0.23247596327E+03 -0.10429022554E+03 -0.50300374985E+02  0.27299798505E+03  0.84120434368E+02 0.  0.
        -13    1    4    4    0    0  0.12569249652E+02 -0.32266685882E+02  0.52465629711E+01  0.35023584591E+02  0.00000000000E+00 0.  1.
         14    1    4    4    0    0  0.21990671361E+03 -0.72023539658E+02 -0.55546937956E+02  0.23797440046E+03  0.00000000000E+00 0. -1.
        -13    1    3    3    0    0 -0.21529569043E+03  0.32013602495E+02  0.22807381414E+03  0.31526936064E+03  0.00000000000E+00 0.  1.
         13    1    3    3    0    0 -0.50522227075E+02  0.58257248088E+02  0.93346147614E+02  0.12107809735E+03  0.00000000000E+00 0. -1.
         21    1    1    2  502  501  0.33341954237E+02  0.14019374957E+02  0.14780979320E+02  0.39073087109E+02  0.00000000000E+00 0. -1.
<scales pt_clust_5="13000.00000" pt_clust_6="13000.00000" pt_clust_7="13000.00000" pt_clust_8="13000.00000" pt_clust_9="36.16945"></scales>
<clustering>
<clus scale="   36.169">  2  9  1 -1</clus>
<clus scale="   84.120">  5  6 -1 -1</clus>
<clus scale="   90.996">  7  8 -1 -1</clus>
<clus scale="  286.338">  2  5  1 -1</clus>
<clus scale="   36.169">  2  5  1 -1</clus>
</clustering>
</event>
<event>
 9    2  0.2984928E-005  0.1515562E+03  0.7546771E-02  0.1200235E+00
         -1   -1    0    0    0  501 -0.00000000000E+00  0.00000000000E+00  0.22888156697E+02  0.22888156697E+02  0.00000000000E+00 0.  1.
          2   -1    0    0  502    0  0.00000000000E+00 -0.00000000000E+00 -0.11764735452E+04  0.11764735452E+04  0.00000000000E+00 0. -1.
         23    2    1    2    0    0  0.11654967487E+02 -0.11278137537E+03 -0.46325460825E+03  0.48512454875E+03  0.88800443930E+02 0.  0.
         24    2    1    2    0    0 -0.24320344651E+02  0.13158930123E+03 -0.53131811998E+03  0.55361593418E+03  0.79274425882E+02 0.  0.
        -11    1    4    4    0    0 -0.23014730374E+02  0.12516714141E+03 -0.53201533720E+03  0.54702542000E+03  0.00000000000E+00 0.  1.
         12    1    4    4    0    0 -0.13056142769E+01  0.64221598121E+01  0.69721722707E+00  0.65905141798E+01  0.00000000000E+00 0. -1.
        -13    1    3    3    0    0  0.47634854078E+02 -0.73426144414E+02 -0.23625982166E+03  0.25195075181E+03  0.00000000000E+00 0.  1.
         13    1    3    3    0    0 -0.35979886591E+02 -0.39355230951E+02 -0.22699478659E+03  0.23317379694E+03  0.00000000000E+00 0. -1.
         21    1    1    2  502  501  0.12665377164E+02 -0.18807925860E+02 -0.15901266026E+03  0.16062121895E+03  0.00000000000E+00 0. -1.
<scales pt_clust_5="13000.00000" pt_clust_6="13000.00000" pt_clust_7="13000.00000" pt_clust_8="13000.00000" pt_clust_9="22.67487"></scales>
<clustering>
<clus scale="   22.675">  2  9  1 -1</clus>
<clus scale="   79.274">  5  6 -1 -1</clus>
<clus scale="   88.800">  7  8 -1 -1</clus>
<clus scale="  146.179">  2  5  1 -1</clus>
<clus scale="   22.675">  2  5  1 -1</clus>
</clustering>
</event>
<event>
 9    2  0.2984928E-005  0.1311446E+03  0.7546771E-02  0.1229209E+00
          2   -1    0    0  502    0  0.00000000000E+00  0.00000000000E+00  0.21862395614E+03  0.21862395614E+03  0.00000000000E+00 0. -1.
         -1   -1    0    0    0  501 -0.00000000000E+00 -0.00000000000E+00 -0.18087081812E+03  0.18087081812E+03  0.00000000000E+00 0.  1.
         24    2    1    2    0    0  0.65792316898E+02 -0.46093615953E+01 -0.11600975783E+03  0.15447033199E+03  0.77800670805E+02 0.  0.
         23    2    1    2    0    0 -0.96803990253E+02  0.22623343919E+02  0.15922295842E+03  0.20874718042E+03  0.91326921696E+02 0.  0.
        -13    1    3    3    0    0  0.70687325465E+02  0.62925265937E+01 -0.12197206989E+03  0.14111512926E+03  0.00000000000E+00 0.  1.
         14    1    3    3    0    0 -0.48950085672E+01 -0.10901888189E+02  0.59623120623E+01  0.13355202735E+02  0.00000000000E+00 0. -1.
        -13    1    4    4    0    0 -0.10797981445E+03 -0.16193685632E+01  0.13306757501E+03  0.17137456697E+03  0.00000000000E+00 0. -1.
         13    1    4    4    0    0  0.11175824200E+02  0.24242712482E+02  0.26155383408E+02  0.37372613452E+02  0.00000000000E+00 0.  1.
         21    1    1    2  502  501  0.31011673355E+02 -0.18013982324E+02 -0.54600625728E+01  0.36277261842E+02  0.00000000000E+00 0. -1.
<scales pt_clust_5="13000.00000" pt_clust_6="13000.00000" pt_clust_7="13000.00000" pt_clust_8="13000.00000" pt_clust_9="35.86401"></scales>
<clustering>
<clus scale="   35.864">  2  9  1 -1</clus>
<clus scale="   77.801">  5  6 -1 -1</clus>
<clus scale="   91.327">  7  8 -1 -1</clus>
<clus scale="  122.112">  2  5  1 -1</clus>
<clus scale="  131.145">  1  5  2 -1</clus>
</clustering>
</event>
<event>
 9    2  0.2984928E-005  0.1023088E+03  0.7546771E-02  0.1283337E+00
         -3   -1    0    0    0  501 -0.00000000000E+00  0.00000000000E+00  0.16318182804E+03  0.16318182804E+03  0.00000000000E+00 0.  1.
          4   -1    0    0  502    0  0.00000000000E+00 -0.00000000000E+00 -0.24713280896E+03  0.24713280896E+03  0.00000000000E+00 0. -1.
         24    2    1    2    0    0  0.49699621353E+02  0.47724270992E+00  0.11086938790E+03  0.14491297715E+03  0.78977652852E+02 0.  0.
         23    2    1    2    0    0  0.11912445808E+02 -0.14659425651E+02 -0.52714679183E+02  0.10986642862E+03  0.94525073975E+02 0.  0.
        -11    1    3    3    0    0  0.26616805003E+02  0.35847053055E+02  0.83194098276E+02  0.94417813517E+02  0.00000000000E+00 0.  1.
         12    1    3    3    0    0  0.23082816351E+02 -0.35369810345E+02  0.27675289619E+02  0.50495163630E+02  0.00000000000E+00 0. -1.
        -13    1    4    4    0    0  0.33147560936E+01 -0.53852752313E+02 -0.41888485692E+02  0.68306308443E+02  0.00000000000E+00 0. -1.
         13    1    4    4    0    0  0.85976897145E+01  0.39193326662E+02 -0.10826193492E+02  0.41560120173E+02  0.00000000000E+00 0.  1.
         21    1    1    2  502  501 -0.61612067162E+02  0.14182182941E+02 -0.14210568962E+03  0.15553523124E+03  0.00000000000E+00 0. -1.
<scales pt_clust_5="13000.00000" pt_clust_6="13000.00000" pt_clust_7="13000.00000" pt_clust_8="13000.00000" pt_clust_9="63.22326"></scales>
<clustering>
<clus scale="   63.223">  2  9  1 -1</clus>
<clus scale="   78.978">  5  6 -1 -1</clus>
<clus scale="   88.145">  1  5  2 -1</clus>
<clus scale="   94.525">  7  8 -1 -1</clus>
<clus scale="   63.223">  2  5  1 -1</clus>
</clustering>
</event>
<event>
 9    2  0.2984928E-005  0.9274418E+02  0.7546771E-02  0.1301259E+00
         -1   -1    0    0    0  501 -0.00000000000E+00  0.00000000000E+00  0.56213264356E+02  0.56213264356E+02  0.00000000000E+00 0.  1.
          2   -1    0    0  502    0  0.00000000000E+00 -0.00000000000E+00 -0.25823073712E+03  0.25823073712E+03  0.00000000000E+00 0. -1.
         23    2    1    2    0    0 -0.14045057071E+02 -0.95532799735E+01 -0.20970411372E+02  0.93505910719E+02  0.89526914389E+02 0.  0.
         24    2    1    2    0    0  0.19419009098E+02  0.42215755651E+02 -0.13528071170E+03  0.16445556742E+03  0.81151061358E+02 0.  0.
        -13    1    4    4    0    0  0.69924123501E+01 -0.20899373244E+02 -0.67513238689E+02  0.71019117361E+02  0.00000000000E+00 0.  1.
         14    1    4    4    0    0  0.12426596748E+02  0.63115128895E+02 -0.67767473008E+02  0.93436450062E+02  0.00000000000E+00 0. -1.
        -13    1    3    3    0    0 -0.89583042424E+01 -0.48876267526E+02 -0.20765196717E+02  0.53854750365E+02  0.00000000000E+00 0.  1.
         13    1    3    3    0    0 -0.50867528291E+01  0.39322987553E+02 -0.20521465532E+00  0.39651160355E+02  0.00000000000E+00 0. -1.
         21    1    1    2  502  501 -0.53739520270E+01 -0.32662475678E+02 -0.45766349696E+02  0.56482523335E+02  0.00000000000E+00 0.  1.
<scales pt_clust_5="13000.00000" pt_clust_6="13000.00000" pt_clust_7="13000.00000" pt_clust_8="13000.00000" pt_clust_9="33.10161"></scales>
<clustering>
<clus scale="   33.102">  2  9  1 -1</clus>
<clus scale="   81.151">  5  6 -1 -1</clus>
<clus scale="   84.687">  2  5  1 -1</clus>
<clus scale="   89.527">  7  8 -1 -1</clus>
<clus scale="   33.102">  2  5  1 -1</clus>
</clustering>
</event>
<event>
 9    2  0.2984928E-005  0.1061333E+03  0.7546771E-02  0.1275231E+00
         -1   -1    0    0    0  501 -0.00000000000E+00  0.00000000000E+00  0.37744814178E+03  0.37744814178E+03  0.00000000000E+00 0.  1.
          2   -1    0    0  502    0  0.00000000000E+00 -0.00000000000E+00 -0.50959776457E+02  0.50959776457E+02  0.00000000000E+00 0. -1.
         23    2    1    2    0    0  0.10307780793E+02 -0.51000712787E+02  0.28155996940E+03  0.30181171960E+03  0.95430470324E+02 0.  0.
         24    2    1    2    0    0  0.10147149228E+02  0.34158572296E+02  0.48637641541E+02  0.99841379227E+02  0.79579571075E+02 0.  0.
        -13    1    4    4    0    0 -0.11977112699E+02 -0.19678375898E+02  0.31765829604E+02  0.39239745629E+02  0.00000000000E+00 0.  1.
         14    1    4    4    0    0  0.22124261928E+02  0.53836948195E+02  0.16871811937E+02  0.60601633598E+02  0.00000000000E+00 0. -1.
        -11    1    3    3    0    0 -0.29683108844E+02 -0.59921771996E+02  0.19234140421E+03  0.20363428366E+03  0.00000000000E+00 0.  1.
         11    1    3    3    0    0  0.39990889636E+02  0.89210592097E+01  0.89218565197E+02  0.98177435937E+02  0.00000000000E+00 0. -1.
         21    1    1    2  502  501 -0.20454930021E+02  0.16842140490E+02 -0.37092456249E+01  0.26754819408E+02  0.00000000000E+00 0. -1.
<scales pt_clust_5="13000.00000" pt_clust_6="13000.00000" pt_clust_7="13000.00000" pt_clust_8="13000.00000" pt_clust_9="26.49645"></scales>
<clustering>
<clus scale="   26.496">  2  9  1 -1</clus>
<clus scale="   79.580">  5  6 -1 -1</clus>
<clus scale="   92.142">  2  5  1 -1</clus>
<clus scale="   95.430">  7  8 -1 -1</clus>
<clus scale="   26.496">  2  5  1 -1</clus>
</clustering>
</event>
<event>
 9    2  0.2984928E-005  0.3742862E+03  0.7546771E-02  0.1097378E+00
          2   -1    0    0  502    0  0.00000000000E+00  0.00000000000E+00  0.40901484129E+03  0.40901484129E+03  0.00000000000E+00 0. -1.
         -1   -1    0    0    0  501 -0.00000000000E+00 -0.00000000000E+00 -0.70591123691E+03  0.70591123691E+03  0.00000000000E+00 0.  1.
         24    2    1    2    0    0 -0.14736620459E+01  0.80093220036E+02 -0.77535132380E+02  0.13635573187E+03  0.78511739784E+02 0.  0.
         23    2    1    2    0    0 -0.29407972853E+01  0.34774432586E+03  0.17207912827E+03  0.39866515301E+03  0.91585552242E+02 0.  0.
        -11    1    3    3    0    0 -0.32913281441E+02  0.32705477265E+02 -0.61931854195E+02  0.77385314513E+02  0.00000000000E+00 0.  1.
         12    1    3    3    0    0  0.31439619395E+02  0.47387742771E+02 -0.15603278186E+02  0.58970417352E+02  0.00000000000E+00 0. -1.
        -13    1    4    4    0    0  0.40070835673E+02  0.24444728241E+03  0.11996139237E+03  0.27522878012E+03  0.00000000000E+00 0. -1.
         13    1    4    4    0    0 -0.43011632959E+02  0.10329704346E+03  0.52117735908E+02  0.12343637289E+03  0.00000000000E+00 0.  1.
         21    1    1    2  502  501  0.44144593312E+01 -0.42783754590E+03 -0.39144039151E+03  0.57990519332E+03  0.00000000000E+00 0.  1.
<scales pt_clust_5="13000.00000" pt_clust_6="13000.00000" pt_clust_7="13000.00000" pt_clust_8="13000.00000" pt_clust_9="362.90806"></scales>
<clustering>
<clus scale="   78.512">  5  6 -1 -1</clus>
<clus scale="   91.586">  7  8 -1 -1</clus>
<clus scale="  112.166">  2  5  1 -1</clus>
<clus scale="  362.908">  2  9  1 -1</clus>
<clus scale="  374.286">  1  5  2 -1</clus>
</clustering>
</event>
<event>
 9    2  0.2984928E-005  0.1488680E+03  0.7546771E-02  0.1203385E+00
         -3   -1    0    0    0  501 -0.00000000000E+00  0.00000000000E+00  0.39419818663E+03  0.39419818663E+03  0.00000000000E+00 0.  1.
          4   -1    0    0  502    0  0.00000000000E+00 -0.00000000000E+00 -0.11669085469E+03  0.11669085469E+03  0.00000000000E+00 0. -1.
         23    2    1    2    0    0  0.77406712955E+02  0.91107638210E+02  0.31628406949E+03  0.35062820698E+03  0.92801540743E+02 0.  0.
         24    2    1    2    0    0 -0.55819641917E+02 -0.85363939821E+02 -0.28780295141E+02  0.13578798064E+03  0.84895439522E+02 0.  0.
        -13    1    4    4    0    0  0.20027378050E+02 -0.36916350016E+02 -0.26999073388E+01  0.42085653965E+02  0.00000000000E+00 0.  1.
         14    1    4    4    0    0 -0.75847019967E+02 -0.48447589805E+02 -0.26080387802E+02  0.93702326672E+02  0.00000000000E+00 0. -1.
        -11    1    3    3    0    0  0.47652503138E+02  0.98604855273E+01  0.46493142079E+02  0.67302321583E+02  0.00000000000E+00 0. -1.
         11    1    3    3    0    0  0.29754209817E+02  0.81247152683E+02  0.26979092742E+03  0.28332588540E+03  0.00000000000E+00 0.  1.
         21    1    1    2  502  501 -0.21587071037E+02 -0.57436983886E+01 -0.99964424136E+01  0.24472853697E+02  0.00000000000E+00 0. -1.
<scales pt_clust_5="13000.00000" pt_clust_6="13000.00000" pt_clust_7="13000.00000" pt_clust_8="13000.00000" pt_clust_9="22.33812"></scales>
<clustering>
<clus scale="   22.338">  2  9  1 -1</clus>
<clus scale="   84.895">  5  6 -1 -1</clus>
<clus scale="   92.802">  7  8 -1 -1</clus>
<clus scale="  144.072">  2  5  1 -1</clus>
<clus scale="   22.338">  2  5  1 -1</clus>
</clustering>
</event>
<event>
 9    2  0.2984928E-005  0.9673531E+02  0.7546771E-02  0.1298610E+00
          2   -1    0    0  502    0  0.00000000000E+00  0.00000000000E+00  0.25660204348E+02  0.25660204348E+02  0.00000000000E+00 0. -1.
         -1   -1    0    0    0  501 -0.00000000000E+00 -0.00000000000E+00 -0.83683341693E+03  0.83683341693E+03  0.00000000000E+00 0.  1.
         24    2    1    2    0    0 -0.17687477498E+02  0.25537533921E+02 -0.61798688604E+03  0.62287157749E+03  0.71387661617E+02 0.  0.
         23    2    1    2    0    0 -0.81394835408E+00 -0.50839999968E+02 -0.11462275246E+03  0.15503627241E+03  0.91172925109E+02 0.  0.
        -11    1    3    3    0    0  0.80970099864E+01  0.20334758068E+02 -0.53938540094E+02  0.58210223018E+02  0.00000000000E+00 0.  1.
         12    1    3    3    0    0 -0.25784487484E+02  0.52027758524E+01 -0.56404834594E+03  0.56466135447E+03  0.00000000000E+00 0. -1.
        -13    1    4    4    0    0  0.25615633180E+01 -0.77435510326E+02 -0.88155599675E+02  0.11736366397E+03  0.00000000000E+00 0. -1.
         13    1    4    4    0    0 -0.33755116721E+01  0.26595510359E+02 -0.26467152784E+02  0.37672608441E+02  0.00000000000E+00 0.  1.
         21    1    1    2  502  501  0.18501425852E+02  0.25302466047E+02 -0.78563574089E+02  0.84585771382E+02  0.00000000000E+00 0. -1.
<scales pt_clust_5="13000.00000" pt_clust_6="13000.00000" pt_clust_7="13000.00000" pt_clust_8="13000.00000" pt_clust_9="31.34514"></scales>
<clustering>
<clus scale="   31.345">  1  9  2 -1</clus>
<clus scale="   71.388">  5  6 -1 -1</clus>
<clus scale="   78.367">  2  5  1 -1</clus>
<clus scale="   91.173">  7  8 -1 -1</clus>
<clus scale="   31.345">  1  5  2 -1</clus>
</clustering>
</event>
<event>
 9    2  0.2984928E-005  0.1299193E+03  0.7546771E-02  0.1230756E+00
         -1   -1    0    0    0  501 -0.00000000000E+00  0.00000000000E+00  0.47193444484E+03  0.47193444484E+03  0.00000000000E+00 0.  1.
          2   -1    0    0  502    0  0.00000000000E+00 -0.00000000000E+00 -0.68361891666E+02  0.68361891666E+02  0.00000000000E+00 0. -1.
         23    2    1    2    0    0 -0.40990294139E+02  0.86457089476E+02  0.37231295961E+03  0.39518789035E+03  0.91659676273E+02 0.  0.
         24    2    1    2    0    0  0.51411208655E+02 -0.60195705466E+02  0.17056189967E+02  0.11348578935E+03  0.79507706774E+02 0.  0.
        -13    1    4    4    0    0 -0.20070702009E+02 -0.24242043990E+02 -0.88365805384E+00  0.31484768182E+02  0.00000000000E+00 0.  1.
         14    1    4    4    0    0  0.71481910664E+02 -0.35953661476E+02  0.17939848021E+02  0.82001021168E+02  0.00000000000E+00 0. -1.
        -11    1    3    3    0    0 -0.64893279500E+02  0.67407810199E+02  0.32987670064E+03  0.34289005268E+03  0.00000000000E+00 0.  1.
         11    1    3    3    0    0  0.23902985361E+02  0.19049279277E+02  0.42436258963E+02  0.52297837670E+02  0.00000000000E+00 0. -1.
         21    1    1    2  502  501 -0.10420914516E+02 -0.26261384010E+02  0.14203403597E+02  0.31622656802E+02  0.00000000000E+00 0.  1.
<scales pt_clust_5="13000.00000" pt_clust_6="13000.00000" pt_clust_7="13000.00000" pt_clust_8="13000.00000" pt_clust_9="28.25342"></scales>
<clustering>
<clus scale="   28.253">  2  9  1 -1</clus>
<clus scale="   79.508">  5  6 -1 -1</clus>
<clus scale="   91.660">  7  8 -1 -1</clus>
<clus scale="  121.651">  2  5  1 -1</clus>
<clus scale="   28.253">  2  5  1 -1</clus>
</clustering>
</event>
<event>
 9    2  0.2984928E-005  0.1258277E+03  0.7546771E-02  0.1236976E+00
         -1   -1    0    0    0  501 -0.00000000000E+00  0.00000000000E+00  0.11378890143E+03  0.11378890143E+03  0.00000000000E+00 0.  1.
          2   -1    0    0  502    0  0.00000000000E+00 -0.00000000000E+00 -0.36163101738E+03  0.36163101738E+03  0.00000000000E+00 0. -1.
         24    2    1    2    0    0 -0.24913425099E+02  0.88067036280E+02  0.11465506684E+02  0.12285826118E+03  0.81155485744E+02 0.  0.
         23    2    1    2    0    0  0.54796122950E+02 -0.60559796529E+02 -0.40116048793E+02  0.12963886850E+03  0.92340862075E+02 0.  0.
        -13    1    3    3    0    0  0.16598192553E+02  0.77150734580E+02  0.12625802612E+02  0.79919626713E+02  0.00000000000E+00 0.  1.
         14    1    3    3    0    0 -0.41511617652E+02  0.10916301700E+02 -0.11602959283E+01  0.42938634463E+02  0.00000000000E+00 0. -1.
        -11    1    4    4    0    0 -0.49568062516E+01 -0.38693993529E+02 -0.51902742934E+02  0.64928343483E+02  0.00000000000E+00 0. -1.
         11    1    4    4    0    0  0.59752929201E+02 -0.21865803000E+02  0.11786694141E+02  0.64710525015E+02  0.00000000000E+00 0.  1.
         21    1    1    2  502  501 -0.29882697850E+02 -0.27507239750E+02 -0.21919157384E+03  0.22292278913E+03  0.00000000000E+00 0. -1.
<scales pt_clust_5="13000.00000" pt_clust_6="13000.00000" pt_clust_7="13000.00000" pt_clust_8="13000.00000" pt_clust_9="40.61556"></scales>
<clustering>
<clus scale="   40.616">  2  9  1 -1</clus>
<clus scale="   81.155">  5  6 -1 -1</clus>
<clus scale="   92.341">  7  8 -1 -1</clus>
<clus scale="  117.864">  1  5  2 -1</clus>
<clus scale="   40.616">  2  5  1 -1</clus>
</clustering>
</event>
<event>
 9    2  0.2984928E-005  0.1043566E+03  0.7546771E-02  0.1275437E+00
         -1   -1    0    0    0  501 -0.00000000000E+00  0.00000000000E+00  0.64013144477E+02  0.64013144477E+02  0.00000000000E+00 0.  1.
          2   -1    0    0  502    0  0.00000000000E+00 -0.00000000000E+00 -0.57387227949E+03  0.57387227949E+03  0.00000000000E+00 0. -1.
         23    2    1    2    0    0 -0.50558411925E+02 -0.32100315423E+02  0.61301575407E+01  0.10694951546E+03  0.88397040437E+02 0.  0.
         24    2    1    2    0    0  0.19168531344E+02  0.72001215127E+01 -0.39929753442E+03  0.40755717989E+03  0.79025689136E+02 0.  0.
        -11    1    4    4    0    0  0.88303657191E+01 -0.31395466687E+02 -0.90733087640E+02  0.96416512486E+02  0.00000000000E+00 0.  1.
         12    1    4    4    0    0  0.10338165625E+02  0.38595588200E+02 -0.30856444678E+03  0.31114066740E+03  0.00000000000E+00 0. -1.
        -11    1    3    3    0    0 -0.24921486369E+02  0.21337814611E+02 -0.23818996203E+02  0.40542908077E+02  0.00000000000E+00 0. -1.
         11    1    3    3    0    0 -0.25636925556E+02 -0.53438130034E+02  0.29949153744E+02  0.66406607379E+02  0.00000000000E+00 0.  1.
         21    1    1    2  502  501  0.31389880581E+02  0.24900193911E+02 -0.11669175814E+03  0.12337872863E+03  0.00000000000E+00 0. -1.
<scales pt_clust_5="13000.00000" pt_clust_6="13000.00000" pt_clust_7="13000.00000" pt_clust_8="13000.00000" pt_clust_9="40.06675"></scales>
<clustering>
<clus scale="   40.067">  2  9  1 -1</clus>
<clus scale="   79.026">  5  6 -1 -1</clus>
<clus scale="   88.397">  7  8 -1 -1</clus>
<clus scale="   96.547">  2  5  1 -1</clus>
<clus scale="   40.067">  2  5  1 -1</clus>
</clustering>
</event>
<event>
 9    2  0.2984928E-005  0.1356523E+03  0.7546771E-02  0.1220782E+00
         -1   -1    0    0    0  501 -0.00000000000E+00  0.00000000000E+00  0.11059899760E+03  0.11059899760E+03  0.00000000000E+00 0.  1.
          2   -1    0    0  502    0  0.00000000000E+00 -0.00000000000E+00 -0.36008307798E+03  0.36008307798E+03  0.00000000000E+00 0. -1.
         23    2    1    2    0    0  0.50311791774E+02  0.88344797337E+02  0.38818043351E+02  0.14270652985E+03  0.92315944264E+02 0.  0.
         24    2    1    2    0    0 -0.66530054626E+02 -0.63876577224E+02 -0.21964006569E+03  0.25330156055E+03  0.86101433427E+02 0.  0.
        -11    1    4    4    0    0  0.50064231489E+01 -0.46578784978E+02 -0.12446611013E+03  0.13299045099E+03  0.00000000000E+00 0.  1.
         12    1    4    4    0    0 -0.71536477775E+02 -0.17297792246E+02 -0.95173955553E+02  0.12031110956E+03  0.00000000000E+00 0. -1.
        -11    1    3    3    0    0  0.53397164706E+02  0.11846356064E+02  0.37166236823E+02  0.66128076565E+02  0.00000000000E+00 0.  1.
         11    1    3    3    0    0 -0.30853729319E+01  0.76498441273E+02  0.16518065288E+01  0.76578453289E+02  0.00000000000E+00 0. -1.
         21    1    1    2  502  501  0.16218262852E+02 -0.24468220113E+02 -0.68662058051E+02  0.74673985171E+02  0.00000000000E+00 0. -1.
<scales pt_clust_5="13000.00000" pt_clust_6="13000.00000" pt_clust_7="13000.00000" pt_clust_8="13000.00000" pt_clust_9="29.35517"></scales>
<clustering>
<clus scale="   29.355">  2  9  1 -1</clus>
<clus scale="   86.101">  5  6 -1 -1</clus>
<clus scale="   92.316">  7  8 -1 -1</clus>
<clus scale="  131.502">  2  5  1 -1</clus>
<clus scale="   29.355">  2  5  1 -1</clus>
</clustering>
</event>
<event>
 9    2  0.2984928E-005  0.1002767E+03  0.7546771E-02  0.1287287E+00
         -1   -1    0    0    0  501 -0.00000000000E+00  0.00000000000E+00  0.51838566578E+02  0.51838566578E+02  0.00000000000E+00 0.  1.
          2   -1    0    0  502    0  0.00000000000E+00 -0.00000000000E+00 -0.41072396018E+03  0.41072396018E+03  0.00000000000E+00 0. -1.
         24    2    1    2    0    0 -0.28373256345E+02 -0.31803226984E+01 -0.11431527109E+02  0.86626246520E+02  0.80983150384E+02 0.  0.
         23    2    1    2    0    0  0.21891544639E+02 -0.26665659923E+02 -0.31710063951E+03  0.33287686020E+03  0.95204471199E+02 0.  0.
        -11    1    3    3    0    0  0.65046800692E+01  0.31315815416E+02 -0.18677504689E+02  0.37038363077E+02  0.00000000000E+00 0.  1.
         12    1    3    3    0    0 -0.34877936414E+02 -0.34496138114E+02  0.72459775804E+01  0.49587883444E+02  0.00000000000E+00 0. -1.
        -13    1    4    4    0    0 -0.22422446780E+02 -0.46520265392E+02 -0.13929321181E+03  0.14855806968E+03  0.00000000000E+00 0. -1.
         13    1    4    4    0    0  0.44313991420E+02  0.19854605470E+02 -0.17780742770E+03  0.18431879052E+03  0.00000000000E+00 0.  1.
         21    1    1    2  502  501  0.64817117056E+01  0.29845982621E+02 -0.30353226981E+02  0.43059420031E+02  0.00000000000E+00 0. -1.
<scales pt_clust_5="13000.00000" pt_clust_6="13000.00000" pt_clust_7="13000.00000" pt_clust_8="13000.00000" pt_clust_9="30.54170"></scales>
<clustering>
<clus scale="   30.542">  1  9  2 -1</clus>
<clus scale="   80.983">  5  6 -1 -1</clus>
<clus scale="   86.890">  1  5  2 -1</clus>
<clus scale="   95.204">  7  8 -1 -1</clus>
<clus scale="  100.277">  2  5  1 -1</clus>
</clustering>
</event>
<event>
 9    2  0.2984928E-005  0.1581565E+03  0.7546771E-02  0.1192259E+00
         -1   -1    0    0    0  501 -0.00000000000E+00  0.00000000000E+00  0.16506769524E+03  0.16506769524E+03  0.00000000000E+00 0.  1.
          2   -1    0    0  502    0  0.00000000000E+00 -0.00000000000E+00 -0.91347135091E+03  0.91347135091E+03  0.00000000000E+00 0. -1.
         23    2    1    2    0    0  0.12265039464E+03 -0.44462085442E+02  0.11096380314E+03  0.19339494473E+03  0.89825623806E+02 0.  0.
         24    2    1    2    0    0 -0.99432257402E+02  0.91507179065E+02 -0.69559665415E+03  0.71317550199E+03  0.80648953750E+02 0.  0.
        -11    1    4    4    0    0 -0.58925520276E+02  0.32462113244E+02 -0.17172259915E+03  0.18443062868E+03  0.00000000000E+00 0.  1.
         12    1    4    4    0    0 -0.40506737126E+02  0.59045065821E+02 -0.52387405500E+03  0.52874487331E+03  0.00000000000E+00 0. -1.
        -13    1    3    3    0    0  0.89133360789E+02 -0.63275445089E+02  0.10981048872E+03  0.15494154184E+03  0.00000000000E+00 0.  1.
         13    1    3    3    0    0  0.33517033848E+02  0.18813359647E+02  0.11533144241E+01  0.38453402884E+02  0.00000000000E+00 0. -1.
         21    1    1    2  502  501 -0.23218137235E+02 -0.47045093623E+02 -0.16377080466E+03  0.17196859943E+03  0.00000000000E+00 0.  1.
<scales pt_clust_5="13000.00000" pt_clust_6="13000.00000" pt_clust_7="13000.00000" pt_clust_8="13000.00000" pt_clust_9="52.46258"></scales>
<clustering>
<clus scale="   52.463">  2  9  1 -1</clus>
<clus scale="   80.649">  5  6 -1 -1</clus>
<clus scale="   89.826">  7  8 -1 -1</clus>
<clus scale="  153.131">  2  5  1 -1</clus>
<clus scale="   52.463">  2  5  1 -1</clus>
</clustering>
</event>
<event>
 9    2  0.2984928E-005  0.9659223E+02  0.7546771E-02  0.1296020E+00
         -1   -1    0    0    0  501 -0.00000000000E+00  0.00000000000E+00  0.33910800121E+03  0.33910800121E+03  0.00000000000E+00 0.  1.
          2   -1    0    0  502    0  0.00000000000E+00 -0.00000000000E+00 -0.28419759089E+03  0.28419759089E+03  0.00000000000E+00 0. -1.
         24    2    1    2    0    0  0.16948081164E+02 -0.24572227298E+02  0.30413519271E+03  0.31530157712E+03  0.77626266680E+02 0.  0.
         23    2    1    2    0    0  0.27873798707E+02  0.19043209655E+02 -0.63999013204E+02  0.11735208994E+03  0.92390729153E+02 0.  0.
        -13    1    3    3    0    0  0.89626087584E+01 -0.51961559607E+02  0.22743088644E+03  0.23346335931E+03  0.00000000000E+00 0.  1.
         14    1    3    3    0    0  0.79854724058E+01  0.27389332309E+02  0.76704306273E+02  0.81838217813E+02  0.00000000000E+00 0. -1.
        -11    1    4    4    0    0 -0.20644776280E+02  0.30564314746E+02 -0.55690727189E+02  0.66797015041E+02  0.00000000000E+00 0. -1.
         11    1    4    4    0    0  0.48518574987E+02 -0.11521105091E+02 -0.83082860143E+01  0.50555074897E+02  0.00000000000E+00 0.  1.
         21    1    1    2  502  501 -0.44821879872E+02  0.55290176438E+01 -0.18522576919E+03  0.19065192505E+03  0.00000000000E+00 0.  1.
<scales pt_clust_5="13000.00000" pt_clust_6="13000.00000" pt_clust_7="13000.00000" pt_clust_8="13000.00000" pt_clust_9="45.16161"></scales>
<clustering>
<clus scale="   45.162">  2  9  1 -1</clus>
<clus scale="   77.626">  5  6 -1 -1</clus>
<clus scale="   82.582">  1  5  2 -1</clus>
<clus scale="   92.391">  7  8 -1 -1</clus>
<clus scale="   45.162">  2  5  1 -1</clus>
</clustering>
</event>
<event>
 9    2  0.2984928E-005  0.9182786E+02  0.7546771E-02  0.1305355E+00
         -1   -1    0    0    0  501 -0.00000000000E+00  0.00000000000E+00  0.46716462810E+02  0.46716462810E+02  0.00000000000E+00 0.  1.
          2   -1    0    0  502    0  0.00000000000E+00 -0.00000000000E+00 -0.46554729336E+03  0.46554729336E+03  0.00000000000E+00 0. -1.
         24    2    1    2    0    0  0.47524586687E+01 -0.17860669623E+02 -0.22166573133E+02  0.85303469426E+02  0.80272881777E+02 0.  0.
         23    2    1    2    0    0 -0.28495101641E+01 -0.38207412830E+02 -0.29035257158E+03  0.30675452304E+03  0.91245797038E+02 0.  0.
        -13    1    3    3    0    0 -0.10115082409E+02 -0.46502200147E+02 -0.23354156053E+02  0.53011188589E+02  0.00000000000E+00 0.  1.
         14    1    3    3    0    0  0.14867541077E+02  0.28641530524E+02  0.11875829210E+01  0.32292280837E+02  0.00000000000E+00 0. -1.
        -13    1    4    4    0    0  0.20984505835E+02 -0.60288598251E+02 -0.15657829702E+03  0.16909118150E+03  0.00000000000E+00 0.  1.
         13    1    4    4    0    0 -0.23834015999E+02  0.22081185422E+02 -0.13377427457E+03  0.13766334154E+03  0.00000000000E+00 0. -1.
         21    1    1    2  502  501 -0.19029485046E+01  0.56068082453E+02 -0.10631168583E+03  0.12020576371E+03  0.00000000000E+00 0. -1.
<scales pt_clust_5="13000.00000" pt_clust_6="13000.00000" pt_clust_7="13000.00000" pt_clust_8="13000.00000" pt_clust_9="56.10037"></scales>
<clustering>
<clus scale="   56.100">  2  9  1 -1</clus>
<clus scale="   80.273">  5  6 -1 -1</clus>
<clus scale="   80.934">  1  5  2 -1</clus>
<clus scale="   91.246">  7  8 -1 -1</clus>
<clus scale="   56.100">  2  5  1 -1</clus>
</clustering>
</event>
<event>
 9    2  0.2984928E-005  0.1186777E+03  0.7546771E-02  0.1250143E+00
         -1   -1    0    0    0  501 -0.00000000000E+00  0.00000000000E+00  0.13344850219E+03  0.13344850219E+03  0.00000000000E+00 0.  1.
          2   -1    0    0  502    0  0.00000000000E+00 -0.00000000000E+00 -0.29093365741E+03  0.29093365741E+03  0.00000000000E+00 0. -1.
         23    2    1    2    0    0  0.32406374668E+02  0.72959937072E+02  0.81896548935E+02  0.14646247548E+03  0.91492548652E+02 0.  0.
         24    2    1    2    0    0 -0.23453976615E+02 -0.54043560756E+02 -0.10836987589E+03  0.14524687655E+03  0.76693087495E+02 0.  0.
        -11    1    4    4    0    0  0.24270260515E+02 -0.20598426395E+01 -0.40964570168E+02  0.47659044327E+02  0.00000000000E+00 0.  1.
         12    1    4    4    0    0 -0.47724237130E+02 -0.51983718116E+02 -0.67405305725E+02  0.97587832227E+02  0.00000000000E+00 0. -1.
        -11    1    3    3    0    0  0.18511833294E+02  0.38480805245E+02  0.97273852258E+02  0.10623399963E+03  0.00000000000E+00 0.  1.
         11    1    3    3    0    0  0.13894541374E+02  0.34479131827E+02 -0.15377303323E+02  0.40228475848E+02  0.00000000000E+00 0. -1.
         21    1    1    2  502  501 -0.89523980529E+01 -0.18916376316E+02 -0.13101182826E+03  0.13267280757E+03  0.00000000000E+00 0. -1.
<scales pt_clust_5="13000.00000" pt_clust_6="13000.00000" pt_clust_7="13000.00000" pt_clust_8="13000.00000" pt_clust_9="20.92785"></scales>
<clustering>
<clus scale="   20.928">  2  9  1 -1</clus>
<clus scale="   76.693">  5  6 -1 -1</clus>
<clus scale="   91.493">  7  8 -1 -1</clus>
<clus scale="  107.682">  2  5  1 -1</clus>
<clus scale="   20.928">  2  5  1 -1</clus>
</clustering>
</event>
<event>
 9    2  0.3165482E-005  0.3319729E+03  0.7546771E-02  0.1070636E+00
         -1   -1    0    0    0  501 -0.00000000000E+00  0.00000000000E+00  0.69642450685E+03  0.69642450685E+03  0.00000000000E+00 0.  1.
          2   -1    0    0  502    0  0.00000000000E+00 -0.00000000000E+00 -0.54489900077E+03  0.54489900077E+03  0.00000000000E+00 0. -1.
         23    2    1    2    0    0 -0.25614606433E+03  0.18763058409E+03  0.58580286718E+03  0.67267927319E+03  0.92284142850E+02 0.  0.
         24    2    1    2    0    0  0.27933825660E+03 -0.18312381998E+03 -0.40230468344E+03  0.52888947595E+03  0.79440697400E+02 0.  0.
        -13    1    4    4    0    0  0.10758839131E+03 -0.26571690363E+02 -0.12354690848E+03  0.16596733194E+03  0.00000000000E+00 0.  1.
         14    1    4    4    0    0  0.17174986529E+03 -0.15655212962E+03 -0.27875777496E+03  0.36292214401E+03  0.00000000000E+00 0. -1.
        -11    1    3    3    0    0 -0.21925229581E+03  0.19411326654E+03  0.52886395001E+03  0.60452345453E+03  0.00000000000E+00 0.  1.
         11    1    3    3    0    0 -0.36893768523E+02 -0.64826824502E+01  0.56938917176E+02  0.68155818656E+02  0.00000000000E+00 0. -1.
         21    1    1    2  502  501 -0.23192192274E+02 -0.45067641100E+01 -0.31972677656E+02  0.39754758479E+02  0.00000000000E+00 0. -1.
<scales pt_clust_5="13000.00000" pt_clust_6="13000.00000" pt_clust_7="13000.00000" pt_clust_8="13000.00000" pt_clust_9="23.62602"></scales>
<clustering>
<clus scale="   23.626">  2  9  1 -1</clus>
<clus scale="   79.441">  5  6 -1 -1</clus>
<clus scale="   92.284">  7  8 -1 -1</clus>
<clus scale="  328.634">  2  5  1 -1</clus>
<clus scale="   23.626">  2  5  1 -1</clus>
</clustering>
</event>
<event>
 9    2  0.2984928E-005  0.9586323E+02  0.7546771E-02  0.1294582E+00
          2   -1    0    0  502    0  0.00000000000E+00  0.00000000000E+00  0.54216017729E+02  0.54216017729E+02  0.00000000000E+00 0. -1.
         -1   -1    0    0    0  501 -0.00000000000E+00 -0.00000000000E+00 -0.39777765440E+03  0.39777765440E+03  0.00000000000E+00 0.  1.
         24    2    1    2    0    0 -0.90641885316E+01 -0.34567810517E+02 -0.31558411310E+03  0.32764135657E+03  0.80488713813E+02 0.  0.
         23    2    1    2    0    0  0.10069104681E+02  0.73710367979E+01 -0.97540453889E+01  0.91599155195E+02  0.90219425727E+02 0.  0.
        -13    1    3    3    0    0 -0.29884734202E+02 -0.50246229943E+02 -0.17075166513E+03  0.18048244266E+03  0.00000000000E+00 0.  1.
         14    1    3    3    0    0  0.20820545670E+02  0.15678419426E+02 -0.14483244797E+03  0.14715891391E+03  0.00000000000E+00 0. -1.
        -13    1    4    4    0    0  0.46007712204E+02  0.22820640181E+02 -0.31373033248E+00  0.51357469050E+02  0.00000000000E+00 0.  1.
         13    1    4    4    0    0 -0.35938607523E+02 -0.15449603384E+02 -0.94403150564E+01  0.40241686145E+02  0.00000000000E+00 0. -1.
         21    1    1    2  502  501 -0.10049161495E+01  0.27196773719E+02 -0.18223478180E+02  0.32753160369E+02  0.00000000000E+00 0.  1.
<scales pt_clust_5="13000.00000" pt_clust_6="13000.00000" pt_clust_7="13000.00000" pt_clust_8="13000.00000" pt_clust_9="27.21533"></scales>
<clustering>
<clus scale="   27.215">  1  9  2 -1</clus>
<clus scale="   80.489">  5  6 -1 -1</clus>
<clus scale="   86.768">  2  5  1 -1</clus>
<clus scale="   90.219">  7  8 -1 -1</clus>
<clus scale="   27.215">  1  5  2 -1</clus>
</clustering>
</event>
<event>
 9    2  0.2984928E-005  0.1360847E+03  0.7546771E-02  0.1221186E+00
          2   -1    0    0  502    0  0.00000000000E+00  0.00000000000E+00  0.13571201192E+03  0.13571201192E+03  0.00000000000E+00 0. -1.
         -1   -1    0    0    0  501 -0.00000000000E+00 -0.00000000000E+00 -0.43466720476E+03  0.43466720476E+03  0.00000000000E+00 0.  1.
         23    2    1    2    0    0  0.76177321295E+02  0.70189642883E+02 -0.36668660948E+03  0.39197347373E+03  0.91948704679E+02 0.  0.
         24    2    1    2    0    0 -0.34125319422E+02 -0.70190274751E+02  0.75456696448E+02  0.13565003210E+03  0.81338834975E+02 0.  0.
        -11    1    4    4    0    0  0.21473895487E+01 -0.73366746349E+02  0.35307079341E+02  0.81448637823E+02  0.00000000000E+00 0.  1.
         12    1    4    4    0    0 -0.36272708971E+02  0.31764715979E+01  0.40149617107E+02  0.54201394279E+02  0.00000000000E+00 0. -1.
        -13    1    3    3    0    0  0.43425154214E+02  0.71891103579E+02 -0.33838996692E+03  0.34865720200E+03  0.00000000000E+00 0.  1.
         13    1    3    3    0    0  0.32752167080E+02 -0.17014606957E+01 -0.28296642555E+02  0.43316271733E+02  0.00000000000E+00 0. -1.
         21    1    1    2  502  501 -0.42052001872E+02  0.63186759808E-03 -0.77252798105E+01  0.42755710847E+02  0.00000000000E+00 0. -1.
<scales pt_clust_5="13000.00000" pt_clust_6="13000.00000" pt_clust_7="13000.00000" pt_clust_8="13000.00000" pt_clust_9="42.05200"></scales>
<clustering>
<clus scale="   42.052">  1  9  2 -1</clus>
<clus scale="   81.339">  5  6 -1 -1</clus>
<clus scale="   91.949">  7  8 -1 -1</clus>
<clus scale="  129.153">  1  5  2 -1</clus>
<clus scale="   42.052">  1  5  2 -1</clus>
</clustering>
</event>
<event>
 9    2  0.2984928E-005  0.1238549E+03  0.7546771E-02  0.1240092E+00
          2   -1    0    0  502    0  0.00000000000E+00  0.00000000000E+00  0.36878973836E+02  0.36878973836E+02  0.00000000000E+00 0. -1.
         -1   -1    0    0    0  501 -0.00000000000E+00 -0.00000000000E+00 -0.58937916092E+03  0.58937916092E+03  0.00000000000E+00 0.  1.
         24    2    1    2    0    0 -0.37945875590E+02 -0.79988595244E+02 -0.40743632399E+03  0.42469204394E+03  0.80752146913E+02 0.  0.
         23    2    1    2    0    0  0.41465530401E+02  0.57266076027E+02 -0.12995358949E+03  0.17405207225E+03  0.91691846734E+02 0.  0.
        -11    1    3    3    0    0  0.24002849250E+02 -0.20008179116E+02 -0.74881934992E+02  0.81140422675E+02  0.00000000000E+00 0.  1.
         12    1    3    3    0    0 -0.61948724840E+02 -0.59980416127E+02 -0.33255438900E+03  0.34355162126E+03  0.00000000000E+00 0. -1.
        -13    1    4    4    0    0 -0.39136066032E+00 -0.22629060421E+02 -0.12159298773E+02  0.25691945924E+02  0.00000000000E+00 0. -1.
         13    1    4    4    0    0  0.41856891061E+02  0.79895136448E+02 -0.11779429071E+03  0.14836012632E+03  0.00000000000E+00 0.  1.
         21    1    1    2  502  501 -0.35196548106E+01  0.22722519216E+02 -0.15110273597E+02  0.27514018567E+02  0.00000000000E+00 0.  1.
<scales pt_clust_5="13000.00000" pt_clust_6="13000.00000" pt_clust_7="13000.00000" pt_clust_8="13000.00000" pt_clust_9="22.99350"></scales>
<clustering>
<clus scale="   22.993">  1  9  2 -1</clus>
<clus scale="   80.752">  5  6 -1 -1</clus>
<clus scale="   91.692">  7  8 -1 -1</clus>
<clus scale="  115.989">  2  5  1 -1</clus>
<clus scale="   22.993">  1  5  2 -1</clus>
</clustering>
</event>
<event>
 9    2  0.2984928E-005  0.1121122E+03  0.7546771E-02  0.1262033E+00
         -1   -1    0    0    0  501 -0.00000000000E+00  0.00000000000E+00  0.26951464948E+02  0.26951464948E+02  0.00000000000E+00 0.  1.
          2   -1    0    0  502    0  0.00000000000E+00 -0.00000000000E+00 -0.88706393308E+03  0.88706393308E+03  0.00000000000E+00 0. -1.
         23    2    1    2    0    0 -0.55129841508E+02 -0.19527905192E+02 -0.12775955690E+03  0.16866956379E+03  0.93307442699E+02 0.  0.
         24    2    1    2    0    0  0.78067411458E+02  0.13530884063E+02 -0.65085293788E+03  0.66046743868E+03  0.79561832846E+02 0.  0.
        -11    1    4    4    0    0  0.47724799374E+02 -0.24159967857E+02 -0.20015642155E+03  0.20718096826E+03  0.00000000000E+00 0.  1.
         12    1    4    4    0    0  0.30342612084E+02  0.37690851920E+02 -0.45069651633E+03  0.45328647041E+03  0.00000000000E+00 0. -1.
        -13    1    3    3    0    0 -0.72266381092E+02 -0.37188643393E+02 -0.75611329545E+02  0.11100674839E+03  0.00000000000E+00 0.  1.
         13    1    3    3    0    0  0.17136539584E+02  0.17660738200E+02 -0.52148227360E+02  0.57662815397E+02  0.00000000000E+00 0. -1.
         21    1    1    2  502  501 -0.22937569950E+02  0.59970211294E+01 -0.81499973340E+02  0.84878395556E+02  0.00000000000E+00 0. -1.
<scales pt_clust_5="13000.00000" pt_clust_6="13000.00000" pt_clust_7="13000.00000" pt_clust_8="13000.00000" pt_clust_9="23.70857"></scales>
<clustering>
<clus scale="   23.709">  2  9  1 -1</clus>
<clus scale="   79.562">  5  6 -1 -1</clus>
<clus scale="   93.307">  7  8 -1 -1</clus>
<clus scale="  100.960">  2  5  1 -1</clus>
<clus scale="   23.709">  2  5  1 -1</clus>
</clustering>
</event>
<event>
 9    2  0.2984928E-005  0.1480114E+03  0.7546771E-02  0.1226104E+00
          2   -1    0    0  502    0  0.00000000000E+00  0.00000000000E+00  0.20464490362E+04  0.20464490362E+04  0.00000000000E+00 0. -1.
         -1   -1    0    0    0  501 -0.00000000000E+00 -0.00000000000E+00 -0.30207576319E+02  0.30207576319E+02  0.00000000000E+00 0.  1.
         23    2    1    2    0    0  0.68260293796E+01 -0.50697615062E+01  0.82084215736E+02  0.12224596459E+03  0.90188470587E+02 0.  0.
         24    2    1    2    0    0  0.97007597095E+02 -0.71417847281E+02  0.12321084148E+04  0.12406149243E+04  0.80766712012E+02 0.  0.
        -13    1    4    4    0    0  0.43936052667E+02  0.63203602178E+01  0.24156763615E+03  0.24561198365E+03  0.00000000000E+00 0.  1.
         14    1    4    4    0    0  0.53071544428E+02 -0.77738207499E+02  0.99054077869E+03  0.99500294069E+03  0.00000000000E+00 0. -1.
        -11    1    3    3    0    0 -0.29155066186E+02  0.74019407853E+01  0.78417292642E+02  0.83988561109E+02  0.00000000000E+00 0. -1.
         11    1    3    3    0    0  0.35981095566E+02 -0.12471702292E+02  0.36669230931E+01  0.38257403482E+02  0.00000000000E+00 0.  1.
         21    1    1    2  502  501 -0.10383362647E+03  0.76487608787E+02  0.70204882927E+03  0.71379572355E+03  0.00000000000E+00 0. -1.
<scales pt_clust_5="13000.00000" pt_clust_6="13000.00000" pt_clust_7="13000.00000" pt_clust_8="13000.00000" pt_clust_9="124.03271"></scales>
<clustering>
<clus scale="   80.767">  5  6 -1 -1</clus>
<clus scale="   90.188">  7  8 -1 -1</clus>
<clus scale="   90.588">  2  7  1 -1</clus>
<clus scale="  124.033">  2  9  1 -1</clus>
<clus scale="  148.011">  1  5  2 -1</clus>
</clustering>
</event>
<event>
 9    2  0.2984928E-005  0.9071574E+02  0.7546771E-02  0.1304539E+00
         -3   -1    0    0    0  501 -0.00000000000E+00  0.00000000000E+00  0.45474636632E+03  0.45474636632E+03  0.00000000000E+00 0.  1.
          4   -1    0    0  502    0  0.00000000000E+00 -0.00000000000E+00 -0.12838381112E+03  0.12838381112E+03  0.00000000000E+00 0. -1.
         23    2    1    2    0    0 -0.15256656894E+02 -0.24622504812E+02  0.37655659370E+03  0.38737325488E+03  0.86163432000E+02 0.  0.
         24    2    1    2    0    0 -0.20411137152E+02  0.37745944554E+02  0.38784872431E+02  0.99001236467E+02  0.80346796092E+02 0.  0.
        -13    1    4    4    0    0 -0.28465158888E+02 -0.18581657592E+02  0.11400899643E+02  0.35854201735E+02  0.00000000000E+00 0.  1.
         14    1    4    4    0    0  0.80540217359E+01  0.56327602147E+02  0.27383972787E+02  0.63147034731E+02  0.00000000000E+00 0. -1.
        -13    1    3    3    0    0  0.27932362058E+02  0.12542606535E+02  0.18519159873E+03  0.18770578593E+03  0.00000000000E+00 0. -1.
         13    1    3    3    0    0 -0.43189018952E+02 -0.37165111347E+02  0.19136499497E+03  0.19966746895E+03  0.00000000000E+00 0.  1.
         21    1    1    2  502  501  0.35667794047E+02 -0.13123439742E+02 -0.88978910922E+02  0.96755686095E+02  0.00000000000E+00 0. -1.
<scales pt_clust_5="13000.00000" pt_clust_6="13000.00000" pt_clust_7="13000.00000" pt_clust_8="13000.00000" pt_clust_9="38.00548"></scales>
<clustering>
<clus scale="   38.005">  2  9  1 -1</clus>
<clus scale="   80.347">  5  6 -1 -1</clus>
<clus scale="   85.210">  2  5  1 -1</clus>
<clus scale="   86.163">  7  8 -1 -1</clus>
<clus scale="   38.005">  2  5  1 -1</clus>
</clustering>
</event>
<event>
 9    2  0.2984928E-005  0.9854975E+02  0.7546771E-02  0.1287404E+00
          2   -1    0    0  502    0  0.00000000000E+00  0.00000000000E+00  0.71730414253E+03  0.71730414253E+03  0.00000000000E+00 0. -1.
         -1   -1    0    0    0  501 -0.00000000000E+00 -0.00000000000E+00 -0.42161607140E+02  0.42161607140E+02  0.00000000000E+00 0.  1.
         24    2    1    2    0    0 -0.29838945944E+02 -0.29246287365E+02  0.36271898790E+02  0.99611408812E+02  0.82831600878E+02 0.  0.
         23    2    1    2    0    0  0.46047303947E+02 -0.22371246918E+02  0.32296824014E+03  0.33935253930E+03  0.90723948872E+02 0.  0.
        -13    1    3    3    0    0 -0.12538643693E+02 -0.52164307321E+02  0.38626680410E+00  0.53651484098E+02  0.00000000000E+00 0.  1.
         14    1    3    3    0    0 -0.17300302252E+02  0.22918019956E+02  0.35885631986E+02  0.45959924714E+02  0.00000000000E+00 0. -1.
        -11    1    4    4    0    0  0.67532267851E+02  0.49018494575E+01  0.24108123051E+03  0.25040925509E+03  0.00000000000E+00 0. -1.
         11    1    4    4    0    0 -0.21484963904E+02 -0.27273096376E+02  0.81887009630E+02  0.88943284210E+02  0.00000000000E+00 0.  1.
         21    1    1    2  502  501 -0.16208358002E+02  0.51617534283E+02  0.31590239646E+03  0.32050180156E+03  0.00000000000E+00 0. -1.
<scales pt_clust_5="13000.00000" pt_clust_6="13000.00000" pt_clust_7="13000.00000" pt_clust_8="13000.00000" pt_clust_9="54.10250"></scales>
<clustering>
<clus scale="   54.103">  1  9  2 -1</clus>
<clus scale="   82.832">  5  6 -1 -1</clus>
<clus scale="   90.724">  7  8 -1 -1</clus>
<clus scale="   91.336">  2  5  1 -1</clus>
<clus scale="   54.103">  1  5  2 -1</clus>
</clustering>
</event>
<event>
 9    2  0.2984928E-005  0.9848355E+02  0.7546771E-02  0.1287024E+00
          2   -1    0    0  502    0  0.00000000000E+00  0.00000000000E+00  0.22963510987E+03  0.22963510987E+03  0.00000000000E+00 0. -1.
         -1   -1    0    0    0  501 -0.00000000000E+00 -0.00000000000E+00 -0.12720011855E+03  0.12720011855E+03  0.00000000000E+00 0.  1.
         23    2    1    2    0    0 -0.16946078254E+02 -0.39498799691E+02 -0.85331799445E+02  0.12970982736E+03  0.87725700750E+02 0.  0.
         24    2    1    2    0    0  0.40735530683E+02  0.43066549737E+02  0.12630227760E+03  0.16112120979E+03  0.80583296979E+02 0.  0.
        -13    1    4    4    0    0  0.22110407511E+02  0.66219405257E+02  0.80882671144E+02  0.10684515078E+03  0.00000000000E+00 0.  1.
         14    1    4    4    0    0  0.18625123173E+02 -0.23152855519E+02  0.45419606453E+02  0.54276059015E+02  0.00000000000E+00 0. -1.
        -11    1    3    3    0    0  0.31680092147E+02 -0.18823217961E+02 -0.10897953429E+02  0.38427947666E+02  0.00000000000E+00 0. -1.
         11    1    3    3    0    0 -0.48626170402E+02 -0.20675581730E+02 -0.74433846016E+02  0.91281879694E+02  0.00000000000E+00 0.  1.
         21    1    1    2  502  501 -0.23789452429E+02 -0.35677500468E+01  0.61464513166E+02  0.66004191276E+02  0.00000000000E+00 0. -1.
<scales pt_clust_5="13000.00000" pt_clust_6="13000.00000" pt_clust_7="13000.00000" pt_clust_8="13000.00000" pt_clust_9="24.05550"></scales>
<clustering>
<clus scale="   24.055">  1  9  2 -1</clus>
<clus scale="   80.583">  5  6 -1 -1</clus>
<clus scale="   87.726">  7  8 -1 -1</clus>
<clus scale="   92.179">  1  5  2 -1</clus>
<clus scale="   24.055">  1  5  2 -1</clus>
</clustering>
</event>
<event>
 9    2  0.2984928E-005  0.1120083E+03  0.7546771E-02  0.1262397E+00
         -1   -1    0    0    0  501 -0.00000000000E+00  0.00000000000E+00  0.28118074172E+03  0.28118074172E+03  0.00000000000E+00 0.  1.
          2   -1    0    0  502    0  0.00000000000E+00 -0.00000000000E+00 -0.86954297100E+03  0.86954297100E+03  0.00000000000E+00 0. -1.
         23    2    1    2    0    0 -0.42514321007E+01  0.78361690830E+02  0.24503605275E+03  0.26502770073E+03  0.63548294563E+02 0.  0.
         24    2    1    2    0    0  0.88646438651E+02 -0.28447143339E+02 -0.74039121280E+03  0.75055055663E+03  0.80495708026E+02 0.  0.
        -11    1    4    4    0    0  0.19793379372E+02  0.27161110687E+02 -0.16447639129E+03  0.16787491502E+03  0.00000000000E+00 0.  1.
         12    1    4    4    0    0  0.68853059278E+02 -0.55608254026E+02 -0.57591482151E+03  0.58267564161E+03  0.00000000000E+00 0. -1.
        -13    1    3    3    0    0  0.13190248936E+02  0.48752257367E+02  0.20985948897E+03  0.21585126911E+03  0.00000000000E+00 0.  1.
         13    1    3    3    0    0 -0.17441681037E+02  0.29609433463E+02  0.35176563774E+02  0.49176431614E+02  0.00000000000E+00 0. -1.
         21    1    1    2  502  501 -0.84395006550E+02 -0.49914547491E+02 -0.93007069219E+02  0.13514545537E+03  0.00000000000E+00 0.  1.
<scales pt_clust_5="13000.00000" pt_clust_6="13000.00000" pt_clust_7="13000.00000" pt_clust_8="13000.00000" pt_clust_9="98.05090"></scales>
<clustering>
<clus scale="   63.548">  7  8 -1 -1</clus>
<clus scale="   80.496">  5  6 -1 -1</clus>
<clus scale="   98.051">  2  9  1 -1</clus>
<clus scale="  100.522">  1  7  2 -1</clus>
<clus scale="   98.051">  2  5  1 -1</clus>
</clustering>
</event>
<event>
 9    2  0.2984928E-005  0.1289561E+03  0.7546771E-02  0.1230570E+00
          2   -1    0    0  502    0  0.00000000000E+00  0.00000000000E+00  0.56682127244E+03  0.56682127244E+03  0.00000000000E+00 0. -1.
         -1   -1    0    0    0  501 -0.00000000000E+00 -0.00000000000E+00 -0.84385988790E+02  0.84385988790E+02  0.00000000000E+00 0.  1.
         24    2    1    2    0    0 -0.89320871475E+02  0.31016142946E+02 -0.53686557014E+00  0.12434691813E+03  0.80756724919E+02 0.  0.
         23    2    1    2    0    0  0.73861337807E+02 -0.78039156243E+02  0.22406920452E+03  0.26326805236E+03  0.86933605995E+02 0.  0.
        -13    1    3    3    0    0 -0.36988107679E+02 -0.21029504878E+01 -0.37097269820E+02  0.52428522186E+02  0.00000000000E+00 0.  1.
         14    1    3    3    0    0 -0.52332763796E+02  0.33119093434E+02  0.36560404250E+02  0.71918395945E+02  0.00000000000E+00 0. -1.
        -13    1    4    4    0    0  0.38306410867E+02 -0.83683033687E+02  0.10878434808E+03  0.14249303712E+03  0.00000000000E+00 0.  1.
         13    1    4    4    0    0  0.35554926941E+02  0.56438774446E+01  0.11528485644E+03  0.12077501525E+03  0.00000000000E+00 0. -1.
         21    1    1    2  502  501  0.15459533668E+02  0.47023013297E+02  0.25890294470E+03  0.26359229074E+03  0.00000000000E+00 0. -1.
<scales pt_clust_5="13000.00000" pt_clust_6="13000.00000" pt_clust_7="13000.00000" pt_clust_8="13000.00000" pt_clust_9="49.49910"></scales>
<clustering>
<clus scale="   49.499">  1  9  2 -1</clus>
<clus scale="   80.757">  5  6 -1 -1</clus>
<clus scale="   86.934">  7  8 -1 -1</clus>
<clus scale="  124.875">  2  5  1 -1</clus>
<clus scale="   49.499">  1  5  2 -1</clus>
</clustering>
</event>
<event>
 9    2  0.2984928E-005  0.9837652E+02  0.7546771E-02  0.1290328E+00
          2   -1    0    0  502    0  0.00000000000E+00  0.00000000000E+00  0.35497335597E+03  0.35497335597E+03  0.00000000000E+00 0. -1.
         -1   -1    0    0    0  501 -0.00000000000E+00 -0.00000000000E+00 -0.13180479340E+03  0.13180479340E+03  0.00000000000E+00 0.  1.
         23    2    1    2    0    0  0.31531224836E+01 -0.36345086691E+02 -0.10085273694E+03  0.14124208306E+03  0.91908345488E+02 0.  0.
         24    2    1    2    0    0  0.76406035693E+01  0.14451286862E+02  0.30179087749E+03  0.31252039342E+03  0.79523858405E+02 0.  0.
        -11    1    4    4    0    0 -0.17649090186E+01 -0.28917720980E+02  0.59258501869E+02  0.65961500395E+02  0.00000000000E+00 0.  1.
         12    1    4    4    0    0  0.94055125879E+01  0.43369007842E+02  0.24253237562E+03  0.24655889303E+03  0.00000000000E+00 0. -1.
        -11    1    3    3    0    0  0.35817209021E+02 -0.35137505132E+02 -0.95831772767E+02  0.10817229498E+03  0.00000000000E+00 0.  1.
         11    1    3    3    0    0 -0.32664086537E+02 -0.12075815587E+01 -0.50209641736E+01  0.33069788082E+02  0.00000000000E+00 0. -1.
         21    1    1    2  502  501 -0.10793726053E+02  0.21893799829E+02  0.22230422020E+02  0.33015672888E+02  0.00000000000E+00 0.  1.
<scales pt_clust_5="13000.00000" pt_clust_6="13000.00000" pt_clust_7="13000.00000" pt_clust_8="13000.00000" pt_clust_9="24.40990"></scales>
<clustering>
<clus scale="   24.410">  1  9  2 -1</clus>
<clus scale="   79.524">  5  6 -1 -1</clus>
<clus scale="   86.919">  1  5  2 -1</clus>
<clus scale="   91.908">  7  8 -1 -1</clus>
<clus scale="   24.410">  1  5  2 -1</clus>
</clustering>
</event>
<event>
 9    2  0.2984928E-005  0.1065082E+03  0.7546771E-02  0.1270329E+00
          2   -1    0    0  502    0  0.00000000000E+00  0.00000000000E+00  0.10555119969E+03  0.10555119969E+03  0.00000000000E+00 0. -1.
         -1   -1    0    0    0  501 -0.00000000000E+00 -0.00000000000E+00 -0.23222771774E+03  0.23222771774E+03  0.00000000000E+00 0.  1.
         23    2    1    2    0    0 -0.54714062800E+02 -0.70340465011E+01 -0.16786941781E+03  0.19939387127E+03  0.92383266816E+02 0.  0.
         24    2    1    2    0    0  0.45723077421E+02 -0.24223432616E+02  0.29363133526E+02  0.10377563722E+03  0.85028317475E+02 0.  0.
        -11    1    4    4    0    0  0.22290743386E+02 -0.53422829053E+02  0.29589603223E+01  0.57962326998E+02  0.00000000000E+00 0.  1.
         12    1    4    4    0    0  0.23432334034E+02  0.29199396438E+02  0.26404173204E+02  0.45813310219E+02  0.00000000000E+00 0. -1.
        -13    1    3    3    0    0 -0.13703478887E+02 -0.35091360322E+02 -0.13416004373E+03  0.13934886521E+03  0.00000000000E+00 0.  1.
         13    1    3    3    0    0 -0.41010583913E+02  0.28057313821E+02 -0.33709374076E+02  0.60045006056E+02  0.00000000000E+00 0. -1.
         21    1    1    2  502  501  0.89909853792E+01  0.31257479117E+02  0.11829766231E+02  0.34609408950E+02  0.00000000000E+00 0.  1.
<scales pt_clust_5="13000.00000" pt_clust_6="13000.00000" pt_clust_7="13000.00000" pt_clust_8="13000.00000" pt_clust_9="32.52488"></scales>
<clustering>
<clus scale="   32.525">  1  9  2 -1</clus>
<clus scale="   85.028">  5  6 -1 -1</clus>
<clus scale="   92.383">  7  8 -1 -1</clus>
<clus scale="  100.196">  1  5  2 -1</clus>
<clus scale="   32.525">  1  5  2 -1</clus>
</clustering>
</event>
<event>
 9    2  0.2984928E-005  0.9760803E+02  0.7546771E-02  0.1295028E+00
         -1   -1    0    0    0  501 -0.00000000000E+00  0.00000000000E+00  0.67127847492E+02  0.67127847492E+02  0.00000000000E+00 0.  1.
          2   -1    0    0  502    0  0.00000000000E+00 -0.00000000000E+00 -0.30583859317E+03  0.30583859317E+03  0.00000000000E+00 0. -1.
         23    2    1    2    0    0 -0.53368647193E+01  0.18664419432E+02  0.86797216531E+01  0.96975775460E+02  0.94615647651E+02 0.  0.
         24    2    1    2    0    0  0.28578347522E+02 -0.32043048135E+02 -0.14471241084E+03  0.16986838896E+03  0.77910903199E+02 0.  0.
        -11    1    4    4    0    0  0.35044609782E+02  0.42667431664E+01 -0.12094556426E+03  0.12599269537E+03  0.00000000000E+00 0.  1.
         12    1    4    4    0    0 -0.64662622605E+01 -0.36309791302E+02 -0.23766846576E+02  0.43875693592E+02  0.00000000000E+00 0. -1.
        -11    1    3    3    0    0 -0.48362799871E+02  0.22147359760E+02  0.80948630360E+01  0.53805136960E+02  0.00000000000E+00 0.  1.
         11    1    3    3    0    0  0.43025935151E+02 -0.34829403278E+01  0.58485861715E+00  0.43170638501E+02  0.00000000000E+00 0. -1.
         21    1    1    2  502  501 -0.23241482802E+02  0.13378628703E+02 -0.10267805650E+03  0.10612227624E+03  0.00000000000E+00 0.  1.
<scales pt_clust_5="13000.00000" pt_clust_6="13000.00000" pt_clust_7="13000.00000" pt_clust_8="13000.00000" pt_clust_9="26.81705"></scales>
<clustering>
<clus scale="   26.817">  2  9  1 -1</clus>
<clus scale="   77.911">  5  6 -1 -1</clus>
<clus scale="   81.519">  2  5  1 -1</clus>
<clus scale="   94.616">  7  8 -1 -1</clus>
<clus scale="   26.817">  2  5  1 -1</clus>
</clustering>
</event>
<event>
 9    2  0.2984928E-005  0.2134444E+03  0.7546771E-02  0.1164871E+00
         -1   -1    0    0    0  501 -0.00000000000E+00  0.00000000000E+00  0.22822829572E+03  0.22822829572E+03  0.00000000000E+00 0.  1.
          2   -1    0    0  502    0  0.00000000000E+00 -0.00000000000E+00 -0.98235799838E+03  0.98235799838E+03  0.00000000000E+00 0. -1.
         23    2    1    2    0    0 -0.20476497763E+03 -0.50367138690E+02  0.12674727790E+03  0.26285116298E+03  0.92521979562E+02 0.  0.
         24    2    1    2    0    0  0.78355972827E+02 -0.23815989712E+02 -0.72356815050E+03  0.73272712884E+03  0.81432899185E+02 0.  0.
        -11    1    4    4    0    0  0.37392416930E+02 -0.23455992066E+02 -0.12154584595E+03  0.12931267948E+03  0.00000000000E+00 0.  1.
         12    1    4    4    0    0  0.40963555897E+02 -0.35999764606E+00 -0.60202230455E+03  0.60341444935E+03  0.00000000000E+00 0. -1.
        -13    1    3    3    0    0 -0.10517710704E+03  0.99654671847E+01  0.25814127010E+02  0.10875616550E+03  0.00000000000E+00 0. -1.
         13    1    3    3    0    0 -0.99587870597E+02 -0.60332605875E+02  0.10093315089E+03  0.15409499748E+03  0.00000000000E+00 0.  1.
         21    1    1    2  502  501  0.12640900481E+03  0.74183128402E+02 -0.15730883005E+03  0.21500800228E+03  0.00000000000E+00 0. -1.
<scales pt_clust_5="13000.00000" pt_clust_6="13000.00000" pt_clust_7="13000.00000" pt_clust_8="13000.00000" pt_clust_9="192.34910"></scales>
<clustering>
<clus scale="   81.433">  5  6 -1 -1</clus>
<clus scale="   92.522">  7  8 -1 -1</clus>
<clus scale="  115.491">  2  5  1 -1</clus>
<clus scale="  192.349">  2  9  1 -1</clus>
<clus scale="  115.491">  2  5  1 -1</clus>
</clustering>
</event>
<event>
 9    2  0.2984928E-005  0.9115416E+02  0.7546771E-02  0.1306917E+00
         -3   -1    0    0    0  501 -0.00000000000E+00  0.00000000000E+00  0.92848280010E+03  0.92848280010E+03  0.00000000000E+00 0.  1.
          4   -1    0    0  502    0  0.00000000000E+00 -0.00000000000E+00 -0.37293720868E+02  0.37293720868E+02  0.00000000000E+00 0. -1.
         24    2    1    2    0    0  0.90002421042E+01 -0.82668789081E+01  0.82866208446E+03  0.83255127770E+03  0.79444534929E+02 0.  0.
         23    2    1    2    0    0 -0.25996255725E+02 -0.70298365276E+01  0.55237037914E+02  0.10922529633E+03  0.90298455621E+02 0.  0.
        -13    1    3    3    0    0 -0.30156055328E+02 -0.31996105546E+01  0.16832585791E+03  0.17103572615E+03  0.00000000000E+00 0.  1.
         14    1    3    3    0    0  0.39156297433E+02 -0.50672683536E+01  0.66033622656E+03  0.66151555155E+03  0.00000000000E+00 0. -1.
        -13    1    4    4    0    0  0.30420463491E+02 -0.83978259149E+01  0.39655858225E+02  0.50680520623E+02  0.00000000000E+00 0. -1.
         13    1    4    4    0    0 -0.56416719216E+02  0.13679893874E+01  0.15581179689E+02  0.58544775707E+02  0.00000000000E+00 0.  1.
         21    1    1    2  502  501  0.16996013621E+02  0.15296715436E+02  0.72899568563E+01  0.23999946939E+02  0.00000000000E+00 0. -1.
<scales pt_clust_5="13000.00000" pt_clust_6="13000.00000" pt_clust_7="13000.00000" pt_clust_8="13000.00000" pt_clust_9="22.86600"></scales>
<clustering>
<clus scale="   22.866">  2  9  1 -1</clus>
<clus scale="   79.445">  5  6 -1 -1</clus>
<clus scale="   80.416">  1  5  2 -1</clus>
<clus scale="   90.298">  7  8 -1 -1</clus>
<clus scale="   22.866">  2  5  1 -1</clus>
</clustering>
</event>
<event>
 9    2  0.2984928E-005  0.1147302E+03  0.7546771E-02  0.1257144E+00
         -1   -1    0    0    0  501 -0.00000000000E+00  0.00000000000E+00  0.38549995946E+02  0.38549995946E+02  0.00000000000E+00 0.  1.
          2   -1    0    0  502    0  0.00000000000E+00 -0.00000000000E+00 -0.59503681810E+03  0.59503681810E+03  0.00000000000E+00 0. -1.
         23    2    1    2    0    0  0.58904545444E+02  0.45525597428E+02 -0.78726831241E+02  0.14133242145E+03  0.90744773403E+02 0.  0.
         24    2    1    2    0    0 -0.35696103670E+02 -0.44221697055E+02 -0.37354620217E+03  0.38547964985E+03  0.76341502356E+02 0.  0.
        -11    1    4    4    0    0  0.23249884296E+02 -0.21710937690E+02 -0.13908323948E+03  0.14267469796E+03  0.00000000000E+00 0.  1.
         12    1    4    4    0    0 -0.58945987966E+02 -0.22510759365E+02 -0.23446296269E+03  0.24280495188E+03  0.00000000000E+00 0. -1.
        -11    1    3    3    0    0 -0.11899219865E+02  0.16594523339E+02 -0.58869352722E+02  0.62310274660E+02  0.00000000000E+00 0. -1.
         11    1    3    3    0    0  0.70803765309E+02  0.28931074090E+02 -0.19857478519E+02  0.79022146789E+02  0.00000000000E+00 0.  1.
         21    1    1    2  502  501 -0.23208441774E+02 -0.13039003733E+01 -0.10421378875E+03  0.10677474276E+03  0.00000000000E+00 0.  1.
<scales pt_clust_5="13000.00000" pt_clust_6="13000.00000" pt_clust_7="13000.00000" pt_clust_8="13000.00000" pt_clust_9="23.24504"></scales>
<clustering>
<clus scale="   23.245">  2  9  1 -1</clus>
<clus scale="   76.342">  5  6 -1 -1</clus>
<clus scale="   90.745">  7  8 -1 -1</clus>
<clus scale="  103.713">  2  5  1 -1</clus>
<clus scale="   23.245">  2  5  1 -1</clus>
</clustering>
</event>
<event>
 9    2  0.2984928E-005  0.4488183E+03  0.7546771E-02  0.1028075E+00
         -1   -1    0    0    0  501 -0.00000000000E+00  0.00000000000E+00  0.75999529671E+03  0.75999529671E+03  0.00000000000E+00 0.  1.
          2   -1    0    0  502    0  0.00000000000E+00 -0.00000000000E+00 -0.55792701525E+03  0.55792701525E+03  0.00000000000E+00 0. -1.
         24    2    1    2    0    0 -0.28791753859E+03  0.86745444828E+02  0.44944278940E+03  0.54691535237E+03  0.81830926208E+02 0.  0.
         23    2    1    2    0    0 -0.91303953317E+02  0.35169168175E+02  0.15425507395E+03  0.20534059693E+03  0.93791527468E+02 0.  0.
        -11    1    3    3    0    0 -0.26042074477E+03  0.94301698843E+02  0.43298132347E+03  0.51398891154E+03  0.00000000000E+00 0.  1.
         12    1    3    3    0    0 -0.27496793814E+02 -0.75562540142E+01  0.16461465930E+02  0.32926440824E+02  0.00000000000E+00 0. -1.
        -11    1    4    4    0    0 -0.51051882411E+02 -0.15063765816E+02  0.20754004398E+02  0.57130906144E+02  0.00000000000E+00 0. -1.
         11    1    4    4    0    0 -0.40252070905E+02  0.50232933991E+02  0.13350106956E+03  0.14820969078E+03  0.00000000000E+00 0.  1.
         21    1    1    2  502  501  0.37922149191E+03 -0.12191461300E+03 -0.40162958190E+03  0.56566636266E+03  0.00000000000E+00 0. -1.
<scales pt_clust_5="13000.00000" pt_clust_6="13000.00000" pt_clust_7="13000.00000" pt_clust_8="13000.00000" pt_clust_9="398.33668"></scales>
<clustering>
<clus scale="   81.831">  5  6 -1 -1</clus>
<clus scale="   93.792">  7  8 -1 -1</clus>
<clus scale="   94.109">  5  7 -1 -1</clus>
<clus scale="  398.337">  2  9  1 -1</clus>
<clus scale="  398.337">  2  5  1 -1</clus>
</clustering>
</event>
<event>
 9    2  0.2984928E-005  0.1340919E+03  0.7546771E-02  0.1224213E+00
          2   -1    0    0  502    0  0.00000000000E+00  0.00000000000E+00  0.78269915556E+02  0.78269915556E+02  0.00000000000E+00 0. -1.
         -1   -1    0    0    0  501 -0.00000000000E+00 -0.00000000000E+00 -0.88262218631E+03  0.88262218631E+03  0.00000000000E+00 0.  1.
         23    2    1    2    0    0  0.94632470890E+02 -0.36138606696E+02 -0.79127676494E+03  0.80276300515E+03  0.89711873575E+02 0.  0.
         24    2    1    2    0    0 -0.65343244589E+02  0.58748849378E+02  0.31765638624E+01  0.11771608371E+03  0.78267610732E+02 0.  0.
        -13    1    4    4    0    0 -0.11719736756E+02 -0.18549988852E+02  0.83966607382E+01  0.23493791256E+02  0.00000000000E+00 0.  1.
         14    1    4    4    0    0 -0.53623507833E+02  0.77298838230E+02 -0.52200968759E+01  0.94222292455E+02  0.00000000000E+00 0. -1.
        -11    1    3    3    0    0  0.49234039677E+02 -0.64899163763E+02 -0.49244705289E+03  0.49913925113E+03  0.00000000000E+00 0.  1.
         11    1    3    3    0    0  0.45398431213E+02  0.28760557067E+02 -0.29882971205E+03  0.30362375402E+03  0.00000000000E+00 0. -1.
         21    1    1    2  502  501 -0.29289226302E+02 -0.22610242682E+02 -0.16252069676E+02  0.40413013006E+02  0.00000000000E+00 0. -1.
<scales pt_clust_5="13000.00000" pt_clust_6="13000.00000" pt_clust_7="13000.00000" pt_clust_8="13000.00000" pt_clust_9="37.00111"></scales>
<clustering>
<clus scale="   37.001">  1  9  2 -1</clus>
<clus scale="   78.268">  5  6 -1 -1</clus>
<clus scale="   89.712">  7  8 -1 -1</clus>
<clus scale="  126.721">  1  5  2 -1</clus>
<clus scale="   37.001">  1  5  2 -1</clus>
</clustering>
</event>
<event>
 9    2  0.2984928E-005  0.1504975E+03  0.7546771E-02  0.1209824E+00
         -1   -1    0    0    0  501 -0.00000000000E+00  0.00000000000E+00  0.87838073370E+02  0.87838073370E+02  0.00000000000E+00 0.  1.
          2   -1    0    0  502    0  0.00000000000E+00 -0.00000000000E+00 -0.69136699537E+03  0.69136699537E+03  0.00000000000E+00 0. -1.
         24    2    1    2    0    0 -0.84357636009E+02  0.81328163069E+02 -0.15822984734E+02  0.14338974631E+03  0.81115791552E+02 0.  0.
         23    2    1    2    0    0  0.83999512613E+02 -0.25686602994E+02 -0.54685166927E+03  0.56678501986E+03  0.12034446749E+03 0.  0.
        -13    1    3    3    0    0 -0.10661222752E+02  0.61588310303E+02 -0.23353765146E+02  0.66724657984E+02  0.00000000000E+00 0.  1.
         14    1    3    3    0    0 -0.73696413257E+02  0.19739852766E+02  0.75307804120E+01  0.76665088324E+02  0.00000000000E+00 0. -1.
        -13    1    4    4    0    0 -0.50118267627E+01 -0.44308256141E+02 -0.84177068160E+02  0.95258169065E+02  0.00000000000E+00 0.  1.
         13    1    4    4    0    0  0.89011339376E+02  0.18621653147E+02 -0.46267460111E+03  0.47152685079E+03  0.00000000000E+00 0. -1.
         21    1    1    2  502  501  0.35812339592E+00 -0.55641560075E+02 -0.40854267989E+02  0.69030302570E+02  0.00000000000E+00 0. -1.
<scales pt_clust_5="13000.00000" pt_clust_6="13000.00000" pt_clust_7="13000.00000" pt_clust_8="13000.00000" pt_clust_9="55.64271"></scales>
<clustering>
<clus scale="   55.643">  1  9  2 -1</clus>
<clus scale="   81.116">  5  6 -1 -1</clus>
<clus scale="  120.344">  7  8 -1 -1</clus>
<clus scale="  121.435">  1  5  2 -1</clus>
<clus scale="  150.497">  2  5  1 -1</clus>
</clustering>
</event>
<event>
 9    2  0.2984928E-005  0.1003287E+03  0.7546771E-02  0.1282243E+00
         -1   -1    0    0    0  501 -0.00000000000E+00  0.00000000000E+00  0.14808036601E+03  0.14808036601E+03  0.00000000000E+00 0.  1.
          2   -1    0    0  502    0  0.00000000000E+00 -0.00000000000E+00 -0.21457978987E+03  0.21457978987E+03  0.00000000000E+00 0. -1.
         23    2    1    2    0    0  0.18332648337E+02  0.18146580081E+02  0.50749421801E+02  0.10917497968E+03  0.93157329348E+02 0.  0.
         24    2    1    2    0    0 -0.10226255259E+03 -0.75972445762E+01 -0.97684371684E+02  0.16666187317E+03  0.87855538871E+02 0.  0.
        -11    1    4    4    0    0 -0.93300640298E+02  0.28663656539E+02 -0.68108854799E+02  0.11901861530E+03  0.00000000000E+00 0.  1.
         12    1    4    4    0    0 -0.89619122946E+01 -0.36260901115E+02 -0.29575516886E+02  0.47643257872E+02  0.00000000000E+00 0. -1.
        -13    1    3    3    0    0 -0.14021172791E+02  0.42682930924E+02  0.51783676676E+02  0.68556364028E+02  0.00000000000E+00 0.  1.
         13    1    3    3    0    0  0.32353821128E+02 -0.24536350843E+02 -0.10342548750E+01  0.40618615651E+02  0.00000000000E+00 0. -1.
         21    1    1    2  502  501  0.83929904255E+02 -0.10549335505E+02 -0.19564473978E+02  0.86823303035E+02  0.00000000000E+00 0. -1.
<scales pt_clust_5="13000.00000" pt_clust_6="13000.00000" pt_clust_7="13000.00000" pt_clust_8="13000.00000" pt_clust_9="84.59029"></scales>
<clustering>
<clus scale="   84.590">  2  9  1 -1</clus>
<clus scale="   87.856">  5  6 -1 -1</clus>
<clus scale="   93.157">  7  8 -1 -1</clus>
<clus scale="   95.426">  2  5  1 -1</clus>
<clus scale="   84.590">  2  5  1 -1</clus>
</clustering>
</event>
<event>
 9    2  0.2984928E-005  0.1096788E+03  0.7546771E-02  0.1261416E+00
         -1   -1    0    0    0  501 -0.00000000000E+00  0.00000000000E+00  0.16595503339E+03  0.16595503339E+03  0.00000000000E+00 0.  1.
          2   -1    0    0  502    0  0.00000000000E+00 -0.00000000000E+00 -0.29741216474E+03  0.29741216474E+03  0.00000000000E+00 0. -1.
         24    2    1    2    0    0 -0.36062072104E+02 -0.51864049055E+02  0.10699786139E+03  0.15354358952E+03  0.90203874153E+02 0.  0.
         23    2    1    2    0    0  0.78075307363E+02  0.32082347038E+01 -0.96032302874E+02  0.15356509589E+03  0.90851467194E+02 0.  0.
        -13    1    3    3    0    0 -0.25747975081E+02 -0.69639545762E+02  0.11006336227E+03  0.13276508678E+03  0.00000000000E+00 0.  1.
         14    1    3    3    0    0 -0.10314097023E+02  0.17775496706E+02 -0.30655008743E+01  0.20778502741E+02  0.00000000000E+00 0. -1.
        -13    1    4    4    0    0 -0.14220806941E+02  0.17326134867E+02 -0.45975787598E+01  0.22881521582E+02  0.00000000000E+00 0.  1.
         13    1    4    4    0    0  0.92296114304E+02 -0.14117900163E+02 -0.91434724114E+02  0.13068357431E+03  0.00000000000E+00 0. -1.
         21    1    1    2  502  501 -0.42013235259E+02  0.48655814351E+02 -0.14242268987E+03  0.15625851271E+03  0.00000000000E+00 0. -1.
<scales pt_clust_5="13000.00000" pt_clust_6="13000.00000" pt_clust_7="13000.00000" pt_clust_8="13000.00000" pt_clust_9="64.28453"></scales>
<clustering>
<clus scale="   64.285">  2  9  1 -1</clus>
<clus scale="   90.204">  5  6 -1 -1</clus>
<clus scale="   90.851">  7  8 -1 -1</clus>
<clus scale="  109.143">  1  5  2 -1</clus>
<clus scale="   64.285">  2  5  1 -1</clus>
</clustering>
</event>
<event>
 9    2  0.2984928E-005  0.9628900E+02  0.7546771E-02  0.1294626E+00
          2   -1    0    0  502    0  0.00000000000E+00  0.00000000000E+00  0.82107484730E+03  0.82107484730E+03  0.00000000000E+00 0. -1.
         -1   -1    0    0    0  501 -0.00000000000E+00 -0.00000000000E+00 -0.40800873578E+02  0.40800873578E+02  0.00000000000E+00 0.  1.
         24    2    1    2    0    0 -0.39430182739E+02  0.31311164427E+01  0.43891597034E+02  0.99774472655E+02  0.80398569032E+02 0.  0.
         23    2    1    2    0    0 -0.16028228241E+02  0.49337868308E+02  0.27611579990E+03  0.29554583734E+03  0.91740272885E+02 0.  0.
        -11    1    3    3    0    0 -0.56654133048E+01  0.37771548469E+02  0.67484266775E+01  0.38785668027E+02  0.00000000000E+00 0.  1.
         12    1    3    3    0    0 -0.33764769434E+02 -0.34640432026E+02  0.37143170357E+02  0.60988804629E+02  0.00000000000E+00 0. -1.
        -13    1    4    4    0    0 -0.45057304968E+02  0.53659944972E+02  0.23361249241E+03  0.24389413079E+03  0.00000000000E+00 0.  1.
         13    1    4    4    0    0  0.29029076727E+02 -0.43220766650E+01  0.42503307491E+02  0.51651706554E+02  0.00000000000E+00 0. -1.
         21    1    1    2  502  501  0.55458410980E+02 -0.52468984750E+02  0.46026657679E+03  0.46655541088E+03  0.00000000000E+00 0. -1.
<scales pt_clust_5="13000.00000" pt_clust_6="13000.00000" pt_clust_7="13000.00000" pt_clust_8="13000.00000" pt_clust_9="76.34546"></scales>
<clustering>
<clus scale="   76.345">  1  9  2 -1</clus>
<clus scale="   80.399">  5  6 -1 -1</clus>
<clus scale="   85.552">  2  5  1 -1</clus>
<clus scale="   91.740">  7  8 -1 -1</clus>
<clus scale="   76.345">  1  5  2 -1</clus>
</clustering>
</event>
<event>
 9    2  0.2984928E-005  0.1002827E+03  0.7546771E-02  0.1280590E+00
         -1   -1    0    0    0  501 -0.00000000000E+00  0.00000000000E+00  0.33937367913E+03  0.33937367913E+03  0.00000000000E+00 0.  1.
          2   -1    0    0  502    0  0.00000000000E+00 -0.00000000000E+00 -0.48565474826E+02  0.48565474826E+02  0.00000000000E+00 0. -1.
         23    2    1    2    0    0 -0.48500643496E+02  0.28826966490E+02  0.13016630587E+03  0.16465150948E+03  0.83567613196E+02 0.  0.
         24    2    1    2    0    0  0.11332371686E+02 -0.63436879007E+02  0.10060272014E+03  0.14464904451E+03  0.81546174108E+02 0.  0.
        -13    1    4    4    0    0 -0.26174665172E+02 -0.44735449186E+02  0.85725435139E+02  0.10017596389E+03  0.00000000000E+00 0.  1.
         14    1    4    4    0    0  0.37507036858E+02 -0.18701429821E+02  0.14877285005E+02  0.44473080626E+02  0.00000000000E+00 0. -1.
        -13    1    3    3    0    0 -0.65486799364E+02  0.45855281060E+01  0.11229161689E+03  0.13007288412E+03  0.00000000000E+00 0. -1.
         13    1    3    3    0    0  0.16986155868E+02  0.24241438384E+02  0.17874688976E+02  0.34578625364E+02  0.00000000000E+00 0.  1.
         21    1    1    2  502  501  0.37168271810E+02  0.34609912517E+02  0.60039178290E+02  0.78638599959E+02  0.00000000000E+00 0.  1.
<scales pt_clust_5="13000.00000" pt_clust_6="13000.00000" pt_clust_7="13000.00000" pt_clust_8="13000.00000" pt_clust_9="50.78707"></scales>
<clustering>
<clus scale="   50.787">  1  9  2 -1</clus>
<clus scale="   81.546">  5  6 -1 -1</clus>
<clus scale="   83.568">  7  8 -1 -1</clus>
<clus scale="   98.604">  2  5  1 -1</clus>
<clus scale="   98.604">  2  5  1 -1</clus>
</clustering>
</event>
<event>
 9    2  0.2984928E-005  0.1019526E+03  0.7546771E-02  0.1281751E+00
         -1   -1    0    0    0  501 -0.00000000000E+00  0.00000000000E+00  0.46364701389E+02  0.46364701389E+02  0.00000000000E+00 0.  1.
          2   -1    0    0  502    0  0.00000000000E+00 -0.00000000000E+00 -0.52773097389E+03  0.52773097389E+03  0.00000000000E+00 0. -1.
         23    2    1    2    0    0 -0.58390602387E+02  0.17391751102E+02 -0.47881714906E+02  0.11884845250E+03  0.90113043377E+02 0.  0.
         24    2    1    2    0    0  0.50311794266E+01  0.76263228966E+01 -0.27694438792E+03  0.28798109719E+03  0.78431146700E+02 0.  0.
        -13    1    4    4    0    0 -0.15465139483E+02  0.20918847875E+02 -0.29493610673E+02  0.39327367140E+02  0.00000000000E+00 0.  1.
         14    1    4    4    0    0  0.20496318909E+02 -0.13292524978E+02 -0.24745077725E+03  0.24865373005E+03  0.00000000000E+00 0. -1.
        -13    1    3    3    0    0 -0.25357531671E+02  0.22592392056E+02  0.22628734722E+02  0.40810295593E+02  0.00000000000E+00 0.  1.
         13    1    3    3    0    0 -0.33033070717E+02 -0.52006409540E+01 -0.70510449628E+02  0.78038156911E+02  0.00000000000E+00 0. -1.
         21    1    1    2  502  501  0.53359422961E+02 -0.25018073999E+02 -0.15654016967E+03  0.16726612558E+03  0.00000000000E+00 0. -1.
<scales pt_clust_5="13000.00000" pt_clust_6="13000.00000" pt_clust_7="13000.00000" pt_clust_8="13000.00000" pt_clust_9="58.93328"></scales>
<clustering>
<clus scale="   58.933">  2  9  1 -1</clus>
<clus scale="   78.431">  5  6 -1 -1</clus>
<clus scale="   90.113">  7  8 -1 -1</clus>
<clus scale="   91.790">  2  5  1 -1</clus>
<clus scale="   58.933">  2  5  1 -1</clus>
</clustering>
</event>
<event>
 9    2  0.2984928E-005  0.1272416E+03  0.7546771E-02  0.1246063E+00
         -1   -1    0    0    0  501 -0.00000000000E+00  0.00000000000E+00  0.33727034218E+03  0.33727034218E+03  0.00000000000E+00 0.  1.
          2   -1    0    0  502    0  0.00000000000E+00 -0.00000000000E+00 -0.58437029728E+03  0.58437029728E+03  0.00000000000E+00 0. -1.
         24    2    1    2    0    0 -0.63119359360E+02  0.74726901953E+02  0.29801279330E+03  0.32360713766E+03  0.79635363864E+02 0.  0.
         23    2    1    2    0    0 -0.25813185383E+02  0.47591750363E+01 -0.39543158486E+03  0.40663996828E+03  0.91109578058E+02 0.  0.
        -13    1    3    3    0    0 -0.69897902796E+02  0.31450261052E+02  0.23242060604E+03  0.24473286221E+03  0.00000000000E+00 0.  1.
         14    1    3    3    0    0  0.67785434359E+01  0.43276640901E+02  0.65592187258E+02  0.78874275452E+02  0.00000000000E+00 0. -1.
        -13    1    4    4    0    0 -0.53333038737E+01 -0.41504442510E+02 -0.13489584375E+03  0.14123721726E+03  0.00000000000E+00 0. -1.
         13    1    4    4    0    0 -0.20479881510E+02  0.46263617546E+02 -0.26053574111E+03  0.26540275102E+03  0.00000000000E+00 0.  1.
         21    1    1    2  502  501  0.88932544744E+02 -0.79486076989E+02 -0.14968116354E+03  0.19139353351E+03  0.00000000000E+00 0. -1.
<scales pt_clust_5="13000.00000" pt_clust_6="13000.00000" pt_clust_7="13000.00000" pt_clust_8="13000.00000" pt_clust_9="99.24026"></scales>
<clustering>
<clus scale="   79.635">  5  6 -1 -1</clus>
<clus scale="   91.110">  7  8 -1 -1</clus>
<clus scale="   94.815">  2  7  1 -1</clus>
<clus scale="   99.240">  2  9  1 -1</clus>
<clus scale="   94.815">  2  5  1 -1</clus>
</clustering>
</event>
<event>
 9    2  0.2984928E-005  0.1109352E+03  0.7546771E-02  0.1264981E+00
          2   -1    0    0  502    0  0.00000000000E+00  0.00000000000E+00  0.19320149790E+03  0.19320149790E+03  0.00000000000E+00 0. -1.
         -1   -1    0    0    0  501 -0.00000000000E+00 -0.00000000000E+00 -0.12469363762E+03  0.12469363762E+03  0.00000000000E+00 0.  1.
         23    2    1    2    0    0 -0.32317555337E+02  0.44097114309E+02 -0.68051539693E+02  0.12966359319E+03  0.95878336822E+02 0.  0.
         24    2    1    2    0    0  0.14220254235E+02 -0.54717540147E+02  0.13486918189E+03  0.16718011507E+03  0.81014010026E+02 0.  0.
        -13    1    4    4    0    0 -0.25585350358E+02 -0.19698164263E+02  0.13999309813E+02  0.35193870254E+02  0.00000000000E+00 0.  1.
         14    1    4    4    0    0  0.39805604593E+02 -0.35019375885E+02  0.12086987207E+03  0.13198624481E+03  0.00000000000E+00 0. -1.
        -11    1    3    3    0    0 -0.25682154855E+02  0.11715516812E+02 -0.87067830096E+02  0.91529413031E+02  0.00000000000E+00 0.  1.
         11    1    3    3    0    0 -0.66354004811E+01  0.32381597497E+02  0.19016290402E+02  0.38134180162E+02  0.00000000000E+00 0. -1.
         21    1    1    2  502  501  0.18097301102E+02  0.10620425838E+02  0.16902180874E+01  0.21051427251E+02  0.00000000000E+00 0.  1.
<scales pt_clust_5="13000.00000" pt_clust_6="13000.00000" pt_clust_7="13000.00000" pt_clust_8="13000.00000" pt_clust_9="20.98346"></scales>
<clustering>
<clus scale="   20.983">  2  9  1 -1</clus>
<clus scale="   81.014">  5  6 -1 -1</clus>
<clus scale="   95.878">  7  8 -1 -1</clus>
<clus scale="   98.373">  1  5  2 -1</clus>
<clus scale="   98.373">  1  5  2 -1</clus>
</clustering>
</event>
<event>
 9    2  0.2984928E-005  0.1139231E+03  0.7546771E-02  0.1256270E+00
         -1   -1    0    0    0  501 -0.00000000000E+00  0.00000000000E+00  0.74438420413E+02  0.74438420413E+02  0.00000000000E+00 0.  1.
          2   -1    0    0  502    0  0.00000000000E+00 -0.00000000000E+00 -0.53549416283E+03  0.53549416283E+03  0.00000000000E+00 0. -1.
         24    2    1    2    0    0 -0.58371260767E+02  0.41380260169E+02  0.14540220574E+02  0.10883849175E+03  0.80714740026E+02 0.  0.
         23    2    1    2    0    0  0.78384106254E+02 -0.92655611088E+01 -0.38526794398E+03  0.40316034399E+03  0.88752214475E+02 0.  0.
        -11    1    3    3    0    0 -0.57420428486E+02  0.11720562248E+02  0.38989158210E+02  0.70389144368E+02  0.00000000000E+00 0.  1.
         12    1    3    3    0    0 -0.95083228082E+00  0.29659697921E+02 -0.24448937636E+02  0.38449347385E+02  0.00000000000E+00 0. -1.
        -13    1    4    4    0    0  0.37434500418E+02 -0.38836023796E+02 -0.10160488544E+03  0.11503534810E+03  0.00000000000E+00 0.  1.
         13    1    4    4    0    0  0.40949605836E+02  0.29570462688E+02 -0.28366305854E+03  0.28812499590E+03  0.00000000000E+00 0. -1.
         21    1    1    2  502  501 -0.20012845486E+02 -0.32114699061E+02 -0.90328019010E+02  0.97933747495E+02  0.00000000000E+00 0. -1.
<scales pt_clust_5="13000.00000" pt_clust_6="13000.00000" pt_clust_7="13000.00000" pt_clust_8="13000.00000" pt_clust_9="37.84003"></scales>
<clustering>
<clus scale="   37.840">  2  9  1 -1</clus>
<clus scale="   80.715">  5  6 -1 -1</clus>
<clus scale="   88.752">  7  8 -1 -1</clus>
<clus scale="  107.779">  1  5  2 -1</clus>
<clus scale="   37.840">  2  5  1 -1</clus>
</clustering>
</event>
<event>
 9    2  0.2984928E-005  0.1367270E+03  0.7546771E-02  0.1224471E+00
          2   -1    0    0  502    0  0.00000000000E+00  0.00000000000E+00  0.94855134110E+03  0.94855134110E+03  0.00000000000E+00 0. -1.
         -1   -1    0    0    0  501 -0.00000000000E+00 -0.00000000000E+00 -0.27033388293E+02  0.27033388293E+02  0.00000000000E+00 0.  1.
         23    2    1    2    0    0 -0.26960431592E+02 -0.90468774447E+02  0.27143052834E+03  0.30623227893E+03  0.10579325558E+03 0.  0.
         24    2    1    2    0    0 -0.15243647121E+02  0.77460460987E+02  0.51030082340E+03  0.52275540302E+03  0.81448076890E+02 0.  0.
        -11    1    4    4    0    0  0.15279026073E+02  0.69831091812E+02  0.23415699734E+03  0.24482509967E+03  0.00000000000E+00 0.  1.
         12    1    4    4    0    0 -0.30522673194E+02  0.76293691750E+01  0.27614382606E+03  0.27793030335E+03  0.00000000000E+00 0. -1.
        -11    1    3    3    0    0 -0.40705597418E+02 -0.27517472036E+02  0.21511941332E+03  0.22065928241E+03  0.00000000000E+00 0. -1.
         11    1    3    3    0    0  0.13745165826E+02 -0.62951302412E+02  0.56311115016E+02  0.85572996519E+02  0.00000000000E+00 0.  1.
         21    1    1    2  502  501  0.42204078714E+02  0.13008313460E+02  0.13978660107E+03  0.14659704744E+03  0.00000000000E+00 0.  1.
<scales pt_clust_5="13000.00000" pt_clust_6="13000.00000" pt_clust_7="13000.00000" pt_clust_8="13000.00000" pt_clust_9="44.16334"></scales>
<clustering>
<clus scale="   44.163">  1  9  2 -1</clus>
<clus scale="   81.448">  5  6 -1 -1</clus>
<clus scale="  105.793">  7  8 -1 -1</clus>
<clus scale="  118.894">  1  5  2 -1</clus>
<clus scale="   44.163">  1  5  2 -1</clus>
</clustering>
</event>
<event>
 9    2  0.2984928E-005  0.9807025E+02  0.7546771E-02  0.1290515E+00
          2   -1    0    0  502    0  0.00000000000E+00  0.00000000000E+00  0.56285856810E+02  0.56285856810E+02  0.00000000000E+00 0. -1.
         -1   -1    0    0    0  501 -0.00000000000E+00 -0.00000000000E+00 -0.31346746226E+03  0.31346746226E+03  0.00000000000E+00 0.  1.
         24    2    1    2    0    0  0.10063256122E+02  0.33547083297E+02 -0.23593908324E+03  0.25192438255E+03  0.81067672967E+02 0.  0.
         23    2    1    2    0    0  0.76093531773E+01 -0.24084289151E+02 -0.18356731024E+02  0.97575705092E+02  0.92445083215E+02 0.  0.
        -11    1    3    3    0    0 -0.23469753964E+02  0.42547167058E+02 -0.17671123977E+03  0.18327016406E+03  0.00000000000E+00 0.  1.
         12    1    3    3    0    0  0.33533010087E+02 -0.90000837606E+01 -0.59227843472E+02  0.68654218483E+02  0.00000000000E+00 0. -1.
        -13    1    4    4    0    0 -0.40945450129E+02 -0.82849113420E+01  0.37329764104E+01  0.41941682788E+02  0.00000000000E+00 0. -1.
         13    1    4    4    0    0  0.48554803306E+02 -0.15799377809E+02 -0.22089707435E+02  0.55634022305E+02  0.00000000000E+00 0.  1.
         21    1    1    2  502  501 -0.17672609300E+02 -0.94627941462E+01 -0.28857911830E+01  0.20253231428E+02  0.00000000000E+00 0. -1.
<scales pt_clust_5="13000.00000" pt_clust_6="13000.00000" pt_clust_7="13000.00000" pt_clust_8="13000.00000" pt_clust_9="20.04659"></scales>
<clustering>
<clus scale="   20.047">  1  9  2 -1</clus>
<clus scale="   81.068">  5  6 -1 -1</clus>
<clus scale="   87.428">  2  5  1 -1</clus>
<clus scale="   92.445">  7  8 -1 -1</clus>
<clus scale="   20.047">  1  5  2 -1</clus>
</clustering>
</event>
<event>
 9    2  0.2984928E-005  0.2096763E+03  0.7546771E-02  0.1142053E+00
          2   -1    0    0  502    0  0.00000000000E+00  0.00000000000E+00  0.29065587753E+03  0.29065587753E+03  0.00000000000E+00 0. -1.
         -1   -1    0    0    0  501 -0.00000000000E+00 -0.00000000000E+00 -0.26156268629E+03  0.26156268629E+03  0.00000000000E+00 0.  1.
         24    2    1    2    0    0 -0.34384597485E+02  0.19296388032E+03 -0.50096210491E+02  0.21980262866E+03  0.85943037005E+02 0.  0.
         23    2    1    2    0    0 -0.95570263346E+01 -0.18606927398E+03 -0.35512000334E+02  0.20939230518E+03  0.88718227139E+02 0.  0.
        -13    1    3    3    0    0 -0.44367394947E+02  0.11162066342E+03  0.63632809197E+01  0.12028353828E+03  0.00000000000E+00 0.  1.
         14    1    3    3    0    0  0.99827974613E+01  0.81343216896E+02 -0.56459491410E+02  0.99519090382E+02  0.00000000000E+00 0. -1.
        -13    1    4    4    0    0 -0.20697743312E+02 -0.46645714067E+02  0.25201919934E+02  0.56915340528E+02  0.00000000000E+00 0.  1.
         13    1    4    4    0    0  0.11140716977E+02 -0.13942355991E+03 -0.60713920268E+02  0.15247696465E+03  0.00000000000E+00 0. -1.
         21    1    1    2  502  501  0.43941623820E+02 -0.68946063347E+01  0.11470140206E+03  0.12302362999E+03  0.00000000000E+00 0. -1.
<scales pt_clust_5="13000.00000" pt_clust_6="13000.00000" pt_clust_7="13000.00000" pt_clust_8="13000.00000" pt_clust_9="44.47923"></scales>
<clustering>
<clus scale="   44.479">  1  9  2 -1</clus>
<clus scale="   85.943">  5  6 -1 -1</clus>
<clus scale="   88.718">  7  8 -1 -1</clus>
<clus scale="  208.517">  2  5  1 -1</clus>
<clus scale="   44.479">  1  5  2 -1</clus>
</clustering>
</event>
<event>
 9    2  0.2984928E-005  0.1513040E+03  0.7546771E-02  0.1200863E+00
          2   -1    0    0  502    0  0.00000000000E+00  0.00000000000E+00  0.57033022947E+03  0.57033022947E+03  0.00000000000E+00 0. -1.
         -1   -1    0    0    0  501 -0.00000000000E+00 -0.00000000000E+00 -0.13057272075E+03  0.13057272075E+03  0.00000000000E+00 0.  1.
         24    2    1    2    0    0  0.12030012307E+03 -0.67787707865E+02 -0.47491830081E+02  0.16653973521E+03  0.80079438875E+02 0.  0.
         23    2    1    2    0    0 -0.61949781353E+02 -0.21949723376E+02  0.24844651343E+03  0.27266805199E+03  0.91118772883E+02 0.  0.
        -13    1    3    3    0    0  0.13123001411E+03 -0.69538672620E+02 -0.45129847815E+02  0.15522128319E+03  0.00000000000E+00 0.  1.
         14    1    3    3    0    0 -0.10929891041E+02  0.17509647547E+01 -0.23619822667E+01  0.11318452013E+02  0.00000000000E+00 0. -1.
        -13    1    4    4    0    0 -0.46041096573E+02 -0.55552079500E+02  0.13201996112E+03  0.15044961364E+03  0.00000000000E+00 0. -1.
         13    1    4    4    0    0 -0.15908684780E+02  0.33602356123E+02  0.11642655232E+03  0.12221843835E+03  0.00000000000E+00 0.  1.
         21    1    1    2  502  501 -0.58350341715E+02  0.89737431241E+02  0.23880282537E+03  0.26169516302E+03  0.00000000000E+00 0. -1.
<scales pt_clust_5="13000.00000" pt_clust_6="13000.00000" pt_clust_7="13000.00000" pt_clust_8="13000.00000" pt_clust_9="107.04003"></scales>
<clustering>
<clus scale="   80.079">  5  6 -1 -1</clus>
<clus scale="   91.119">  7  8 -1 -1</clus>
<clus scale="  107.040">  1  9  2 -1</clus>
<clus scale="  144.924">  2  5  1 -1</clus>
<clus scale="  107.040">  1  5  2 -1</clus>
</clustering>
</event>
<event>
 9    2  0.2984928E-005  0.9765023E+02  0.7546771E-02  0.1290708E+00
         -1   -1    0    0    0  501 -0.00000000000E+00  0.00000000000E+00  0.10974846918E+03  0.10974846918E+03  0.00000000000E+00 0.  1.
          2   -1    0    0  502    0  0.00000000000E+00 -0.00000000000E+00 -0.20470060266E+03  0.20470060266E+03  0.00000000000E+00 0. -1.
         23    2    1    2    0    0  0.34885202955E+02 -0.16361220960E+02  0.58637983435E+02  0.11528395272E+03  0.91472999936E+02 0.  0.
         24    2    1    2    0    0 -0.88524452086E+01  0.25962413630E+02 -0.69014760983E+02  0.11015456801E+03  0.81354648987E+02 0.  0.
        -11    1    4    4    0    0  0.26487568156E+02  0.35022033267E+01  0.29640046264E+01  0.26882001756E+02  0.00000000000E+00 0.  1.
         12    1    4    4    0    0 -0.35340013365E+02  0.22460210304E+02 -0.71978765609E+02  0.83272566252E+02  0.00000000000E+00 0. -1.
        -13    1    3    3    0    0  0.46569992450E+02 -0.46388604506E+02  0.30319608621E+02  0.72387467780E+02  0.00000000000E+00 0.  1.
         13    1    3    3    0    0 -0.11684789494E+02  0.30027383546E+02  0.28318374815E+02  0.42896484941E+02  0.00000000000E+00 0. -1.
         21    1    1    2  502  501 -0.26032757747E+02 -0.96011926702E+01 -0.84575355934E+02  0.89010551104E+02  0.00000000000E+00 0. -1.
<scales pt_clust_5="13000.00000" pt_clust_6="13000.00000" pt_clust_7="13000.00000" pt_clust_8="13000.00000" pt_clust_9="27.74684"></scales>
<clustering>
<clus scale="   27.747">  2  9  1 -1</clus>
<clus scale="   81.355">  5  6 -1 -1</clus>
<clus scale="   88.243">  2  5  1 -1</clus>
<clus scale="   91.473">  7  8 -1 -1</clus>
<clus scale="   27.747">  2  5  1 -1</clus>
</clustering>
</event>
<event>
 9    2  0.2984928E-005  0.2359847E+03  0.7546771E-02  0.1124186E+00
         -1   -1    0    0    0  501 -0.00000000000E+00  0.00000000000E+00  0.10540630533E+04  0.10540630533E+04  0.00000000000E+00 0.  1.
          2   -1    0    0  502    0  0.00000000000E+00 -0.00000000000E+00 -0.17517883873E+03  0.17517883873E+03  0.00000000000E+00 0. -1.
         24    2    1    2    0    0  0.63395714422E+01 -0.21113164936E+03  0.60962773809E+03  0.65026856900E+03  0.81157065341E+02 0.  0.
         23    2    1    2    0    0  0.21202195345E+03  0.10730810060E+03  0.69420293462E+02  0.26529261773E+03  0.95355433414E+02 0.  0.
        -13    1    3    3    0    0  0.94257280608E+01 -0.19735893172E+03  0.60324418615E+03  0.63477786697E+03  0.00000000000E+00 0.  1.
         14    1    3    3    0    0 -0.30861566186E+01 -0.13772717640E+02  0.63835519398E+01  0.15490702025E+02  0.00000000000E+00 0. -1.
        -11    1    4    4    0    0  0.46664140562E+02  0.44718892470E+02  0.60073294508E+02  0.88239005384E+02  0.00000000000E+00 0.  1.
         11    1    4    4    0    0  0.16535781288E+03  0.62589208128E+02  0.93469989542E+01  0.17705361235E+03  0.00000000000E+00 0. -1.
         21    1    1    2  502  501 -0.21836152489E+03  0.10382354876E+03  0.19983618299E+03  0.31368070527E+03  0.00000000000E+00 0.  1.
<scales pt_clust_5="13000.00000" pt_clust_6="13000.00000" pt_clust_7="13000.00000" pt_clust_8="13000.00000" pt_clust_9="215.86136"></scales>
<clustering>
<clus scale="   81.157">  5  6 -1 -1</clus>
<clus scale="   95.355">  7  8 -1 -1</clus>
<clus scale="  226.281">  1  5  2 -1</clus>
<clus scale="  215.861">  1  9  2 -1</clus>
<clus scale="  235.985">  2  5  1 -1</clus>
</clustering>
</event>
<event>
 9    2  0.2984928E-005  0.1023270E+03  0.7546771E-02  0.1279375E+00
          2   -1    0    0  502    0  0.00000000000E+00  0.00000000000E+00  0.24521166066E+03  0.24521166066E+03  0.00000000000E+00 0. -1.
         -1   -1    0    0    0  501 -0.00000000000E+00 -0.00000000000E+00 -0.12606812740E+03  0.12606812740E+03  0.00000000000E+00 0.  1.
         24    2    1    2    0    0  0.62644155811E+02 -0.62087426536E+01 -0.30651013531E+02  0.10871831806E+03  0.83170603638E+02 0.  0.
         23    2    1    2    0    0 -0.27440691620E+02 -0.10675423413E+02 -0.11345240214E+02  0.96759208517E+02  0.91469523535E+02 0.  0.
        -11    1    3    3    0    0  0.28841235848E+02  0.11130440186E+02  0.26077180867E+02  0.40444071827E+02  0.00000000000E+00 0.  1.
         12    1    3    3    0    0  0.33802919963E+02 -0.17339182840E+02 -0.56728194398E+02  0.68274246237E+02  0.00000000000E+00 0. -1.
        -13    1    4    4    0    0  0.14880247839E+02 -0.32088153582E+02  0.19297271923E+02  0.40292134217E+02  0.00000000000E+00 0. -1.
         13    1    4    4    0    0 -0.42320939459E+02  0.21412730170E+02 -0.30642512136E+02  0.56467074301E+02  0.00000000000E+00 0.  1.
         21    1    1    2  502  501 -0.35203464190E+02  0.16884166066E+02  0.16113978700E+03  0.16580226147E+03  0.00000000000E+00 0. -1.
<scales pt_clust_5="13000.00000" pt_clust_6="13000.00000" pt_clust_7="13000.00000" pt_clust_8="13000.00000" pt_clust_9="39.04304"></scales>
<clustering>
<clus scale="   39.043">  1  9  2 -1</clus>
<clus scale="   83.171">  5  6 -1 -1</clus>
<clus scale="   91.470">  7  8 -1 -1</clus>
<clus scale="   94.982">  2  5  1 -1</clus>
<clus scale="   39.043">  1  5  2 -1</clus>
</clustering>
</event>
<event>
 9    2  0.2984928E-005  0.1259718E+03  0.7546771E-02  0.1235747E+00
         -1   -1    0    0    0  501 -0.00000000000E+00  0.00000000000E+00  0.13849078733E+03  0.13849078733E+03  0.00000000000E+00 0.  1.
          2   -1    0    0  502    0  0.00000000000E+00 -0.00000000000E+00 -0.20100777726E+03  0.20100777726E+03  0.00000000000E+00 0. -1.
         24    2    1    2    0    0  0.40318718076E+02 -0.79468816121E+02  0.67792250540E+02  0.13830229716E+03  0.81184015695E+02 0.  0.
         23    2    1    2    0    0 -0.61933285270E+02  0.66964397071E+02 -0.11598901268E+03  0.17241052557E+03  0.89173852471E+02 0.  0.
        -11    1    3    3    0    0  0.12831554798E+02 -0.27696425700E+02  0.73325213778E+02  0.79424982031E+02  0.00000000000E+00 0.  1.
         12    1    3    3    0    0  0.27487163278E+02 -0.51772390421E+02 -0.55329632372E+01  0.58877315132E+02  0.00000000000E+00 0. -1.
        -11    1    4    4    0    0 -0.39721759707E+02 -0.37982927703E-01 -0.38544725686E+01  0.39908352455E+02  0.00000000000E+00 0.  1.
         11    1    4    4    0    0 -0.22211525564E+02  0.67002379999E+02 -0.11213454012E+03  0.13250217312E+03  0.00000000000E+00 0. -1.
         21    1    1    2  502  501  0.21614567195E+02  0.12504419050E+02 -0.14320227780E+02  0.28785741861E+02  0.00000000000E+00 0.  1.
<scales pt_clust_5="13000.00000" pt_clust_6="13000.00000" pt_clust_7="13000.00000" pt_clust_8="13000.00000" pt_clust_9="24.97098"></scales>
<clustering>
<clus scale="   24.971">  2  9  1 -1</clus>
<clus scale="   81.184">  5  6 -1 -1</clus>
<clus scale="   89.174">  7  8 -1 -1</clus>
<clus scale="  120.448">  1  5  2 -1</clus>
<clus scale="   24.971">  2  5  1 -1</clus>
</clustering>
</event>
<event>
 9    2  0.2984928E-005  0.1891660E+03  0.7546771E-02  0.1160591E+00
         -1   -1    0    0    0  501 -0.00000000000E+00  0.00000000000E+00  0.15709616114E+03  0.15709616114E+03  0.00000000000E+00 0.  1.
          2   -1    0    0  502    0  0.00000000000E+00 -0.00000000000E+00 -0.76924361757E+03  0.76924361757E+03  0.00000000000E+00 0. -1.
         23    2    1    2    0    0  0.16832171310E+03  0.10565131979E+02  0.71084254769E+02  0.20539561472E+03  0.93223206111E+02 0.  0.
         24    2    1    2    0    0 -0.13453244497E+03 -0.54855787976E+02 -0.41510320240E+03  0.44708968790E+03  0.80438698121E+02 0.  0.
        -13    1    4    4    0    0 -0.10337527525E+03 -0.23982293982E+02 -0.18884962265E+03  0.21662358582E+03  0.00000000000E+00 0.  1.
         14    1    4    4    0    0 -0.31157169716E+02 -0.30873493994E+02 -0.22625357976E+03  0.23046610208E+03  0.00000000000E+00 0. -1.
        -11    1    3    3    0    0  0.15151740010E+03 -0.19953096990E+02  0.75180713253E+02  0.17031672924E+03  0.00000000000E+00 0.  1.
         11    1    3    3    0    0  0.16804312990E+02  0.30518228968E+02 -0.40964584843E+01  0.35078885480E+02  0.00000000000E+00 0. -1.
         21    1    1    2  502  501 -0.33789268130E+02  0.44290655998E+02 -0.26812850880E+03  0.27385447610E+03  0.00000000000E+00 0. -1.
<scales pt_clust_5="13000.00000" pt_clust_6="13000.00000" pt_clust_7="13000.00000" pt_clust_8="13000.00000" pt_clust_9="55.70796"></scales>
<clustering>
<clus scale="   55.708">  2  9  1 -1</clus>
<clus scale="   80.439">  5  6 -1 -1</clus>
<clus scale="   93.223">  7  8 -1 -1</clus>
<clus scale="  183.204">  2  5  1 -1</clus>
<clus scale="   55.708">  2  5  1 -1</clus>
</clustering>
</event>
<event>
 9    2  0.2984928E-005  0.1613692E+03  0.7546771E-02  0.1188567E+00
         -1   -1    0    0    0  501 -0.00000000000E+00  0.00000000000E+00  0.26529774491E+03  0.26529774491E+03  0.00000000000E+00 0.  1.
          2   -1    0    0  502    0  0.00000000000E+00 -0.00000000000E+00 -0.30292209888E+03  0.30292209888E+03  0.00000000000E+00 0. -1.
         23    2    1    2    0    0  0.99081362644E+02  0.75068744518E+02  0.15014301627E+03  0.21582124644E+03  0.92646922528E+02 0.  0.
         24    2    1    2    0    0 -0.18166918385E+03 -0.37440556782E+02 -0.10244804412E+03  0.22783529564E+03  0.83712797969E+02 0.  0.
        -13    1    4    4    0    0 -0.47086309298E+02 -0.21605215674E+02  0.87502548713E+01  0.52540202017E+02  0.00000000000E+00 0.  1.
         14    1    4    4    0    0 -0.13458287455E+03 -0.15835341108E+02 -0.11119829900E+03  0.17529509363E+03  0.00000000000E+00 0. -1.
        -11    1    3    3    0    0  0.63528062656E+02  0.73668266314E+02  0.49649871955E+02  0.10921509965E+03  0.00000000000E+00 0. -1.
         11    1    3    3    0    0  0.35553299989E+02  0.14004782033E+01  0.10049314431E+03  0.10660614679E+03  0.00000000000E+00 0.  1.
         21    1    1    2  502  501  0.82587821203E+02 -0.37628187736E+02 -0.85319326115E+02  0.12456330171E+03  0.00000000000E+00 0. -1.
<scales pt_clust_5="13000.00000" pt_clust_6="13000.00000" pt_clust_7="13000.00000" pt_clust_8="13000.00000" pt_clust_9="90.75587"></scales>
<clustering>
<clus scale="   83.713">  5  6 -1 -1</clus>
<clus scale="   90.756">  2  9  1 -1</clus>
<clus scale="   92.647">  7  8 -1 -1</clus>
<clus scale="  156.411">  2  5  1 -1</clus>
<clus scale="   90.756">  2  5  1 -1</clus>
</clustering>
</event>
<event>
 9    2  0.2984928E-005  0.1218771E+03  0.7546771E-02  0.1242873E+00
          2   -1    0    0  502    0  0.00000000000E+00  0.00000000000E+00  0.35012180949E+03  0.35012180949E+03  0.00000000000E+00 0. -1.
         -1   -1    0    0    0  501 -0.00000000000E+00 -0.00000000000E+00 -0.83658659042E+02  0.83658659042E+02  0.00000000000E+00 0.  1.
         24    2    1    2    0    0  0.67484404209E+01 -0.74818108264E+02  0.47995906666E+01  0.11022371734E+03  0.80516712680E+02 0.  0.
         23    2    1    2    0    0 -0.14358782234E+02  0.10028765231E+03  0.12507953514E+03  0.18441002732E+03  0.89991000851E+02 0.  0.
        -13    1    3    3    0    0 -0.41858371137E+01 -0.57404744139E+02 -0.33613598385E+02  0.66653581137E+02  0.00000000000E+00 0.  1.
         14    1    3    3    0    0  0.10934277535E+02 -0.17413364125E+02  0.38413189052E+02  0.43570136200E+02  0.00000000000E+00 0. -1.
        -11    1    4    4    0    0 -0.48223298345E+02  0.85870684436E+02  0.95601054797E+02  0.13725459055E+03  0.00000000000E+00 0.  1.
         11    1    4    4    0    0  0.33864516111E+02  0.14416967872E+02  0.29478480339E+02  0.47155436771E+02  0.00000000000E+00 0. -1.
         21    1    1    2  502  501  0.76103418131E+01 -0.25469544044E+02  0.13658402465E+03  0.13914672388E+03  0.00000000000E+00 0. -1.
<scales pt_clust_5="13000.00000" pt_clust_6="13000.00000" pt_clust_7="13000.00000" pt_clust_8="13000.00000" pt_clust_9="26.58223"></scales>
<clustering>
<clus scale="   26.582">  1  9  2 -1</clus>
<clus scale="   80.517">  5  6 -1 -1</clus>
<clus scale="   89.991">  7  8 -1 -1</clus>
<clus scale="  115.059">  2  5  1 -1</clus>
<clus scale="   26.582">  1  5  2 -1</clus>
</clustering>
</event>
<event>
 9    2  0.2984928E-005  0.1277493E+03  0.7546771E-02  0.1234844E+00
         -1   -1    0    0    0  501 -0.00000000000E+00  0.00000000000E+00  0.30508114678E+02  0.30508114678E+02  0.00000000000E+00 0.  1.
          2   -1    0    0  502    0  0.00000000000E+00 -0.00000000000E+00 -0.91925716380E+03  0.91925716380E+03  0.00000000000E+00 0. -1.
         23    2    1    2    0    0 -0.84331081846E+02 -0.66435395430E+02 -0.20126776177E+03  0.24577505189E+03  0.91494650506E+02 0.  0.
         24    2    1    2    0    0  0.34477124148E+02  0.47277483380E+02 -0.39091807752E+03  0.40265622566E+03  0.76754545174E+02 0.  0.
        -11    1    4    4    0    0  0.29736091568E+02  0.63331893147E+01 -0.45101915947E+02  0.54392345516E+02  0.00000000000E+00 0.  1.
         12    1    4    4    0    0  0.47410325795E+01  0.40944294065E+02 -0.34581616157E+03  0.34826388014E+03  0.00000000000E+00 0. -1.
        -13    1    3    3    0    0 -0.47107832908E+02 -0.10918829491E+02 -0.16017004737E+03  0.16731052816E+03  0.00000000000E+00 0. -1.
         13    1    3    3    0    0 -0.37223248939E+02 -0.55516565938E+02 -0.41097714404E+02  0.78464523731E+02  0.00000000000E+00 0.  1.
         21    1    1    2  502  501  0.49853957699E+02  0.19157912050E+02 -0.29656320983E+03  0.30133400093E+03  0.00000000000E+00 0. -1.
<scales pt_clust_5="13000.00000" pt_clust_6="13000.00000" pt_clust_7="13000.00000" pt_clust_8="13000.00000" pt_clust_9="53.40826"></scales>
<clustering>
<clus scale="   53.408">  2  9  1 -1</clus>
<clus scale="   76.755">  5  6 -1 -1</clus>
<clus scale="   91.495">  7  8 -1 -1</clus>
<clus scale="  117.643">  2  5  1 -1</clus>
<clus scale="   53.408">  2  5  1 -1</clus>
</clustering>
</event>
<event>
 9    2  0.2984928E-005  0.2821943E+03  0.7546771E-02  0.1142287E+00
          2   -1    0    0  502    0  0.00000000000E+00  0.00000000000E+00  0.25191520241E+03  0.25191520241E+03  0.00000000000E+00 0. -1.
         -1   -1    0    0    0  501 -0.00000000000E+00 -0.00000000000E+00 -0.51203993993E+03  0.51203993993E+03  0.00000000000E+00 0.  1.
         24    2    1    2    0    0  0.15416159882E+02  0.18102334597E+02 -0.16612230269E+03  0.18663076151E+03  0.81664369144E+02 0.  0.
         23    2    1    2    0    0 -0.14966906134E+03 -0.23837064809E+03 -0.11591527836E+03  0.31843802702E+03  0.93514873142E+02 0.  0.
        -13    1    3    3    0    0 -0.33412198568E+02  0.43198393570E+01 -0.77634613135E+02  0.84629599915E+02  0.00000000000E+00 0.  1.
         14    1    3    3    0    0  0.48828358451E+02  0.13782495240E+02 -0.88487689555E+02  0.10200116160E+03  0.00000000000E+00 0. -1.
        -13    1    4    4    0    0 -0.54937986848E+02 -0.36070661292E+02  0.21870166704E+01  0.65757570263E+02  0.00000000000E+00 0. -1.
         13    1    4    4    0    0 -0.94731074491E+02 -0.20229998680E+03 -0.11810229503E+03  0.25268045676E+03  0.00000000000E+00 0.  1.
         21    1    1    2  502  501  0.13425290146E+03  0.22026831350E+03  0.21912843528E+02  0.25888635382E+03  0.00000000000E+00 0. -1.
<scales pt_clust_5="13000.00000" pt_clust_6="13000.00000" pt_clust_7="13000.00000" pt_clust_8="13000.00000" pt_clust_9="266.24912"></scales>
<clustering>
<clus scale="   81.664">  5  6 -1 -1</clus>
<clus scale="   85.055">  2  5  1 -1</clus>
<clus scale="   93.515">  7  8 -1 -1</clus>
<clus scale="  266.249">  1  9  2 -1</clus>
<clus scale="  266.249">  1  5  2 -1</clus>
</clustering>
</event>
<event>
 9    2  0.2984928E-005  0.1528018E+03  0.7546771E-02  0.1227431E+00
         -1   -1    0    0    0  501 -0.00000000000E+00  0.00000000000E+00  0.36636260303E+03  0.36636260303E+03  0.00000000000E+00 0.  1.
          2   -1    0    0  502    0  0.00000000000E+00 -0.00000000000E+00 -0.25318547703E+03  0.25318547703E+03  0.00000000000E+00 0. -1.
         24    2    1    2    0    0  0.14296401076E+02 -0.53229428999E+00  0.26427708499E+03  0.27614785841E+03  0.78807306961E+02 0.  0.
         23    2    1    2    0    0  0.97910299603E+02 -0.52901016546E+02  0.35182579145E+01  0.14502619265E+03  0.92926175515E+02 0.  0.
        -11    1    3    3    0    0  0.30655537325E+02 -0.27455030653E+02  0.88890336715E+02  0.97954237469E+02  0.00000000000E+00 0.  1.
         12    1    3    3    0    0 -0.16359136249E+02  0.26922736363E+02  0.17538674828E+03  0.17819362094E+03  0.00000000000E+00 0. -1.
        -13    1    4    4    0    0  0.72436784635E+02 -0.63372508438E+02  0.35713478238E+02  0.10265775724E+03  0.00000000000E+00 0.  1.
         13    1    4    4    0    0  0.25473514968E+02  0.10471491892E+02 -0.32195220324E+02  0.42368435409E+02  0.00000000000E+00 0. -1.
         21    1    1    2  502  501 -0.11220670068E+03  0.53433310836E+02 -0.15461821691E+03  0.19837402901E+03  0.00000000000E+00 0. -1.
<scales pt_clust_5="13000.00000" pt_clust_6="13000.00000" pt_clust_7="13000.00000" pt_clust_8="13000.00000" pt_clust_9="121.29757"></scales>
<clustering>
<clus scale="   78.807">  5  6 -1 -1</clus>
<clus scale="   80.095">  1  5  2 -1</clus>
<clus scale="   92.926">  7  8 -1 -1</clus>
<clus scale="  121.298">  2  9  1 -1</clus>
<clus scale="  121.298">  2  5  1 -1</clus>
</clustering>
</event>
<event>
 9    2  0.2984928E-005  0.9587582E+02  0.7546771E-02  0.1295756E+00
         -1   -1    0    0    0  501 -0.00000000000E+00  0.00000000000E+00  0.99391146064E+02  0.99391146064E+02  0.00000000000E+00 0.  1.
          2   -1    0    0  502    0  0.00000000000E+00 -0.00000000000E+00 -0.37260194765E+03  0.37260194765E+03  0.00000000000E+00 0. -1.
         24    2    1    2    0    0 -0.71425517033E+02  0.28438140542E+02  0.30877573964E+02  0.11558657076E+03  0.80600858839E+02 0.  0.
         23    2    1    2    0    0  0.57805663343E+01 -0.22837353083E+02 -0.26074946488E+03  0.27754658667E+03  0.92124180830E+02 0.  0.
        -13    1    3    3    0    0  0.17266451270E+02  0.11558915327E+02  0.23920162387E+01  0.20915558914E+02  0.00000000000E+00 0.  1.
         14    1    3    3    0    0 -0.88691968303E+02  0.16879225215E+02  0.28485557726E+02  0.94671011847E+02  0.00000000000E+00 0. -1.
        -11    1    4    4    0    0  0.48028929611E+02 -0.20875172541E+02 -0.13109165409E+03  0.14116505474E+03  0.00000000000E+00 0.  1.
         11    1    4    4    0    0 -0.42248363276E+02 -0.19621805413E+01 -0.12965781080E+03  0.13638153193E+03  0.00000000000E+00 0. -1.
         21    1    1    2  502  501  0.65644950699E+02 -0.56007874593E+01 -0.43338910668E+02  0.78859936281E+02  0.00000000000E+00 0.  1.
<scales pt_clust_5="13000.00000" pt_clust_6="13000.00000" pt_clust_7="13000.00000" pt_clust_8="13000.00000" pt_clust_9="65.88345"></scales>
<clustering>
<clus scale="   65.883">  1  9  2 -1</clus>
<clus scale="   80.601">  5  6 -1 -1</clus>
<clus scale="   84.863">  1  5  2 -1</clus>
<clus scale="   92.124">  7  8 -1 -1</clus>
<clus scale="   95.876">  2  5  1 -1</clus>
</clustering>
</event>
<event>
 9    2  0.2984928E-005  0.1234217E+03  0.7546771E-02  0.1239744E+00
          2   -1    0    0  502    0  0.00000000000E+00  0.00000000000E+00  0.61288538961E+03  0.61288538961E+03  0.00000000000E+00 0. -1.
         -1   -1    0    0    0  501 -0.00000000000E+00 -0.00000000000E+00 -0.70667538597E+02  0.70667538597E+02  0.00000000000E+00 0.  1.
         23    2    1    2    0    0 -0.86827768177E+02  0.62320252653E+01 -0.73106053812E+00  0.12436442430E+03  0.88814841752E+02 0.  0.
         24    2    1    2    0    0  0.73574950230E+02 -0.22913346517E+02  0.47321780492E+03  0.48627533024E+03  0.81180731463E+02 0.  0.
        -13    1    4    4    0    0  0.13258408502E+02 -0.44042318614E+02  0.15396248319E+03  0.16068589688E+03  0.00000000000E+00 0.  1.
         14    1    4    4    0    0  0.60316541729E+02  0.21128972097E+02  0.31925532173E+03  0.32558943337E+03  0.00000000000E+00 0. -1.
        -11    1    3    3    0    0 -0.55298831635E+02  0.42630345673E+02 -0.19791773952E+02  0.72574247971E+02  0.00000000000E+00 0.  1.
         11    1    3    3    0    0 -0.31528936542E+02 -0.36398320408E+02  0.19060713414E+02  0.51790176325E+02  0.00000000000E+00 0. -1.
         21    1    1    2  502  501  0.13252817946E+02  0.16681321252E+02  0.69731106631E+02  0.72913173667E+02  0.00000000000E+00 0. -1.
<scales pt_clust_5="13000.00000" pt_clust_6="13000.00000" pt_clust_7="13000.00000" pt_clust_8="13000.00000" pt_clust_9="21.30501"></scales>
<clustering>
<clus scale="   21.305">  1  9  2 -1</clus>
<clus scale="   81.181">  5  6 -1 -1</clus>
<clus scale="   88.815">  7  8 -1 -1</clus>
<clus scale="  118.047">  1  5  2 -1</clus>
<clus scale="   21.305">  1  5  2 -1</clus>
</clustering>
</event>
<event>
 9    2  0.2984928E-005  0.4087388E+03  0.7546771E-02  0.1041028E+00
          2   -1    0    0  502    0  0.00000000000E+00  0.00000000000E+00  0.10379267313E+04  0.10379267313E+04  0.00000000000E+00 0. -1.
         -1   -1    0    0    0  501 -0.00000000000E+00 -0.00000000000E+00 -0.42254298709E+03  0.42254298709E+03  0.00000000000E+00 0.  1.
         24    2    1    2    0    0  0.19879748692E+03  0.34631415929E+03 -0.24871236543E+03  0.47719713403E+03  0.80033282337E+02 0.  0.
         23    2    1    2    0    0 -0.24367982690E+03 -0.30858068134E+03  0.69036257941E+03  0.79991070357E+03  0.93030896425E+02 0.  0.
        -11    1    3    3    0    0  0.17723004703E+03  0.26294986219E+03 -0.22182616841E+03  0.38698833133E+03  0.00000000000E+00 0.  1.
         12    1    3    3    0    0  0.21567439891E+02  0.83364297099E+02 -0.26886197014E+02  0.90208802698E+02  0.00000000000E+00 0. -1.
        -11    1    4    4    0    0 -0.71247018731E+02 -0.56040781595E+02  0.99443128411E+02  0.13455720965E+03  0.00000000000E+00 0.  1.
         11    1    4    4    0    0 -0.17243280817E+03 -0.25253989975E+03  0.59091945100E+03  0.66535349392E+03  0.00000000000E+00 0. -1.
         21    1    1    2  502  501  0.44882339985E+02 -0.37733477945E+02  0.17373353018E+03  0.18336188074E+03  0.00000000000E+00 0.  1.
<scales pt_clust_5="13000.00000" pt_clust_6="13000.00000" pt_clust_7="13000.00000" pt_clust_8="13000.00000" pt_clust_9="58.63651"></scales>
<clustering>
<clus scale="   58.637">  1  9  2 -1</clus>
<clus scale="   80.033">  5  6 -1 -1</clus>
<clus scale="   93.031">  7  8 -1 -1</clus>
<clus scale="  405.978">  2  5  1 -1</clus>
<clus scale="   58.637">  1  5  2 -1</clus>
</clustering>
</event>
<event>
 9    2  0.2984928E-005  0.1256183E+03  0.7546771E-02  0.1249477E+00
         -1   -1    0    0    0  501 -0.00000000000E+00  0.00000000000E+00  0.27171087001E+03  0.27171087001E+03  0.00000000000E+00 0.  1.
          2   -1    0    0  502    0  0.00000000000E+00 -0.00000000000E+00 -0.58208833979E+03  0.58208833979E+03  0.00000000000E+00 0. -1.
         24    2    1    2    0    0 -0.97710501544E+02 -0.36837825472E+02  0.23782914708E+03  0.26885088592E+03  0.69381036021E+02 0.  0.
         23    2    1    2    0    0 -0.35751435431E+01 -0.57776603379E+01 -0.29244672587E+03  0.30658168909E+03  0.91766451378E+02 0.  0.
        -11    1    3    3    0    0 -0.79754013454E+02 -0.50767151582E+02  0.14365260148E+03  0.17197114948E+03  0.00000000000E+00 0.  1.
         12    1    3    3    0    0 -0.17956488091E+02  0.13929326111E+02  0.94176545604E+02  0.96879736439E+02  0.00000000000E+00 0. -1.
        -13    1    4    4    0    0  0.11618550766E+02  0.38381092944E+02 -0.85581682322E+02  0.94510969557E+02  0.00000000000E+00 0. -1.
         13    1    4    4    0    0 -0.15193694309E+02 -0.44158753282E+02 -0.20686504355E+03  0.21207071953E+03  0.00000000000E+00 0.  1.
         21    1    1    2  502  501  0.10128564509E+03  0.42615485810E+02 -0.25575989099E+03  0.27836663480E+03  0.00000000000E+00 0. -1.
<scales pt_clust_5="13000.00000" pt_clust_6="13000.00000" pt_clust_7="13000.00000" pt_clust_8="13000.00000" pt_clust_9="104.71973"></scales>
<clustering>
<clus scale="   69.381">  5  6 -1 -1</clus>
<clus scale="   91.766">  7  8 -1 -1</clus>
<clus scale="   92.018">  2  7  1 -1</clus>
<clus scale="  104.720">  2  9  1 -1</clus>
<clus scale="   92.018">  2  5  1 -1</clus>
</clustering>
</event>
<event>
 9    2  0.2984928E-005  0.2470115E+03  0.7546771E-02  0.1116431E+00
          2   -1    0    0  502    0  0.00000000000E+00  0.00000000000E+00  0.57456983408E+03  0.57456983408E+03  0.00000000000E+00 0. -1.
         -1   -1    0    0    0  501 -0.00000000000E+00 -0.00000000000E+00 -0.43587326184E+03  0.43587326184E+03  0.00000000000E+00 0.  1.
         24    2    1    2    0    0  0.21458663770E+03  0.75338333521E+02 -0.34992506166E+03  0.42523163788E+03  0.81554322401E+02 0.  0.
         23    2    1    2    0    0 -0.20545987629E+03 -0.42551375976E+02  0.24102389529E+03  0.33528562400E+03  0.10148670452E+03 0.  0.
        -13    1    3    3    0    0  0.14564703373E+03  0.27901334264E+02 -0.27714828312E+03  0.31432898963E+03  0.00000000000E+00 0.  1.
         14    1    3    3    0    0  0.68939603971E+02  0.47436999257E+02 -0.72776778539E+02  0.11090264825E+03  0.00000000000E+00 0. -1.
        -13    1    4    4    0    0 -0.33471676246E+02  0.69741418549E+01 -0.10819430082E+01  0.34207636077E+02  0.00000000000E+00 0.  1.
         13    1    4    4    0    0 -0.17198820004E+03 -0.49525517830E+02  0.24210583830E+03  0.30107798792E+03  0.00000000000E+00 0. -1.
         21    1    1    2  502  501 -0.91267614134E+01 -0.32786957545E+02  0.24759773861E+03  0.24992583404E+03  0.00000000000E+00 0. -1.
<scales pt_clust_5="13000.00000" pt_clust_6="13000.00000" pt_clust_7="13000.00000" pt_clust_8="13000.00000" pt_clust_9="34.03355"></scales>
<clustering>
<clus scale="   34.034">  1  9  2 -1</clus>
<clus scale="   81.554">  5  6 -1 -1</clus>
<clus scale="  101.487">  7  8 -1 -1</clus>
<clus scale="  239.513">  2  5  1 -1</clus>
<clus scale="   34.034">  1  5  2 -1</clus>
</clustering>
</event>
<event>
 9    2  0.2984928E-005  0.1047385E+03  0.7546771E-02  0.1271718E+00
         -1   -1    0    0    0  501 -0.00000000000E+00  0.00000000000E+00  0.44896654537E+02  0.44896654537E+02  0.00000000000E+00 0.  1.
          2   -1    0    0  502    0  0.00000000000E+00 -0.00000000000E+00 -0.47862767209E+03  0.47862767209E+03  0.00000000000E+00 0. -1.
         23    2    1    2    0    0  0.66066423966E+02  0.17869246205E+02 -0.46567533774E+02  0.11726844753E+03  0.83061851943E+02 0.  0.
         24    2    1    2    0    0 -0.42099422511E+02 -0.27537672433E+02 -0.26629716279E+03  0.28265748439E+03  0.80314318742E+02 0.  0.
        -13    1    4    4    0    0 -0.16160738097E+02 -0.14166410133E+02 -0.83360187805E+01  0.23050940132E+02  0.00000000000E+00 0.  1.
         14    1    4    4    0    0 -0.25938684414E+02 -0.13371262301E+02 -0.25796114401E+03  0.25960654426E+03  0.00000000000E+00 0. -1.
        -13    1    3    3    0    0  0.67114012727E+02  0.41216851177E+02 -0.50513279060E+02  0.93566612030E+02  0.00000000000E+00 0.  1.
         13    1    3    3    0    0 -0.10475887612E+01 -0.23347604972E+02  0.39457452858E+01  0.23701835498E+02  0.00000000000E+00 0. -1.
         21    1    1    2  502  501 -0.23967001455E+02  0.96684262283E+01 -0.12086632099E+03  0.12359839471E+03  0.00000000000E+00 0. -1.
<scales pt_clust_5="13000.00000" pt_clust_6="13000.00000" pt_clust_7="13000.00000" pt_clust_8="13000.00000" pt_clust_9="25.84368"></scales>
<clustering>
<clus scale="   25.844">  2  9  1 -1</clus>
<clus scale="   80.314">  5  6 -1 -1</clus>
<clus scale="   83.062">  7  8 -1 -1</clus>
<clus scale="  102.573">  2  5  1 -1</clus>
<clus scale="   25.844">  2  5  1 -1</clus>
</clustering>
</event>
<event>
 9    2  0.2984928E-005  0.9889922E+02  0.7546771E-02  0.1286364E+00
         -1   -1    0    0    0  501 -0.00000000000E+00  0.00000000000E+00  0.65969048110E+02  0.65969048110E+02  0.00000000000E+00 0.  1.
          2   -1    0    0  502    0  0.00000000000E+00 -0.00000000000E+00 -0.37550613184E+03  0.37550613184E+03  0.00000000000E+00 0. -1.
         23    2    1    2    0    0 -0.21362048385E+02  0.34092554272E+02 -0.13074666177E+02  0.99306978906E+02  0.89845922534E+02 0.  0.
         24    2    1    2    0    0  0.70562698254E+02  0.47172991433E+00 -0.21620660713E+03  0.24188665341E+03  0.82368314404E+02 0.  0.
        -13    1    4    4    0    0  0.76567884223E+02 -0.19687815547E+02 -0.12211733395E+03  0.14547472023E+03  0.00000000000E+00 0.  1.
         14    1    4    4    0    0 -0.60051859693E+01  0.20159545462E+02 -0.94089273184E+02  0.96411933182E+02  0.00000000000E+00 0. -1.
        -11    1    3    3    0    0  0.21582212683E+02 -0.10833038091E+01  0.24198407841E+02  0.32442693992E+02  0.00000000000E+00 0. -1.
         11    1    3    3    0    0 -0.42944261068E+02  0.35175858081E+02 -0.37273074018E+02  0.66864284914E+02  0.00000000000E+00 0.  1.
         21    1    1    2  502  501 -0.49200649869E+02 -0.34564284186E+02 -0.80255810426E+02  0.10028154763E+03  0.00000000000E+00 0.  1.
<scales pt_clust_5="13000.00000" pt_clust_6="13000.00000" pt_clust_7="13000.00000" pt_clust_8="13000.00000" pt_clust_9="60.12814"></scales>
<clustering>
<clus scale="   60.128">  2  9  1 -1</clus>
<clus scale="   82.368">  5  6 -1 -1</clus>
<clus scale="   89.846">  7  8 -1 -1</clus>
<clus scale="   92.159">  2  5  1 -1</clus>
<clus scale="   60.128">  2  5  1 -1</clus>
</clustering>
</event>
<event>
 9    2  0.2984928E-005  0.1153379E+03  0.7546771E-02  0.1252171E+00
          4   -1    0    0  502    0  0.00000000000E+00  0.00000000000E+00  0.10920669993E+03  0.10920669993E+03  0.00000000000E+00 0. -1.
         -3   -1    0    0    0  501 -0.00000000000E+00 -0.00000000000E+00 -0.16680636648E+03  0.16680636648E+03  0.00000000000E+00 0.  1.
         24    2    1    2    0    0  0.27886583236E+02 -0.65437404379E+02 -0.31917786543E+02  0.11819411790E+03  0.88833490255E+02 0.  0.
         23    2    1    2    0    0  0.98018912482E+01  0.71860339733E+02 -0.16154869721E+02  0.11841794431E+03  0.92205445723E+02 0.  0.
        -11    1    3    3    0    0  0.41513400774E+02 -0.61736308319E+02 -0.54038679322E+02  0.91950601257E+02  0.00000000000E+00 0.  1.
         12    1    3    3    0    0 -0.13626817537E+02 -0.37010960599E+01  0.22120892779E+02  0.26243516639E+02  0.00000000000E+00 0. -1.
        -13    1    4    4    0    0 -0.27554795142E+02  0.35159006938E+02 -0.40837468914E+02  0.60523725691E+02  0.00000000000E+00 0.  1.
         13    1    4    4    0    0  0.37356686390E+02  0.36701332795E+02  0.24682599193E+02  0.57894218622E+02  0.00000000000E+00 0. -1.
         21    1    1    2  502  501 -0.37688474485E+02 -0.64229353540E+01 -0.95270102812E+01  0.39401004206E+02  0.00000000000E+00 0.  1.
<scales pt_clust_5="13000.00000" pt_clust_6="13000.00000" pt_clust_7="13000.00000" pt_clust_8="13000.00000" pt_clust_9="38.23186"></scales>
<clustering>
<clus scale="   38.232">  2  9  1 -1</clus>
<clus scale="   88.833">  5  6 -1 -1</clus>
<clus scale="   92.205">  7  8 -1 -1</clus>
<clus scale="  112.660">  2  5  1 -1</clus>
<clus scale="  115.338">  1  5  2 -1</clus>
</clustering>
</event>
<event>
 9    2  0.2984928E-005  0.9906495E+02  0.7546771E-02  0.1290398E+00
         -1   -1    0    0    0  501 -0.00000000000E+00  0.00000000000E+00  0.16480620608E+03  0.16480620608E+03  0.00000000000E+00 0.  1.
          2   -1    0    0  502    0  0.00000000000E+00 -0.00000000000E+00 -0.14124386854E+03  0.14124386854E+03  0.00000000000E+00 0. -1.
         24    2    1    2    0    0  0.11719490121E+02  0.49972771836E+02  0.12106273998E+03  0.14932010239E+03  0.70750841640E+02 0.  0.
         23    2    1    2    0    0 -0.15272565073E+01 -0.18350028667E+02 -0.76640837605E+02  0.11749986954E+03  0.87139803130E+02 0.  0.
        -13    1    3    3    0    0 -0.10905708655E+02  0.54612295340E+02  0.11087825573E+03  0.12407830140E+03  0.00000000000E+00 0.  1.
         14    1    3    3    0    0  0.22625198776E+02 -0.46395235038E+01  0.10184484248E+02  0.25241800993E+02  0.00000000000E+00 0. -1.
        -13    1    4    4    0    0  0.52093751166E+01 -0.50485275447E+02 -0.65425734002E+02  0.82803546396E+02  0.00000000000E+00 0. -1.
         13    1    4    4    0    0 -0.67366316240E+01  0.32135246779E+02 -0.11215103603E+02  0.34696323148E+02  0.00000000000E+00 0.  1.
         21    1    1    2  502  501 -0.10192233613E+02 -0.31622743168E+02 -0.20859564831E+02  0.39230102682E+02  0.00000000000E+00 0. -1.
<scales pt_clust_5="13000.00000" pt_clust_6="13000.00000" pt_clust_7="13000.00000" pt_clust_8="13000.00000" pt_clust_9="33.22468"></scales>
<clustering>
<clus scale="   33.225">  2  9  1 -1</clus>
<clus scale="   70.751">  5  6 -1 -1</clus>
<clus scale="   85.007">  1  5  2 -1</clus>
<clus scale="   87.140">  7  8 -1 -1</clus>
<clus scale="   33.225">  2  5  1 -1</clus>
</clustering>
</event>
<event>
 9    2  0.2984928E-005  0.1242939E+03  0.7546771E-02  0.1240567E+00
          2   -1    0    0  502    0  0.00000000000E+00  0.00000000000E+00  0.78619463417E+03  0.78619463417E+03  0.00000000000E+00 0. -1.
         -1   -1    0    0    0  501 -0.00000000000E+00 -0.00000000000E+00 -0.11922104528E+03  0.11922104528E+03  0.00000000000E+00 0.  1.
         23    2    1    2    0    0  0.16599132402E+01 -0.80141320486E+02 -0.71241111460E+02  0.14214961350E+03  0.93305037892E+02 0.  0.
         24    2    1    2    0    0  0.39312342758E+02  0.11148967299E+03  0.51911837080E+03  0.53817797967E+03  0.78589104950E+02 0.  0.
        -11    1    4    4    0    0  0.36746171004E+02  0.83202568057E+01  0.11128759290E+03  0.11749228098E+03  0.00000000000E+00 0.  1.
         12    1    4    4    0    0  0.25661717532E+01  0.10316941619E+03  0.40783077791E+03  0.42068569869E+03  0.00000000000E+00 0. -1.
        -11    1    3    3    0    0  0.32459265159E+02 -0.51867770733E+02 -0.19452295994E+01  0.61218081101E+02  0.00000000000E+00 0. -1.
         11    1    3    3    0    0 -0.30799351919E+02 -0.28273549754E+02 -0.69295881861E+02  0.80931532403E+02  0.00000000000E+00 0.  1.
         21    1    1    2  502  501 -0.40972255998E+02 -0.31348352505E+02  0.21909632955E+03  0.22508808629E+03  0.00000000000E+00 0. -1.
<scales pt_clust_5="13000.00000" pt_clust_6="13000.00000" pt_clust_7="13000.00000" pt_clust_8="13000.00000" pt_clust_9="51.58919"></scales>
<clustering>
<clus scale="   51.589">  1  9  2 -1</clus>
<clus scale="   78.589">  5  6 -1 -1</clus>
<clus scale="   93.305">  7  8 -1 -1</clus>
<clus scale="  113.664">  1  5  2 -1</clus>
<clus scale="   51.589">  1  5  2 -1</clus>
</clustering>
</event>
<event>
 9    2  0.5924270E-005  0.1015477E+03  0.7546771E-02  0.1280879E+00
          2   -1    0    0  502    0  0.00000000000E+00  0.00000000000E+00  0.98893849779E+03  0.98893849779E+03  0.00000000000E+00 0. -1.
         -1   -1    0    0    0  501 -0.00000000000E+00 -0.00000000000E+00 -0.22894623329E+03  0.22894623329E+03  0.00000000000E+00 0.  1.
         23    2    1    2    0    0  0.30566307330E+02  0.40439018986E+02 -0.21356909732E+03  0.23658493776E+03  0.88266981614E+02 0.  0.
         24    2    1    2    0    0 -0.13922994872E+02 -0.98409736764E+01  0.80708422779E+03  0.81121782372E+03  0.79991950940E+02 0.  0.
        -11    1    4    4    0    0 -0.94336957104E+01 -0.29888318819E+02  0.12654183325E+03  0.13036541635E+03  0.00000000000E+00 0.  1.
         12    1    4    4    0    0 -0.44892991617E+01  0.20047345142E+02  0.68054239454E+03  0.68085240737E+03  0.00000000000E+00 0. -1.
        -11    1    3    3    0    0 -0.23442828632E+02  0.41220575814E+02 -0.10970072151E+03  0.11951129814E+03  0.00000000000E+00 0.  1.
         11    1    3    3    0    0  0.54009135962E+02 -0.78155682788E+00 -0.10386837582E+03  0.11707363962E+03  0.00000000000E+00 0. -1.
         21    1    1    2  502  501 -0.16643312458E+02 -0.30598045310E+02  0.16647713404E+03  0.17008196960E+03  0.00000000000E+00 0. -1.
<scales pt_clust_5="13000.00000" pt_clust_6="13000.00000" pt_clust_7="13000.00000" pt_clust_8="13000.00000" pt_clust_9="34.83160"></scales>
<clustering>
<clus scale="   34.832">  1  9  2 -1</clus>
<clus scale="   79.992">  5  6 -1 -1</clus>
<clus scale="   88.267">  7  8 -1 -1</clus>
<clus scale="   94.444">  1  5  2 -1</clus>
<clus scale="   34.832">  1  5  2 -1</clus>
</clustering>
</event>
<event>
 9    2  0.2984928E-005  0.1077861E+03  0.7546771E-02  0.1270092E+00
         -1   -1    0    0    0  501 -0.00000000000E+00  0.00000000000E+00  0.38401428930E+02  0.38401428930E+02  0.00000000000E+00 0.  1.
          2   -1    0    0  502    0  0.00000000000E+00 -0.00000000000E+00 -0.67291182388E+03  0.67291182388E+03  0.00000000000E+00 0. -1.
         23    2    1    2    0    0 -0.48095044312E+02  0.55710831311E+02 -0.11614732337E+03  0.16630033270E+03  0.93534859377E+02 0.  0.
         24    2    1    2    0    0 -0.10833548715E+02 -0.53077151435E+02 -0.41219192873E+03  0.42355582101E+03  0.81011095674E+02 0.  0.
        -13    1    4    4    0    0 -0.45242481513E+02 -0.25205497782E+02 -0.18629922547E+03  0.19336390734E+03  0.00000000000E+00 0.  1.
         14    1    4    4    0    0  0.34408932798E+02 -0.27871653653E+02 -0.22589270326E+03  0.23019191367E+03  0.00000000000E+00 0. -1.
        -11    1    3    3    0    0 -0.93206588822E+01  0.73518444468E+02 -0.88625156433E+02  0.11552599150E+03  0.00000000000E+00 0.  1.
         11    1    3    3    0    0 -0.38774385430E+02 -0.17807613157E+02 -0.27522166932E+02  0.50774341202E+02  0.00000000000E+00 0. -1.
         21    1    1    2  502  501  0.58928593027E+02 -0.26336798763E+01 -0.10617114286E+03  0.12145709910E+03  0.00000000000E+00 0.  1.
<scales pt_clust_5="13000.00000" pt_clust_6="13000.00000" pt_clust_7="13000.00000" pt_clust_8="13000.00000" pt_clust_9="58.98742"></scales>
<clustering>
<clus scale="   58.987">  1  9  2 -1</clus>
<clus scale="   81.011">  5  6 -1 -1</clus>
<clus scale="   93.535">  7  8 -1 -1</clus>
<clus scale="   97.118">  2  5  1 -1</clus>
<clus scale="   97.118">  2  5  1 -1</clus>
</clustering>
</event>
<event>
 9    2  0.2984928E-005  0.9368250E+03  0.7546771E-02  0.9897999E-01
          2   -1    0    0  502    0  0.00000000000E+00  0.00000000000E+00  0.36298817787E+04  0.36298817787E+04  0.00000000000E+00 0. -1.
         -1   -1    0    0    0  501 -0.00000000000E+00 -0.00000000000E+00 -0.85078660569E+03  0.85078660569E+03  0.00000000000E+00 0.  1.
         24    2    1    2    0    0 -0.63515008090E+03 -0.69958902884E+03 -0.48824803858E+03  0.10665951876E+04  0.79991952469E+02 0.  0.
         23    2    1    2    0    0  0.51755507047E+02  0.12733985774E+03  0.36983796206E+03  0.40353254542E+03  0.84642336622E+02 0.  0.
        -11    1    3    3    0    0 -0.47791281338E+03 -0.47727032609E+03 -0.36445775123E+03  0.76747447762E+03  0.00000000000E+00 0.  1.
         12    1    3    3    0    0 -0.15723726751E+03 -0.22231870275E+03 -0.12379028735E+03  0.29912070997E+03  0.00000000000E+00 0. -1.
        -11    1    4    4    0    0  0.73182521516E+02  0.99519593813E+02  0.25326243153E+03  0.28178305526E+03  0.00000000000E+00 0. -1.
         11    1    4    4    0    0 -0.21427014470E+02  0.27820263932E+02  0.11657553053E+03  0.12174949016E+03  0.00000000000E+00 0.  1.
         21    1    1    2  502  501  0.58339457385E+03  0.57224917110E+03  0.28975052495E+04  0.30105406513E+04  0.00000000000E+00 0. -1.
<scales pt_clust_5="13000.00000" pt_clust_6="13000.00000" pt_clust_7="13000.00000" pt_clust_8="13000.00000" pt_clust_9="933.40362"></scales>
<clustering>
<clus scale="   79.992">  5  6 -1 -1</clus>
<clus scale="   84.642">  7  8 -1 -1</clus>
<clus scale="  161.426">  1  7  2 -1</clus>
<clus scale="  933.404">  1  9  2 -1</clus>
<clus scale="  161.426">  1  5  2 -1</clus>
</clustering>
</event>
<event>
 9    2  0.2984928E-005  0.1217469E+03  0.7546771E-02  0.1246765E+00
          2   -1    0    0  502    0  0.00000000000E+00  0.00000000000E+00  0.47518185318E+03  0.47518185318E+03  0.00000000000E+00 0. -1.
         -1   -1    0    0    0  501 -0.00000000000E+00 -0.00000000000E+00 -0.34877105189E+02  0.34877105189E+02  0.00000000000E+00 0.  1.
         24    2    1    2    0    0 -0.39608455055E+02  0.73917350375E+02  0.14940120618E+03  0.18542384495E+03  0.70913168500E+02 0.  0.
         23    2    1    2    0    0  0.17616012728E+02 -0.73492553573E+02  0.21679679917E+03  0.24733273781E+03  0.91984518945E+02 0.  0.
        -13    1    3    3    0    0 -0.18248536553E+02 -0.10694220951E+02  0.18496052504E+02  0.28097676173E+02  0.00000000000E+00 0.  1.
         14    1    3    3    0    0 -0.21359918502E+02  0.84611571326E+02  0.13090515368E+03  0.15732616877E+03  0.00000000000E+00 0. -1.
        -13    1    4    4    0    0 -0.29503027526E+02  0.23577608434E+01  0.59614911356E+02  0.66557684195E+02  0.00000000000E+00 0.  1.
         13    1    4    4    0    0  0.47119040255E+02 -0.75850314417E+02  0.15718188782E+03  0.18077505362E+03  0.00000000000E+00 0. -1.
         21    1    1    2  502  501  0.21992442327E+02 -0.42479680160E+00  0.74106742628E+02  0.77302375609E+02  0.00000000000E+00 0. -1.
<scales pt_clust_5="13000.00000" pt_clust_6="13000.00000" pt_clust_7="13000.00000" pt_clust_8="13000.00000" pt_clust_9="21.99654"></scales>
<clustering>
<clus scale="   21.997">  1  9  2 -1</clus>
<clus scale="   70.913">  5  6 -1 -1</clus>
<clus scale="   91.985">  7  8 -1 -1</clus>
<clus scale="  106.723">  2  5  1 -1</clus>
<clus scale="   21.997">  1  5  2 -1</clus>
</clustering>
</event>
<event>
 9    2  0.2984928E-005  0.9964595E+02  0.7546771E-02  0.1284313E+00
          2   -1    0    0  502    0  0.00000000000E+00  0.00000000000E+00  0.10230300531E+03  0.10230300531E+03  0.00000000000E+00 0. -1.
         -1   -1    0    0    0  501 -0.00000000000E+00 -0.00000000000E+00 -0.26578497461E+03  0.26578497461E+03  0.00000000000E+00 0.  1.
         23    2    1    2    0    0  0.28755745287E+02  0.19808843802E+02 -0.12664763056E+03  0.15779191654E+03  0.87403566399E+02 0.  0.
         24    2    1    2    0    0 -0.10264178015E+03 -0.16302261836E+02 -0.10914050137E+02  0.13191683382E+03  0.80509848976E+02 0.  0.
        -13    1    4    4    0    0 -0.43135868290E+02  0.32463071047E+02  0.13875742924E+01  0.54004439423E+02  0.00000000000E+00 0.  1.
         14    1    4    4    0    0 -0.59505911856E+02 -0.48765332884E+02 -0.12301624430E+02  0.77912394397E+02  0.00000000000E+00 0. -1.
        -13    1    3    3    0    0  0.50878888569E+02  0.30476523854E+02 -0.50878768757E+02  0.78141723288E+02  0.00000000000E+00 0. -1.
         13    1    3    3    0    0 -0.22123143281E+02 -0.10667680052E+02 -0.75768861801E+02  0.79650193251E+02  0.00000000000E+00 0.  1.
         21    1    1    2  502  501  0.73886034859E+02 -0.35065819657E+01 -0.25920288610E+02  0.78379229557E+02  0.00000000000E+00 0. -1.
<scales pt_clust_5="13000.00000" pt_clust_6="13000.00000" pt_clust_7="13000.00000" pt_clust_8="13000.00000" pt_clust_9="73.96920"></scales>
<clustering>
<clus scale="   73.969">  1  9  2 -1</clus>
<clus scale="   80.510">  5  6 -1 -1</clus>
<clus scale="   87.404">  7  8 -1 -1</clus>
<clus scale="   93.658">  1  5  2 -1</clus>
<clus scale="   73.969">  1  5  2 -1</clus>
</clustering>
</event>
<event>
 9    2  0.2984928E-005  0.9523589E+02  0.7546771E-02  0.1291961E+00
          2   -1    0    0  502    0  0.00000000000E+00  0.00000000000E+00  0.73251689762E+03  0.73251689762E+03  0.00000000000E+00 0. -1.
         -1   -1    0    0    0  501 -0.00000000000E+00 -0.00000000000E+00 -0.19435536492E+02  0.19435536492E+02  0.00000000000E+00 0.  1.
         24    2    1    2    0    0 -0.12754517190E+02  0.35225737291E+02  0.14749269945E+03  0.17532351412E+03  0.87067260984E+02 0.  0.
         23    2    1    2    0    0  0.47438495503E+01 -0.16607603931E+02  0.48740634605E+03  0.49586209411E+03  0.89531857963E+02 0.  0.
        -13    1    3    3    0    0  0.27061955619E+02  0.46052204914E+02  0.87342805950E+02  0.10238125205E+03  0.00000000000E+00 0.  1.
         14    1    3    3    0    0 -0.39816472809E+02 -0.10826467623E+02  0.60149893497E+02  0.72942262070E+02  0.00000000000E+00 0. -1.
        -11    1    4    4    0    0 -0.68906175308E+01 -0.52742374337E+02  0.29070789825E+03  0.29553395874E+03  0.00000000000E+00 0. -1.
         11    1    4    4    0    0  0.11634467081E+02  0.36134770407E+02  0.19669844780E+03  0.20032813538E+03  0.00000000000E+00 0.  1.
         21    1    1    2  502  501  0.80106676398E+01 -0.18618133360E+02  0.78182315627E+02  0.80766825879E+02  0.00000000000E+00 0.  1.
<scales pt_clust_5="13000.00000" pt_clust_6="13000.00000" pt_clust_7="13000.00000" pt_clust_8="13000.00000" pt_clust_9="20.26834"></scales>
<clustering>
<clus scale="   20.268">  1  9  2 -1</clus>
<clus scale="   87.067">  5  6 -1 -1</clus>
<clus scale="   89.532">  7  8 -1 -1</clus>
<clus scale="   92.923">  2  5  1 -1</clus>
<clus scale="   20.268">  1  5  2 -1</clus>
</clustering>
</event>
<event>
 9    2  0.2984928E-005  0.8900712E+02  0.7546771E-02  0.1313468E+00
          2   -1    0    0  502    0  0.00000000000E+00  0.00000000000E+00  0.23133409988E+03  0.23133409988E+03  0.00000000000E+00 0. -1.
         -1   -1    0    0    0  501 -0.00000000000E+00 -0.00000000000E+00 -0.16533395436E+03  0.16533395436E+03  0.00000000000E+00 0.  1.
         23    2    1    2    0    0  0.51783449952E+02  0.24793446942E+02 -0.86736594721E+02  0.13669642872E+03  0.88692931285E+02 0.  0.
         24    2    1    2    0    0 -0.32452361004E+01 -0.24956372777E+01  0.18318045101E+03  0.19849016454E+03  0.76331566368E+02 0.  0.
        -11    1    4    4    0    0 -0.27044247465E+02  0.24925511850E+02  0.12120359677E+03  0.12666090294E+03  0.00000000000E+00 0.  1.
         12    1    4    4    0    0  0.23799011364E+02 -0.27421149128E+02  0.61976854237E+02  0.71829261604E+02  0.00000000000E+00 0. -1.
        -11    1    3    3    0    0  0.76470478020E+02  0.24559292177E+02 -0.59637160007E+02  0.10003741148E+03  0.00000000000E+00 0. -1.
         11    1    3    3    0    0 -0.24687028068E+02  0.23415476490E+00 -0.27099434714E+02  0.36659017242E+02  0.00000000000E+00 0.  1.
         21    1    1    2  502  501 -0.48538213852E+02 -0.22297809665E+02 -0.30443710770E+02  0.61481460988E+02  0.00000000000E+00 0.  1.
<scales pt_clust_5="13000.00000" pt_clust_6="13000.00000" pt_clust_7="13000.00000" pt_clust_8="13000.00000" pt_clust_9="53.41489"></scales>
<clustering>
<clus scale="   53.415">  2  9  1 -1</clus>
<clus scale="   76.332">  5  6 -1 -1</clus>
<clus scale="   76.696">  1  5  2 -1</clus>
<clus scale="   88.693">  7  8 -1 -1</clus>
<clus scale="   76.696">  1  5  2 -1</clus>
</clustering>
</event>
<event>
 9    2  0.2984928E-005  0.1043989E+03  0.7546771E-02  0.1278661E+00
          2   -1    0    0  502    0  0.00000000000E+00  0.00000000000E+00  0.87300425620E+03  0.87300425620E+03  0.00000000000E+00 0. -1.
         -1   -1    0    0    0  501 -0.00000000000E+00 -0.00000000000E+00 -0.22659113876E+02  0.22659113876E+02  0.00000000000E+00 0.  1.
         24    2    1    2    0    0 -0.17329090748E+02 -0.71579594380E+02  0.26089447291E+03  0.28282643883E+03  0.80628362185E+02 0.  0.
         23    2    1    2    0    0 -0.12986765546E+02  0.27157507809E+02  0.48571142300E+03  0.49598572601E+03  0.95812669647E+02 0.  0.
        -13    1    3    3    0    0 -0.42626146942E+02 -0.71297157744E+02  0.18412092657E+03  0.20199205109E+03  0.00000000000E+00 0.  1.
         14    1    3    3    0    0  0.25297056193E+02 -0.28243663555E+00  0.76773546346E+02  0.80834387738E+02  0.00000000000E+00 0. -1.
        -13    1    4    4    0    0 -0.25849357924E+02  0.59029889711E+02  0.35671319672E+03  0.36248727136E+03  0.00000000000E+00 0.  1.
         13    1    4    4    0    0  0.12862592378E+02 -0.31872381902E+02  0.12899822628E+03  0.13349845465E+03  0.00000000000E+00 0. -1.
         21    1    1    2  502  501  0.30315856294E+02  0.44422086571E+02  0.10373924641E+03  0.11685120523E+03  0.00000000000E+00 0. -1.
<scales pt_clust_5="13000.00000" pt_clust_6="13000.00000" pt_clust_7="13000.00000" pt_clust_8="13000.00000" pt_clust_9="53.78079"></scales>
<clustering>
<clus scale="   53.781">  2  9  1 -1</clus>
<clus scale="   80.628">  5  6 -1 -1</clus>
<clus scale="   90.664">  2  5  1 -1</clus>
<clus scale="   95.813">  7  8 -1 -1</clus>
<clus scale="  104.399">  1  5  2 -1</clus>
</clustering>
</event>
<event>
 9    2  0.2984928E-005  0.1768823E+03  0.7546771E-02  0.1172192E+00
         -3   -1    0    0    0  501 -0.00000000000E+00  0.00000000000E+00  0.23102866546E+03  0.23102866546E+03  0.00000000000E+00 0.  1.
          4   -1    0    0  502    0  0.00000000000E+00 -0.00000000000E+00 -0.67268223482E+03  0.67268223482E+03  0.00000000000E+00 0. -1.
         23    2    1    2    0    0  0.57169497663E+02 -0.20531108917E+02  0.16443806900E+03  0.19674512537E+03  0.89324621035E+02 0.  0.
         24    2    1    2    0    0 -0.15049184750E+03  0.52748283076E+02 -0.57746608587E+03  0.60417263533E+03  0.78277170458E+02 0.  0.
        -13    1    4    4    0    0 -0.18215313769E+02 -0.18206445692E+02 -0.58146485884E+02  0.63594702146E+02  0.00000000000E+00 0.  1.
         14    1    4    4    0    0 -0.13227653373E+03  0.70954728769E+02 -0.51931959999E+03  0.54057793318E+03  0.00000000000E+00 0. -1.
        -11    1    3    3    0    0  0.31355406069E+02 -0.55795569392E+02  0.10501739010E+03  0.12298357320E+03  0.00000000000E+00 0.  1.
         11    1    3    3    0    0  0.25814091594E+02  0.35264460474E+02  0.59420678901E+02  0.73761552169E+02  0.00000000000E+00 0. -1.
         21    1    1    2  502  501  0.93322349841E+02 -0.32217174159E+02 -0.28625552480E+02  0.10279313958E+03  0.00000000000E+00 0.  1.
<scales pt_clust_5="13000.00000" pt_clust_6="13000.00000" pt_clust_7="13000.00000" pt_clust_8="13000.00000" pt_clust_9="98.72693"></scales>
<clustering>
<clus scale="   78.277">  5  6 -1 -1</clus>
<clus scale="   89.325">  7  8 -1 -1</clus>
<clus scale="   98.727">  1  9  2 -1</clus>
<clus scale="  171.569">  2  5  1 -1</clus>
<clus scale="  171.569">  2  5  1 -1</clus>
</clustering>
</event>
<event>
 9    2  0.2984928E-005  0.1650054E+03  0.7546771E-02  0.1185973E+00
         -1   -1    0    0    0  501 -0.00000000000E+00  0.00000000000E+00  0.30349138512E+02  0.30349138512E+02  0.00000000000E+00 0.  1.
          2   -1    0    0  502    0  0.00000000000E+00 -0.00000000000E+00 -0.10688960284E+04  0.10688960284E+04  0.00000000000E+00 0. -1.
         24    2    1    2    0    0  0.15229136274E+02  0.12213346691E+03 -0.27309436915E+03  0.30869243940E+03  0.74578665545E+02 0.  0.
         23    2    1    2    0    0 -0.28846990051E+02 -0.14028765703E+03 -0.71559178432E+03  0.73577030700E+03  0.93667322600E+02 0.  0.
        -13    1    3    3    0    0  0.50978513826E+01  0.48332897113E+02 -0.36878196738E+02  0.61008675012E+02  0.00000000000E+00 0.  1.
         14    1    3    3    0    0  0.10131284891E+02  0.73800569793E+02 -0.23621617241E+03  0.24768376439E+03  0.00000000000E+00 0. -1.
        -11    1    4    4    0    0  0.45005738552E+01 -0.27329343267E+02 -0.32959031465E+02  0.43051665747E+02  0.00000000000E+00 0.  1.
         11    1    4    4    0    0 -0.33347563906E+02 -0.11295831377E+03 -0.68263275285E+03  0.69271864125E+03  0.00000000000E+00 0. -1.
         21    1    1    2  502  501  0.13617853777E+02  0.18154190127E+02 -0.49860736433E+02  0.54782420522E+02  0.00000000000E+00 0. -1.
<scales pt_clust_5="13000.00000" pt_clust_6="13000.00000" pt_clust_7="13000.00000" pt_clust_8="13000.00000" pt_clust_9="22.69406"></scales>
<clustering>
<clus scale="   22.694">  1  9  2 -1</clus>
<clus scale="   74.579">  5  6 -1 -1</clus>
<clus scale="   93.667">  7  8 -1 -1</clus>
<clus scale="  154.968">  1  5  2 -1</clus>
<clus scale="  165.005">  2  5  1 -1</clus>
</clustering>
</event>
<event>
 9    2  0.2984928E-005  0.1098690E+03  0.7546771E-02  0.1264465E+00
          2   -1    0    0  502    0  0.00000000000E+00  0.00000000000E+00  0.30724052893E+03  0.30724052893E+03  0.00000000000E+00 0. -1.
         -1   -1    0    0    0  501 -0.00000000000E+00 -0.00000000000E+00 -0.71763184310E+02  0.71763184310E+02  0.00000000000E+00 0.  1.
         24    2    1    2    0    0 -0.49155080358E+02  0.36968102441E+02  0.17608480591E+01  0.10172959471E+03  0.81012019664E+02 0.  0.
         23    2    1    2    0    0  0.70990077808E+02 -0.12153205287E+02  0.17126857870E+03  0.20661798872E+03  0.90392342977E+02 0.  0.
        -11    1    3    3    0    0 -0.14261351191E+02  0.45024029270E+02 -0.28226531295E+02  0.55020781696E+02  0.00000000000E+00 0.  1.
         12    1    3    3    0    0 -0.34893729167E+02 -0.80559268291E+01  0.29987379354E+02  0.46708813010E+02  0.00000000000E+00 0. -1.
        -11    1    4    4    0    0  0.57771743088E+02 -0.47102819270E+02  0.13676125184E+03  0.15575586630E+03  0.00000000000E+00 0. -1.
         11    1    4    4    0    0  0.13218334720E+02  0.34949613983E+02  0.34507326861E+02  0.50862122424E+02  0.00000000000E+00 0.  1.
         21    1    1    2  502  501 -0.21834997450E+02 -0.24814897154E+02  0.62447917857E+02  0.70656129806E+02  0.00000000000E+00 0. -1.
<scales pt_clust_5="13000.00000" pt_clust_6="13000.00000" pt_clust_7="13000.00000" pt_clust_8="13000.00000" pt_clust_9="33.05369"></scales>
<clustering>
<clus scale="   33.054">  1  9  2 -1</clus>
<clus scale="   81.012">  5  6 -1 -1</clus>
<clus scale="   90.392">  7  8 -1 -1</clus>
<clus scale="  102.291">  2  5  1 -1</clus>
<clus scale="   33.054">  1  5  2 -1</clus>
</clustering>
</event>
<event>
 9    2  0.2984928E-005  0.1140597E+03  0.7546771E-02  0.1256747E+00
          2   -1    0    0  502    0  0.00000000000E+00  0.00000000000E+00  0.62648142853E+03  0.62648142853E+03  0.00000000000E+00 0. -1.
         -1   -1    0    0    0  501 -0.00000000000E+00 -0.00000000000E+00 -0.66047549042E+02  0.66047549042E+02  0.00000000000E+00 0.  1.
         24    2    1    2    0    0 -0.68604620763E+02 -0.10227148086E+03  0.92486772480E+02  0.17378872016E+03  0.80515007192E+02 0.  0.
         23    2    1    2    0    0  0.19177146075E+02  0.57969802506E+02  0.42707494681E+03  0.44078996916E+03  0.90413084145E+02 0.  0.
        -11    1    3    3    0    0 -0.82268177588E+02 -0.10380194043E+03  0.77528914989E+02  0.15347191450E+03  0.00000000000E+00 0.  1.
         12    1    3    3    0    0  0.13663556825E+02  0.15304595648E+01  0.14957857491E+02  0.20316805662E+02  0.00000000000E+00 0. -1.
        -13    1    4    4    0    0  0.38943000769E+02 -0.67693801600E+01  0.11997324839E+03  0.12631691156E+03  0.00000000000E+00 0.  1.
         13    1    4    4    0    0 -0.19765854694E+02  0.64739182666E+02  0.30710169842E+03  0.31447305760E+03  0.00000000000E+00 0. -1.
         21    1    1    2  502  501  0.49427474688E+02  0.44301678359E+02  0.40872160196E+02  0.77950288252E+02  0.00000000000E+00 0. -1.
<scales pt_clust_5="13000.00000" pt_clust_6="13000.00000" pt_clust_7="13000.00000" pt_clust_8="13000.00000" pt_clust_9="66.37555"></scales>
<clustering>
<clus scale="   66.376">  2  9  1 -1</clus>
<clus scale="   80.515">  5  6 -1 -1</clus>
<clus scale="   90.413">  7  8 -1 -1</clus>
<clus scale="  106.385">  2  5  1 -1</clus>
<clus scale="  114.060">  1  5  2 -1</clus>
</clustering>
</event>
<event>
 9    2  0.2984928E-005  0.1862938E+03  0.7546771E-02  0.1163007E+00
          2   -1    0    0  502    0  0.00000000000E+00  0.00000000000E+00  0.50039920388E+03  0.50039920388E+03  0.00000000000E+00 0. -1.
         -1   -1    0    0    0  501 -0.00000000000E+00 -0.00000000000E+00 -0.19923150378E+03  0.19923150378E+03  0.00000000000E+00 0.  1.
         23    2    1    2    0    0  0.99868463700E+02  0.11675088119E+03 -0.92505082183E+02  0.20117282406E+03  0.91152820078E+02 0.  0.
         24    2    1    2    0    0 -0.10954629486E+03 -0.18842132192E+03  0.28186966068E+03  0.36530289688E+03  0.80577388789E+02 0.  0.
        -13    1    4    4    0    0 -0.68902006060E+02 -0.43983328200E+02  0.87299490169E+02  0.11959607260E+03  0.00000000000E+00 0.  1.
         14    1    4    4    0    0 -0.40644288799E+02 -0.14443799372E+03  0.19457017051E+03  0.24570682427E+03  0.00000000000E+00 0. -1.
        -11    1    3    3    0    0  0.70499053822E+02  0.45766167291E+02 -0.91638540769E+02  0.12434741981E+03  0.00000000000E+00 0.  1.
         11    1    3    3    0    0  0.29369409878E+02  0.70984713900E+02 -0.86654141449E+00  0.76825404249E+02  0.00000000000E+00 0. -1.
         21    1    1    2  502  501  0.96778311589E+01  0.71670440733E+02  0.11180312160E+03  0.13315498673E+03  0.00000000000E+00 0.  1.
<scales pt_clust_5="13000.00000" pt_clust_6="13000.00000" pt_clust_7="13000.00000" pt_clust_8="13000.00000" pt_clust_9="72.32090"></scales>
<clustering>
<clus scale="   72.321">  1  9  2 -1</clus>
<clus scale="   80.577">  5  6 -1 -1</clus>
<clus scale="   91.153">  7  8 -1 -1</clus>
<clus scale="  181.354">  1  5  2 -1</clus>
<clus scale="   72.321">  1  5  2 -1</clus>
</clustering>
</event>
<event>
 9    2  0.2984928E-005  0.1549385E+03  0.7546771E-02  0.1196841E+00
          2   -1    0    0  502    0  0.00000000000E+00  0.00000000000E+00  0.37400728565E+02  0.37400728565E+02  0.00000000000E+00 0. -1.
         -1   -1    0    0    0  501 -0.00000000000E+00 -0.00000000000E+00 -0.81705567620E+03  0.81705567620E+03  0.00000000000E+00 0.  1.
         23    2    1    2    0    0 -0.11617534769E+03 -0.43483300253E+02 -0.37204697544E+03  0.40322103019E+03  0.93705594518E+02 0.  0.
         24    2    1    2    0    0  0.96547048390E+02  0.81698085650E+02 -0.33206344674E+03  0.36432959063E+03  0.80461221694E+02 0.  0.
        -13    1    4    4    0    0  0.37626482235E+02 -0.97161536692E+01 -0.61782584727E+02  0.72987968755E+02  0.00000000000E+00 0.  1.
         14    1    4    4    0    0  0.58920566156E+02  0.91414239320E+02 -0.27028086201E+03  0.29134162187E+03  0.00000000000E+00 0. -1.
        -13    1    3    3    0    0 -0.43406411521E+02  0.29291330406E+02 -0.13481699875E+03  0.14462960191E+03  0.00000000000E+00 0.  1.
         13    1    3    3    0    0 -0.72768936167E+02 -0.72774630659E+02 -0.23722997670E+03  0.25859142828E+03  0.00000000000E+00 0. -1.
         21    1    1    2  502  501  0.19628299298E+02 -0.38214785398E+02 -0.75544525454E+02  0.86905783941E+02  0.00000000000E+00 0.  1.
<scales pt_clust_5="13000.00000" pt_clust_6="13000.00000" pt_clust_7="13000.00000" pt_clust_8="13000.00000" pt_clust_9="42.96091"></scales>
<clustering>
<clus scale="   42.961">  1  9  2 -1</clus>
<clus scale="   80.461">  5  6 -1 -1</clus>
<clus scale="   93.706">  7  8 -1 -1</clus>
<clus scale="  147.307">  1  5  2 -1</clus>
<clus scale="   42.961">  1  5  2 -1</clus>
</clustering>
</event>
<event>
 9    2  0.2984928E-005  0.1031695E+03  0.7546771E-02  0.1277723E+00
          2   -1    0    0  502    0  0.00000000000E+00  0.00000000000E+00  0.20861882721E+03  0.20861882721E+03  0.00000000000E+00 0. -1.
         -1   -1    0    0    0  501 -0.00000000000E+00 -0.00000000000E+00 -0.79353046980E+02  0.79353046980E+02  0.00000000000E+00 0.  1.
         23    2    1    2    0    0  0.53053698320E+02 -0.25754381845E+02  0.41328550917E+02  0.11555948430E+03  0.90376779108E+02 0.  0.
         24    2    1    2    0    0 -0.12898444567E+02  0.50363593102E+02  0.77876448732E+02  0.12425351751E+03  0.81678234331E+02 0.  0.
        -11    1    4    4    0    0  0.20994765027E+02  0.60702246118E+00  0.56648792573E+02  0.60417169205E+02  0.00000000000E+00 0.  1.
         12    1    4    4    0    0 -0.33893209594E+02  0.49756570641E+02  0.21227656159E+02  0.63836348302E+02  0.00000000000E+00 0. -1.
        -11    1    3    3    0    0  0.63242829087E+02  0.14790224592E+02  0.16789416435E+02  0.67084205881E+02  0.00000000000E+00 0. -1.
         11    1    3    3    0    0 -0.10189130767E+02 -0.40544606438E+02  0.24539134482E+02  0.48475278422E+02  0.00000000000E+00 0.  1.
         21    1    1    2  502  501 -0.40155253753E+02 -0.24609211257E+02  0.10060780578E+02  0.48158872376E+02  0.00000000000E+00 0. -1.
<scales pt_clust_5="13000.00000" pt_clust_6="13000.00000" pt_clust_7="13000.00000" pt_clust_8="13000.00000" pt_clust_9="47.09626"></scales>
<clustering>
<clus scale="   47.096">  2  9  1 -1</clus>
<clus scale="   81.678">  5  6 -1 -1</clus>
<clus scale="   90.377">  7  8 -1 -1</clus>
<clus scale="   95.642">  1  5  2 -1</clus>
<clus scale="   95.642">  1  5  2 -1</clus>
</clustering>
</event>
<event>
 9    2  0.2984928E-005  0.1226650E+03  0.7546771E-02  0.1240185E+00
         -1   -1    0    0    0  501 -0.00000000000E+00  0.00000000000E+00  0.46169501896E+02  0.46169501896E+02  0.00000000000E+00 0.  1.
          2   -1    0    0  502    0  0.00000000000E+00 -0.00000000000E+00 -0.51135522423E+03  0.51135522423E+03  0.00000000000E+00 0. -1.
         24    2    1    2    0    0  0.15194088869E+02  0.73314079451E+02 -0.13922464949E+03  0.18486581792E+03  0.95843899265E+02 0.  0.
         23    2    1    2    0    0  0.34135573749E+02 -0.80199795139E+02 -0.19250195627E+03  0.23020833962E+03  0.91332534878E+02 0.  0.
        -11    1    3    3    0    0 -0.15152396145E+02  0.28268511878E+02  0.33963202452E+01  0.32252734208E+02  0.00000000000E+00 0.  1.
         12    1    3    3    0    0  0.30346485014E+02  0.45045567573E+02 -0.14262096974E+03  0.15261308371E+03  0.00000000000E+00 0. -1.
        -11    1    4    4    0    0 -0.25902280227E+02 -0.14408588973E+02 -0.19076723759E+02  0.35248502756E+02  0.00000000000E+00 0.  1.
         11    1    4    4    0    0  0.60037853976E+02 -0.65791206165E+02 -0.17342523251E+03  0.19495983686E+03  0.00000000000E+00 0. -1.
         21    1    1    2  502  501 -0.49329662618E+02  0.68857156877E+01 -0.13345911657E+03  0.14245056859E+03  0.00000000000E+00 0. -1.
<scales pt_clust_5="13000.00000" pt_clust_6="13000.00000" pt_clust_7="13000.00000" pt_clust_8="13000.00000" pt_clust_9="49.80792"></scales>
<clustering>
<clus scale="   49.808">  2  9  1 -1</clus>
<clus scale="   91.333">  7  8 -1 -1</clus>
<clus scale="   95.844">  5  6 -1 -1</clus>
<clus scale="  119.173">  2  7  1 -1</clus>
<clus scale="   49.808">  2  5  1 -1</clus>
</clustering>
</event>
<event>
 9    2  0.2984928E-005  0.1049211E+03  0.7546771E-02  0.1278014E+00
         -1   -1    0    0    0  501 -0.00000000000E+00  0.00000000000E+00  0.21315507328E+02  0.21315507328E+02  0.00000000000E+00 0.  1.
          2   -1    0    0  502    0  0.00000000000E+00 -0.00000000000E+00 -0.92634026328E+03  0.92634026328E+03  0.00000000000E+00 0. -1.
         23    2    1    2    0    0  0.36473210761E+02  0.49548372853E+02 -0.17316923627E+03  0.20488764331E+03  0.90587116272E+02 0.  0.
         24    2    1    2    0    0 -0.82507396311E+01 -0.51699755055E+02 -0.64874607052E+03  0.65497110649E+03  0.73312665693E+02 0.  0.
        -11    1    4    4    0    0  0.18099366463E+02 -0.33364320386E+02 -0.13532889675E+03  0.14055132599E+03  0.00000000000E+00 0.  1.
         12    1    4    4    0    0 -0.26350106094E+02 -0.18335434669E+02 -0.51341717377E+03  0.51441978051E+03  0.00000000000E+00 0. -1.
        -11    1    3    3    0    0  0.35907509087E+02 -0.17068716711E+02 -0.89518607996E+02  0.97950352100E+02  0.00000000000E+00 0. -1.
         11    1    3    3    0    0  0.56570167433E+00  0.66617089563E+02 -0.83650628271E+02  0.10693729121E+03  0.00000000000E+00 0.  1.
         21    1    1    2  502  501 -0.28222471130E+02  0.21513822026E+01 -0.83109449169E+02  0.87797020810E+02  0.00000000000E+00 0.  1.
<scales pt_clust_5="13000.00000" pt_clust_6="13000.00000" pt_clust_7="13000.00000" pt_clust_8="13000.00000" pt_clust_9="28.30435"></scales>
<clustering>
<clus scale="   28.304">  1  9  2 -1</clus>
<clus scale="   73.313">  5  6 -1 -1</clus>
<clus scale="   90.428">  2  5  1 -1</clus>
<clus scale="   90.587">  7  8 -1 -1</clus>
<clus scale="   90.428">  2  5  1 -1</clus>
</clustering>
</event>
<event>
 9    2  0.2984928E-005  0.2035121E+03  0.7546771E-02  0.1147937E+00
         -1   -1    0    0    0  501 -0.00000000000E+00  0.00000000000E+00  0.30737313622E+03  0.30737313622E+03  0.00000000000E+00 0.  1.
          2   -1    0    0  502    0  0.00000000000E+00 -0.00000000000E+00 -0.35259671585E+03  0.35259671585E+03  0.00000000000E+00 0. -1.
         23    2    1    2    0    0 -0.22127084738E+02  0.18824920889E+03  0.21311743911E+03  0.29983304440E+03  0.92484804891E+02 0.  0.
         24    2    1    2    0    0  0.15164627313E+02 -0.15158548353E+03 -0.10330181255E+03  0.20066938145E+03  0.79930040892E+02 0.  0.
        -13    1    4    4    0    0  0.42455584473E+02 -0.12918466749E+03 -0.89325363222E+02  0.16269657489E+03  0.00000000000E+00 0.  1.
         14    1    4    4    0    0 -0.27290957160E+02 -0.22400816042E+02 -0.13976449329E+02  0.37972806558E+02  0.00000000000E+00 0. -1.
        -13    1    3    3    0    0 -0.32962434213E+02  0.50374800973E+02  0.11647500166E+03  0.13111280888E+03  0.00000000000E+00 0.  1.
         13    1    3    3    0    0  0.10835349475E+02  0.13787440792E+03  0.96642437454E+02  0.16872023552E+03  0.00000000000E+00 0. -1.
         21    1    1    2  502  501  0.69624574254E+01 -0.36663725356E+02 -0.15503920619E+03  0.15946742622E+03  0.00000000000E+00 0.  1.
<scales pt_clust_5="13000.00000" pt_clust_6="13000.00000" pt_clust_7="13000.00000" pt_clust_8="13000.00000" pt_clust_9="37.31896"></scales>
<clustering>
<clus scale="   37.319">  2  9  1 -1</clus>
<clus scale="   79.930">  5  6 -1 -1</clus>
<clus scale="   92.485">  7  8 -1 -1</clus>
<clus scale="  198.123">  2  5  1 -1</clus>
<clus scale="   37.319">  2  5  1 -1</clus>
</clustering>
</event>
<event>
 9    2  0.2984928E-005  0.9533430E+02  0.7546771E-02  0.1291041E+00
          2   -1    0    0  502    0  0.00000000000E+00  0.00000000000E+00  0.67579599652E+02  0.67579599652E+02  0.00000000000E+00 0. -1.
         -1   -1    0    0    0  501 -0.00000000000E+00 -0.00000000000E+00 -0.36130712135E+03  0.36130712135E+03  0.00000000000E+00 0.  1.
         23    2    1    2    0    0 -0.12455413218E+02  0.19653068926E+02 -0.29080548100E+03  0.30579597764E+03  0.91662269910E+02 0.  0.
         24    2    1    2    0    0  0.22105624466E+02 -0.38944819752E+02 -0.65860925469E+01  0.10121099239E+03  0.90525856784E+02 0.  0.
        -11    1    4    4    0    0  0.18906926446E+02 -0.64886319389E+02 -0.21743145095E+02  0.70996272227E+02  0.00000000000E+00 0.  1.
         12    1    4    4    0    0  0.31986980199E+01  0.25941499637E+02  0.15157052549E+02  0.30214720161E+02  0.00000000000E+00 0. -1.
        -13    1    3    3    0    0 -0.51516348885E+02  0.53101299787E+01 -0.18468567009E+03  0.19180961503E+03  0.00000000000E+00 0. -1.
         13    1    3    3    0    0  0.39060935667E+02  0.14342938947E+02 -0.10611981091E+03  0.11398636260E+03  0.00000000000E+00 0.  1.
         21    1    1    2  502  501 -0.96502112486E+01  0.19291750826E+02  0.36640518407E+01  0.21879750981E+02  0.00000000000E+00 0. -1.
<scales pt_clust_5="13000.00000" pt_clust_6="13000.00000" pt_clust_7="13000.00000" pt_clust_8="13000.00000" pt_clust_9="21.57077"></scales>
<clustering>
<clus scale="   21.571">  1  9  2 -1</clus>
<clus scale="   90.526">  5  6 -1 -1</clus>
<clus scale="   91.662">  7  8 -1 -1</clus>
<clus scale="   94.242">  1  5  2 -1</clus>
<clus scale="   21.571">  1  5  2 -1</clus>
</clustering>
</event>
<event>
 9    2  0.2984928E-005  0.9530803E+02  0.7546771E-02  0.1294332E+00
          2   -1    0    0  502    0  0.00000000000E+00  0.00000000000E+00  0.84981449612E+02  0.84981449612E+02  0.00000000000E+00 0. -1.
         -1   -1    0    0    0  501 -0.00000000000E+00 -0.00000000000E+00 -0.18757931673E+03  0.18757931673E+03  0.00000000000E+00 0.  1.
         24    2    1    2    0    0 -0.11616730793E+02  0.23023257137E+02 -0.89173060188E+02  0.12361200301E+03  0.81627653537E+02 0.  0.
         23    2    1    2    0    0  0.22794704624E+01 -0.60858277657E+02 -0.19833035091E+02  0.10945523732E+03  0.88759077009E+02 0.  0.
        -11    1    3    3    0    0  0.31748792012E+02  0.26225828967E+02 -0.52534540944E+02  0.66750714539E+02  0.00000000000E+00 0.  1.
         12    1    3    3    0    0 -0.43365522805E+02 -0.32025718302E+01 -0.36638519244E+02  0.56861288473E+02  0.00000000000E+00 0. -1.
        -11    1    4    4    0    0  0.43876233015E+02 -0.35127989155E+02 -0.22332023141E+02  0.60479903301E+02  0.00000000000E+00 0.  1.
         11    1    4    4    0    0 -0.41596762553E+02 -0.25730288502E+02  0.24989880498E+01  0.48975334022E+02  0.00000000000E+00 0. -1.
         21    1    1    2  502  501  0.93372603301E+01  0.37835020520E+02  0.64082281621E+01  0.39493526006E+02  0.00000000000E+00 0.  1.
<scales pt_clust_5="13000.00000" pt_clust_6="13000.00000" pt_clust_7="13000.00000" pt_clust_8="13000.00000" pt_clust_9="38.97016"></scales>
<clustering>
<clus scale="   38.970">  1  9  2 -1</clus>
<clus scale="   81.628">  5  6 -1 -1</clus>
<clus scale="   88.705">  2  5  1 -1</clus>
<clus scale="   88.759">  7  8 -1 -1</clus>
<clus scale="   38.970">  1  5  2 -1</clus>
</clustering>
</event>
<event>
 9    2  0.2984928E-005  0.1656692E+03  0.7546771E-02  0.1184093E+00
         -1   -1    0    0    0  501 -0.00000000000E+00  0.00000000000E+00  0.33258429133E+02  0.33258429133E+02  0.00000000000E+00 0.  1.
          2   -1    0    0  502    0  0.00000000000E+00 -0.00000000000E+00 -0.94110569525E+03  0.94110569525E+03  0.00000000000E+00 0. -1.
         23    2    1    2    0    0 -0.73624810714E+02 -0.11633957907E+03 -0.37581795454E+03  0.41073530644E+03  0.92243409503E+02 0.  0.
         24    2    1    2    0    0  0.56253897993E+02  0.12634472916E+03 -0.41448260608E+03  0.44438503567E+03  0.80961333704E+02 0.  0.
        -13    1    4    4    0    0  0.40107863381E+02  0.96574568628E+01 -0.85119006785E+02  0.94589388908E+02  0.00000000000E+00 0.  1.
         14    1    4    4    0    0  0.16146034612E+02  0.11668727230E+03 -0.32936359929E+03  0.34979564676E+03  0.00000000000E+00 0. -1.
        -13    1    3    3    0    0 -0.37865198499E+02 -0.46164813106E+02 -0.28194638745E+03  0.28819911281E+03  0.00000000000E+00 0. -1.
         13    1    3    3    0    0 -0.35759612215E+02 -0.70174765960E+02 -0.93871567082E+02  0.12253619363E+03  0.00000000000E+00 0.  1.
         21    1    1    2  502  501  0.17370912721E+02 -0.10005150093E+02 -0.11754670550E+03  0.11924378228E+03  0.00000000000E+00 0. -1.
<scales pt_clust_5="13000.00000" pt_clust_6="13000.00000" pt_clust_7="13000.00000" pt_clust_8="13000.00000" pt_clust_9="20.04624"></scales>
<clustering>
<clus scale="   20.046">  2  9  1 -1</clus>
<clus scale="   80.961">  5  6 -1 -1</clus>
<clus scale="   92.243">  7  8 -1 -1</clus>
<clus scale="  159.663">  2  5  1 -1</clus>
<clus scale="   20.046">  2  5  1 -1</clus>
</clustering>
</event>
<event>
 9    2  0.2984928E-005  0.1061606E+03  0.7546771E-02  0.1270093E+00
          2   -1    0    0  502    0  0.00000000000E+00  0.00000000000E+00  0.35529978782E+02  0.35529978782E+02  0.00000000000E+00 0. -1.
         -1   -1    0    0    0  501 -0.00000000000E+00 -0.00000000000E+00 -0.95438410309E+03  0.95438410309E+03  0.00000000000E+00 0.  1.
         23    2    1    2    0    0 -0.31784549513E+02  0.38070080715E+02 -0.45968874268E+03  0.47111074953E+03  0.90399167811E+02 0.  0.
         24    2    1    2    0    0  0.11224669973E+03  0.24040613938E+02 -0.23001253076E+03  0.26811842042E+03  0.76186943380E+02 0.  0.
        -13    1    4    4    0    0  0.10194065690E+03  0.28854302829E+02 -0.23334115952E+03  0.25626658980E+03  0.00000000000E+00 0.  1.
         14    1    4    4    0    0  0.10306042831E+02 -0.48136888912E+01  0.33286287601E+01  0.11851830618E+02  0.00000000000E+00 0. -1.
        -11    1    3    3    0    0  0.18163993153E+02 -0.17459313398E+02 -0.71677079560E+02  0.75976062058E+02  0.00000000000E+00 0. -1.
         11    1    3    3    0    0 -0.49948542666E+02  0.55529394113E+02 -0.38801166312E+03  0.39513468747E+03  0.00000000000E+00 0.  1.
         21    1    1    2  502  501 -0.80462150214E+02 -0.62110694653E+02 -0.22915285086E+03  0.25068491192E+03  0.00000000000E+00 0. -1.
<scales pt_clust_5="13000.00000" pt_clust_6="13000.00000" pt_clust_7="13000.00000" pt_clust_8="13000.00000" pt_clust_9="101.64593"></scales>
<clustering>
<clus scale="   76.187">  5  6 -1 -1</clus>
<clus scale="   90.399">  7  8 -1 -1</clus>
<clus scale="  101.646">  1  9  2 -1</clus>
<clus scale="  101.646">  1  5  2 -1</clus>
<clus scale="  101.646">  1  5  2 -1</clus>
</clustering>
</event>
<event>
 9    2  0.2984928E-005  0.1011557E+03  0.7546771E-02  0.1284521E+00
          2   -1    0    0  502    0  0.00000000000E+00  0.00000000000E+00  0.44850739308E+03  0.44850739308E+03  0.00000000000E+00 0. -1.
         -1   -1    0    0    0  501 -0.00000000000E+00 -0.00000000000E+00 -0.46015195508E+02  0.46015195508E+02  0.00000000000E+00 0.  1.
         23    2    1    2    0    0 -0.22027220487E+02 -0.29734699285E+02  0.44903725499E+02  0.10975682859E+03  0.93063774235E+02 0.  0.
         24    2    1    2    0    0 -0.41081533640E+01  0.55286265351E+02  0.19229757791E+03  0.21548191555E+03  0.79878967204E+02 0.  0.
        -11    1    4    4    0    0 -0.40021353882E+02  0.27181108203E+02  0.71190000687E+02  0.86072862201E+02  0.00000000000E+00 0.  1.
         12    1    4    4    0    0  0.35913200518E+02  0.28105157148E+02  0.12110757722E+03  0.12940905335E+03  0.00000000000E+00 0. -1.
        -11    1    3    3    0    0  0.34444048849E+02 -0.10590228993E+02  0.16137780052E+01  0.36071453127E+02  0.00000000000E+00 0. -1.
         11    1    3    3    0    0 -0.56471269337E+02 -0.19144470292E+02  0.43289947494E+02  0.73685375464E+02  0.00000000000E+00 0.  1.
         21    1    1    2  502  501  0.26135373851E+02 -0.25551566066E+02  0.16529089417E+03  0.16928384444E+03  0.00000000000E+00 0. -1.
<scales pt_clust_5="13000.00000" pt_clust_6="13000.00000" pt_clust_7="13000.00000" pt_clust_8="13000.00000" pt_clust_9="36.55052"></scales>
<clustering>
<clus scale="   36.551">  1  9  2 -1</clus>
<clus scale="   79.879">  5  6 -1 -1</clus>
<clus scale="   89.175">  1  5  2 -1</clus>
<clus scale="   93.064">  7  8 -1 -1</clus>
<clus scale="   36.551">  1  5  2 -1</clus>
</clustering>
</event>
<event>
 9    2  0.2984928E-005  0.1435405E+03  0.7546771E-02  0.1232751E+00
         -1   -1    0    0    0  501 -0.00000000000E+00  0.00000000000E+00  0.26501696378E+02  0.26501696378E+02  0.00000000000E+00 0.  1.
          2   -1    0    0  502    0  0.00000000000E+00 -0.00000000000E+00 -0.19196608546E+04  0.19196608546E+04  0.00000000000E+00 0. -1.
         23    2    1    2    0    0  0.12057622155E+03  0.35910126462E+02 -0.39206203800E+03  0.42200634545E+03  0.92458377534E+02 0.  0.
         24    2    1    2    0    0 -0.24579495339E+02 -0.78753389838E+01 -0.12622802911E+04  0.12652454127E+04  0.82633217158E+02 0.  0.
        -11    1    4    4    0    0 -0.25143983021E+02  0.21182745917E+01 -0.10749931062E+03  0.11042105213E+03  0.00000000000E+00 0.  1.
         12    1    4    4    0    0  0.56448768219E+00 -0.99936135755E+01 -0.11547809805E+04  0.11548243606E+04  0.00000000000E+00 0. -1.
        -13    1    3    3    0    0  0.39235139147E+02 -0.30503115621E+02 -0.15379584249E+03  0.16162610363E+03  0.00000000000E+00 0. -1.
         13    1    3    3    0    0  0.81341082407E+02  0.66413242083E+02 -0.23826619551E+03  0.26038024182E+03  0.00000000000E+00 0.  1.
         21    1    1    2  502  501 -0.95996726215E+02 -0.28034787478E+02 -0.23881682911E+03  0.25891079278E+03  0.00000000000E+00 0. -1.
<scales pt_clust_5="13000.00000" pt_clust_6="13000.00000" pt_clust_7="13000.00000" pt_clust_8="13000.00000" pt_clust_9="109.79667"></scales>
<clustering>
<clus scale="   82.633">  5  6 -1 -1</clus>
<clus scale="   86.570">  2  5  1 -1</clus>
<clus scale="   92.458">  7  8 -1 -1</clus>
<clus scale="  109.797">  1  9  2 -1</clus>
<clus scale="   86.570">  2  5  1 -1</clus>
</clustering>
</event>
<event>
 9    2  0.2984928E-005  0.1068228E+03  0.7546771E-02  0.1270471E+00
          2   -1    0    0  502    0  0.00000000000E+00  0.00000000000E+00  0.31807417393E+03  0.31807417393E+03  0.00000000000E+00 0. -1.
         -1   -1    0    0    0  501 -0.00000000000E+00 -0.00000000000E+00 -0.98629283320E+02  0.98629283320E+02  0.00000000000E+00 0.  1.
         24    2    1    2    0    0  0.51878488869E+02  0.19614079747E+02 -0.29225719196E+02  0.10236581527E+03  0.80922974129E+02 0.  0.
         23    2    1    2    0    0 -0.36992963842E+02 -0.78550996884E+02  0.20207165958E+03  0.23774390059E+03  0.90279943394E+02 0.  0.
        -13    1    3    3    0    0 -0.18889359178E+02  0.90555668835E+01 -0.22116569662E+02  0.30462334700E+02  0.00000000000E+00 0.  1.
         14    1    3    3    0    0  0.70767848047E+02  0.10558512864E+02 -0.71091495338E+01  0.71903480571E+02  0.00000000000E+00 0. -1.
        -13    1    4    4    0    0 -0.55307776237E+02 -0.88349686105E+02  0.16260623796E+03  0.19314607366E+03  0.00000000000E+00 0.  1.
         13    1    4    4    0    0  0.18314812396E+02  0.97986892208E+01  0.39465421622E+02  0.44597826936E+02  0.00000000000E+00 0. -1.
         21    1    1    2  502  501 -0.14885525027E+02  0.58936917136E+02  0.46598950222E+02  0.76593741380E+02  0.00000000000E+00 0.  1.
<scales pt_clust_5="13000.00000" pt_clust_6="13000.00000" pt_clust_7="13000.00000" pt_clust_8="13000.00000" pt_clust_9="60.78766"></scales>
<clustering>
<clus scale="   60.788">  1  9  2 -1</clus>
<clus scale="   80.923">  5  6 -1 -1</clus>
<clus scale="   90.280">  7  8 -1 -1</clus>
<clus scale="   99.041">  2  5  1 -1</clus>
<clus scale="   60.788">  1  5  2 -1</clus>
</clustering>
</event>
<event>
 9    2  0.2984928E-005  0.9335892E+02  0.7546771E-02  0.1300988E+00
          2   -1    0    0  502    0  0.00000000000E+00  0.00000000000E+00  0.26445590473E+03  0.26445590473E+03  0.00000000000E+00 0. -1.
         -1   -1    0    0    0  501 -0.00000000000E+00 -0.00000000000E+00 -0.21042522025E+03  0.21042522025E+03  0.00000000000E+00 0.  1.
         24    2    1    2    0    0  0.15821260181E+02  0.20836775331E+02 -0.18169849537E+03  0.20009770705E+03  0.79625785191E+02 0.  0.
         23    2    1    2    0    0  0.88696646801E+01 -0.18194532433E+02  0.96955792672E+02  0.13380584451E+03  0.89965917600E+02 0.  0.
        -11    1    3    3    0    0 -0.11140066780E+02  0.35633203205E+02 -0.15480417037E+03  0.15924244856E+03  0.00000000000E+00 0.  1.
         12    1    3    3    0    0  0.26961326960E+02 -0.14796427874E+02 -0.26894324998E+02  0.40855258491E+02  0.00000000000E+00 0. -1.
        -13    1    4    4    0    0 -0.15514212268E+02 -0.49844600600E+02  0.52563765329E+02  0.74081876440E+02  0.00000000000E+00 0. -1.
         13    1    4    4    0    0  0.24383876948E+02  0.31650068168E+02  0.44392027343E+02  0.59723968067E+02  0.00000000000E+00 0.  1.
         21    1    1    2  502  501 -0.24690924861E+02 -0.26422428989E+01  0.13877338718E+03  0.14097757342E+03  0.00000000000E+00 0. -1.
<scales pt_clust_5="13000.00000" pt_clust_6="13000.00000" pt_clust_7="13000.00000" pt_clust_8="13000.00000" pt_clust_9="24.83190"></scales>
<clustering>
<clus scale="   24.832">  1  9  2 -1</clus>
<clus scale="   79.626">  5  6 -1 -1</clus>
<clus scale="   83.440">  2  5  1 -1</clus>
<clus scale="   89.966">  7  8 -1 -1</clus>
<clus scale="   24.832">  1  5  2 -1</clus>
</clustering>
</event>
<event>
 9    2  0.2984928E-005  0.2562796E+03  0.7546771E-02  0.1109972E+00
         -1   -1    0    0    0  501 -0.00000000000E+00  0.00000000000E+00  0.16480265077E+03  0.16480265077E+03  0.00000000000E+00 0.  1.
          2   -1    0    0  502    0  0.00000000000E+00 -0.00000000000E+00 -0.47314114843E+03  0.47314114843E+03  0.00000000000E+00 0. -1.
         23    2    1    2    0    0  0.22038458072E+02  0.25160717064E+03 -0.81750302918E+02  0.28162168805E+03  0.93998942537E+02 0.  0.
         24    2    1    2    0    0 -0.12148552591E+01 -0.22030532663E+03 -0.17995698176E+03  0.29642304691E+03  0.83343833845E+02 0.  0.
        -13    1    4    4    0    0  0.37061688456E+02 -0.61695550291E+02 -0.47126949892E+02  0.86028245844E+02  0.00000000000E+00 0.  1.
         14    1    4    4    0    0 -0.38276543715E+02 -0.15860977634E+03 -0.13283003187E+03  0.21039480107E+03  0.00000000000E+00 0. -1.
        -11    1    3    3    0    0 -0.57386856081E+01  0.23549985168E+03 -0.60825074527E+02  0.24329570967E+03  0.00000000000E+00 0.  1.
         11    1    3    3    0    0  0.27777143680E+02  0.16107318965E+02 -0.20925228392E+02  0.38325978376E+02  0.00000000000E+00 0. -1.
         21    1    1    2  502  501 -0.20823602813E+02 -0.31301844011E+02 -0.46631212983E+02  0.59899064241E+02  0.00000000000E+00 0. -1.
<scales pt_clust_5="13000.00000" pt_clust_6="13000.00000" pt_clust_7="13000.00000" pt_clust_8="13000.00000" pt_clust_9="37.59558"></scales>
<clustering>
<clus scale="   37.596">  2  9  1 -1</clus>
<clus scale="   83.344">  5  6 -1 -1</clus>
<clus scale="   93.999">  7  8 -1 -1</clus>
<clus scale="  252.566">  2  5  1 -1</clus>
<clus scale="   37.596">  2  5  1 -1</clus>
</clustering>
</event>
<event>
 9    2  0.2984928E-005  0.1498238E+03  0.7546771E-02  0.1202619E+00
          2   -1    0    0  502    0  0.00000000000E+00  0.00000000000E+00  0.94433200692E+03  0.94433200692E+03  0.00000000000E+00 0. -1.
         -1   -1    0    0    0  501 -0.00000000000E+00 -0.00000000000E+00 -0.51459962556E+02  0.51459962556E+02  0.00000000000E+00 0.  1.
         23    2    1    2    0    0  0.45634818274E+01  0.11944322752E+03  0.91003084604E+02  0.17505655702E+03  0.89865047606E+02 0.  0.
         24    2    1    2    0    0  0.22027223265E+02 -0.12222541659E+03  0.70621235231E+03  0.72141274273E+03  0.79222520700E+02 0.  0.
        -11    1    4    4    0    0 -0.69148725324E+01 -0.11741501346E+03  0.54422252067E+03  0.55678743956E+03  0.00000000000E+00 0.  1.
         12    1    4    4    0    0  0.28942095798E+02 -0.48104031321E+01  0.16198983164E+03  0.16462530317E+03  0.00000000000E+00 0. -1.
        -11    1    3    3    0    0 -0.27397814940E+02  0.98617079113E+02  0.36782546863E+02  0.10876085835E+03  0.00000000000E+00 0.  1.
         11    1    3    3    0    0  0.31961296768E+02  0.20826148408E+02  0.54220537742E+02  0.66295698666E+02  0.00000000000E+00 0. -1.
         21    1    1    2  502  501 -0.26590705093E+02  0.27821890731E+01  0.95656607453E+02  0.99322669732E+02  0.00000000000E+00 0. -1.
<scales pt_clust_5="13000.00000" pt_clust_6="13000.00000" pt_clust_7="13000.00000" pt_clust_8="13000.00000" pt_clust_9="26.73586"></scales>
<clustering>
<clus scale="   26.736">  1  9  2 -1</clus>
<clus scale="   79.223">  5  6 -1 -1</clus>
<clus scale="   89.865">  7  8 -1 -1</clus>
<clus scale="  143.693">  1  5  2 -1</clus>
<clus scale="   26.736">  1  5  2 -1</clus>
</clustering>
</event>
<event>
 9    2  0.2984928E-005  0.9870018E+02  0.7546771E-02  0.1284554E+00
         -1   -1    0    0    0  501 -0.00000000000E+00  0.00000000000E+00  0.14001076967E+02  0.14001076967E+02  0.00000000000E+00 0.  1.
          2   -1    0    0  502    0  0.00000000000E+00 -0.00000000000E+00 -0.14294775742E+04  0.14294775742E+04  0.00000000000E+00 0. -1.
         23    2    1    2    0    0 -0.25808676984E+02  0.36212124855E+02 -0.21458932722E+03  0.23444788413E+03  0.83305613404E+02 0.  0.
         24    2    1    2    0    0 -0.21714745863E+01 -0.56744834997E+02 -0.10295084104E+04  0.10341732241E+04  0.80012491482E+02 0.  0.
        -13    1    4    4    0    0  0.12292426482E+02 -0.35709578030E+02 -0.16415249494E+03  0.16844084810E+03  0.00000000000E+00 0.  1.
         14    1    4    4    0    0 -0.14463901068E+02 -0.21035256968E+02 -0.86535591542E+03  0.86573237599E+03  0.00000000000E+00 0. -1.
        -13    1    3    3    0    0  0.24648210849E+02  0.69106672421E+01 -0.12456816307E+03  0.12717121872E+03  0.00000000000E+00 0. -1.
         13    1    3    3    0    0 -0.50456887832E+02  0.29301457612E+02 -0.90021164150E+02  0.10727666542E+03  0.00000000000E+00 0.  1.
         21    1    1    2  502  501  0.27980151570E+02  0.20532710143E+02 -0.17137875961E+03  0.17485754291E+03  0.00000000000E+00 0.  1.
<scales pt_clust_5="13000.00000" pt_clust_6="13000.00000" pt_clust_7="13000.00000" pt_clust_8="13000.00000" pt_clust_9="34.70563"></scales>
<clustering>
<clus scale="   34.706">  1  9  2 -1</clus>
<clus scale="   80.012">  5  6 -1 -1</clus>
<clus scale="   83.306">  7  8 -1 -1</clus>
<clus scale="   95.937">  2  5  1 -1</clus>
<clus scale="   95.937">  2  5  1 -1</clus>
</clustering>
</event>
<event>
 9    2  0.2984928E-005  0.9384247E+02  0.7546771E-02  0.1299153E+00
          2   -1    0    0  502    0  0.00000000000E+00  0.00000000000E+00  0.44561426718E+02  0.44561426718E+02  0.00000000000E+00 0. -1.
         -1   -1    0    0    0  501 -0.00000000000E+00 -0.00000000000E+00 -0.45980181167E+03  0.45980181167E+03  0.00000000000E+00 0.  1.
         23    2    1    2    0    0 -0.29770013440E+02 -0.44836936449E+01 -0.37715904161E+03  0.38870527593E+03  0.89086989260E+02 0.  0.
         24    2    1    2    0    0  0.21375167683E+02  0.25630467942E+02 -0.31556850201E+02  0.91988815685E+02  0.79701246766E+02 0.  0.
        -11    1    4    4    0    0 -0.16121238983E+02  0.27691882971E+02 -0.42172059764E+02  0.52964302635E+02  0.00000000000E+00 0.  1.
         12    1    4    4    0    0  0.37496406666E+02 -0.20614150285E+01  0.10615209563E+02  0.39024513050E+02  0.00000000000E+00 0. -1.
        -11    1    3    3    0    0  0.29110489914E+02  0.12033900960E+02 -0.98469460246E+02  0.10338505693E+03  0.00000000000E+00 0. -1.
         11    1    3    3    0    0 -0.58880503354E+02 -0.16517594605E+02 -0.27868958137E+03  0.28532021900E+03  0.00000000000E+00 0.  1.
         21    1    1    2  502  501  0.83948457567E+01 -0.21146774297E+02 -0.65244931411E+01  0.23669146778E+02  0.00000000000E+00 0. -1.
<scales pt_clust_5="13000.00000" pt_clust_6="13000.00000" pt_clust_7="13000.00000" pt_clust_8="13000.00000" pt_clust_9="22.75213"></scales>
<clustering>
<clus scale="   22.752">  1  9  2 -1</clus>
<clus scale="   79.701">  5  6 -1 -1</clus>
<clus scale="   84.984">  1  5  2 -1</clus>
<clus scale="   89.087">  7  8 -1 -1</clus>
<clus scale="   22.752">  1  5  2 -1</clus>
</clustering>
</event>
<event>
 9    2  0.2984928E-005  0.9206115E+02  0.7546771E-02  0.1304180E+00
         -1   -1    0    0    0  501 -0.00000000000E+00  0.00000000000E+00  0.33732891012E+03  0.33732891012E+03  0.00000000000E+00 0.  1.
          2   -1    0    0  502    0  0.00000000000E+00 -0.00000000000E+00 -0.37491273379E+02  0.37491273379E+02  0.00000000000E+00 0. -1.
         23    2    1    2    0    0 -0.14626444194E+01 -0.15844828644E+02  0.20014748876E+03  0.22058761812E+03  0.91360177810E+02 0.  0.
         24    2    1    2    0    0  0.22432334771E+02 -0.90238111361E+01  0.66552439525E+02  0.10779675075E+03  0.81278985327E+02 0.  0.
        -11    1    4    4    0    0 -0.73661157466E+01 -0.35064981198E+02  0.56604582695E+02  0.66991725979E+02  0.00000000000E+00 0.  1.
         12    1    4    4    0    0  0.29798450517E+02  0.26041170062E+02  0.99478568298E+01  0.40805024775E+02  0.00000000000E+00 0. -1.
        -13    1    3    3    0    0 -0.73059921346E+01 -0.50979831968E+02  0.15341991356E+03  0.16183321867E+03  0.00000000000E+00 0.  1.
         13    1    3    3    0    0  0.58433477152E+01  0.35135003324E+02  0.46727575198E+02  0.58754399452E+02  0.00000000000E+00 0. -1.
         21    1    1    2  502  501 -0.20969690351E+02  0.24868639780E+02  0.33137708464E+02  0.46435814628E+02  0.00000000000E+00 0. -1.
<scales pt_clust_5="13000.00000" pt_clust_6="13000.00000" pt_clust_7="13000.00000" pt_clust_8="13000.00000" pt_clust_9="32.52964"></scales>
<clustering>
<clus scale="   32.530">  2  9  1 -1</clus>
<clus scale="   81.279">  5  6 -1 -1</clus>
<clus scale="   82.066">  2  5  1 -1</clus>
<clus scale="   91.360">  7  8 -1 -1</clus>
<clus scale="   32.530">  2  5  1 -1</clus>
</clustering>
</event>
<event>
 9    2  0.2984928E-005  0.1148792E+03  0.7546771E-02  0.1252631E+00
         -1   -1    0    0    0  501 -0.00000000000E+00  0.00000000000E+00  0.31078794458E+02  0.31078794458E+02  0.00000000000E+00 0.  1.
          2   -1    0    0  502    0  0.00000000000E+00 -0.00000000000E+00 -0.70474263574E+03  0.70474263574E+03  0.00000000000E+00 0. -1.
         23    2    1    2    0    0 -0.63063564174E+02  0.52824809554E+02 -0.11988268661E+03  0.16611638054E+03  0.80345004216E+02 0.  0.
         24    2    1    2    0    0  0.42264018569E+02 -0.59104162426E+02 -0.42382451095E+03  0.43794473463E+03  0.82998947151E+02 0.  0.
        -13    1    4    4    0    0  0.41459965229E+02 -0.79617134919E+02 -0.34782922171E+03  0.35922553412E+03  0.00000000000E+00 0.  1.
         14    1    4    4    0    0  0.80405334002E+00  0.20512972494E+02 -0.75995289239E+02  0.78719200509E+02  0.00000000000E+00 0. -1.
        -11    1    3    3    0    0 -0.48506067473E+02  0.74373981103E+02 -0.96627084558E+02  0.13122926928E+03  0.00000000000E+00 0. -1.
         11    1    3    3    0    0 -0.14557496701E+02 -0.21549171548E+02 -0.23255602054E+02  0.34887111252E+02  0.00000000000E+00 0.  1.
         21    1    1    2  502  501  0.20799545605E+02  0.62793528713E+01 -0.12995664372E+03  0.13176031503E+03  0.00000000000E+00 0. -1.
<scales pt_clust_5="13000.00000" pt_clust_6="13000.00000" pt_clust_7="13000.00000" pt_clust_8="13000.00000" pt_clust_9="21.72674"></scales>
<clustering>
<clus scale="   21.727">  2  9  1 -1</clus>
<clus scale="   80.345">  7  8 -1 -1</clus>
<clus scale="   82.999">  5  6 -1 -1</clus>
<clus scale="  112.977">  1  7  2 -1</clus>
<clus scale="   21.727">  2  5  1 -1</clus>
</clustering>
</event>
<event>
 9    2  0.2984928E-005  0.1276308E+03  0.7546771E-02  0.1233310E+00
         -1   -1    0    0    0  501 -0.00000000000E+00  0.00000000000E+00  0.12615092562E+03  0.12615092562E+03  0.00000000000E+00 0.  1.
          2   -1    0    0  502    0  0.00000000000E+00 -0.00000000000E+00 -0.50853660665E+03  0.50853660665E+03  0.00000000000E+00 0. -1.
         24    2    1    2    0    0 -0.12152537238E+02 -0.93620842013E+02  0.77544844394E+02  0.14694324643E+03  0.81649057311E+02 0.  0.
         23    2    1    2    0    0 -0.12290039452E+02  0.62456083129E+02 -0.23864456127E+03  0.26294179546E+03  0.90196196075E+02 0.  0.
        -11    1    3    3    0    0 -0.10366176669E+02 -0.96349086756E+02  0.91098964063E+02  0.13300235107E+03  0.00000000000E+00 0.  1.
         12    1    3    3    0    0 -0.17863605695E+01  0.27282447436E+01 -0.13554119669E+02  0.13940895361E+02  0.00000000000E+00 0. -1.
        -13    1    4    4    0    0  0.82695856110E+00 -0.23380340742E+02 -0.56786230504E+02  0.61416611504E+02  0.00000000000E+00 0.  1.
         13    1    4    4    0    0 -0.13116998013E+02  0.85836423871E+02 -0.18185833077E+03  0.20152518396E+03  0.00000000000E+00 0. -1.
         21    1    1    2  502  501  0.24442576690E+02  0.31164758884E+02 -0.22128596415E+03  0.22480249038E+03  0.00000000000E+00 0. -1.
<scales pt_clust_5="13000.00000" pt_clust_6="13000.00000" pt_clust_7="13000.00000" pt_clust_8="13000.00000" pt_clust_9="39.60659"></scales>
<clustering>
<clus scale="   39.607">  2  9  1 -1</clus>
<clus scale="   81.649">  5  6 -1 -1</clus>
<clus scale="   90.196">  7  8 -1 -1</clus>
<clus scale="  121.741">  1  5  2 -1</clus>
<clus scale="   39.607">  2  5  1 -1</clus>
</clustering>
</event>
<event>
 9    2  0.2984928E-005  0.9659502E+02  0.7546771E-02  0.1297364E+00
         -1   -1    0    0    0  501 -0.00000000000E+00  0.00000000000E+00  0.16231974226E+03  0.16231974226E+03  0.00000000000E+00 0.  1.
          2   -1    0    0  502    0  0.00000000000E+00 -0.00000000000E+00 -0.19404326587E+03  0.19404326587E+03  0.00000000000E+00 0. -1.
         24    2    1    2    0    0  0.20661685501E+02  0.12960642523E+02  0.12631726179E+03  0.15008416080E+03  0.77293733224E+02 0.  0.
         23    2    1    2    0    0  0.72673884731E+01 -0.89555241759E+01 -0.14928151245E+03  0.17673567538E+03  0.93901611504E+02 0.  0.
        -11    1    3    3    0    0 -0.17444032924E+02  0.14493184000E+02  0.10281671692E+03  0.10528828968E+03  0.00000000000E+00 0.  1.
         12    1    3    3    0    0  0.38105718425E+02 -0.15325414771E+01  0.23500544876E+02  0.44795871122E+02  0.00000000000E+00 0. -1.
        -13    1    4    4    0    0 -0.24151920526E+02 -0.33249818864E+02 -0.29626816275E+02  0.50661760354E+02  0.00000000000E+00 0.  1.
         13    1    4    4    0    0  0.31419308999E+02  0.24294294688E+02 -0.11965469618E+03  0.12607391502E+03  0.00000000000E+00 0. -1.
         21    1    1    2  502  501 -0.27929073974E+02 -0.40051183470E+01 -0.87592729535E+01  0.29543171947E+02  0.00000000000E+00 0.  1.
<scales pt_clust_5="13000.00000" pt_clust_6="13000.00000" pt_clust_7="13000.00000" pt_clust_8="13000.00000" pt_clust_9="28.21479"></scales>
<clustering>
<clus scale="   28.215">  2  9  1 -1</clus>
<clus scale="   77.294">  5  6 -1 -1</clus>
<clus scale="   80.544">  1  5  2 -1</clus>
<clus scale="   93.902">  7  8 -1 -1</clus>
<clus scale="   28.215">  2  5  1 -1</clus>
</clustering>
</event>
<event>
 9    2  0.2984928E-005  0.2863163E+03  0.7546771E-02  0.1093079E+00
         -1   -1    0    0    0  501 -0.00000000000E+00  0.00000000000E+00  0.29908257220E+03  0.29908257220E+03  0.00000000000E+00 0.  1.
          2   -1    0    0  502    0  0.00000000000E+00 -0.00000000000E+00 -0.15117726924E+04  0.15117726924E+04  0.00000000000E+00 0. -1.
         24    2    1    2    0    0  0.92307017195E+02 -0.26882480536E+03  0.20059961198E+03  0.35518630429E+03  0.71622238360E+02 0.  0.
         23    2    1    2    0    0 -0.11989819723E+03  0.10868251999E+03 -0.74551556613E+03  0.76840688393E+03  0.92022888927E+02 0.  0.
        -13    1    3    3    0    0  0.76239278250E+02 -0.11213568309E+03  0.94053125372E+02  0.16502372364E+03  0.00000000000E+00 0.  1.
         14    1    3    3    0    0  0.16067738945E+02 -0.15668912227E+03  0.10654648661E+03  0.19016258066E+03  0.00000000000E+00 0. -1.
        -13    1    4    4    0    0 -0.37303982500E+02  0.72435294637E+01 -0.63843419584E+02  0.74296958576E+02  0.00000000000E+00 0.  1.
         13    1    4    4    0    0 -0.82594214730E+02  0.10143899052E+03 -0.68167214654E+03  0.69410992535E+03  0.00000000000E+00 0. -1.
         21    1    1    2  502  501  0.27591180034E+02  0.16014228537E+03 -0.66777416603E+03  0.68726207636E+03  0.00000000000E+00 0. -1.
<scales pt_clust_5="13000.00000" pt_clust_6="13000.00000" pt_clust_7="13000.00000" pt_clust_8="13000.00000" pt_clust_9="162.50177"></scales>
<clustering>
<clus scale="   71.622">  5  6 -1 -1</clus>
<clus scale="   92.023">  7  8 -1 -1</clus>
<clus scale="  162.502">  2  9  1 -1</clus>
<clus scale="  280.426">  1  5  2 -1</clus>
<clus scale="  162.502">  2  5  1 -1</clus>
</clustering>
</event>
<event>
 9    2  0.2984928E-005  0.9757540E+02  0.7546771E-02  0.1289376E+00
         -1   -1    0    0    0  501 -0.00000000000E+00  0.00000000000E+00  0.70266637632E+02  0.70266637632E+02  0.00000000000E+00 0.  1.
          2   -1    0    0  502    0  0.00000000000E+00 -0.00000000000E+00 -0.39263045637E+03  0.39263045637E+03  0.00000000000E+00 0. -1.
         24    2    1    2    0    0 -0.24160562857E+02 -0.29363787730E+02  0.21041959764E+02  0.93547490966E+02  0.82839629212E+02 0.  0.
         23    2    1    2    0    0  0.38236487375E+02  0.61813147561E+01 -0.19374184143E+03  0.21724814754E+03  0.90336143762E+02 0.  0.
        -11    1    3    3    0    0 -0.40698697396E+02 -0.28590904725E+02  0.43205589008E+02  0.65882825715E+02  0.00000000000E+00 0.  1.
         12    1    3    3    0    0  0.16538134539E+02 -0.77288300527E+00 -0.22163629244E+02  0.27664665251E+02  0.00000000000E+00 0. -1.
        -11    1    4    4    0    0  0.61091971454E+01  0.46396286807E+02 -0.90047996771E+02  0.10148191682E+03  0.00000000000E+00 0. -1.
         11    1    4    4    0    0  0.32127290229E+02 -0.40214972051E+02 -0.10369384465E+03  0.11576623071E+03  0.00000000000E+00 0.  1.
         21    1    1    2  502  501 -0.14075924517E+02  0.23182472974E+02 -0.14966393708E+03  0.15210145550E+03  0.00000000000E+00 0. -1.
<scales pt_clust_5="13000.00000" pt_clust_6="13000.00000" pt_clust_7="13000.00000" pt_clust_8="13000.00000" pt_clust_9="27.12119"></scales>
<clustering>
<clus scale="   27.121">  2  9  1 -1</clus>
<clus scale="   82.840">  5  6 -1 -1</clus>
<clus scale="   90.336">  7  8 -1 -1</clus>
<clus scale="   90.679">  1  5  2 -1</clus>
<clus scale="   27.121">  2  5  1 -1</clus>
</clustering>
</event>
<event>
 9    2  0.2984928E-005  0.9141375E+02  0.7546771E-02  0.1304797E+00
         -1   -1    0    0    0  501 -0.00000000000E+00  0.00000000000E+00  0.24222741618E+03  0.24222741618E+03  0.00000000000E+00 0.  1.
          2   -1    0    0  502    0  0.00000000000E+00 -0.00000000000E+00 -0.14682782125E+03  0.14682782125E+03  0.00000000000E+00 0. -1.
         23    2    1    2    0    0  0.70200544496E+01  0.60467851438E+01  0.14685480232E+03  0.17155142616E+03  0.88191349215E+02 0.  0.
         24    2    1    2    0    0 -0.70454794190E+02 -0.41169151162E+02  0.20186843284E+02  0.11557182303E+03  0.79313054448E+02 0.  0.
        -11    1    4    4    0    0 -0.72754717958E+02 -0.56758710889E+02  0.30998928393E+01  0.92327729218E+02  0.00000000000E+00 0.  1.
         12    1    4    4    0    0  0.22999237681E+01  0.15589559727E+02  0.17086950445E+02  0.23244093816E+02  0.00000000000E+00 0. -1.
        -11    1    3    3    0    0 -0.62510753986E+01  0.33397146872E+02  0.13451929507E+03  0.13874395882E+03  0.00000000000E+00 0.  1.
         11    1    3    3    0    0  0.13271129848E+02 -0.27350361728E+02  0.12335507256E+02  0.32807467341E+02  0.00000000000E+00 0. -1.
         21    1    1    2  502  501  0.63434739740E+02  0.35122366018E+02 -0.71642050678E+02  0.10193198824E+03  0.00000000000E+00 0. -1.
<scales pt_clust_5="13000.00000" pt_clust_6="13000.00000" pt_clust_7="13000.00000" pt_clust_8="13000.00000" pt_clust_9="72.50894"></scales>
<clustering>
<clus scale="   72.509">  2  9  1 -1</clus>
<clus scale="   79.313">  5  6 -1 -1</clus>
<clus scale="   82.881">  2  5  1 -1</clus>
<clus scale="   88.191">  7  8 -1 -1</clus>
<clus scale="   72.509">  2  5  1 -1</clus>
</clustering>
</event>
<event>
 9    2  0.2984928E-005  0.1121036E+03  0.7546771E-02  0.1260130E+00
          2   -1    0    0  502    0  0.00000000000E+00  0.00000000000E+00  0.27859772217E+03  0.27859772217E+03  0.00000000000E+00 0. -1.
         -1   -1    0    0    0  501 -0.00000000000E+00 -0.00000000000E+00 -0.19934505285E+03  0.19934505285E+03  0.00000000000E+00 0.  1.
         23    2    1    2    0    0 -0.56613387590E+02  0.18832278590E+01 -0.11117640708E+03  0.15386521060E+03  0.90031590791E+02 0.  0.
         24    2    1    2    0    0  0.10517550642E+03  0.53767116660E+02  0.28245036278E+02  0.14586728665E+03  0.80787952429E+02 0.  0.
        -11    1    4    4    0    0  0.39732166342E+02  0.20613270360E+02 -0.28548850011E+02  0.53090383255E+02  0.00000000000E+00 0.  1.
         12    1    4    4    0    0  0.65443340074E+02  0.33153846301E+02  0.56793886289E+02  0.92776903399E+02  0.00000000000E+00 0. -1.
        -13    1    3    3    0    0 -0.94863145274E+01  0.42796036964E+02 -0.42215237767E+02  0.60857351592E+02  0.00000000000E+00 0. -1.
         13    1    3    3    0    0 -0.47127073063E+02 -0.40912809105E+02 -0.68961169317E+02  0.93007859011E+02  0.00000000000E+00 0.  1.
         21    1    1    2  502  501 -0.48562118826E+02 -0.55650344519E+02  0.16218404012E+03  0.17821027776E+03  0.00000000000E+00 0. -1.
<scales pt_clust_5="13000.00000" pt_clust_6="13000.00000" pt_clust_7="13000.00000" pt_clust_8="13000.00000" pt_clust_9="73.85960"></scales>
<clustering>
<clus scale="   73.860">  1  9  2 -1</clus>
<clus scale="   80.788">  5  6 -1 -1</clus>
<clus scale="   90.032">  7  8 -1 -1</clus>
<clus scale="  104.825">  1  5  2 -1</clus>
<clus scale="   73.860">  1  5  2 -1</clus>
</clustering>
</event>
<event>
 9    2  0.2984928E-005  0.1205687E+03  0.7546771E-02  0.1245939E+00
          2   -1    0    0  502    0  0.00000000000E+00  0.00000000000E+00  0.38704318215E+03  0.38704318215E+03  0.00000000000E+00 0. -1.
         -1   -1    0    0    0  501 -0.00000000000E+00 -0.00000000000E+00 -0.78260030577E+02  0.78260030577E+02  0.00000000000E+00 0.  1.
         24    2    1    2    0    0 -0.30072088572E+02 -0.52408137709E+02 -0.20073815736E+02  0.10296780623E+03  0.80922602732E+02 0.  0.
         23    2    1    2    0    0  0.49527580330E+02  0.63202667085E+02  0.30918862758E+03  0.33263891493E+03  0.92754956501E+02 0.  0.
        -13    1    3    3    0    0 -0.52612279865E+02 -0.47817731096E+02 -0.30929473987E+02  0.77532056343E+02  0.00000000000E+00 0.  1.
         14    1    3    3    0    0  0.22540191292E+02 -0.45904066134E+01  0.10855658251E+02  0.25435749889E+02  0.00000000000E+00 0. -1.
        -11    1    4    4    0    0 -0.22027824867E+02  0.40394595740E+02  0.92638406006E+02  0.10343511348E+03  0.00000000000E+00 0.  1.
         11    1    4    4    0    0  0.71555405196E+02  0.22808071345E+02  0.21655022158E+03  0.22920380145E+03  0.00000000000E+00 0. -1.
         21    1    1    2  502  501 -0.19455491757E+02 -0.10794529376E+02  0.19668339724E+02  0.29696491568E+02  0.00000000000E+00 0.  1.
<scales pt_clust_5="13000.00000" pt_clust_6="13000.00000" pt_clust_7="13000.00000" pt_clust_8="13000.00000" pt_clust_9="22.24945"></scales>
<clustering>
<clus scale="   22.249">  2  9  1 -1</clus>
<clus scale="   80.923">  5  6 -1 -1</clus>
<clus scale="   92.755">  7  8 -1 -1</clus>
<clus scale="  111.722">  2  5  1 -1</clus>
<clus scale="  120.569">  1  5  2 -1</clus>
</clustering>
</event>
<event>
 9    2  0.2984928E-005  0.1358893E+03  0.7546771E-02  0.1222734E+00
         -1   -1    0    0    0  501 -0.00000000000E+00  0.00000000000E+00  0.12570347260E+03  0.12570347260E+03  0.00000000000E+00 0.  1.
          2   -1    0    0  502    0  0.00000000000E+00 -0.00000000000E+00 -0.37390131989E+03  0.37390131989E+03  0.00000000000E+00 0. -1.
         23    2    1    2    0    0  0.53550409212E+02  0.60968462119E+02  0.11567490026E+02  0.12518116706E+03  0.94613519437E+02 0.  0.
         24    2    1    2    0    0 -0.11889851131E+03 -0.66939229089E+02 -0.68010672256E+02  0.17175178211E+03  0.79091761480E+02 0.  0.
        -13    1    4    4    0    0 -0.33075449511E+02  0.17055400850E+02 -0.10903099746E+02  0.38778210925E+02  0.00000000000E+00 0.  1.
         14    1    4    4    0    0 -0.85823061794E+02 -0.83994629939E+02 -0.57107572510E+02  0.13297357118E+03  0.00000000000E+00 0. -1.
        -13    1    3    3    0    0  0.11274890975E+02  0.58883614327E+02  0.41868914180E+02  0.73125981548E+02  0.00000000000E+00 0.  1.
         13    1    3    3    0    0  0.42275518237E+02  0.20848477916E+01 -0.30301424154E+02  0.52055185508E+02  0.00000000000E+00 0. -1.
         21    1    1    2  502  501  0.65348102093E+02  0.59707669699E+01 -0.19175466506E+03  0.20267184332E+03  0.00000000000E+00 0. -1.
<scales pt_clust_5="13000.00000" pt_clust_6="13000.00000" pt_clust_7="13000.00000" pt_clust_8="13000.00000" pt_clust_9="65.62031"></scales>
<clustering>
<clus scale="   65.620">  2  9  1 -1</clus>
<clus scale="   79.092">  5  6 -1 -1</clus>
<clus scale="   94.614">  7  8 -1 -1</clus>
<clus scale="  125.577">  2  5  1 -1</clus>
<clus scale="   65.620">  2  5  1 -1</clus>
</clustering>
</event>
<event>
 9    2  0.2984928E-005  0.1167378E+03  0.7546771E-02  0.1252171E+00
         -1   -1    0    0    0  501 -0.00000000000E+00  0.00000000000E+00  0.60035670999E+02  0.60035670999E+02  0.00000000000E+00 0.  1.
          2   -1    0    0  502    0  0.00000000000E+00 -0.00000000000E+00 -0.72192016299E+03  0.72192016299E+03  0.00000000000E+00 0. -1.
         23    2    1    2    0    0 -0.45027780559E+02 -0.60786622096E+02 -0.11952386201E+02  0.11880538230E+03  0.90825904230E+02 0.  0.
         24    2    1    2    0    0  0.48825561778E+02  0.30524933537E+02 -0.54537670877E+03  0.55423753243E+03  0.80173442192E+02 0.  0.
        -11    1    4    4    0    0  0.32814516945E+02  0.32011851763E+02 -0.11850276274E+03  0.12706083563E+03  0.00000000000E+00 0.  1.
         12    1    4    4    0    0  0.16011044834E+02 -0.14869182266E+01 -0.42687394603E+03  0.42717669680E+03  0.00000000000E+00 0. -1.
        -11    1    3    3    0    0  0.11346085174E+02 -0.60709722172E+02 -0.42382051021E+01  0.61906109532E+02  0.00000000000E+00 0.  1.
         11    1    3    3    0    0 -0.56373865732E+02 -0.76899923756E-01 -0.77141810991E+01  0.56899272765E+02  0.00000000000E+00 0. -1.
         21    1    1    2  502  501 -0.37977812199E+01  0.30261688559E+02 -0.10455539703E+03  0.10891291927E+03  0.00000000000E+00 0.  1.
<scales pt_clust_5="13000.00000" pt_clust_6="13000.00000" pt_clust_7="13000.00000" pt_clust_8="13000.00000" pt_clust_9="30.49906"></scales>
<clustering>
<clus scale="   30.499">  2  9  1 -1</clus>
<clus scale="   80.173">  5  6 -1 -1</clus>
<clus scale="   90.826">  7  8 -1 -1</clus>
<clus scale="  108.656">  2  5  1 -1</clus>
<clus scale="   30.499">  2  5  1 -1</clus>
</clustering>
</event>
<event>
 9    2  0.2984928E-005  0.9119935E+02  0.7546771E-02  0.1304431E+00
         -1   -1    0    0    0  501 -0.00000000000E+00  0.00000000000E+00  0.34888909497E+02  0.34888909497E+02  0.00000000000E+00 0.  1.
          2   -1    0    0  502    0  0.00000000000E+00 -0.00000000000E+00 -0.55017755433E+03  0.55017755433E+03  0.00000000000E+00 0. -1.
         23    2    1    2    0    0 -0.15598466565E+02  0.73070062798E+01 -0.46063358135E+02  0.10239406640E+03  0.89810953513E+02 0.  0.
         24    2    1    2    0    0  0.14923099233E+02  0.17981804469E+02 -0.39660295591E+03  0.40576997224E+03  0.82518613393E+02 0.  0.
        -11    1    4    4    0    0 -0.31416963929E+02  0.23034568059E+02 -0.16711634363E+03  0.17159688009E+03  0.00000000000E+00 0.  1.
         12    1    4    4    0    0  0.46340063162E+02 -0.50527635902E+01 -0.22948661228E+03  0.23417309216E+03  0.00000000000E+00 0. -1.
        -13    1    3    3    0    0 -0.43915141730E+02  0.29882192350E+02 -0.37951310969E+02  0.65282364365E+02  0.00000000000E+00 0.  1.
         13    1    3    3    0    0  0.28316675165E+02 -0.22575186071E+02 -0.81120471667E+01  0.37111702033E+02  0.00000000000E+00 0. -1.
         21    1    1    2  502  501  0.67536733214E+00 -0.25288810749E+02 -0.72622330783E+02  0.76902425180E+02  0.00000000000E+00 0.  1.
<scales pt_clust_5="13000.00000" pt_clust_6="13000.00000" pt_clust_7="13000.00000" pt_clust_8="13000.00000" pt_clust_9="25.29783"></scales>
<clustering>
<clus scale="   25.298">  2  9  1 -1</clus>
<clus scale="   82.519">  5  6 -1 -1</clus>
<clus scale="   84.028">  2  5  1 -1</clus>
<clus scale="   89.811">  7  8 -1 -1</clus>
<clus scale="   25.298">  2  5  1 -1</clus>
</clustering>
</event>
<event>
 9    2  0.2984928E-005  0.2922317E+03  0.7546771E-02  0.1089523E+00
          2   -1    0    0  502    0  0.00000000000E+00  0.00000000000E+00  0.50254416300E+02  0.50254416300E+02  0.00000000000E+00 0. -1.
         -1   -1    0    0    0  501 -0.00000000000E+00 -0.00000000000E+00 -0.22085705963E+04  0.22085705963E+04  0.00000000000E+00 0.  1.
         23    2    1    2    0    0 -0.55843027579E+02 -0.26418485327E+03 -0.14112139747E+04  0.14396394868E+04  0.90138166917E+02 0.  0.
         24    2    1    2    0    0  0.63096506213E+02  0.29016299106E+03 -0.66642495617E+03  0.73411910985E+03  0.81442708478E+02 0.  0.
        -11    1    4    4    0    0 -0.13906678948E+02  0.12182334493E+03 -0.27790820614E+03  0.30375531951E+03  0.00000000000E+00 0.  1.
         12    1    4    4    0    0  0.77003185162E+02  0.16833964613E+03 -0.38851675002E+03  0.43036379034E+03  0.00000000000E+00 0. -1.
        -11    1    3    3    0    0  0.18027768022E+02 -0.98847202421E+02 -0.40632577629E+03  0.41856469790E+03  0.00000000000E+00 0.  1.
         11    1    3    3    0    0 -0.73870795601E+02 -0.16533765085E+03 -0.10048881984E+04  0.10210747889E+04  0.00000000000E+00 0. -1.
         21    1    1    2  502  501 -0.72534786342E+01 -0.25978137790E+02 -0.80677249098E+02  0.85066415920E+02  0.00000000000E+00 0.  1.
<scales pt_clust_5="13000.00000" pt_clust_6="13000.00000" pt_clust_7="13000.00000" pt_clust_8="13000.00000" pt_clust_9="26.97177"></scales>
<clustering>
<clus scale="   26.972">  1  9  2 -1</clus>
<clus scale="   81.443">  5  6 -1 -1</clus>
<clus scale="   90.138">  7  8 -1 -1</clus>
<clus scale="  289.668">  1  5  2 -1</clus>
<clus scale="   26.972">  1  5  2 -1</clus>
</clustering>
</event>
<event>
 9    2  0.2984928E-005  0.1023873E+03  0.7546771E-02  0.1281672E+00
         -1   -1    0    0    0  501 -0.00000000000E+00  0.00000000000E+00  0.17052297421E+03  0.17052297421E+03  0.00000000000E+00 0.  1.
          2   -1    0    0  502    0  0.00000000000E+00 -0.00000000000E+00 -0.28713971396E+03  0.28713971396E+03  0.00000000000E+00 0. -1.
         24    2    1    2    0    0 -0.15779401528E+02  0.38745360196E+02  0.14458835669E+03  0.17095418844E+03  0.81051521912E+02 0.  0.
         23    2    1    2    0    0  0.17695376166E+02 -0.18064600348E+02 -0.22141823825E+03  0.24182689023E+03  0.93886913274E+02 0.  0.
        -13    1    3    3    0    0 -0.12926685736E+02  0.23867382953E+02  0.15177779070E+03  0.15418576109E+03  0.00000000000E+00 0.  1.
         14    1    3    3    0    0 -0.28527157921E+01  0.14877977243E+02 -0.71894340106E+01  0.16768427345E+02  0.00000000000E+00 0. -1.
        -11    1    4    4    0    0  0.45575709895E+02  0.16533675517E+02 -0.15071173982E+03  0.15831783310E+03  0.00000000000E+00 0.  1.
         11    1    4    4    0    0 -0.27880333729E+02 -0.34598275866E+02 -0.70706498427E+02  0.83509057123E+02  0.00000000000E+00 0. -1.
         21    1    1    2  502  501 -0.19159746380E+01 -0.20680759848E+02 -0.39786858200E+02  0.44881609509E+02  0.00000000000E+00 0. -1.
<scales pt_clust_5="13000.00000" pt_clust_6="13000.00000" pt_clust_7="13000.00000" pt_clust_8="13000.00000" pt_clust_9="20.76932"></scales>
<clustering>
<clus scale="   20.769">  2  9  1 -1</clus>
<clus scale="   81.052">  5  6 -1 -1</clus>
<clus scale="   90.762">  1  5  2 -1</clus>
<clus scale="   93.887">  7  8 -1 -1</clus>
<clus scale="   20.769">  2  5  1 -1</clus>
</clustering>
</event>
<event>
 9    2  0.2984928E-005  0.1625176E+03  0.7546771E-02  0.1187339E+00
          2   -1    0    0  502    0  0.00000000000E+00  0.00000000000E+00  0.10341777717E+04  0.10341777717E+04  0.00000000000E+00 0. -1.
         -1   -1    0    0    0  501 -0.00000000000E+00 -0.00000000000E+00 -0.39359027264E+02  0.39359027264E+02  0.00000000000E+00 0.  1.
         23    2    1    2    0    0  0.46808836763E+02 -0.88223340322E+02  0.26290689014E+03  0.30284362774E+03  0.11233790546E+03 0.  0.
         24    2    1    2    0    0 -0.58403261281E+02  0.14230766833E+03  0.56408594787E+03  0.59398697415E+03  0.10471463834E+03 0.  0.
        -13    1    4    4    0    0 -0.70860699669E+02  0.36992813322E+02  0.23284001334E+03  0.24617915998E+03  0.00000000000E+00 0.  1.
         14    1    4    4    0    0  0.12457438388E+02  0.10531485501E+03  0.33124593453E+03  0.34780781417E+03  0.00000000000E+00 0. -1.
        -13    1    3    3    0    0  0.43221610175E+02 -0.60071873759E+02  0.26426540099E+03  0.27443203123E+03  0.00000000000E+00 0.  1.
         13    1    3    3    0    0  0.35872265882E+01 -0.28151466563E+02 -0.13585108570E+01  0.28411596505E+02  0.00000000000E+00 0. -1.
         21    1    1    2  502  501  0.11594424518E+02 -0.54084328012E+02  0.16782590642E+03  0.17670619706E+03  0.00000000000E+00 0.  1.
<scales pt_clust_5="13000.00000" pt_clust_6="13000.00000" pt_clust_7="13000.00000" pt_clust_8="13000.00000" pt_clust_9="55.31316"></scales>
<clustering>
<clus scale="   55.313">  1  9  2 -1</clus>
<clus scale="  104.715">  5  6 -1 -1</clus>
<clus scale="  112.338">  7  8 -1 -1</clus>
<clus scale="  157.345">  1  5  2 -1</clus>
<clus scale="   55.313">  1  5  2 -1</clus>
</clustering>
</event>
<event>
 9    2  0.2984928E-005  0.1370252E+03  0.7546771E-02  0.1220171E+00
         -1   -1    0    0    0  501 -0.00000000000E+00  0.00000000000E+00  0.12894436133E+03  0.12894436133E+03  0.00000000000E+00 0.  1.
          2   -1    0    0  502    0  0.00000000000E+00 -0.00000000000E+00 -0.28646492265E+03  0.28646492265E+03  0.00000000000E+00 0. -1.
         23    2    1    2    0    0  0.10017552137E+03 -0.40900012957E+02  0.59080157123E+02  0.15320556760E+03  0.90958973364E+02 0.  0.
         24    2    1    2    0    0 -0.69206928979E+02  0.34301025294E+02 -0.19447602361E+03  0.22357597410E+03  0.78734573585E+02 0.  0.
        -11    1    4    4    0    0 -0.67533124299E+02  0.34295953510E+02 -0.84072303950E+02  0.11315956697E+03  0.00000000000E+00 0.  1.
         12    1    4    4    0    0 -0.16738046808E+01  0.50717836919E-02 -0.11040371966E+03  0.11041640713E+03  0.00000000000E+00 0. -1.
        -13    1    3    3    0    0  0.74556168962E+02 -0.68942339457E+02  0.53614601721E+02  0.11483115439E+03  0.00000000000E+00 0.  1.
         13    1    3    3    0    0  0.25619352408E+02  0.28042326500E+02  0.54655554019E+01  0.38374413210E+02  0.00000000000E+00 0. -1.
         21    1    1    2  502  501 -0.30968592390E+02  0.65989876627E+01 -0.22124694835E+02  0.38627742289E+02  0.00000000000E+00 0. -1.
<scales pt_clust_5="13000.00000" pt_clust_6="13000.00000" pt_clust_7="13000.00000" pt_clust_8="13000.00000" pt_clust_9="31.66387"></scales>
<clustering>
<clus scale="   31.664">  2  9  1 -1</clus>
<clus scale="   78.735">  5  6 -1 -1</clus>
<clus scale="   90.959">  7  8 -1 -1</clus>
<clus scale="  129.234">  2  5  1 -1</clus>
<clus scale="   31.664">  2  5  1 -1</clus>
</clustering>
</event>
<event>
 9    2  0.2984928E-005  0.2156017E+03  0.7546771E-02  0.1164830E+00
         -1   -1    0    0    0  501 -0.00000000000E+00  0.00000000000E+00  0.19981935426E+03  0.19981935426E+03  0.00000000000E+00 0.  1.
          2   -1    0    0  502    0  0.00000000000E+00 -0.00000000000E+00 -0.49096479401E+03  0.49096479401E+03  0.00000000000E+00 0. -1.
         24    2    1    2    0    0  0.73224683539E+02  0.31433287725E+02 -0.38074431917E+02  0.11845038270E+03  0.78936208037E+02 0.  0.
         23    2    1    2    0    0 -0.42908170620E+02  0.16985235131E+03  0.53722891188E+02  0.20415242992E+03  0.90006295646E+02 0.  0.
        -13    1    3    3    0    0  0.24605569242E+02 -0.24758134145E+02  0.11469031708E+00  0.34905764537E+02  0.00000000000E+00 0.  1.
         14    1    3    3    0    0  0.48619114297E+02  0.56191421870E+02 -0.38189122234E+02  0.83544618162E+02  0.00000000000E+00 0. -1.
        -11    1    4    4    0    0 -0.49547005864E-01  0.14869365986E+03  0.46618582184E+02  0.15583035372E+03  0.00000000000E+00 0.  1.
         11    1    4    4    0    0 -0.42858623614E+02  0.21158691450E+02  0.71043090040E+01  0.48322076201E+02  0.00000000000E+00 0. -1.
         21    1    1    2  502  501 -0.30316512919E+02 -0.20128563903E+03 -0.30679389903E+03  0.36818133564E+03  0.00000000000E+00 0. -1.
<scales pt_clust_5="13000.00000" pt_clust_6="13000.00000" pt_clust_7="13000.00000" pt_clust_8="13000.00000" pt_clust_9="195.91568"></scales>
<clustering>
<clus scale="   78.936">  5  6 -1 -1</clus>
<clus scale="   90.006">  7  8 -1 -1</clus>
<clus scale="  112.164">  1  5  2 -1</clus>
<clus scale="  195.916">  2  9  1 -1</clus>
<clus scale="  195.916">  2  5  1 -1</clus>
</clustering>
</event>
<event>
 9    2  0.2984928E-005  0.9435926E+02  0.7546771E-02  0.1301081E+00
          2   -1    0    0  502    0  0.00000000000E+00  0.00000000000E+00  0.57871370157E+02  0.57871370157E+02  0.00000000000E+00 0. -1.
         -1   -1    0    0    0  501 -0.00000000000E+00 -0.00000000000E+00 -0.21570200949E+03  0.21570200949E+03  0.00000000000E+00 0.  1.
         23    2    1    2    0    0 -0.47770473423E+01 -0.28609793939E+02 -0.12865575642E+03  0.16108049961E+03  0.92483961883E+02 0.  0.
         24    2    1    2    0    0 -0.50651152808E+01  0.21140411875E+01 -0.30060651122E+02  0.84214307502E+02  0.78474723824E+02 0.  0.
        -13    1    4    4    0    0  0.14970010848E+02  0.18059664053E+02 -0.47675970134E+02  0.53134271603E+02  0.00000000000E+00 0.  1.
         14    1    4    4    0    0 -0.20035126129E+02 -0.15945622866E+02  0.17615319012E+02  0.31080035899E+02  0.00000000000E+00 0. -1.
        -11    1    3    3    0    0  0.34403869749E+02 -0.43175206179E+01 -0.10221434478E+03  0.10793534879E+03  0.00000000000E+00 0.  1.
         11    1    3    3    0    0 -0.39180917091E+02 -0.24292273321E+02 -0.26441411635E+02  0.53145150827E+02  0.00000000000E+00 0. -1.
         21    1    1    2  502  501  0.98421626231E+01  0.26495752751E+02  0.88576820922E+00  0.28278572529E+02  0.00000000000E+00 0.  1.
<scales pt_clust_5="13000.00000" pt_clust_6="13000.00000" pt_clust_7="13000.00000" pt_clust_8="13000.00000" pt_clust_9="28.26470"></scales>
<clustering>
<clus scale="   28.265">  1  9  2 -1</clus>
<clus scale="   78.475">  5  6 -1 -1</clus>
<clus scale="   80.676">  1  5  2 -1</clus>
<clus scale="   92.484">  7  8 -1 -1</clus>
<clus scale="   28.265">  1  5  2 -1</clus>
</clustering>
</event>
<event>
 9    2  0.2984928E-005  0.1052161E+03  0.7546771E-02  0.1273096E+00
          2   -1    0    0  502    0  0.00000000000E+00  0.00000000000E+00  0.76217936749E+03  0.76217936749E+03  0.00000000000E+00 0. -1.
         -1   -1    0    0    0  501 -0.00000000000E+00 -0.00000000000E+00 -0.29461776435E+02  0.29461776435E+02  0.00000000000E+00 0.  1.
         24    2    1    2    0    0 -0.61154838988E+01  0.52437930971E+02  0.87001162438E+02  0.13102410452E+03  0.82528649276E+02 0.  0.
         23    2    1    2    0    0  0.34803080275E+02 -0.53775321889E+02  0.51118569819E+03  0.52305511070E+03  0.90403490838E+02 0.  0.
        -11    1    3    3    0    0 -0.44422376366E+02  0.26944845692E+02  0.46011708893E+02  0.69400645434E+02  0.00000000000E+00 0.  1.
         12    1    3    3    0    0  0.38306892467E+02  0.25493085278E+02  0.40989453545E+02  0.61623459084E+02  0.00000000000E+00 0. -1.
        -11    1    4    4    0    0 -0.29108331777E+02 -0.31886141858E+01  0.13290648090E+03  0.13609406638E+03  0.00000000000E+00 0. -1.
         11    1    4    4    0    0  0.63911412052E+02 -0.50586707703E+02  0.37827921729E+03  0.38696104432E+03  0.00000000000E+00 0.  1.
         21    1    1    2  502  501 -0.28687596376E+02  0.13373909180E+01  0.13453073043E+03  0.13756192871E+03  0.00000000000E+00 0.  1.
<scales pt_clust_5="13000.00000" pt_clust_6="13000.00000" pt_clust_7="13000.00000" pt_clust_8="13000.00000" pt_clust_9="28.71875"></scales>
<clustering>
<clus scale="   28.719">  1  9  2 -1</clus>
<clus scale="   82.529">  5  6 -1 -1</clus>
<clus scale="   90.403">  7  8 -1 -1</clus>
<clus scale="   98.532">  2  5  1 -1</clus>
<clus scale="   28.719">  1  5  2 -1</clus>
</clustering>
</event>
<event>
 9    2  0.2984928E-005  0.1154846E+03  0.7546771E-02  0.1255137E+00
          2   -1    0    0  502    0  0.00000000000E+00  0.00000000000E+00  0.26790049778E+02  0.26790049778E+02  0.00000000000E+00 0. -1.
         -1   -1    0    0    0  501 -0.00000000000E+00 -0.00000000000E+00 -0.69180697044E+03  0.69180697044E+03  0.00000000000E+00 0.  1.
         24    2    1    2    0    0  0.85222239228E+02  0.21827592286E+02 -0.38141396030E+03  0.39943037605E+03  0.79553393067E+02 0.  0.
         23    2    1    2    0    0 -0.46134367680E+02 -0.46909147829E+01 -0.21401987421E+03  0.23753740128E+03  0.92027853855E+02 0.  0.
        -13    1    3    3    0    0  0.32576952300E+02 -0.14154508387E+02 -0.46573919048E+02  0.58572500923E+02  0.00000000000E+00 0.  1.
         14    1    3    3    0    0  0.52645286928E+02  0.35982100673E+02 -0.33484004126E+03  0.34085787512E+03  0.00000000000E+00 0. -1.
        -11    1    4    4    0    0 -0.75521387830E+01 -0.22718122835E+02 -0.53037085584E+01  0.24520954913E+02  0.00000000000E+00 0. -1.
         11    1    4    4    0    0 -0.38582228898E+02  0.18027208052E+02 -0.20871616565E+03  0.21301644636E+03  0.00000000000E+00 0.  1.
         21    1    1    2  502  501 -0.39087871547E+02 -0.17136677503E+02 -0.69583086142E+02  0.81629242891E+02  0.00000000000E+00 0.  1.
<scales pt_clust_5="13000.00000" pt_clust_6="13000.00000" pt_clust_7="13000.00000" pt_clust_8="13000.00000" pt_clust_9="42.67936"></scales>
<clustering>
<clus scale="   42.679">  1  9  2 -1</clus>
<clus scale="   79.553">  5  6 -1 -1</clus>
<clus scale="   92.028">  7  8 -1 -1</clus>
<clus scale="  105.813">  2  5  1 -1</clus>
<clus scale="   42.679">  1  5  2 -1</clus>
</clustering>
</event>
<event>
 9    2  0.2984928E-005  0.1124176E+03  0.7546771E-02  0.1261102E+00
         -1   -1    0    0    0  501 -0.00000000000E+00  0.00000000000E+00  0.18137911986E+03  0.18137911986E+03  0.00000000000E+00 0.  1.
          2   -1    0    0  502    0  0.00000000000E+00 -0.00000000000E+00 -0.97933305191E+02  0.97933305191E+02  0.00000000000E+00 0. -1.
         24    2    1    2    0    0  0.36380334203E+02  0.50235569353E+02  0.90031281413E+02  0.13444593096E+03  0.78249188968E+02 0.  0.
         23    2    1    2    0    0 -0.25706525197E+02 -0.72838436564E+02 -0.65380781938E+01  0.11987005333E+03  0.91432050944E+02 0.  0.
        -11    1    3    3    0    0  0.35982832268E+02  0.13463395421E+02  0.89797386369E+02  0.97670864811E+02  0.00000000000E+00 0.  1.
         12    1    3    3    0    0  0.39750193491E+00  0.36772173932E+02  0.23389504428E+00  0.36775066150E+02  0.00000000000E+00 0. -1.
        -13    1    4    4    0    0  0.58142182154E+01 -0.56379424926E+02  0.33882926278E+02  0.66034062283E+02  0.00000000000E+00 0.  1.
         13    1    4    4    0    0 -0.31520743413E+02 -0.16459011638E+02 -0.40421004472E+02  0.53835991046E+02  0.00000000000E+00 0. -1.
         21    1    1    2  502  501 -0.10673809005E+02  0.22602867211E+02 -0.47388554147E-01  0.24996440757E+02  0.00000000000E+00 0. -1.
<scales pt_clust_5="13000.00000" pt_clust_6="13000.00000" pt_clust_7="13000.00000" pt_clust_8="13000.00000" pt_clust_9="24.99640"></scales>
<clustering>
<clus scale="   24.996">  2  9  1 -1</clus>
<clus scale="   78.249">  5  6 -1 -1</clus>
<clus scale="   91.432">  7  8 -1 -1</clus>
<clus scale="  101.985">  1  5  2 -1</clus>
<clus scale="   24.996">  2  5  1 -1</clus>
</clustering>
</event>
<event>
 9    2  0.2984928E-005  0.2030452E+03  0.7546771E-02  0.1147863E+00
          2   -1    0    0  502    0  0.00000000000E+00  0.00000000000E+00  0.14743876979E+04  0.14743876979E+04  0.00000000000E+00 0. -1.
         -1   -1    0    0    0  501 -0.00000000000E+00 -0.00000000000E+00 -0.51385994101E+02  0.51385994101E+02  0.00000000000E+00 0.  1.
         23    2    1    2    0    0 -0.12145282745E+03  0.13996705807E+03  0.30523277764E+03  0.36810974948E+03  0.89421320011E+02 0.  0.
         24    2    1    2    0    0  0.41671006364E+02 -0.18688875247E+03  0.74288217070E+03  0.77152036327E+03  0.81889393882E+02 0.  0.
        -13    1    4    4    0    0  0.32835035912E+02 -0.19466795789E+02  0.18918073692E+03  0.19299338575E+03  0.00000000000E+00 0.  1.
         14    1    4    4    0    0  0.88359704520E+01 -0.16742195668E+03  0.55370143378E+03  0.57852697752E+03  0.00000000000E+00 0. -1.
        -11    1    3    3    0    0  0.55348921577E+00  0.58827782526E+02  0.98175930998E+02  0.11445316848E+03  0.00000000000E+00 0. -1.
         11    1    3    3    0    0 -0.12200631666E+03  0.81139275541E+02  0.20705684665E+03  0.25365658100E+03  0.00000000000E+00 0.  1.
         21    1    1    2  502  501  0.79781821084E+02  0.46921694399E+02  0.37488675541E+03  0.38614357921E+03  0.00000000000E+00 0. -1.
<scales pt_clust_5="13000.00000" pt_clust_6="13000.00000" pt_clust_7="13000.00000" pt_clust_8="13000.00000" pt_clust_9="92.55693"></scales>
<clustering>
<clus scale="   81.889">  5  6 -1 -1</clus>
<clus scale="   89.421">  7  8 -1 -1</clus>
<clus scale="   92.557">  1  9  2 -1</clus>
<clus scale="  199.843">  1  5  2 -1</clus>
<clus scale="   92.557">  1  5  2 -1</clus>
</clustering>
</event>
<event>
 9    2  0.2984928E-005  0.1029951E+03  0.7546771E-02  0.1280042E+00
          2   -1    0    0  502    0  0.00000000000E+00  0.00000000000E+00  0.29238139467E+03  0.29238139467E+03  0.00000000000E+00 0. -1.
         -1   -1    0    0    0  501 -0.00000000000E+00 -0.00000000000E+00 -0.11714414563E+03  0.11714414563E+03  0.00000000000E+00 0.  1.
         23    2    1    2    0    0 -0.18479683468E+02  0.81022523015E+00 -0.68330420011E+02  0.11628643966E+03  0.92256894500E+02 0.  0.
         24    2    1    2    0    0  0.38620544183E+02  0.29842853757E+02  0.23854603968E+03  0.25621907521E+03  0.79761263151E+02 0.  0.
        -11    1    4    4    0    0  0.24656532011E+02  0.58304713383E+01  0.12103289002E+02  0.28078970271E+02  0.00000000000E+00 0.  1.
         12    1    4    4    0    0  0.13964012173E+02  0.24012382419E+02  0.22644275068E+03  0.22814010493E+03  0.00000000000E+00 0. -1.
        -11    1    3    3    0    0  0.17709284195E+02 -0.36614580864E+02 -0.20311142461E+02  0.45461948777E+02  0.00000000000E+00 0.  1.
         11    1    3    3    0    0 -0.36188967663E+02  0.37424806094E+02 -0.48019277551E+02  0.70824490878E+02  0.00000000000E+00 0. -1.
         21    1    1    2  502  501 -0.20140860716E+02 -0.30653078987E+02  0.50216293757E+01  0.37020025437E+02  0.00000000000E+00 0.  1.
<scales pt_clust_5="13000.00000" pt_clust_6="13000.00000" pt_clust_7="13000.00000" pt_clust_8="13000.00000" pt_clust_9="36.67786"></scales>
<clustering>
<clus scale="   36.678">  2  9  1 -1</clus>
<clus scale="   79.761">  5  6 -1 -1</clus>
<clus scale="   91.970">  1  5  2 -1</clus>
<clus scale="   92.257">  7  8 -1 -1</clus>
<clus scale="   91.970">  1  5  2 -1</clus>
</clustering>
</event>
<event>
 9    2  0.2984928E-005  0.9283648E+02  0.7546771E-02  0.1302853E+00
          2   -1    0    0  502    0  0.00000000000E+00  0.00000000000E+00  0.37061032538E+03  0.37061032538E+03  0.00000000000E+00 0. -1.
         -1   -1    0    0    0  501 -0.00000000000E+00 -0.00000000000E+00 -0.21044711047E+03  0.21044711047E+03  0.00000000000E+00 0.  1.
         23    2    1    2    0    0 -0.17832175487E+01 -0.11070150566E+02 -0.19010968778E+03  0.21160705902E+03  0.92250343856E+02 0.  0.
         24    2    1    2    0    0 -0.21413883316E+02 -0.29432318731E+01  0.20382034534E+03  0.22051135599E+03  0.81334543299E+02 0.  0.
        -11    1    4    4    0    0  0.66846746987E+01 -0.38344392002E+02  0.97619654210E+02  0.10509316896E+03  0.00000000000E+00 0.  1.
         12    1    4    4    0    0 -0.28098558015E+02  0.35401160129E+02  0.10620069113E+03  0.11541818703E+03  0.00000000000E+00 0. -1.
        -13    1    3    3    0    0 -0.30392820175E+02 -0.41003921030E+02 -0.11556799186E+03  0.12633687427E+03  0.00000000000E+00 0.  1.
         13    1    3    3    0    0  0.28609602626E+02  0.29933770465E+02 -0.74541695914E+02  0.85270184744E+02  0.00000000000E+00 0. -1.
         21    1    1    2  502  501  0.23197100865E+02  0.14013382439E+02  0.14645255735E+03  0.14893902084E+03  0.00000000000E+00 0. -1.
<scales pt_clust_5="13000.00000" pt_clust_6="13000.00000" pt_clust_7="13000.00000" pt_clust_8="13000.00000" pt_clust_9="27.10130"></scales>
<clustering>
<clus scale="   27.101">  1  9  2 -1</clus>
<clus scale="   81.335">  5  6 -1 -1</clus>
<clus scale="   81.999">  1  5  2 -1</clus>
<clus scale="   92.250">  7  8 -1 -1</clus>
<clus scale="   27.101">  1  5  2 -1</clus>
</clustering>
</event>
<event>
 9    2  0.2984928E-005  0.1813084E+03  0.7546771E-02  0.1168252E+00
          2   -1    0    0  502    0  0.00000000000E+00  0.00000000000E+00  0.81509202866E+03  0.81509202866E+03  0.00000000000E+00 0. -1.
         -1   -1    0    0    0  501 -0.00000000000E+00 -0.00000000000E+00 -0.57359026375E+02  0.57359026375E+02  0.00000000000E+00 0.  1.
         23    2    1    2    0    0 -0.14205715227E+03  0.46798981905E+02  0.16390679658E+03  0.24156668281E+03  0.95491596810E+02 0.  0.
         24    2    1    2    0    0  0.16120980769E+03 -0.37110329053E+02  0.46401761210E+03  0.49931323109E+03  0.81459068184E+02 0.  0.
        -13    1    4    4    0    0  0.89020574056E+02 -0.61495670280E+02  0.27338409096E+03  0.29401571601E+03  0.00000000000E+00 0.  1.
         14    1    4    4    0    0  0.72189233635E+02  0.24385341227E+02  0.19063352114E+03  0.20529751509E+03  0.00000000000E+00 0. -1.
        -13    1    3    3    0    0 -0.76531440773E+02  0.40902957589E+02  0.15153607892E+03  0.17462329908E+03  0.00000000000E+00 0. -1.
         13    1    3    3    0    0 -0.65525711496E+02  0.58960243155E+01  0.12370717654E+02  0.66943383729E+02  0.00000000000E+00 0.  1.
         21    1    1    2  502  501 -0.19152655422E+02 -0.96886528518E+01  0.12980859361E+03  0.13157114113E+03  0.00000000000E+00 0. -1.
<scales pt_clust_5="13000.00000" pt_clust_6="13000.00000" pt_clust_7="13000.00000" pt_clust_8="13000.00000" pt_clust_9="21.46379"></scales>
<clustering>
<clus scale="   21.464">  1  9  2 -1</clus>
<clus scale="   81.459">  5  6 -1 -1</clus>
<clus scale="   95.492">  7  8 -1 -1</clus>
<clus scale="  174.326">  1  5  2 -1</clus>
<clus scale="   21.464">  1  5  2 -1</clus>
</clustering>
</event>
<event>
 9    2  0.2984928E-005  0.2175281E+03  0.7546771E-02  0.1137600E+00
          2   -1    0    0  502    0  0.00000000000E+00  0.00000000000E+00  0.16965548452E+03  0.16965548452E+03  0.00000000000E+00 0. -1.
         -1   -1    0    0    0  501 -0.00000000000E+00 -0.00000000000E+00 -0.84020652835E+03  0.84020652835E+03  0.00000000000E+00 0.  1.
         23    2    1    2    0    0 -0.14640529657E+03 -0.10754224378E+03 -0.61591315873E+03  0.65045275838E+03  0.10363361775E+03 0.  0.
         24    2    1    2    0    0  0.19838784416E+03  0.12701298025E+03 -0.11746110151E+03  0.27557578054E+03  0.81577365653E+02 0.  0.
        -11    1    4    4    0    0  0.39472239207E+02  0.39336433452E+02 -0.67096010987E+02  0.87219764704E+02  0.00000000000E+00 0.  1.
         12    1    4    4    0    0  0.15891560496E+03  0.87676546799E+02 -0.50365090523E+02  0.18835601583E+03  0.00000000000E+00 0. -1.
        -11    1    3    3    0    0 -0.10247407442E+02 -0.46544725136E+02 -0.71216559248E+02  0.85692584909E+02  0.00000000000E+00 0. -1.
         11    1    3    3    0    0 -0.13615788913E+03 -0.60997518646E+02 -0.54469659948E+03  0.56476017348E+03  0.00000000000E+00 0.  1.
         21    1    1    2  502  501 -0.51982547588E+02 -0.19470736470E+02  0.62823216418E+02  0.83833473943E+02  0.00000000000E+00 0.  1.
<scales pt_clust_5="13000.00000" pt_clust_6="13000.00000" pt_clust_7="13000.00000" pt_clust_8="13000.00000" pt_clust_9="55.50941"></scales>
<clustering>
<clus scale="   55.509">  1  9  2 -1</clus>
<clus scale="   81.577">  5  6 -1 -1</clus>
<clus scale="  103.634">  7  8 -1 -1</clus>
<clus scale="  207.927">  1  5  2 -1</clus>
<clus scale="   55.509">  1  5  2 -1</clus>
</clustering>
</event>
<event>
 9    2  0.2984928E-005  0.1371445E+03  0.7546771E-02  0.1234570E+00
         -1   -1    0    0    0  501 -0.00000000000E+00  0.00000000000E+00  0.11976179025E+03  0.11976179025E+03  0.00000000000E+00 0.  1.
          2   -1    0    0  502    0  0.00000000000E+00 -0.00000000000E+00 -0.50411230496E+03  0.50411230496E+03  0.00000000000E+00 0. -1.
         24    2    1    2    0    0 -0.74589705325E+02  0.85675429257E+02  0.48300064808E+02  0.14745168747E+03  0.80654823521E+02 0.  0.
         23    2    1    2    0    0  0.30948494206E+02  0.73610409218E+01 -0.23353804790E+03  0.25235514030E+03  0.90172627795E+02 0.  0.
        -11    1    3    3    0    0 -0.48676148513E+02  0.21281596879E+02  0.56503881903E+02  0.77556189114E+02  0.00000000000E+00 0.  1.
         12    1    3    3    0    0 -0.25913556813E+02  0.64393832378E+02 -0.82038170947E+01  0.69895498352E+02  0.00000000000E+00 0. -1.
        -11    1    4    4    0    0  0.56534958673E+02  0.22862607912E+02 -0.11580215661E+03  0.13087795792E+03  0.00000000000E+00 0. -1.
         11    1    4    4    0    0 -0.25586464466E+02 -0.15501566990E+02 -0.11773589129E+03  0.12147718239E+03  0.00000000000E+00 0.  1.
         21    1    1    2  502  501  0.43641211119E+02 -0.93036470178E+02 -0.19911253162E+03  0.22406726744E+03  0.00000000000E+00 0. -1.
<scales pt_clust_5="13000.00000" pt_clust_6="13000.00000" pt_clust_7="13000.00000" pt_clust_8="13000.00000" pt_clust_9="110.92069"></scales>
<clustering>
<clus scale="   80.655">  5  6 -1 -1</clus>
<clus scale="   90.173">  7  8 -1 -1</clus>
<clus scale="   95.620">  2  7  1 -1</clus>
<clus scale="  110.921">  2  9  1 -1</clus>
<clus scale="   95.620">  2  5  1 -1</clus>
</clustering>
</event>
<event>
 9    2  0.2984928E-005  0.2634157E+03  0.7546771E-02  0.1114762E+00
          2   -1    0    0  502    0  0.00000000000E+00  0.00000000000E+00  0.79416475746E+03  0.79416475746E+03  0.00000000000E+00 0. -1.
         -1   -1    0    0    0  501 -0.00000000000E+00 -0.00000000000E+00 -0.20164408997E+03  0.20164408997E+03  0.00000000000E+00 0.  1.
         23    2    1    2    0    0 -0.49534991902E+02  0.17823060612E+03  0.23046357108E+02  0.20727166689E+03  0.90612057351E+02 0.  0.
         24    2    1    2    0    0 -0.18985371313E+03  0.36661616644E+02  0.14483714630E+03  0.25580615964E+03  0.84086181014E+02 0.  0.
        -11    1    4    4    0    0 -0.18565134188E+03  0.49137852064E+02  0.11664887223E+03  0.22469514601E+03  0.00000000000E+00 0.  1.
         12    1    4    4    0    0 -0.42023712539E+01 -0.12476235419E+02  0.28188274068E+02  0.31111013634E+02  0.00000000000E+00 0. -1.
        -13    1    3    3    0    0 -0.27382087292E+02  0.16249399054E+03  0.46668709167E+02  0.17126600387E+03  0.00000000000E+00 0. -1.
         13    1    3    3    0    0 -0.22152904610E+02  0.15736615582E+02 -0.23622352059E+02  0.36005663019E+02  0.00000000000E+00 0.  1.
         21    1    1    2  502  501  0.23938870504E+03 -0.21489222276E+03  0.42463716409E+03  0.53273102090E+03  0.00000000000E+00 0. -1.
<scales pt_clust_5="13000.00000" pt_clust_6="13000.00000" pt_clust_7="13000.00000" pt_clust_8="13000.00000" pt_clust_9="249.63439"></scales>
<clustering>
<clus scale="   84.086">  5  6 -1 -1</clus>
<clus scale="   90.612">  7  8 -1 -1</clus>
<clus scale="  205.986">  2  7  1 -1</clus>
<clus scale="  249.634">  2  9  1 -1</clus>
<clus scale="  263.416">  1  5  2 -1</clus>
</clustering>
</event>
<event>
 9    2  0.2984928E-005  0.9117599E+02  0.7546771E-02  0.1304856E+00
         -3   -1    0    0    0  501 -0.00000000000E+00  0.00000000000E+00  0.22724031628E+03  0.22724031628E+03  0.00000000000E+00 0.  1.
          4   -1    0    0  502    0  0.00000000000E+00 -0.00000000000E+00 -0.92858713315E+02  0.92858713315E+02  0.00000000000E+00 0. -1.
         23    2    1    2    0    0 -0.17570842355E+02 -0.19595823346E+02  0.17420028678E+03  0.19733694675E+03  0.88901067724E+02 0.  0.
         24    2    1    2    0    0 -0.49873788553E+01 -0.29766276743E+01 -0.15460353536E+02  0.82615885718E+02  0.80948303140E+02 0.  0.
        -11    1    4    4    0    0  0.41571643553E+01  0.20597255933E+02  0.26381680496E+02  0.33727170549E+02  0.00000000000E+00 0.  1.
         12    1    4    4    0    0 -0.91445432106E+01 -0.23573883607E+02 -0.41842034032E+02  0.48888715168E+02  0.00000000000E+00 0. -1.
        -11    1    3    3    0    0 -0.99156236953E+01  0.34625923624E+02  0.89516371992E+02  0.96490699214E+02  0.00000000000E+00 0. -1.
         11    1    3    3    0    0 -0.76552186596E+01 -0.54221746970E+02  0.84683914792E+02  0.10084624753E+03  0.00000000000E+00 0.  1.
         21    1    1    2  502  501  0.22558221210E+02  0.22572451020E+02 -0.24358330288E+02  0.40146197125E+02  0.00000000000E+00 0. -1.
<scales pt_clust_5="13000.00000" pt_clust_6="13000.00000" pt_clust_7="13000.00000" pt_clust_8="13000.00000" pt_clust_9="31.91221"></scales>
<clustering>
<clus scale="   31.912">  2  9  1 -1</clus>
<clus scale="   80.948">  5  6 -1 -1</clus>
<clus scale="   83.440">  2  5  1 -1</clus>
<clus scale="   88.901">  7  8 -1 -1</clus>
<clus scale="   31.912">  2  5  1 -1</clus>
</clustering>
</event>
<event>
 9    2  0.2984928E-005  0.1200474E+03  0.7546771E-02  0.1246708E+00
         -1   -1    0    0    0  501 -0.00000000000E+00  0.00000000000E+00  0.12510706341E+03  0.12510706341E+03  0.00000000000E+00 0.  1.
          2   -1    0    0  502    0  0.00000000000E+00 -0.00000000000E+00 -0.45077532061E+03  0.45077532061E+03  0.00000000000E+00 0. -1.
         23    2    1    2    0    0  0.68350947011E+02  0.27238176148E+02  0.71780679123E+02  0.13751964738E+03  0.91353255672E+02 0.  0.
         24    2    1    2    0    0 -0.10380296473E+03 -0.43621829267E+02 -0.24688528524E+03  0.28281633624E+03  0.79717102935E+02 0.  0.
        -13    1    4    4    0    0 -0.94003296320E+02 -0.60933080030E+02 -0.17146117940E+03  0.20481307576E+03  0.00000000000E+00 0.  1.
         14    1    4    4    0    0 -0.97996684147E+01  0.17311250763E+02 -0.75424105835E+02  0.78003260476E+02  0.00000000000E+00 0. -1.
        -13    1    3    3    0    0 -0.20919755101E+02 -0.63138783882E+01  0.11432658913E+02  0.24661851180E+02  0.00000000000E+00 0.  1.
         13    1    3    3    0    0  0.89270702112E+02  0.33552054536E+02  0.60348020210E+02  0.11285779620E+03  0.00000000000E+00 0. -1.
         21    1    1    2  502  501  0.35452017723E+02  0.16383653118E+02 -0.15056365109E+03  0.15554640041E+03  0.00000000000E+00 0.  1.
<scales pt_clust_5="13000.00000" pt_clust_6="13000.00000" pt_clust_7="13000.00000" pt_clust_8="13000.00000" pt_clust_9="39.05470"></scales>
<clustering>
<clus scale="   39.055">  2  9  1 -1</clus>
<clus scale="   79.717">  5  6 -1 -1</clus>
<clus scale="   91.353">  7  8 -1 -1</clus>
<clus scale="  111.449">  2  5  1 -1</clus>
<clus scale="   39.055">  2  5  1 -1</clus>
</clustering>
</event>
<event>
 9    2  0.2984928E-005  0.2617607E+03  0.7546771E-02  0.1106440E+00
         -1   -1    0    0    0  501 -0.00000000000E+00  0.00000000000E+00  0.31694956214E+03  0.31694956214E+03  0.00000000000E+00 0.  1.
          2   -1    0    0  502    0  0.00000000000E+00 -0.00000000000E+00 -0.10691134191E+04  0.10691134191E+04  0.00000000000E+00 0. -1.
         23    2    1    2    0    0  0.24448479044E+03  0.41281041561E+02  0.24074137550E+03  0.35731080497E+03  0.90761579561E+02 0.  0.
         24    2    1    2    0    0 -0.20569318546E+03 -0.51132392625E+02 -0.80551172077E+03  0.83713232875E+03  0.83768701915E+02 0.  0.
        -11    1    4    4    0    0 -0.10695997094E+03 -0.51585008983E+02 -0.31186026657E+03  0.33370387232E+03  0.00000000000E+00 0.  1.
         12    1    4    4    0    0 -0.98733214516E+02  0.45261635753E+00 -0.49365145420E+03  0.50342845643E+03  0.00000000000E+00 0. -1.
        -13    1    3    3    0    0  0.20705902901E+02  0.22050421142E+02  0.66463470829E+02  0.73022930933E+02  0.00000000000E+00 0.  1.
         13    1    3    3    0    0  0.22377888754E+03  0.19230620419E+02  0.17427790467E+03  0.28428787404E+03  0.00000000000E+00 0. -1.
         21    1    1    2  502  501 -0.38791604978E+02  0.98513510638E+01 -0.18739351172E+03  0.19161984753E+03  0.00000000000E+00 0. -1.
<scales pt_clust_5="13000.00000" pt_clust_6="13000.00000" pt_clust_7="13000.00000" pt_clust_8="13000.00000" pt_clust_9="40.02297"></scales>
<clustering>
<clus scale="   40.023">  2  9  1 -1</clus>
<clus scale="   83.769">  5  6 -1 -1</clus>
<clus scale="   90.762">  7  8 -1 -1</clus>
<clus scale="  259.419">  2  5  1 -1</clus>
<clus scale="   40.023">  2  5  1 -1</clus>
</clustering>
</event>
<event>
 9    2  0.2984928E-005  0.1177488E+03  0.7546771E-02  0.1251895E+00
         -1   -1    0    0    0  501 -0.00000000000E+00  0.00000000000E+00  0.20786985844E+03  0.20786985844E+03  0.00000000000E+00 0.  1.
          2   -1    0    0  502    0  0.00000000000E+00 -0.00000000000E+00 -0.16279347924E+03  0.16279347924E+03  0.00000000000E+00 0. -1.
         23    2    1    2    0    0 -0.11370004183E+02  0.50028120104E+02  0.14160808008E+03  0.17576273364E+03  0.90595807833E+02 0.  0.
         24    2    1    2    0    0  0.19886152611E+02 -0.81897297906E+02 -0.62372389573E+02  0.14741347076E+03  0.10362330775E+03 0.  0.
        -13    1    4    4    0    0 -0.32338681791E+02  0.24908584044E+01 -0.51029452617E+01  0.32833439751E+02  0.00000000000E+00 0.  1.
         14    1    4    4    0    0  0.52224834402E+02 -0.84388156311E+02 -0.57269444311E+02  0.11458003101E+03  0.00000000000E+00 0. -1.
        -11    1    3    3    0    0 -0.42139233785E+02 -0.35848318419E+01  0.56499087258E+02  0.70574165984E+02  0.00000000000E+00 0.  1.
         11    1    3    3    0    0  0.30769229602E+02  0.53612951946E+02  0.85108992826E+02  0.10518856766E+03  0.00000000000E+00 0. -1.
         21    1    1    2  502  501 -0.85161484285E+01  0.31869177802E+02 -0.34159311307E+02  0.47487133276E+02  0.00000000000E+00 0.  1.
<scales pt_clust_5="13000.00000" pt_clust_6="13000.00000" pt_clust_7="13000.00000" pt_clust_8="13000.00000" pt_clust_9="32.98741"></scales>
<clustering>
<clus scale="   32.987">  2  9  1 -1</clus>
<clus scale="   90.596">  7  8 -1 -1</clus>
<clus scale="  103.623">  5  6 -1 -1</clus>
<clus scale="  106.464">  1  7  2 -1</clus>
<clus scale="   32.987">  2  5  1 -1</clus>
</clustering>
</event>
<event>
 9    2  0.2984928E-005  0.1210166E+03  0.7546771E-02  0.1244984E+00
          4   -1    0    0  502    0  0.00000000000E+00  0.00000000000E+00  0.12853921550E+04  0.12853921550E+04  0.00000000000E+00 0. -1.
         -3   -1    0    0    0  501 -0.00000000000E+00 -0.00000000000E+00 -0.22541845665E+02  0.22541845665E+02  0.00000000000E+00 0.  1.
         23    2    1    2    0    0  0.58249844716E+02  0.49095858986E+02  0.18063966599E+03  0.21657619697E+03  0.92038646172E+02 0.  0.
         24    2    1    2    0    0 -0.45160477941E+02 -0.65307665884E+02  0.10060062449E+04  0.10123561293E+04  0.80695773546E+02 0.  0.
        -13    1    4    4    0    0 -0.22333929667E+02 -0.35258902531E+02  0.15522055848E+03  0.16073399266E+03  0.00000000000E+00 0.  1.
         14    1    4    4    0    0 -0.22826548274E+02 -0.30048763354E+02  0.85078568637E+03  0.85162213665E+03  0.00000000000E+00 0. -1.
        -11    1    3    3    0    0  0.49920382373E+02 -0.15223789030E+02  0.10254254725E+03  0.11505990755E+03  0.00000000000E+00 0. -1.
         11    1    3    3    0    0  0.83294623430E+01  0.64319648015E+02  0.78097118737E+02  0.10151628943E+03  0.00000000000E+00 0.  1.
         21    1    1    2  502  501 -0.13089366775E+02  0.16211806899E+02  0.76204398473E+02  0.79001674363E+02  0.00000000000E+00 0.  1.
<scales pt_clust_5="13000.00000" pt_clust_6="13000.00000" pt_clust_7="13000.00000" pt_clust_8="13000.00000" pt_clust_9="20.83637"></scales>
<clustering>
<clus scale="   20.836">  2  9  1 -1</clus>
<clus scale="   80.696">  5  6 -1 -1</clus>
<clus scale="   92.039">  7  8 -1 -1</clus>
<clus scale="  112.631">  1  5  2 -1</clus>
<clus scale="  112.631">  1  5  2 -1</clus>
</clustering>
</event>
<event>
 9    2  0.2984928E-005  0.9137552E+02  0.7546771E-02  0.1301533E+00
         -1   -1    0    0    0  501 -0.00000000000E+00  0.00000000000E+00  0.69036256738E+02  0.69036256738E+02  0.00000000000E+00 0.  1.
          2   -1    0    0  502    0  0.00000000000E+00 -0.00000000000E+00 -0.30898294479E+03  0.30898294479E+03  0.00000000000E+00 0. -1.
         23    2    1    2    0    0  0.11400209408E+01  0.25927975389E+02  0.19640659522E+02  0.94012791916E+02  0.88199149553E+02 0.  0.
         24    2    1    2    0    0  0.18109347180E+02 -0.13505698889E+02 -0.16735163608E+03  0.18896811416E+03  0.84805811800E+02 0.  0.
        -11    1    4    4    0    0 -0.19528925396E+02  0.15016566483E+02 -0.13625730043E+02  0.28152028617E+02  0.00000000000E+00 0.  1.
         12    1    4    4    0    0  0.37638272576E+02 -0.28522265372E+02 -0.15372590603E+03  0.16081608554E+03  0.00000000000E+00 0. -1.
        -13    1    3    3    0    0  0.44651596019E+02  0.14566086785E+02  0.10164708555E+02  0.48054731414E+02  0.00000000000E+00 0. -1.
         13    1    3    3    0    0 -0.43511575078E+02  0.11361888604E+02  0.94759509673E+01  0.45958060502E+02  0.00000000000E+00 0.  1.
         21    1    1    2  502  501 -0.19249368121E+02 -0.12422276500E+02 -0.92235711502E+02  0.95038295454E+02  0.00000000000E+00 0. -1.
<scales pt_clust_5="13000.00000" pt_clust_6="13000.00000" pt_clust_7="13000.00000" pt_clust_8="13000.00000" pt_clust_9="22.90963"></scales>
<clustering>
<clus scale="   22.910">  2  9  1 -1</clus>
<clus scale="   84.806">  5  6 -1 -1</clus>
<clus scale="   88.105">  2  5  1 -1</clus>
<clus scale="   88.199">  7  8 -1 -1</clus>
<clus scale="   22.910">  2  5  1 -1</clus>
</clustering>
</event>
<event>
 9    2  0.2984928E-005  0.2247788E+03  0.7546771E-02  0.1131323E+00
         -1   -1    0    0    0  501 -0.00000000000E+00  0.00000000000E+00  0.24635700723E+03  0.24635700723E+03  0.00000000000E+00 0.  1.
          2   -1    0    0  502    0  0.00000000000E+00 -0.00000000000E+00 -0.55934034523E+03  0.55934034523E+03  0.00000000000E+00 0. -1.
         23    2    1    2    0    0  0.58051937271E+02  0.21801491950E+03  0.79629539279E+02  0.25756088085E+03  0.95374059746E+02 0.  0.
         24    2    1    2    0    0 -0.12814276259E+03 -0.13069184153E+03 -0.79999601628E+02  0.21607457399E+03  0.82385436936E+02 0.  0.
        -13    1    4    4    0    0 -0.11240225958E+02 -0.44632105099E+02  0.74208150265E+01  0.46620124204E+02  0.00000000000E+00 0.  1.
         14    1    4    4    0    0 -0.11690253663E+03 -0.86059736434E+02 -0.87420416655E+02  0.16945444979E+03  0.00000000000E+00 0. -1.
        -11    1    3    3    0    0  0.30017126321E+02  0.17380170187E+03  0.18905634250E+02  0.17738512466E+03  0.00000000000E+00 0. -1.
         11    1    3    3    0    0  0.28034810950E+02  0.44213217634E+02  0.60723905029E+02  0.80175756189E+02  0.00000000000E+00 0.  1.
         21    1    1    2  502  501  0.70090825315E+02 -0.87323077969E+02 -0.31261327564E+03  0.33206189762E+03  0.00000000000E+00 0. -1.
<scales pt_clust_5="13000.00000" pt_clust_6="13000.00000" pt_clust_7="13000.00000" pt_clust_8="13000.00000" pt_clust_9="111.97341"></scales>
<clustering>
<clus scale="   82.385">  5  6 -1 -1</clus>
<clus scale="   95.374">  7  8 -1 -1</clus>
<clus scale="  111.973">  2  9  1 -1</clus>
<clus scale="  219.583">  2  5  1 -1</clus>
<clus scale="  111.973">  2  5  1 -1</clus>
</clustering>
</event>
<event>
 9    2  0.2984928E-005  0.1313896E+03  0.7546771E-02  0.1228793E+00
          2   -1    0    0  502    0  0.00000000000E+00  0.00000000000E+00  0.73826370640E+02  0.73826370640E+02  0.00000000000E+00 0. -1.
         -1   -1    0    0    0  501 -0.00000000000E+00 -0.00000000000E+00 -0.53534699805E+03  0.53534699805E+03  0.00000000000E+00 0.  1.
         24    2    1    2    0    0  0.31860939632E+02 -0.91492291529E+02 -0.33525335586E+03  0.35792512677E+03  0.79558939619E+02 0.  0.
         23    2    1    2    0    0  0.39617879103E+02  0.94050261447E+02 -0.11353951081E+03  0.17860004421E+03  0.92691570557E+02 0.  0.
        -11    1    3    3    0    0  0.23179047130E+02 -0.57562049453E+02 -0.30618612194E+03  0.31241094576E+03  0.00000000000E+00 0.  1.
         12    1    3    3    0    0  0.86818925022E+01 -0.33930242077E+02 -0.29067233915E+02  0.45514181002E+02  0.00000000000E+00 0. -1.
        -13    1    4    4    0    0 -0.17763287879E+02  0.38851897409E+02 -0.36198591487E+01  0.42873158372E+02  0.00000000000E+00 0.  1.
         13    1    4    4    0    0  0.57381166982E+02  0.55198364038E+02 -0.10991965166E+03  0.13572688583E+03  0.00000000000E+00 0. -1.
         21    1    1    2  502  501 -0.71478818735E+02 -0.25579699176E+01 -0.12727760738E+02  0.72648197716E+02  0.00000000000E+00 0.  1.
<scales pt_clust_5="13000.00000" pt_clust_6="13000.00000" pt_clust_7="13000.00000" pt_clust_8="13000.00000" pt_clust_9="71.52457"></scales>
<clustering>
<clus scale="   71.525">  1  9  2 -1</clus>
<clus scale="   79.559">  5  6 -1 -1</clus>
<clus scale="   92.692">  7  8 -1 -1</clus>
<clus scale="  122.479">  2  5  1 -1</clus>
<clus scale="   71.525">  1  5  2 -1</clus>
</clustering>
</event>
<event>
 9    2  0.2984928E-005  0.9004774E+02  0.7546771E-02  0.1307962E+00
         -1   -1    0    0    0  501 -0.00000000000E+00  0.00000000000E+00  0.44690545981E+02  0.44690545981E+02  0.00000000000E+00 0.  1.
          2   -1    0    0  502    0  0.00000000000E+00 -0.00000000000E+00 -0.28377544918E+03  0.28377544918E+03  0.00000000000E+00 0. -1.
         23    2    1    2    0    0  0.62668405677E+01  0.87318708716E+00 -0.30083629001E+02  0.95065972017E+02  0.89958204491E+02 0.  0.
         24    2    1    2    0    0  0.75800217335E+01  0.13924558078E+02 -0.15991805117E+03  0.18029755955E+03  0.81743971279E+02 0.  0.
        -11    1    4    4    0    0  0.36658058789E+02  0.24289020438E+02 -0.52253996940E+02  0.68295314512E+02  0.00000000000E+00 0.  1.
         12    1    4    4    0    0 -0.29078037056E+02 -0.10364462360E+02 -0.10766405423E+03  0.11200224503E+03  0.00000000000E+00 0. -1.
        -11    1    3    3    0    0 -0.40363982871E+02 -0.96000747832E+01 -0.73259557275E+01  0.42131724109E+02  0.00000000000E+00 0. -1.
         11    1    3    3    0    0  0.46630823439E+02  0.10473261870E+02 -0.22757673274E+02  0.52934247908E+02  0.00000000000E+00 0.  1.
         21    1    1    2  502  501 -0.13846862301E+02 -0.14797745165E+02 -0.49083223030E+02  0.53102463602E+02  0.00000000000E+00 0. -1.
<scales pt_clust_5="13000.00000" pt_clust_6="13000.00000" pt_clust_7="13000.00000" pt_clust_8="13000.00000" pt_clust_9="20.26595"></scales>
<clustering>
<clus scale="   20.266">  2  9  1 -1</clus>
<clus scale="   81.744">  5  6 -1 -1</clus>
<clus scale="   81.842">  2  5  1 -1</clus>
<clus scale="   89.958">  7  8 -1 -1</clus>
<clus scale="   20.266">  2  5  1 -1</clus>
</clustering>
</event>
<event>
 9    2  0.2984928E-005  0.1091560E+03  0.7546771E-02  0.1267210E+00
          2   -1    0    0  502    0  0.00000000000E+00  0.00000000000E+00  0.16218048773E+03  0.16218048773E+03  0.00000000000E+00 0. -1.
         -1   -1    0    0    0  501 -0.00000000000E+00 -0.00000000000E+00 -0.20275814480E+03  0.20275814480E+03  0.00000000000E+00 0.  1.
         23    2    1    2    0    0 -0.48085164450E+02  0.49086630414E+02 -0.11024306101E+03  0.15921554662E+03  0.92056381967E+02 0.  0.
         24    2    1    2    0    0  0.60294236335E+02  0.72742998679E+01  0.99188941914E+02  0.14093685903E+03  0.79601769219E+02 0.  0.
        -11    1    4    4    0    0  0.10246638401E+02  0.37493023789E+02  0.23951623306E+02  0.45655237272E+02  0.00000000000E+00 0.  1.
         12    1    4    4    0    0  0.50047597935E+02 -0.30218723921E+02  0.75237318608E+02  0.95281621763E+02  0.00000000000E+00 0. -1.
        -11    1    3    3    0    0  0.21084613275E+02  0.59189873428E+01 -0.58955448805E+02  0.62891496023E+02  0.00000000000E+00 0.  1.
         11    1    3    3    0    0 -0.69169777725E+02  0.43167643071E+02 -0.51287612203E+02  0.96324050602E+02  0.00000000000E+00 0. -1.
         21    1    1    2  502  501 -0.12209071885E+02 -0.56360930282E+02 -0.29523537973E+02  0.64786226877E+02  0.00000000000E+00 0.  1.
<scales pt_clust_5="13000.00000" pt_clust_6="13000.00000" pt_clust_7="13000.00000" pt_clust_8="13000.00000" pt_clust_9="57.66815"></scales>
<clustering>
<clus scale="   57.668">  2  9  1 -1</clus>
<clus scale="   79.602">  5  6 -1 -1</clus>
<clus scale="   92.056">  7  8 -1 -1</clus>
<clus scale="   98.879">  1  5  2 -1</clus>
<clus scale="   98.879">  1  5  2 -1</clus>
</clustering>
</event>
<event>
 9    2  0.2984928E-005  0.9650041E+02  0.7546771E-02  0.1295382E+00
          2   -1    0    0  502    0  0.00000000000E+00  0.00000000000E+00  0.89009685359E+02  0.89009685359E+02  0.00000000000E+00 0. -1.
         -1   -1    0    0    0  501 -0.00000000000E+00 -0.00000000000E+00 -0.32362727287E+03  0.32362727287E+03  0.00000000000E+00 0.  1.
         23    2    1    2    0    0 -0.24624752548E+02 -0.18425815031E+02 -0.25759067631E+03  0.27467463278E+03  0.90262441119E+02 0.  0.
         24    2    1    2    0    0  0.45441008407E+02  0.42025111948E+02  0.34712174133E+02  0.10437587807E+03  0.76540143779E+02 0.  0.
        -13    1    4    4    0    0  0.95570368965E+01  0.42371130290E+02 -0.12383377922E+02  0.45166333536E+02  0.00000000000E+00 0.  1.
         14    1    4    4    0    0  0.35883971510E+02 -0.34601834225E+00  0.47095552055E+02  0.59209544529E+02  0.00000000000E+00 0. -1.
        -13    1    3    3    0    0  0.22751902080E+02 -0.22139490209E+02 -0.18637353181E+03  0.18905792613E+03  0.00000000000E+00 0.  1.
         13    1    3    3    0    0 -0.47376654628E+02  0.37136751785E+01 -0.71217144499E+02  0.85616706651E+02  0.00000000000E+00 0. -1.
         21    1    1    2  502  501 -0.20816255858E+02 -0.23599296917E+02 -0.11739085333E+02  0.33586447377E+02  0.00000000000E+00 0.  1.
<scales pt_clust_5="13000.00000" pt_clust_6="13000.00000" pt_clust_7="13000.00000" pt_clust_8="13000.00000" pt_clust_9="31.46813"></scales>
<clustering>
<clus scale="   31.468">  1  9  2 -1</clus>
<clus scale="   76.540">  5  6 -1 -1</clus>
<clus scale="   83.806">  1  5  2 -1</clus>
<clus scale="   90.262">  7  8 -1 -1</clus>
<clus scale="   31.468">  1  5  2 -1</clus>
</clustering>
</event>
<event>
 9    2  0.2984928E-005  0.9567362E+02  0.7546771E-02  0.1295082E+00
          2   -1    0    0  502    0  0.00000000000E+00  0.00000000000E+00  0.97983952451E+02  0.97983952451E+02  0.00000000000E+00 0. -1.
         -1   -1    0    0    0  501 -0.00000000000E+00 -0.00000000000E+00 -0.13788148004E+03  0.13788148004E+03  0.00000000000E+00 0.  1.
         23    2    1    2    0    0  0.89617935739E+00  0.42947653529E+02 -0.56583610147E+02  0.11567365774E+03  0.91287381807E+02 0.  0.
         24    2    1    2    0    0 -0.44056192074E+01 -0.80443423982E+01  0.19285450360E+01  0.82134683293E+02  0.81598198439E+02 0.  0.
        -13    1    4    4    0    0  0.27622920511E+01  0.34290436496E+02  0.14592869687E+02  0.37368651811E+02  0.00000000000E+00 0.  1.
         14    1    4    4    0    0 -0.71679112585E+01 -0.42334778894E+02 -0.12664324651E+02  0.44766031482E+02  0.00000000000E+00 0. -1.
        -11    1    3    3    0    0 -0.10428117815E+02  0.64231927824E+02 -0.63158976707E+02  0.90683750097E+02  0.00000000000E+00 0.  1.
         11    1    3    3    0    0  0.11324297173E+02 -0.21284274295E+02  0.65753665593E+01  0.24989907645E+02  0.00000000000E+00 0. -1.
         21    1    1    2  502  501  0.35094398500E+01 -0.34903311130E+02  0.14757537526E+02  0.38057091451E+02  0.00000000000E+00 0. -1.
<scales pt_clust_5="13000.00000" pt_clust_6="13000.00000" pt_clust_7="13000.00000" pt_clust_8="13000.00000" pt_clust_9="35.07930"></scales>
<clustering>
<clus scale="   35.079">  1  9  2 -1</clus>
<clus scale="   81.598">  5  6 -1 -1</clus>
<clus scale="   86.477">  1  5  2 -1</clus>
<clus scale="   91.287">  7  8 -1 -1</clus>
<clus scale="   35.079">  1  5  2 -1</clus>
</clustering>
</event>
<event>
 9    2  0.2984928E-005  0.1295459E+03  0.7546771E-02  0.1231462E+00
          2   -1    0    0  502    0  0.00000000000E+00  0.00000000000E+00  0.21537833372E+03  0.21537833372E+03  0.00000000000E+00 0. -1.
         -1   -1    0    0    0  501 -0.00000000000E+00 -0.00000000000E+00 -0.15659951152E+03  0.15659951152E+03  0.00000000000E+00 0.  1.
         23    2    1    2    0    0  0.90612009707E+02 -0.26996281629E+02 -0.95907422032E+02  0.16320869412E+03  0.92192780150E+02 0.  0.
         24    2    1    2    0    0 -0.69418872734E+02  0.37370608412E+02  0.10410582330E+03  0.15295558026E+03  0.79635700678E+02 0.  0.
        -11    1    4    4    0    0 -0.27886520422E+02 -0.23767804880E+02  0.46764673939E+02  0.59409606114E+02  0.00000000000E+00 0.  1.
         12    1    4    4    0    0 -0.41532352313E+02  0.61138413292E+02  0.57341149358E+02  0.93545974142E+02  0.00000000000E+00 0. -1.
        -13    1    3    3    0    0  0.26148472671E+02 -0.55224399267E+02 -0.36974889641E+02  0.71418620551E+02  0.00000000000E+00 0. -1.
         13    1    3    3    0    0  0.64463537036E+02  0.28228117638E+02 -0.58932532391E+02  0.91790073573E+02  0.00000000000E+00 0.  1.
         21    1    1    2  502  501 -0.21193136973E+02 -0.10374326783E+02  0.50580420929E+02  0.55813570862E+02  0.00000000000E+00 0.  1.
<scales pt_clust_5="13000.00000" pt_clust_6="13000.00000" pt_clust_7="13000.00000" pt_clust_8="13000.00000" pt_clust_9="23.59610"></scales>
<clustering>
<clus scale="   23.596">  1  9  2 -1</clus>
<clus scale="   79.636">  5  6 -1 -1</clus>
<clus scale="   92.193">  7  8 -1 -1</clus>
<clus scale="  120.932">  1  5  2 -1</clus>
<clus scale="   23.596">  1  5  2 -1</clus>
</clustering>
</event>
<event>
 9    2  0.2984928E-005  0.1827793E+03  0.7546771E-02  0.1185129E+00
          2   -1    0    0  502    0  0.00000000000E+00  0.00000000000E+00  0.50668507651E+03  0.50668507651E+03  0.00000000000E+00 0. -1.
         -1   -1    0    0    0  501 -0.00000000000E+00 -0.00000000000E+00 -0.16412236829E+03  0.16412236829E+03  0.00000000000E+00 0.  1.
         24    2    1    2    0    0 -0.82298451924E+02  0.10148831950E+00 -0.64336786564E+02  0.13280137142E+03  0.81999613763E+02 0.  0.
         23    2    1    2    0    0  0.71147881337E+02  0.15498533512E+03  0.25905061272E+03  0.32344710723E+03  0.91805969853E+02 0.  0.
        -13    1    3    3    0    0 -0.94513018779E+02 -0.15751574911E+02 -0.56981494468E+02  0.11147965529E+03  0.00000000000E+00 0.  1.
         14    1    3    3    0    0  0.12214566854E+02  0.15853063230E+02 -0.73552920954E+01  0.21321716137E+02  0.00000000000E+00 0. -1.
        -11    1    4    4    0    0  0.88572531641E+02  0.12577792112E+03  0.23819220711E+03  0.28355018309E+03  0.00000000000E+00 0. -1.
         11    1    4    4    0    0 -0.17424650305E+02  0.29207414004E+02  0.20858405612E+02  0.39896924139E+02  0.00000000000E+00 0.  1.
         21    1    1    2  502  501  0.11150570588E+02 -0.15508682344E+03  0.14784888207E+03  0.21455896616E+03  0.00000000000E+00 0.  1.
<scales pt_clust_5="13000.00000" pt_clust_6="13000.00000" pt_clust_7="13000.00000" pt_clust_8="13000.00000" pt_clust_9="158.05038"></scales>
<clustering>
<clus scale="   82.000">  5  6 -1 -1</clus>
<clus scale="   91.806">  7  8 -1 -1</clus>
<clus scale="  116.177">  2  5  1 -1</clus>
<clus scale="  158.050">  2  9  1 -1</clus>
<clus scale="  182.779">  1  5  2 -1</clus>
</clustering>
</event>
<event>
 9    2  0.2984928E-005  0.2085899E+03  0.7546771E-02  0.1155296E+00
         -1   -1    0    0    0  501 -0.00000000000E+00  0.00000000000E+00  0.74482825439E+03  0.74482825439E+03  0.00000000000E+00 0.  1.
          2   -1    0    0  502    0  0.00000000000E+00 -0.00000000000E+00 -0.16707428200E+03  0.16707428200E+03  0.00000000000E+00 0. -1.
         23    2    1    2    0    0  0.40699742934E+02  0.17375618706E+03  0.36034886555E+03  0.41334000538E+03  0.95660720909E+02 0.  0.
         24    2    1    2    0    0  0.12814594534E+03 -0.31295683534E+02 -0.39633542448E+02  0.15963373503E+03  0.80692679703E+02 0.  0.
        -11    1    4    4    0    0  0.45653020206E+02 -0.60431769230E+01  0.24474241189E+02  0.52150807501E+02  0.00000000000E+00 0.  1.
         12    1    4    4    0    0  0.82492925139E+02 -0.25252506611E+02 -0.64107783637E+02  0.10748292753E+03  0.00000000000E+00 0. -1.
        -11    1    3    3    0    0  0.21553883021E+02  0.10268697195E+03  0.30108386554E+03  0.31884271698E+03  0.00000000000E+00 0.  1.
         11    1    3    3    0    0  0.19145859913E+02  0.71069215111E+02  0.59265000005E+02  0.94497288394E+02  0.00000000000E+00 0. -1.
         21    1    1    2  502  501 -0.16884568828E+03 -0.14246050353E+03  0.25703864929E+03  0.33892879598E+03  0.00000000000E+00 0.  1.
<scales pt_clust_5="13000.00000" pt_clust_6="13000.00000" pt_clust_7="13000.00000" pt_clust_8="13000.00000" pt_clust_9="185.36125"></scales>
<clustering>
<clus scale="   80.693">  5  6 -1 -1</clus>
<clus scale="   95.661">  7  8 -1 -1</clus>
<clus scale="  154.635">  2  5  1 -1</clus>
<clus scale="  185.361">  2  9  1 -1</clus>
<clus scale="  154.635">  2  5  1 -1</clus>
</clustering>
</event>
<event>
 9    2  0.2984928E-005  0.1059420E+03  0.7546771E-02  0.1273606E+00
         -1   -1    0    0    0  501 -0.00000000000E+00  0.00000000000E+00  0.37849853023E+02  0.37849853023E+02  0.00000000000E+00 0.  1.
          2   -1    0    0  502    0  0.00000000000E+00 -0.00000000000E+00 -0.48250893560E+03  0.48250893560E+03  0.00000000000E+00 0. -1.
         24    2    1    2    0    0  0.34788499526E+02 -0.29979574110E+02 -0.65130833976E+02  0.11363593871E+03  0.81006706318E+02 0.  0.
         23    2    1    2    0    0 -0.63582864523E+02  0.25986259916E+02 -0.27724531060E+03  0.30038912329E+03  0.93008584395E+02 0.  0.
        -13    1    3    3    0    0  0.17651428537E+02  0.22559388999E+02 -0.56616231294E+00  0.28649947665E+02  0.00000000000E+00 0.  1.
         14    1    3    3    0    0  0.17137070989E+02 -0.52538963109E+02 -0.64564671663E+02  0.84985991043E+02  0.00000000000E+00 0. -1.
        -13    1    4    4    0    0 -0.85221286218E+02  0.19419793151E+02 -0.25079780822E+03  0.26559242572E+03  0.00000000000E+00 0. -1.
         13    1    4    4    0    0  0.21638421695E+02  0.65664667651E+01 -0.26447502380E+02  0.34796697564E+02  0.00000000000E+00 0.  1.
         21    1    1    2  502  501  0.28794364997E+02  0.39933141936E+01 -0.10228293800E+03  0.10633372663E+03  0.00000000000E+00 0.  1.
<scales pt_clust_5="13000.00000" pt_clust_6="13000.00000" pt_clust_7="13000.00000" pt_clust_8="13000.00000" pt_clust_9="29.06995"></scales>
<clustering>
<clus scale="   29.070">  2  9  1 -1</clus>
<clus scale="   81.007">  5  6 -1 -1</clus>
<clus scale="   93.009">  7  8 -1 -1</clus>
<clus scale="   95.578">  1  5  2 -1</clus>
<clus scale="   29.070">  2  5  1 -1</clus>
</clustering>
</event>
<event>
 9    2  0.2984928E-005  0.1369537E+03  0.7546771E-02  0.1220098E+00
          2   -1    0    0  502    0  0.00000000000E+00  0.00000000000E+00  0.43969911415E+03  0.43969911415E+03  0.00000000000E+00 0. -1.
         -1   -1    0    0    0  501 -0.00000000000E+00 -0.00000000000E+00 -0.18994467817E+03  0.18994467817E+03  0.00000000000E+00 0.  1.
         23    2    1    2    0    0 -0.40607588997E+02  0.90449584583E+02 -0.12723934499E+03  0.18486117516E+03  0.90297837919E+02 0.  0.
         24    2    1    2    0    0  0.18522364152E+02 -0.13093043267E+03  0.15643478857E+03  0.21945457775E+03  0.78756666068E+02 0.  0.
        -11    1    4    4    0    0 -0.28522163782E+02 -0.55330546785E+02  0.44984784852E+02  0.76802435525E+02  0.00000000000E+00 0.  1.
         12    1    4    4    0    0  0.47044527934E+02 -0.75599885881E+02  0.11145000372E+03  0.14265214223E+03  0.00000000000E+00 0. -1.
        -13    1    3    3    0    0 -0.55738274701E+02  0.75398132029E+02 -0.13302466887E+03  0.16274887437E+03  0.00000000000E+00 0.  1.
         13    1    3    3    0    0  0.15130685704E+02  0.15051452554E+02  0.57853238823E+01  0.22112300791E+02  0.00000000000E+00 0. -1.
         21    1    1    2  502  501  0.22085224845E+02  0.40480848083E+02  0.22055899240E+03  0.22532803941E+03  0.00000000000E+00 0. -1.
<scales pt_clust_5="13000.00000" pt_clust_6="13000.00000" pt_clust_7="13000.00000" pt_clust_8="13000.00000" pt_clust_9="46.11351"></scales>
<clustering>
<clus scale="   46.114">  1  9  2 -1</clus>
<clus scale="   78.757">  5  6 -1 -1</clus>
<clus scale="   90.298">  7  8 -1 -1</clus>
<clus scale="  129.635">  1  5  2 -1</clus>
<clus scale="   46.114">  1  5  2 -1</clus>
</clustering>
</event>
<event>
 9    2  0.2984928E-005  0.1274578E+03  0.7546771E-02  0.1235654E+00
         -1   -1    0    0    0  501 -0.00000000000E+00  0.00000000000E+00  0.64926409418E+02  0.64926409418E+02  0.00000000000E+00 0.  1.
          2   -1    0    0  502    0  0.00000000000E+00 -0.00000000000E+00 -0.34428699672E+03  0.34428699672E+03  0.00000000000E+00 0. -1.
         24    2    1    2    0    0 -0.85592699774E+02 -0.17522418429E+02 -0.46951845262E+02  0.12747766408E+03  0.80080794601E+02 0.  0.
         23    2    1    2    0    0  0.68553553592E+02  0.45633998404E+02 -0.19220842071E+03  0.22980637401E+03  0.95314432383E+02 0.  0.
        -13    1    3    3    0    0 -0.60233387261E+02  0.24572989479E+02 -0.96159480369E+01  0.65759860170E+02  0.00000000000E+00 0.  1.
         14    1    3    3    0    0 -0.25359312513E+02 -0.42095407908E+02 -0.37335897225E+02  0.61717803912E+02  0.00000000000E+00 0. -1.
        -13    1    4    4    0    0 -0.70019331569E+01  0.26773108611E+02 -0.64935679566E+01  0.28425214818E+02  0.00000000000E+00 0.  1.
         13    1    4    4    0    0  0.75555486749E+02  0.18860889793E+02 -0.18571485276E+03  0.20138115919E+03  0.00000000000E+00 0. -1.
         21    1    1    2  502  501  0.17039146182E+02 -0.28111579975E+02 -0.40200321323E+02  0.51929368047E+02  0.00000000000E+00 0.  1.
<scales pt_clust_5="13000.00000" pt_clust_6="13000.00000" pt_clust_7="13000.00000" pt_clust_8="13000.00000" pt_clust_9="32.87238"></scales>
<clustering>
<clus scale="   32.872">  2  9  1 -1</clus>
<clus scale="   80.081">  5  6 -1 -1</clus>
<clus scale="   95.314">  7  8 -1 -1</clus>
<clus scale="  116.506">  1  5  2 -1</clus>
<clus scale="   32.872">  2  5  1 -1</clus>
</clustering>
</event>
<event>
 9    2  0.2984928E-005  0.9602633E+02  0.7546771E-02  0.1289507E+00
         -1   -1    0    0    0  501 -0.00000000000E+00  0.00000000000E+00  0.89548901471E+02  0.89548901471E+02  0.00000000000E+00 0.  1.
          2   -1    0    0  502    0  0.00000000000E+00 -0.00000000000E+00 -0.37901859090E+03  0.37901859090E+03  0.00000000000E+00 0. -1.
         23    2    1    2    0    0 -0.16898771108E+02  0.21522432228E+02  0.50744029544E+02  0.10902299558E+03  0.92532553601E+02 0.  0.
         24    2    1    2    0    0  0.74396281146E+01 -0.34362755489E+01 -0.30833009045E+03  0.32168752627E+03  0.91368833988E+02 0.  0.
        -13    1    4    4    0    0  0.14335583444E+02  0.39306700816E+02 -0.91992895096E+02  0.10106046917E+03  0.00000000000E+00 0.  1.
         14    1    4    4    0    0 -0.68959553293E+01 -0.42742976365E+02 -0.21633719535E+03  0.22062705709E+03  0.00000000000E+00 0. -1.
        -11    1    3    3    0    0 -0.10275487115E+02 -0.33459275048E+02  0.16901628456E+01  0.35042336860E+02  0.00000000000E+00 0. -1.
         11    1    3    3    0    0 -0.66232839928E+01  0.54981707276E+02  0.49053866699E+02  0.73980658715E+02  0.00000000000E+00 0.  1.
         21    1    1    2  502  501  0.94591429932E+01 -0.18086156679E+02 -0.31883628524E+02  0.37856970527E+02  0.00000000000E+00 0. -1.
<scales pt_clust_5="13000.00000" pt_clust_6="13000.00000" pt_clust_7="13000.00000" pt_clust_8="13000.00000" pt_clust_9="20.41040"></scales>
<clustering>
<clus scale="   20.410">  2  9  1 -1</clus>
<clus scale="   91.369">  5  6 -1 -1</clus>
<clus scale="   92.533">  7  8 -1 -1</clus>
<clus scale="   94.905">  2  5  1 -1</clus>
<clus scale="   20.410">  2  5  1 -1</clus>
</clustering>
</event>
<event>
 9    2  0.2984928E-005  0.2292343E+03  0.7546771E-02  0.1128096E+00
          4   -1    0    0  502    0  0.00000000000E+00  0.00000000000E+00  0.11181211396E+04  0.11181211396E+04  0.00000000000E+00 0. -1.
         -3   -1    0    0    0  501 -0.00000000000E+00 -0.00000000000E+00 -0.78572932067E+02  0.78572932067E+02  0.00000000000E+00 0.  1.
         23    2    1    2    0    0  0.17906428588E+03 -0.13322233668E+03  0.17959250503E+03  0.30106667738E+03  0.92603816859E+02 0.  0.
         24    2    1    2    0    0 -0.12209653348E+03  0.11837507375E+03  0.71461706328E+03  0.73881831903E+03  0.79086913179E+02 0.  0.
        -11    1    4    4    0    0 -0.51090935287E+02  0.47486272628E+01  0.15047190547E+03  0.15897995932E+03  0.00000000000E+00 0.  1.
         12    1    4    4    0    0 -0.71005598194E+02  0.11362644649E+03  0.56414515781E+03  0.57983835972E+03  0.00000000000E+00 0. -1.
        -13    1    3    3    0    0  0.14938449564E+03 -0.99943056723E+02  0.90039550339E+02  0.20102602506E+03  0.00000000000E+00 0.  1.
         13    1    3    3    0    0  0.29679790245E+02 -0.33279279953E+02  0.89552954696E+02  0.10004065233E+03  0.00000000000E+00 0. -1.
         21    1    1    2  502  501 -0.56967752403E+02  0.14847262920E+02  0.14533863917E+03  0.15680907520E+03  0.00000000000E+00 0. -1.
<scales pt_clust_5="13000.00000" pt_clust_6="13000.00000" pt_clust_7="13000.00000" pt_clust_8="13000.00000" pt_clust_9="58.87076"></scales>
<clustering>
<clus scale="   58.871">  1  9  2 -1</clus>
<clus scale="   79.087">  5  6 -1 -1</clus>
<clus scale="   92.604">  7  8 -1 -1</clus>
<clus scale="  224.115">  1  5  2 -1</clus>
<clus scale="   58.871">  1  5  2 -1</clus>
</clustering>
</event>
<event>
 9    2  0.2984928E-005  0.1699949E+03  0.7546771E-02  0.1179382E+00
          2   -1    0    0  502    0  0.00000000000E+00  0.00000000000E+00  0.57518757466E+02  0.57518757466E+02  0.00000000000E+00 0. -1.
         -1   -1    0    0    0  501 -0.00000000000E+00 -0.00000000000E+00 -0.64516391626E+03  0.64516391626E+03  0.00000000000E+00 0.  1.
         23    2    1    2    0    0  0.55107904625E+02 -0.14059459760E+03 -0.41652714414E+03  0.45249729432E+03  0.91952256863E+02 0.  0.
         24    2    1    2    0    0 -0.28842902776E+02  0.12572815139E+03 -0.13946287591E+03  0.20644856020E+03  0.80818519895E+02 0.  0.
        -11    1    4    4    0    0  0.18782555428E+02  0.25725092049E+02 -0.66719887155E+02  0.73933132568E+02  0.00000000000E+00 0.  1.
         12    1    4    4    0    0 -0.47625458204E+02  0.10000305935E+03 -0.72742988759E+02  0.13251542763E+03  0.00000000000E+00 0. -1.
        -13    1    3    3    0    0  0.32885830416E+02  0.49360820323E-01 -0.10368766275E+03  0.10877780879E+03  0.00000000000E+00 0. -1.
         13    1    3    3    0    0  0.22222074210E+02 -0.14064395842E+03 -0.31283948139E+03  0.34371948554E+03  0.00000000000E+00 0.  1.
         21    1    1    2  502  501 -0.26265001849E+02  0.14866446203E+02 -0.31655138745E+02  0.43736819201E+02  0.00000000000E+00 0. -1.
<scales pt_clust_5="13000.00000" pt_clust_6="13000.00000" pt_clust_7="13000.00000" pt_clust_8="13000.00000" pt_clust_9="30.18048"></scales>
<clustering>
<clus scale="   30.180">  1  9  2 -1</clus>
<clus scale="   80.819">  5  6 -1 -1</clus>
<clus scale="   91.952">  7  8 -1 -1</clus>
<clus scale="  164.240">  1  5  2 -1</clus>
<clus scale="   30.180">  1  5  2 -1</clus>
</clustering>
</event>
<event>
 9    2  0.2984928E-005  0.1238066E+03  0.7546771E-02  0.1239916E+00
         -1   -1    0    0    0  501 -0.00000000000E+00  0.00000000000E+00  0.33621558378E+03  0.33621558378E+03  0.00000000000E+00 0.  1.
          2   -1    0    0  502    0  0.00000000000E+00 -0.00000000000E+00 -0.65539478603E+03  0.65539478603E+03  0.00000000000E+00 0. -1.
         23    2    1    2    0    0  0.41478388373E+02  0.72969167233E+02  0.31131981273E+03  0.33527540073E+03  0.91894572572E+02 0.  0.
         24    2    1    2    0    0 -0.68931780369E+02 -0.11369293230E+02 -0.47151881923E+03  0.48364178494E+03  0.81844536015E+02 0.  0.
        -11    1    4    4    0    0 -0.77166425928E+02  0.68393891015E+01 -0.26313110680E+03  0.27429803845E+03  0.00000000000E+00 0.  1.
         12    1    4    4    0    0  0.82346455592E+01 -0.18208682332E+02 -0.20838771243E+03  0.20934374649E+03  0.00000000000E+00 0. -1.
        -11    1    3    3    0    0 -0.21613819262E+02 -0.68364310145E+01  0.52966764124E+02  0.57613991997E+02  0.00000000000E+00 0. -1.
         11    1    3    3    0    0  0.63092207634E+02  0.79805598248E+02  0.25835304861E+03  0.27766140874E+03  0.00000000000E+00 0.  1.
         21    1    1    2  502  501  0.27453391996E+02 -0.61599874003E+02 -0.15898019574E+03  0.17269318414E+03  0.00000000000E+00 0.  1.
<scales pt_clust_5="13000.00000" pt_clust_6="13000.00000" pt_clust_7="13000.00000" pt_clust_8="13000.00000" pt_clust_9="67.44059"></scales>
<clustering>
<clus scale="   67.441">  2  9  1 -1</clus>
<clus scale="   81.845">  5  6 -1 -1</clus>
<clus scale="   91.895">  7  8 -1 -1</clus>
<clus scale="  116.542">  2  5  1 -1</clus>
<clus scale="   67.441">  2  5  1 -1</clus>
</clustering>
</event>
<event>
 9    2  0.2984928E-005  0.1056648E+03  0.7546771E-02  0.1270716E+00
          2   -1    0    0  502    0  0.00000000000E+00  0.00000000000E+00  0.16922171712E+03  0.16922171712E+03  0.00000000000E+00 0. -1.
         -1   -1    0    0    0  501 -0.00000000000E+00 -0.00000000000E+00 -0.17241874572E+03  0.17241874572E+03  0.00000000000E+00 0.  1.
         23    2    1    2    0    0  0.17641200129E+00 -0.58339862339E+02 -0.11621108527E+03  0.15908403641E+03  0.91646841969E+02 0.  0.
         24    2    1    2    0    0  0.10687521639E+01  0.34712193751E+02  0.33631834595E+02  0.99723133981E+02  0.87221124313E+02 0.  0.
        -13    1    4    4    0    0 -0.28535625877E+02 -0.32322341452E+01 -0.14054022484E+02  0.31972563703E+02  0.00000000000E+00 0.  1.
         14    1    4    4    0    0  0.29604378041E+02  0.37944427897E+02  0.47685857079E+02  0.67750570278E+02  0.00000000000E+00 0. -1.
        -13    1    3    3    0    0  0.45837976438E+02 -0.31634487273E+02 -0.61972765893E+02  0.83321573326E+02  0.00000000000E+00 0. -1.
         13    1    3    3    0    0 -0.45661564437E+02 -0.26705375066E+02 -0.54238319372E+02  0.75762463084E+02  0.00000000000E+00 0.  1.
         21    1    1    2  502  501 -0.12451641651E+01  0.23627668587E+02  0.79382222077E+02  0.82833292452E+02  0.00000000000E+00 0. -1.
<scales pt_clust_5="13000.00000" pt_clust_6="13000.00000" pt_clust_7="13000.00000" pt_clust_8="13000.00000" pt_clust_9="23.66046"></scales>
<clustering>
<clus scale="   23.660">  1  9  2 -1</clus>
<clus scale="   87.221">  5  6 -1 -1</clus>
<clus scale="   91.647">  7  8 -1 -1</clus>
<clus scale="  101.850">  1  5  2 -1</clus>
<clus scale="   23.660">  1  5  2 -1</clus>
</clustering>
</event>
<event>
 9    2  0.2984928E-005  0.1263273E+03  0.7546771E-02  0.1236669E+00
         -1   -1    0    0    0  501 -0.00000000000E+00  0.00000000000E+00  0.26014617370E+03  0.26014617370E+03  0.00000000000E+00 0.  1.
          2   -1    0    0  502    0  0.00000000000E+00 -0.00000000000E+00 -0.18491581174E+03  0.18491581174E+03  0.00000000000E+00 0. -1.
         23    2    1    2    0    0  0.24968591968E+02  0.84895765289E+02  0.21515901032E+03  0.25053484594E+03  0.92970897388E+02 0.  0.
         24    2    1    2    0    0 -0.26405567254E+01 -0.67486311082E+02 -0.95162246656E+02  0.14155864910E+03  0.80135031193E+02 0.  0.
        -11    1    4    4    0    0 -0.85088678127E+01 -0.47306572832E+02 -0.42548140672E+01  0.48253664185E+02  0.00000000000E+00 0.  1.
         12    1    4    4    0    0  0.58683110873E+01 -0.20179738250E+02 -0.90907432589E+02  0.93304984919E+02  0.00000000000E+00 0. -1.
        -11    1    3    3    0    0  0.50455135376E+02  0.69432186220E+02  0.19878635343E+03  0.21652381735E+03  0.00000000000E+00 0. -1.
         11    1    3    3    0    0 -0.25486543409E+02  0.15463579069E+02  0.16372656894E+02  0.34011028598E+02  0.00000000000E+00 0.  1.
         21    1    1    2  502  501 -0.22328035242E+02 -0.17409454207E+02 -0.44766401706E+02  0.52968490400E+02  0.00000000000E+00 0.  1.
<scales pt_clust_5="13000.00000" pt_clust_6="13000.00000" pt_clust_7="13000.00000" pt_clust_8="13000.00000" pt_clust_9="28.31308"></scales>
<clustering>
<clus scale="   28.313">  2  9  1 -1</clus>
<clus scale="   80.135">  5  6 -1 -1</clus>
<clus scale="   92.971">  7  8 -1 -1</clus>
<clus scale="  117.203">  2  5  1 -1</clus>
<clus scale="   28.313">  2  5  1 -1</clus>
</clustering>
</event>
<event>
 9    2  0.2984928E-005  0.9329965E+02  0.7546771E-02  0.1301073E+00
         -1   -1    0    0    0  501 -0.00000000000E+00  0.00000000000E+00  0.95479690462E+02  0.95479690462E+02  0.00000000000E+00 0.  1.
          2   -1    0    0  502    0  0.00000000000E+00 -0.00000000000E+00 -0.16950767114E+03  0.16950767114E+03  0.00000000000E+00 0. -1.
         24    2    1    2    0    0  0.20519943010E+02 -0.19859089977E+02  0.31477935640E+02  0.91224634852E+02  0.80719403218E+02 0.  0.
         23    2    1    2    0    0 -0.80569629254E+01 -0.92378712944E+00 -0.32477279738E+02  0.96818359742E+02  0.90847416307E+02 0.  0.
        -13    1    3    3    0    0  0.36048930925E+02  0.19930741222E+02  0.63772356865E+01  0.41682478352E+02  0.00000000000E+00 0.  1.
         14    1    3    3    0    0 -0.15528987915E+02 -0.39789831199E+02  0.25100699954E+02  0.49542156501E+02  0.00000000000E+00 0. -1.
        -13    1    4    4    0    0 -0.37807649729E+02  0.27717846200E+01  0.14916870341E+02  0.40738362618E+02  0.00000000000E+00 0.  1.
         13    1    4    4    0    0  0.29750686803E+02 -0.36955717495E+01 -0.47394150078E+02  0.56079997125E+02  0.00000000000E+00 0. -1.
         21    1    1    2  502  501 -0.12462980085E+02  0.20782877107E+02 -0.73028636584E+02  0.76944367011E+02  0.00000000000E+00 0.  1.
<scales pt_clust_5="13000.00000" pt_clust_6="13000.00000" pt_clust_7="13000.00000" pt_clust_8="13000.00000" pt_clust_9="24.23332"></scales>
<clustering>
<clus scale="   24.233">  2  9  1 -1</clus>
<clus scale="   80.719">  5  6 -1 -1</clus>
<clus scale="   83.470">  1  5  2 -1</clus>
<clus scale="   90.847">  7  8 -1 -1</clus>
<clus scale="   24.233">  2  5  1 -1</clus>
</clustering>
</event>
<event>
 9    2  0.2984928E-005  0.1820323E+03  0.7546771E-02  0.1168298E+00
         -1   -1    0    0    0  501 -0.00000000000E+00  0.00000000000E+00  0.33796458561E+03  0.33796458561E+03  0.00000000000E+00 0.  1.
          2   -1    0    0  502    0  0.00000000000E+00 -0.00000000000E+00 -0.55755208235E+03  0.55755208235E+03  0.00000000000E+00 0. -1.
         24    2    1    2    0    0 -0.10663893846E+03  0.12864941508E+03  0.25590040929E+03  0.31520825424E+03  0.77127743833E+02 0.  0.
         23    2    1    2    0    0  0.10657764607E+02 -0.11572803422E+03 -0.76636467143E+02  0.16986740928E+03  0.97340756047E+02 0.  0.
        -11    1    3    3    0    0 -0.62829262025E+02  0.11639754540E+03  0.15023171732E+03  0.20016361715E+03  0.00000000000E+00 0.  1.
         12    1    3    3    0    0 -0.43809676435E+02  0.12251869680E+02  0.10566869197E+03  0.11504463709E+03  0.00000000000E+00 0. -1.
        -11    1    4    4    0    0 -0.27387897511E+02 -0.37755456084E+01 -0.34796129590E+02  0.44442348151E+02  0.00000000000E+00 0.  1.
         11    1    4    4    0    0  0.38045662117E+02 -0.11195248861E+03 -0.41840337553E+02  0.12542506113E+03  0.00000000000E+00 0. -1.
         21    1    1    2  502  501  0.95981173853E+02 -0.12921380863E+02 -0.39885143890E+03  0.41044100444E+03  0.00000000000E+00 0. -1.
<scales pt_clust_5="13000.00000" pt_clust_6="13000.00000" pt_clust_7="13000.00000" pt_clust_8="13000.00000" pt_clust_9="96.84703"></scales>
<clustering>
<clus scale="   77.128">  5  6 -1 -1</clus>
<clus scale="   96.847">  2  9  1 -1</clus>
<clus scale="   97.341">  7  8 -1 -1</clus>
<clus scale="  172.073">  1  5  2 -1</clus>
<clus scale="   96.847">  2  5  1 -1</clus>
</clustering>
</event>
<event>
 9    2  0.2984928E-005  0.1076368E+03  0.7546771E-02  0.1268828E+00
         -1   -1    0    0    0  501 -0.00000000000E+00  0.00000000000E+00  0.26152814819E+03  0.26152814819E+03  0.00000000000E+00 0.  1.
          2   -1    0    0  502    0  0.00000000000E+00 -0.00000000000E+00 -0.96699673922E+02  0.96699673922E+02  0.00000000000E+00 0. -1.
         23    2    1    2    0    0  0.96291432900E+01  0.57531018256E+02  0.18286372607E+03  0.21157219682E+03  0.89000638714E+02 0.  0.
         24    2    1    2    0    0 -0.41546945657E+02 -0.63922511492E+02 -0.25908198569E+02  0.11316561806E+03  0.79517206875E+02 0.  0.
        -13    1    4    4    0    0  0.14076924582E+01 -0.52870500145E+02 -0.40346035097E+02  0.66521229181E+02  0.00000000000E+00 0.  1.
         14    1    4    4    0    0 -0.42954638116E+02 -0.11052011347E+02  0.14437836528E+02  0.46644388881E+02  0.00000000000E+00 0. -1.
        -13    1    3    3    0    0 -0.91916610737E+01 -0.19377981105E+02  0.15620143022E+02  0.26532652582E+02  0.00000000000E+00 0. -1.
         13    1    3    3    0    0  0.18820804364E+02  0.76908999362E+02  0.16724358305E+03  0.18503954424E+03  0.00000000000E+00 0.  1.
         21    1    1    2  502  501  0.31917802367E+02  0.63914932357E+01  0.78729467661E+01  0.33490007234E+02  0.00000000000E+00 0. -1.
<scales pt_clust_5="13000.00000" pt_clust_6="13000.00000" pt_clust_7="13000.00000" pt_clust_8="13000.00000" pt_clust_9="32.55146"></scales>
<clustering>
<clus scale="   32.551">  2  9  1 -1</clus>
<clus scale="   79.517">  5  6 -1 -1</clus>
<clus scale="   89.001">  7  8 -1 -1</clus>
<clus scale="   99.938">  2  5  1 -1</clus>
<clus scale="   32.551">  2  5  1 -1</clus>
</clustering>
</event>
<event>
 9    2  0.2984928E-005  0.1235038E+03  0.7546771E-02  0.1237447E+00
          2   -1    0    0  502    0  0.00000000000E+00  0.00000000000E+00  0.11393923319E+04  0.11393923319E+04  0.00000000000E+00 0. -1.
         -1   -1    0    0    0  501 -0.00000000000E+00 -0.00000000000E+00 -0.59142612009E+02  0.59142612009E+02  0.00000000000E+00 0.  1.
         23    2    1    2    0    0  0.77128674179E+02  0.17484269012E+02  0.16287651861E+02  0.12554991477E+03  0.96140321677E+02 0.  0.
         24    2    1    2    0    0 -0.53558706679E+02 -0.27289225457E+02  0.86707846940E+03  0.87445333910E+03  0.96074623525E+02 0.  0.
        -13    1    4    4    0    0 -0.10776763479E+02 -0.53707446949E+02  0.28565605105E+03  0.29086080518E+03  0.00000000000E+00 0.  1.
         14    1    4    4    0    0 -0.42781943200E+02  0.26418221492E+02  0.58142241835E+03  0.58359253392E+03  0.00000000000E+00 0. -1.
        -11    1    3    3    0    0  0.21809527799E+02  0.37713337811E+02  0.42695815139E+02  0.60999049025E+02  0.00000000000E+00 0. -1.
         11    1    3    3    0    0  0.55319146380E+02 -0.20229068799E+02 -0.26408163277E+02  0.64550865745E+02  0.00000000000E+00 0.  1.
         21    1    1    2  502  501 -0.23569967500E+02  0.98049564442E+01  0.19688359858E+03  0.19853168999E+03  0.00000000000E+00 0. -1.
<scales pt_clust_5="13000.00000" pt_clust_6="13000.00000" pt_clust_7="13000.00000" pt_clust_8="13000.00000" pt_clust_9="25.52803"></scales>
<clustering>
<clus scale="   25.528">  1  9  2 -1</clus>
<clus scale="   96.075">  5  6 -1 -1</clus>
<clus scale="   96.140">  7  8 -1 -1</clus>
<clus scale="  123.453">  1  5  2 -1</clus>
<clus scale="   25.528">  1  5  2 -1</clus>
</clustering>
</event>
<event>
 9    2  0.2984928E-005  0.1224939E+03  0.7546771E-02  0.1242204E+00
         -3   -1    0    0    0  501 -0.00000000000E+00  0.00000000000E+00  0.71035810313E+02  0.71035810313E+02  0.00000000000E+00 0.  1.
          4   -1    0    0  502    0  0.00000000000E+00 -0.00000000000E+00 -0.45442814860E+03  0.45442814860E+03  0.00000000000E+00 0. -1.
         24    2    1    2    0    0 -0.41950104632E+02  0.88938500258E+02 -0.28742260535E+02  0.13025727653E+03  0.80442354767E+02 0.  0.
         23    2    1    2    0    0 -0.10754940238E+02 -0.38917720261E+02 -0.23508235523E+03  0.25529120628E+03  0.90992464366E+02 0.  0.
        -13    1    3    3    0    0 -0.36474347940E+02  0.82394170911E+02  0.99325950119E+01  0.90652269147E+02  0.00000000000E+00 0.  1.
         14    1    3    3    0    0 -0.54757566916E+01  0.65443293476E+01 -0.38674855547E+02  0.39605007380E+02  0.00000000000E+00 0. -1.
        -11    1    4    4    0    0 -0.29807962672E+02  0.19182390599E+02 -0.11793454671E+03  0.12314640091E+03  0.00000000000E+00 0.  1.
         11    1    4    4    0    0  0.19053022434E+02 -0.58100110859E+02 -0.11714780852E+03  0.13214480537E+03  0.00000000000E+00 0. -1.
         21    1    1    2  502  501  0.52705044870E+02 -0.50020779998E+02 -0.11956772253E+03  0.13991547611E+03  0.00000000000E+00 0. -1.
<scales pt_clust_5="13000.00000" pt_clust_6="13000.00000" pt_clust_7="13000.00000" pt_clust_8="13000.00000" pt_clust_9="72.66292"></scales>
<clustering>
<clus scale="   72.663">  2  9  1 -1</clus>
<clus scale="   80.442">  5  6 -1 -1</clus>
<clus scale="   90.992">  7  8 -1 -1</clus>
<clus scale="  114.874">  1  5  2 -1</clus>
<clus scale="   72.663">  2  5  1 -1</clus>
</clustering>
</event>
<event>
 9    2  0.2984928E-005  0.2090777E+03  0.7546771E-02  0.1150236E+00
         -1   -1    0    0    0  501 -0.00000000000E+00  0.00000000000E+00  0.63106176834E+03  0.63106176834E+03  0.00000000000E+00 0.  1.
          2   -1    0    0  502    0  0.00000000000E+00 -0.00000000000E+00 -0.14796551097E+03  0.14796551097E+03  0.00000000000E+00 0. -1.
         24    2    1    2    0    0 -0.15309526853E+03 -0.21140769899E+02  0.16166218614E+03  0.23678948445E+03  0.77778558239E+02 0.  0.
         23    2    1    2    0    0  0.58091744410E+02  0.18932608581E+03  0.91213640365E+02  0.24171588739E+03  0.10434378031E+03 0.  0.
        -11    1    3    3    0    0 -0.41590339913E+02 -0.32452496333E+02  0.20622754646E+02  0.56641141421E+02  0.00000000000E+00 0.  1.
         12    1    3    3    0    0 -0.11150492862E+03  0.11311726434E+02  0.14103943149E+03  0.18014834303E+03  0.00000000000E+00 0. -1.
        -13    1    4    4    0    0  0.55883680240E+02  0.84574829079E+02  0.92065737538E+02  0.13693789636E+03  0.00000000000E+00 0.  1.
         13    1    4    4    0    0  0.22080641699E+01  0.10475125673E+03 -0.85209717234E+00  0.10477799103E+03  0.00000000000E+00 0. -1.
         21    1    1    2  502  501  0.95003524118E+02 -0.16818531591E+03  0.23022043086E+03  0.30052190747E+03  0.00000000000E+00 0.  1.
<scales pt_clust_5="13000.00000" pt_clust_6="13000.00000" pt_clust_7="13000.00000" pt_clust_8="13000.00000" pt_clust_9="181.17906"></scales>
<clustering>
<clus scale="   77.779">  5  6 -1 -1</clus>
<clus scale="  104.344">  7  8 -1 -1</clus>
<clus scale="  173.016">  1  5  2 -1</clus>
<clus scale="  181.179">  1  9  2 -1</clus>
<clus scale="  209.078">  2  5  1 -1</clus>
</clustering>
</event>
<event>
 9    2  0.2984928E-005  0.2779840E+03  0.7546771E-02  0.1097259E+00
          2   -1    0    0  502    0  0.00000000000E+00  0.00000000000E+00  0.39419670035E+03  0.39419670035E+03  0.00000000000E+00 0. -1.
         -1   -1    0    0    0  501 -0.00000000000E+00 -0.00000000000E+00 -0.27454962936E+03  0.27454962936E+03  0.00000000000E+00 0.  1.
         24    2    1    2    0    0 -0.18415179779E+02 -0.25849926818E+03 -0.81425826067E+02  0.28293034248E+03  0.79110195607E+02 0.  0.
         23    2    1    2    0    0  0.35041088228E+02  0.26965493084E+03  0.13478101771E+03  0.31656656190E+03  0.90037801969E+02 0.  0.
        -11    1    3    3    0    0  0.14931066292E+02 -0.71856668779E+02 -0.54534233473E+02  0.91434677279E+02  0.00000000000E+00 0.  1.
         12    1    3    3    0    0 -0.33346246071E+02 -0.18664259940E+03 -0.26891592594E+02  0.19149566520E+03  0.00000000000E+00 0. -1.
        -11    1    4    4    0    0  0.33391147627E+02  0.33551286122E+02  0.62693177379E+01  0.47748946430E+02  0.00000000000E+00 0. -1.
         11    1    4    4    0    0  0.16499406005E+01  0.23610364472E+03  0.12851169998E+03  0.26881761547E+03  0.00000000000E+00 0.  1.
         21    1    1    2  502  501 -0.16625908449E+02 -0.11155662659E+02  0.66291879349E+02  0.69249425332E+02  0.00000000000E+00 0. -1.
<scales pt_clust_5="13000.00000" pt_clust_6="13000.00000" pt_clust_7="13000.00000" pt_clust_8="13000.00000" pt_clust_9="20.02173"></scales>
<clustering>
<clus scale="   20.022">  1  9  2 -1</clus>
<clus scale="   79.110">  5  6 -1 -1</clus>
<clus scale="   90.038">  7  8 -1 -1</clus>
<clus scale="  274.639">  2  5  1 -1</clus>
<clus scale="   20.022">  1  5  2 -1</clus>
</clustering>
</event>
<event>
 9    2  0.2984928E-005  0.9336463E+02  0.7546771E-02  0.1301759E+00
          2   -1    0    0  502    0  0.00000000000E+00  0.00000000000E+00  0.73682771578E+03  0.73682771578E+03  0.00000000000E+00 0. -1.
         -1   -1    0    0    0  501 -0.00000000000E+00 -0.00000000000E+00 -0.18232743604E+02  0.18232743604E+02  0.00000000000E+00 0.  1.
         24    2    1    2    0    0  0.20553825842E+02  0.90159402676E+01  0.16984085884E+03  0.18940782487E+03  0.80781556414E+02 0.  0.
         23    2    1    2    0    0  0.16169766013E+02 -0.18074381876E+02  0.44862514502E+03  0.45861765023E+03  0.92073252073E+02 0.  0.
        -11    1    3    3    0    0  0.16542389495E+02  0.24629313075E+02  0.14125154727E+02  0.32859910359E+02  0.00000000000E+00 0.  1.
         12    1    3    3    0    0  0.40114363466E+01 -0.15613372807E+02  0.15571570411E+03  0.15654791451E+03  0.00000000000E+00 0. -1.
        -13    1    4    4    0    0 -0.31890003417E+02  0.16547789137E+02  0.16196728664E+03  0.16590420002E+03  0.00000000000E+00 0.  1.
         13    1    4    4    0    0  0.48059769430E+02 -0.34622171013E+02  0.28665785838E+03  0.29271345021E+03  0.00000000000E+00 0. -1.
         21    1    1    2  502  501 -0.36723591855E+02  0.90584416085E+01  0.10012896831E+03  0.10703498427E+03  0.00000000000E+00 0. -1.
<scales pt_clust_5="13000.00000" pt_clust_6="13000.00000" pt_clust_7="13000.00000" pt_clust_8="13000.00000" pt_clust_9="37.82430"></scales>
<clustering>
<clus scale="   37.824">  2  9  1 -1</clus>
<clus scale="   80.782">  5  6 -1 -1</clus>
<clus scale="   82.250">  2  5  1 -1</clus>
<clus scale="   92.073">  7  8 -1 -1</clus>
<clus scale="   93.365">  1  5  2 -1</clus>
</clustering>
</event>
<event>
 9    2  0.2984928E-005  0.1552269E+03  0.7546771E-02  0.1194987E+00
         -1   -1    0    0    0  501 -0.00000000000E+00  0.00000000000E+00  0.81230719151E+02  0.81230719151E+02  0.00000000000E+00 0.  1.
          2   -1    0    0  502    0  0.00000000000E+00 -0.00000000000E+00 -0.84463021455E+03  0.84463021455E+03  0.00000000000E+00 0. -1.
         23    2    1    2    0    0  0.31521616469E+02 -0.13340908257E+03 -0.40827895852E+02  0.16979862163E+03  0.91504421810E+02 0.  0.
         24    2    1    2    0    0  0.39517382328E+02  0.76323346932E+02 -0.51609732733E+03  0.53037016411E+03  0.86886034005E+02 0.  0.
        -13    1    4    4    0    0 -0.24487639449E+02  0.38409952157E+02 -0.24772328076E+03  0.25187654265E+03  0.00000000000E+00 0.  1.
         14    1    4    4    0    0  0.64005021777E+02  0.37913394775E+02 -0.26837404657E+03  0.27849362145E+03  0.00000000000E+00 0. -1.
        -13    1    3    3    0    0  0.53835566391E+02 -0.39030953981E+02 -0.60466741645E+01  0.66770096943E+02  0.00000000000E+00 0. -1.
         13    1    3    3    0    0 -0.22313949922E+02 -0.94378128593E+02 -0.34781221688E+02  0.10302852469E+03  0.00000000000E+00 0.  1.
         21    1    1    2  502  501 -0.71038998796E+02  0.57085735642E+02 -0.20647427222E+03  0.22569214796E+03  0.00000000000E+00 0. -1.
<scales pt_clust_5="13000.00000" pt_clust_6="13000.00000" pt_clust_7="13000.00000" pt_clust_8="13000.00000" pt_clust_9="91.13353"></scales>
<clustering>
<clus scale="   86.886">  5  6 -1 -1</clus>
<clus scale="   91.134">  2  9  1 -1</clus>
<clus scale="   91.504">  7  8 -1 -1</clus>
<clus scale="  152.550">  2  5  1 -1</clus>
<clus scale="   91.134">  2  5  1 -1</clus>
</clustering>
</event>
<event>
 9    2  0.2984928E-005  0.9666299E+02  0.7546771E-02  0.1293879E+00
         -1   -1    0    0    0  501 -0.00000000000E+00  0.00000000000E+00  0.49498136520E+02  0.49498136520E+02  0.00000000000E+00 0.  1.
          2   -1    0    0  502    0  0.00000000000E+00 -0.00000000000E+00 -0.59160033174E+03  0.59160033174E+03  0.00000000000E+00 0. -1.
         23    2    1    2    0    0  0.21819076498E+01  0.18840689516E+02 -0.19568095164E+02  0.93506999791E+02  0.89447841557E+02 0.  0.
         24    2    1    2    0    0  0.40485382887E+02 -0.36123690882E+01 -0.47061403701E+03  0.47868506549E+03  0.77522284886E+02 0.  0.
        -11    1    4    4    0    0 -0.21233235925E+02  0.96801667261E+01 -0.96508167988E+02  0.99289387268E+02  0.00000000000E+00 0.  1.
         12    1    4    4    0    0  0.61718618811E+02 -0.13292535814E+02 -0.37410586903E+03  0.37939567823E+03  0.00000000000E+00 0. -1.
        -11    1    3    3    0    0  0.22733606574E+02 -0.22591371123E+02 -0.32335698469E+02  0.45527841071E+02  0.00000000000E+00 0. -1.
         11    1    3    3    0    0 -0.20551698925E+02  0.41432060638E+02  0.12767603304E+02  0.47979158721E+02  0.00000000000E+00 0.  1.
         21    1    1    2  502  501 -0.42667290536E+02 -0.15228320427E+02 -0.51920063045E+02  0.68906402978E+02  0.00000000000E+00 0.  1.
<scales pt_clust_5="13000.00000" pt_clust_6="13000.00000" pt_clust_7="13000.00000" pt_clust_8="13000.00000" pt_clust_9="45.30342"></scales>
<clustering>
<clus scale="   45.303">  1  9  2 -1</clus>
<clus scale="   77.522">  5  6 -1 -1</clus>
<clus scale="   85.747">  2  5  1 -1</clus>
<clus scale="   89.448">  7  8 -1 -1</clus>
<clus scale="   85.747">  2  5  1 -1</clus>
</clustering>
</event>
<event>
 9    2  0.4540207E-005  0.9803719E+02  0.7546771E-02  0.1292251E+00
          2   -1    0    0  502    0  0.00000000000E+00  0.00000000000E+00  0.85969159907E+03  0.85969159907E+03  0.00000000000E+00 0. -1.
         -1   -1    0    0    0  501 -0.00000000000E+00 -0.00000000000E+00 -0.70006111187E+02  0.70006111187E+02  0.00000000000E+00 0.  1.
         23    2    1    2    0    0  0.99074391916E+00  0.34584433151E+02 -0.28828529237E+02  0.10238612097E+03  0.91949818268E+02 0.  0.
         24    2    1    2    0    0  0.19395449098E+02 -0.22156510325E+02  0.75340594871E+03  0.75796383732E+03  0.77598716028E+02 0.  0.
        -13    1    4    4    0    0  0.35402870882E+02 -0.98106282748E+01  0.15799596264E+03  0.16221077616E+03  0.00000000000E+00 0.  1.
         14    1    4    4    0    0 -0.16007421784E+02 -0.12345882050E+02  0.59540998608E+03  0.59575306115E+03  0.00000000000E+00 0. -1.
        -13    1    3    3    0    0  0.27100056345E+02  0.16480254415E+02 -0.53476020005E+02  0.62174726015E+02  0.00000000000E+00 0.  1.
         13    1    3    3    0    0 -0.26109312426E+02  0.18104178736E+02  0.24647490768E+02  0.40211394955E+02  0.00000000000E+00 0. -1.
         21    1    1    2  502  501 -0.20386193017E+02 -0.12427922827E+02  0.65108068404E+02  0.69347751967E+02  0.00000000000E+00 0. -1.
<scales pt_clust_5="13000.00000" pt_clust_6="13000.00000" pt_clust_7="13000.00000" pt_clust_8="13000.00000" pt_clust_9="23.87572"></scales>
<clustering>
<clus scale="   23.876">  1  9  2 -1</clus>
<clus scale="   77.599">  5  6 -1 -1</clus>
<clus scale="   84.724">  1  5  2 -1</clus>
<clus scale="   91.950">  7  8 -1 -1</clus>
<clus scale="   23.876">  1  5  2 -1</clus>
</clustering>
</event>
<event>
 9    2  0.2984928E-005  0.1710282E+03  0.7546771E-02  0.1178343E+00
          2   -1    0    0  502    0  0.00000000000E+00  0.00000000000E+00  0.16685867578E+03  0.16685867578E+03  0.00000000000E+00 0. -1.
         -1   -1    0    0    0  501 -0.00000000000E+00 -0.00000000000E+00 -0.29043565399E+03  0.29043565399E+03  0.00000000000E+00 0.  1.
         23    2    1    2    0    0  0.57087353030E+01  0.12958245100E+03 -0.76080709748E+02  0.17544174453E+03  0.90373281796E+02 0.  0.
         24    2    1    2    0    0  0.59499147049E+02 -0.16103559162E+03 -0.76698288964E+02  0.20378770212E+03  0.78576012490E+02 0.  0.
        -11    1    4    4    0    0 -0.73923202724E+01 -0.57955233344E+02 -0.52496044283E+02  0.78544828832E+02  0.00000000000E+00 0.  1.
         12    1    4    4    0    0  0.66891467321E+02 -0.10308035827E+03 -0.24202244682E+02  0.12524287329E+03  0.00000000000E+00 0. -1.
        -13    1    3    3    0    0  0.16014123079E+02  0.88289174588E+02 -0.93376889042E+02  0.12950163665E+03  0.00000000000E+00 0.  1.
         13    1    3    3    0    0 -0.10305387776E+02  0.41293276416E+02  0.17296179295E+02  0.45940107885E+02  0.00000000000E+00 0. -1.
         21    1    1    2  502  501 -0.65207882352E+02  0.31453140613E+02  0.29202020505E+02  0.78064883122E+02  0.00000000000E+00 0.  1.
<scales pt_clust_5="13000.00000" pt_clust_6="13000.00000" pt_clust_7="13000.00000" pt_clust_8="13000.00000" pt_clust_9="72.39729"></scales>
<clustering>
<clus scale="   72.397">  1  9  2 -1</clus>
<clus scale="   78.576">  5  6 -1 -1</clus>
<clus scale="   90.373">  7  8 -1 -1</clus>
<clus scale="  165.098">  1  5  2 -1</clus>
<clus scale="   72.397">  1  5  2 -1</clus>
</clustering>
</event>
<event>
 9    2  0.2984928E-005  0.1361034E+03  0.7546771E-02  0.1221660E+00
          2   -1    0    0  502    0  0.00000000000E+00  0.00000000000E+00  0.10832999897E+03  0.10832999897E+03  0.00000000000E+00 0. -1.
         -1   -1    0    0    0  501 -0.00000000000E+00 -0.00000000000E+00 -0.29891778991E+03  0.29891778991E+03  0.00000000000E+00 0.  1.
         24    2    1    2    0    0  0.10710921308E+03 -0.20648911288E+01 -0.19249398762E+03  0.23395471702E+03  0.78766915924E+02 0.  0.
         23    2    1    2    0    0 -0.84356576231E+02  0.20056586973E+02 -0.30542812784E+02  0.12976926437E+03  0.91590938022E+02 0.  0.
        -13    1    3    3    0    0  0.96514783202E+02 -0.31498416635E+02 -0.14211739762E+03  0.17465568509E+03  0.00000000000E+00 0.  1.
         14    1    3    3    0    0  0.10594429877E+02  0.29433525506E+02 -0.50376589996E+02  0.59299031929E+02  0.00000000000E+00 0. -1.
        -11    1    4    4    0    0 -0.52124751318E+02  0.32210070274E+02  0.23546576342E+02  0.65642361204E+02  0.00000000000E+00 0. -1.
         11    1    4    4    0    0 -0.32231824914E+02 -0.12153483301E+02 -0.54089389126E+02  0.64126903166E+02  0.00000000000E+00 0.  1.
         21    1    1    2  502  501 -0.22752636848E+02 -0.17991695844E+02  0.32449009463E+02  0.43523807485E+02  0.00000000000E+00 0. -1.
<scales pt_clust_5="13000.00000" pt_clust_6="13000.00000" pt_clust_7="13000.00000" pt_clust_8="13000.00000" pt_clust_9="29.00661"></scales>
<clustering>
<clus scale="   29.007">  1  9  2 -1</clus>
<clus scale="   78.767">  5  6 -1 -1</clus>
<clus scale="   91.591">  7  8 -1 -1</clus>
<clus scale="  127.826">  2  5  1 -1</clus>
<clus scale="   29.007">  1  5  2 -1</clus>
</clustering>
</event>
<event>
 9    2  0.2984928E-005  0.1076462E+03  0.7546771E-02  0.1269637E+00
          2   -1    0    0  502    0  0.00000000000E+00  0.00000000000E+00  0.80300549283E+02  0.80300549283E+02  0.00000000000E+00 0. -1.
         -1   -1    0    0    0  501 -0.00000000000E+00 -0.00000000000E+00 -0.44475198842E+03  0.44475198842E+03  0.00000000000E+00 0.  1.
         23    2    1    2    0    0 -0.28729709666E+02  0.28646437912E+02 -0.34419327949E+03  0.35828555848E+03  0.90848847805E+02 0.  0.
         24    2    1    2    0    0  0.35046411977E+02  0.30888984680E+01 -0.54297450519E+02  0.11980203883E+03  0.10082917777E+03 0.  0.
        -13    1    4    4    0    0  0.19238344021E+02  0.32797340941E+02 -0.72261687254E+02  0.81654950237E+02  0.00000000000E+00 0.  1.
         14    1    4    4    0    0  0.15808067956E+02 -0.29708442473E+02  0.17964236735E+02  0.38147088593E+02  0.00000000000E+00 0. -1.
        -11    1    3    3    0    0 -0.59501748548E+02  0.32276490175E+02 -0.21374772718E+03  0.22421043859E+03  0.00000000000E+00 0.  1.
         11    1    3    3    0    0  0.30772038881E+02 -0.36300522622E+01 -0.13044555231E+03  0.13407511989E+03  0.00000000000E+00 0. -1.
         21    1    1    2  502  501 -0.63167023110E+01 -0.31735336381E+02  0.34039290869E+02  0.46964940393E+02  0.00000000000E+00 0. -1.
<scales pt_clust_5="13000.00000" pt_clust_6="13000.00000" pt_clust_7="13000.00000" pt_clust_8="13000.00000" pt_clust_9="32.35788"></scales>
<clustering>
<clus scale="   32.358">  1  9  2 -1</clus>
<clus scale="   90.849">  7  8 -1 -1</clus>
<clus scale="   98.360">  2  7  1 -1</clus>
<clus scale="  100.829">  5  6 -1 -1</clus>
<clus scale="   32.358">  1  5  2 -1</clus>
</clustering>
</event>
<event>
 9    2  0.2984928E-005  0.1564250E+03  0.7546771E-02  0.1194336E+00
         -1   -1    0    0    0  501 -0.00000000000E+00  0.00000000000E+00  0.63906542430E+02  0.63906542430E+02  0.00000000000E+00 0.  1.
          2   -1    0    0  502    0  0.00000000000E+00 -0.00000000000E+00 -0.53382039700E+03  0.53382039700E+03  0.00000000000E+00 0. -1.
         24    2    1    2    0    0 -0.36430446689E+02 -0.12967953104E+03 -0.15146373680E+03  0.21842267534E+03  0.81383311069E+02 0.  0.
         23    2    1    2    0    0  0.57972975068E+02  0.10653784461E+03 -0.17066516745E+03  0.22817514803E+03  0.90697963728E+02 0.  0.
        -13    1    3    3    0    0 -0.44180941165E+02 -0.81312119815E+02 -0.48678792687E+02  0.10456214061E+03  0.00000000000E+00 0.  1.
         14    1    3    3    0    0  0.77504944760E+01 -0.48367411227E+02 -0.10278494411E+03  0.11386053473E+03  0.00000000000E+00 0. -1.
        -11    1    4    4    0    0  0.54944392643E+02  0.51934858813E+02 -0.37867553217E+02  0.84558071344E+02  0.00000000000E+00 0.  1.
         11    1    4    4    0    0  0.30285824251E+01  0.54602985800E+02 -0.13279761423E+03  0.14361707668E+03  0.00000000000E+00 0. -1.
         21    1    1    2  502  501 -0.21542528379E+02  0.23141686429E+02 -0.14778495033E+03  0.15112911607E+03  0.00000000000E+00 0. -1.
<scales pt_clust_5="13000.00000" pt_clust_6="13000.00000" pt_clust_7="13000.00000" pt_clust_8="13000.00000" pt_clust_9="31.61674"></scales>
<clustering>
<clus scale="   31.617">  2  9  1 -1</clus>
<clus scale="   81.383">  5  6 -1 -1</clus>
<clus scale="   90.698">  7  8 -1 -1</clus>
<clus scale="  151.215">  1  5  2 -1</clus>
<clus scale="   31.617">  2  5  1 -1</clus>
</clustering>
</event>
<event>
 9    2  0.2984928E-005  0.1424124E+03  0.7546771E-02  0.1212289E+00
         -3   -1    0    0    0  501 -0.00000000000E+00  0.00000000000E+00  0.15761318831E+03  0.15761318831E+03  0.00000000000E+00 0.  1.
          4   -1    0    0  502    0  0.00000000000E+00 -0.00000000000E+00 -0.82280873556E+03  0.82280873556E+03  0.00000000000E+00 0. -1.
         23    2    1    2    0    0 -0.92623176828E+02  0.65523333891E+02  0.11159113815E+03  0.18368314099E+03  0.91730878108E+02 0.  0.
         24    2    1    2    0    0  0.17929648518E+02 -0.50315320551E+02 -0.51322760043E+03  0.52237807484E+03  0.81382918722E+02 0.  0.
        -11    1    4    4    0    0  0.20474998666E+02 -0.10288440078E+02 -0.31336585903E+02  0.38820860187E+02  0.00000000000E+00 0.  1.
         12    1    4    4    0    0 -0.25453501481E+01 -0.40026880473E+02 -0.48189101452E+03  0.48355721466E+03  0.00000000000E+00 0. -1.
        -11    1    3    3    0    0  0.15671561333E+02  0.22747795016E+02  0.33795966682E+02  0.43648910372E+02  0.00000000000E+00 0. -1.
         11    1    3    3    0    0 -0.10829473816E+03  0.42775538875E+02  0.77795171470E+02  0.14003423061E+03  0.00000000000E+00 0.  1.
         21    1    1    2  502  501  0.74693528310E+02 -0.15208013340E+02 -0.26355908498E+03  0.27436070804E+03  0.00000000000E+00 0. -1.
<scales pt_clust_5="13000.00000" pt_clust_6="13000.00000" pt_clust_7="13000.00000" pt_clust_8="13000.00000" pt_clust_9="76.22602"></scales>
<clustering>
<clus scale="   76.226">  2  9  1 -1</clus>
<clus scale="   81.383">  5  6 -1 -1</clus>
<clus scale="   91.731">  7  8 -1 -1</clus>
<clus scale="  135.978">  2  5  1 -1</clus>
<clus scale="   76.226">  2  5  1 -1</clus>
</clustering>
</event>
<event>
 9    2  0.2984928E-005  0.1136852E+03  0.7546771E-02  0.1263789E+00
         -1   -1    0    0    0  501 -0.00000000000E+00  0.00000000000E+00  0.10276020429E+03  0.10276020429E+03  0.00000000000E+00 0.  1.
          2   -1    0    0  502    0  0.00000000000E+00 -0.00000000000E+00 -0.86992748281E+03  0.86992748281E+03  0.00000000000E+00 0. -1.
         23    2    1    2    0    0 -0.62476037301E+02  0.51517382304E+01  0.56450290980E+02  0.12600532645E+03  0.93599739840E+02 0.  0.
         24    2    1    2    0    0 -0.25465406952E+02  0.38237494130E+02 -0.31092277009E+03  0.32469358641E+03  0.81500694393E+02 0.  0.
        -11    1    4    4    0    0 -0.22786225885E+02 -0.10771207739E+02 -0.28534630923E+02  0.38071723998E+02  0.00000000000E+00 0.  1.
         12    1    4    4    0    0 -0.26791810671E+01  0.49008701870E+02 -0.28238813917E+03  0.28662186241E+03  0.00000000000E+00 0. -1.
        -13    1    3    3    0    0 -0.34302396991E+02 -0.31516912317E+02 -0.74017771230E+01  0.47167324557E+02  0.00000000000E+00 0.  1.
         13    1    3    3    0    0 -0.28173640310E+02  0.36668650547E+02  0.63852068103E+02  0.78838001891E+02  0.00000000000E+00 0. -1.
         21    1    1    2  502  501  0.87941444253E+02 -0.43389232361E+02 -0.51269479941E+03  0.52198877425E+03  0.00000000000E+00 0. -1.
<scales pt_clust_5="13000.00000" pt_clust_6="13000.00000" pt_clust_7="13000.00000" pt_clust_8="13000.00000" pt_clust_9="64.52453"></scales>
<clustering>
<clus scale="   81.501">  5  6 -1 -1</clus>
<clus scale="   93.557">  2  5  1 -1</clus>
<clus scale="   64.525">  2  9  1 -1</clus>
<clus scale="   93.600">  7  8 -1 -1</clus>
<clus scale="   93.557">  2  5  1 -1</clus>
</clustering>
</event>
<event>
 9    2  0.2984928E-005  0.1042184E+03  0.7546771E-02  0.1282117E+00
         -1   -1    0    0    0  501 -0.00000000000E+00  0.00000000000E+00  0.39285369072E+03  0.39285369072E+03  0.00000000000E+00 0.  1.
          2   -1    0    0  502    0  0.00000000000E+00 -0.00000000000E+00 -0.76766170172E+02  0.76766170172E+02  0.00000000000E+00 0. -1.
         24    2    1    2    0    0  0.29033387725E+02  0.45849315548E+02  0.32160069694E+03  0.33290949169E+03  0.66757951163E+02 0.  0.
         23    2    1    2    0    0 -0.40907014590E+02 -0.26597794811E+02  0.18498715633E+02  0.10372287121E+03  0.89640420569E+02 0.  0.
        -13    1    3    3    0    0  0.25434693942E+02 -0.77821315716E+01  0.56950083122E+02  0.62855367275E+02  0.00000000000E+00 0.  1.
         14    1    3    3    0    0  0.35986937835E+01  0.53631447120E+02  0.26465061382E+03  0.27005412442E+03  0.00000000000E+00 0. -1.
        -11    1    4    4    0    0 -0.24612793119E+02  0.24813241963E+02  0.32796883473E+02  0.47928301945E+02  0.00000000000E+00 0.  1.
         11    1    4    4    0    0 -0.16294221472E+02 -0.51411036774E+02 -0.14298167840E+02  0.55794569262E+02  0.00000000000E+00 0. -1.
         21    1    1    2  502  501  0.11873626865E+02 -0.19251520737E+02 -0.24011892025E+02  0.32987497999E+02  0.00000000000E+00 0.  1.
<scales pt_clust_5="13000.00000" pt_clust_6="13000.00000" pt_clust_7="13000.00000" pt_clust_8="13000.00000" pt_clust_9="22.61867"></scales>
<clustering>
<clus scale="   22.619">  2  9  1 -1</clus>
<clus scale="   66.758">  5  6 -1 -1</clus>
<clus scale="   85.339">  1  5  2 -1</clus>
<clus scale="   89.640">  7  8 -1 -1</clus>
<clus scale="   22.619">  2  5  1 -1</clus>
</clustering>
</event>
<event>
 9    2  0.2984928E-005  0.2160438E+03  0.7546771E-02  0.1137530E+00
          2   -1    0    0  502    0  0.00000000000E+00  0.00000000000E+00  0.82528232464E+03  0.82528232464E+03  0.00000000000E+00 0. -1.
         -1   -1    0    0    0  501 -0.00000000000E+00 -0.00000000000E+00 -0.78646613796E+02  0.78646613796E+02  0.00000000000E+00 0.  1.
         23    2    1    2    0    0  0.67644632273E+01  0.19221447782E+03  0.21058976901E+03  0.29896341623E+03  0.89659968685E+02 0.  0.
         24    2    1    2    0    0 -0.42408315032E+02 -0.20000533393E+03  0.33567901105E+03  0.40130382093E+03  0.81017031894E+02 0.  0.
        -13    1    4    4    0    0 -0.21664845086E+02 -0.14422232856E+03  0.16331840258E+03  0.21895740725E+03  0.00000000000E+00 0.  1.
         14    1    4    4    0    0 -0.20743469946E+02 -0.55783005367E+02  0.17236060847E+03  0.18234641369E+03  0.00000000000E+00 0. -1.
        -13    1    3    3    0    0  0.46631829470E+02  0.86943956897E+02  0.84118324597E+02  0.12965211797E+03  0.00000000000E+00 0. -1.
         13    1    3    3    0    0 -0.39867366243E+02  0.10527052093E+03  0.12647144441E+03  0.16931129826E+03  0.00000000000E+00 0.  1.
         21    1    1    2  502  501  0.35643851805E+02  0.77908561047E+01  0.20036693079E+03  0.20366170128E+03  0.00000000000E+00 0. -1.
<scales pt_clust_5="13000.00000" pt_clust_6="13000.00000" pt_clust_7="13000.00000" pt_clust_8="13000.00000" pt_clust_9="36.48536"></scales>
<clustering>
<clus scale="   36.485">  1  9  2 -1</clus>
<clus scale="   81.017">  5  6 -1 -1</clus>
<clus scale="   89.660">  7  8 -1 -1</clus>
<clus scale="  212.602">  1  5  2 -1</clus>
<clus scale="   36.485">  1  5  2 -1</clus>
</clustering>
</event>
<event>
 9    2  0.2984928E-005  0.2424850E+03  0.7546771E-02  0.1118821E+00
         -1   -1    0    0    0  501 -0.00000000000E+00  0.00000000000E+00  0.69133600766E+03  0.69133600766E+03  0.00000000000E+00 0.  1.
          2   -1    0    0  502    0  0.00000000000E+00 -0.00000000000E+00 -0.16699921763E+03  0.16699921763E+03  0.00000000000E+00 0. -1.
         23    2    1    2    0    0  0.13885582085E+03 -0.17198706442E+03  0.52448092998E+03  0.57636669535E+03  0.90872615685E+02 0.  0.
         24    2    1    2    0    0 -0.15267754429E+03  0.18803541049E+03  0.15897776079E+02  0.25539913929E+03  0.79424385012E+02 0.  0.
        -11    1    4    4    0    0 -0.25841376308E+02  0.92518879585E+02  0.87827096411E+01  0.96460643776E+02  0.00000000000E+00 0.  1.
         12    1    4    4    0    0 -0.12683616798E+03  0.95516530910E+02  0.71150664375E+01  0.15893849551E+03  0.00000000000E+00 0. -1.
        -11    1    3    3    0    0  0.13853853009E+03 -0.14501944146E+03  0.50419436843E+03  0.54261913335E+03  0.00000000000E+00 0.  1.
         11    1    3    3    0    0  0.31729076679E+00 -0.26967622957E+02  0.20286561552E+02  0.33747562001E+02  0.00000000000E+00 0. -1.
         21    1    1    2  502  501  0.13821723432E+02 -0.16048346075E+02 -0.16041916022E+02  0.26569390659E+02  0.00000000000E+00 0. -1.
<scales pt_clust_5="13000.00000" pt_clust_6="13000.00000" pt_clust_7="13000.00000" pt_clust_8="13000.00000" pt_clust_9="21.17993"></scales>
<clustering>
<clus scale="   21.180">  2  9  1 -1</clus>
<clus scale="   79.424">  5  6 -1 -1</clus>
<clus scale="   90.873">  7  8 -1 -1</clus>
<clus scale="  238.431">  2  5  1 -1</clus>
<clus scale="   21.180">  2  5  1 -1</clus>
</clustering>
</event>
<event>
 9    2  0.2984928E-005  0.1216530E+03  0.7546771E-02  0.1242444E+00
         -1   -1    0    0    0  501 -0.00000000000E+00  0.00000000000E+00  0.58084582812E+02  0.58084582812E+02  0.00000000000E+00 0.  1.
          2   -1    0    0  502    0  0.00000000000E+00 -0.00000000000E+00 -0.70447806224E+03  0.70447806224E+03  0.00000000000E+00 0. -1.
         24    2    1    2    0    0 -0.48215443733E+02  0.70031182501E+02 -0.21953156336E+02  0.12185597043E+03  0.84485743880E+02 0.  0.
         23    2    1    2    0    0  0.38706288620E+02 -0.33259796091E+02 -0.48892572883E+03  0.49997016853E+03  0.91199837130E+02 0.  0.
        -11    1    3    3    0    0 -0.72743753832E+02  0.52012992078E+02 -0.16149877275E+02  0.90872567931E+02  0.00000000000E+00 0.  1.
         12    1    3    3    0    0  0.24528310099E+02  0.18018190424E+02 -0.58032790612E+01  0.30983402497E+02  0.00000000000E+00 0. -1.
        -13    1    4    4    0    0 -0.11280078939E+01 -0.56971577937E+02 -0.30610333174E+03  0.31136198033E+03  0.00000000000E+00 0. -1.
         13    1    4    4    0    0  0.39834296514E+02  0.23711781846E+02 -0.18282239710E+03  0.18860818820E+03  0.00000000000E+00 0.  1.
         21    1    1    2  502  501  0.95091551132E+01 -0.36771386411E+02 -0.13551459426E+03  0.14073650609E+03  0.00000000000E+00 0. -1.
<scales pt_clust_5="13000.00000" pt_clust_6="13000.00000" pt_clust_7="13000.00000" pt_clust_8="13000.00000" pt_clust_9="37.98103"></scales>
<clustering>
<clus scale="   37.981">  2  9  1 -1</clus>
<clus scale="   84.486">  5  6 -1 -1</clus>
<clus scale="   91.200">  7  8 -1 -1</clus>
<clus scale="  116.704">  1  5  2 -1</clus>
<clus scale="   37.981">  2  5  1 -1</clus>
</clustering>
</event>
<event>
 9    2  0.2984928E-005  0.9344205E+02  0.7546771E-02  0.1300694E+00
          2   -1    0    0  502    0  0.00000000000E+00  0.00000000000E+00  0.57876959089E+02  0.57876959089E+02  0.00000000000E+00 0. -1.
         -1   -1    0    0    0  501 -0.00000000000E+00 -0.00000000000E+00 -0.21108127147E+03  0.21108127147E+03  0.00000000000E+00 0.  1.
         23    2    1    2    0    0 -0.53177978685E+01 -0.22967023425E+02 -0.13342936287E+03  0.16349687591E+03  0.91499018667E+02 0.  0.
         24    2    1    2    0    0 -0.94963419476E+01  0.91787456492E+01 -0.10581142376E+02  0.83232962173E+02  0.81494389598E+02 0.  0.
        -11    1    4    4    0    0 -0.30545089504E+02  0.88992616887E+01 -0.37424385005E+02  0.49120097154E+02  0.00000000000E+00 0.  1.
         12    1    4    4    0    0  0.21048747556E+02  0.27948396052E+00  0.26843242629E+02  0.34112865019E+02  0.00000000000E+00 0. -1.
        -11    1    3    3    0    0  0.32205162246E+02 -0.13843714210E+02 -0.13602221901E+02  0.37601081621E+02  0.00000000000E+00 0. -1.
         11    1    3    3    0    0 -0.37522960114E+02 -0.91233092148E+01 -0.11982714097E+03  0.12589579429E+03  0.00000000000E+00 0.  1.
         21    1    1    2  502  501  0.14814139816E+02  0.13788277776E+02 -0.91938071375E+01  0.22228392479E+02  0.00000000000E+00 0. -1.
<scales pt_clust_5="13000.00000" pt_clust_6="13000.00000" pt_clust_7="13000.00000" pt_clust_8="13000.00000" pt_clust_9="20.23797"></scales>
<clustering>
<clus scale="   20.238">  1  9  2 -1</clus>
<clus scale="   81.494">  5  6 -1 -1</clus>
<clus scale="   83.670">  1  5  2 -1</clus>
<clus scale="   91.499">  7  8 -1 -1</clus>
<clus scale="   20.238">  1  5  2 -1</clus>
</clustering>
</event>
<event>
 9    2  0.2984928E-005  0.2716331E+03  0.7546771E-02  0.1101150E+00
          2   -1    0    0  502    0  0.00000000000E+00  0.00000000000E+00  0.18052167377E+04  0.18052167377E+04  0.00000000000E+00 0. -1.
         -1   -1    0    0    0  501 -0.00000000000E+00 -0.00000000000E+00 -0.11300027726E+03  0.11300027726E+03  0.00000000000E+00 0.  1.
         23    2    1    2    0    0 -0.94397893890E+02 -0.23907133076E+03  0.88626999291E+02  0.28780457584E+03  0.94396320403E+02 0.  0.
         24    2    1    2    0    0  0.11551905138E+03  0.20805354071E+03  0.14884388741E+04  0.15093014805E+04  0.76874899386E+02 0.  0.
        -11    1    4    4    0    0 -0.10047664910E+02  0.25048498452E+02  0.12142044694E+03  0.12438371188E+03  0.00000000000E+00 0.  1.
         12    1    4    4    0    0  0.12556671629E+03  0.18300504225E+03  0.13670184271E+04  0.13849177686E+04  0.00000000000E+00 0. -1.
        -13    1    3    3    0    0 -0.81592276825E+02 -0.87854972714E+02  0.57123748407E+02  0.13281159023E+03  0.00000000000E+00 0. -1.
         13    1    3    3    0    0 -0.12805617065E+02 -0.15121635805E+03  0.31503250884E+02  0.15499298561E+03  0.00000000000E+00 0.  1.
         21    1    1    2  502  501 -0.21121157487E+02  0.31017790057E+02  0.11515058705E+03  0.12111095859E+03  0.00000000000E+00 0. -1.
<scales pt_clust_5="13000.00000" pt_clust_6="13000.00000" pt_clust_7="13000.00000" pt_clust_8="13000.00000" pt_clust_9="37.52608"></scales>
<clustering>
<clus scale="   37.526">  1  9  2 -1</clus>
<clus scale="   76.875">  5  6 -1 -1</clus>
<clus scale="   94.396">  7  8 -1 -1</clus>
<clus scale="  266.052">  1  5  2 -1</clus>
<clus scale="   37.526">  1  5  2 -1</clus>
</clustering>
</event>
<event>
 9    2  0.2984928E-005  0.1011192E+03  0.7546771E-02  0.1282482E+00
          2   -1    0    0  502    0  0.00000000000E+00  0.00000000000E+00  0.37775025125E+02  0.37775025125E+02  0.00000000000E+00 0. -1.
         -1   -1    0    0    0  501 -0.00000000000E+00 -0.00000000000E+00 -0.52268097528E+03  0.52268097528E+03  0.00000000000E+00 0.  1.
         24    2    1    2    0    0 -0.20535961896E+01 -0.25969590172E+02 -0.30808128578E+03  0.31981986358E+03  0.81804826399E+02 0.  0.
         23    2    1    2    0    0  0.29522828334E+01  0.48578052197E+02 -0.55639106645E+02  0.11735641588E+03  0.91149739613E+02 0.  0.
        -11    1    3    3    0    0 -0.73689773262E+01 -0.52028527840E+02 -0.25603930239E+03  0.26137596275E+03  0.00000000000E+00 0.  1.
         12    1    3    3    0    0  0.53153811365E+01  0.26058937668E+02 -0.52041983389E+02  0.58443900828E+02  0.00000000000E+00 0. -1.
        -11    1    4    4    0    0 -0.41075550039E+02  0.22915020830E+02 -0.45410249317E+02  0.65378817164E+02  0.00000000000E+00 0.  1.
         11    1    4    4    0    0  0.44027832873E+02  0.25663031366E+02 -0.10228857327E+02  0.51977598719E+02  0.00000000000E+00 0. -1.
         21    1    1    2  502  501 -0.89868664377E+00 -0.22608462024E+02 -0.12118555773E+03  0.12327972094E+03  0.00000000000E+00 0.  1.
<scales pt_clust_5="13000.00000" pt_clust_6="13000.00000" pt_clust_7="13000.00000" pt_clust_8="13000.00000" pt_clust_9="22.62632"></scales>
<clustering>
<clus scale="   22.626">  2  9  1 -1</clus>
<clus scale="   81.805">  5  6 -1 -1</clus>
<clus scale="   91.150">  7  8 -1 -1</clus>
<clus scale="   92.784">  2  5  1 -1</clus>
<clus scale="  101.119">  1  5  2 -1</clus>
</clustering>
</event>
<event>
 9    2  0.2984928E-005  0.1243676E+03  0.7546771E-02  0.1238997E+00
          2   -1    0    0  502    0  0.00000000000E+00  0.00000000000E+00  0.58723340982E+02  0.58723340982E+02  0.00000000000E+00 0. -1.
         -1   -1    0    0    0  501 -0.00000000000E+00 -0.00000000000E+00 -0.30807805551E+03  0.30807805551E+03  0.00000000000E+00 0.  1.
         23    2    1    2    0    0 -0.37325439268E+02  0.77926569582E+02 -0.15625928215E+03  0.20040776846E+03  0.90997646891E+02 0.  0.
         24    2    1    2    0    0  0.53542887890E+02 -0.64620495736E+02 -0.74054287325E+02  0.13806303598E+03  0.80837584817E+02 0.  0.
        -11    1    4    4    0    0 -0.21122378257E+02 -0.21735067635E+02 -0.16691092832E+02  0.34600008790E+02  0.00000000000E+00 0.  1.
         12    1    4    4    0    0  0.74665266147E+02 -0.42885428101E+02 -0.57363194493E+02  0.10346302719E+03  0.00000000000E+00 0. -1.
        -11    1    3    3    0    0 -0.57065747519E+01  0.39586922198E+02 -0.14368214493E+03  0.14914505750E+03  0.00000000000E+00 0.  1.
         11    1    3    3    0    0 -0.31618864516E+02  0.38339647384E+02 -0.12577137217E+02  0.51262710964E+02  0.00000000000E+00 0. -1.
         21    1    1    2  502  501 -0.16217448622E+02 -0.13306073846E+02 -0.19041145049E+02  0.28330592048E+02  0.00000000000E+00 0. -1.
<scales pt_clust_5="13000.00000" pt_clust_6="13000.00000" pt_clust_7="13000.00000" pt_clust_8="13000.00000" pt_clust_9="20.97754"></scales>
<clustering>
<clus scale="   20.978">  1  9  2 -1</clus>
<clus scale="   80.838">  5  6 -1 -1</clus>
<clus scale="   90.998">  7  8 -1 -1</clus>
<clus scale="  117.139">  1  5  2 -1</clus>
<clus scale="   20.978">  1  5  2 -1</clus>
</clustering>
</event>
<event>
 9    2  0.2984928E-005  0.1203374E+03  0.7546771E-02  0.1246090E+00
         -1   -1    0    0    0  501 -0.00000000000E+00  0.00000000000E+00  0.78326288234E+02  0.78326288234E+02  0.00000000000E+00 0.  1.
          2   -1    0    0  502    0  0.00000000000E+00 -0.00000000000E+00 -0.64958890629E+03  0.64958890629E+03  0.00000000000E+00 0. -1.
         23    2    1    2    0    0  0.35212326024E+02  0.66247424405E+02  0.84096999739E+01  0.11785332656E+03  0.90498919240E+02 0.  0.
         24    2    1    2    0    0 -0.65446360390E+02 -0.98860342505E+02 -0.48414915640E+03  0.50469406610E+03  0.79114482284E+02 0.  0.
        -11    1    4    4    0    0 -0.21126129287E+02  0.10947744961E+02 -0.94454856657E+02  0.97405782192E+02  0.00000000000E+00 0.  1.
         12    1    4    4    0    0 -0.44320231103E+02 -0.10980808747E+03 -0.38969429974E+03  0.40728828391E+03  0.00000000000E+00 0. -1.
        -13    1    3    3    0    0  0.29744522017E+02 -0.31415940228E+01  0.32527951533E+02  0.44189069168E+02  0.00000000000E+00 0.  1.
         13    1    3    3    0    0  0.54678040072E+01  0.69389018428E+02 -0.24118251559E+02  0.73664257393E+02  0.00000000000E+00 0. -1.
         21    1    1    2  502  501  0.30234034366E+02  0.32612918100E+02 -0.95523161629E+02  0.10536780186E+03  0.00000000000E+00 0.  1.
<scales pt_clust_5="13000.00000" pt_clust_6="13000.00000" pt_clust_7="13000.00000" pt_clust_8="13000.00000" pt_clust_9="44.47133"></scales>
<clustering>
<clus scale="   44.471">  2  9  1 -1</clus>
<clus scale="   79.114">  5  6 -1 -1</clus>
<clus scale="   90.499">  7  8 -1 -1</clus>
<clus scale="  112.027">  2  5  1 -1</clus>
<clus scale="   44.471">  2  5  1 -1</clus>
</clustering>
</event>
<event>
 9    2  0.2984928E-005  0.9319198E+02  0.7546771E-02  0.1302326E+00
         -3   -1    0    0    0  501 -0.00000000000E+00  0.00000000000E+00  0.10161336826E+03  0.10161336826E+03  0.00000000000E+00 0.  1.
          4   -1    0    0  502    0  0.00000000000E+00 -0.00000000000E+00 -0.37841616573E+03  0.37841616573E+03  0.00000000000E+00 0. -1.
         23    2    1    2    0    0  0.32853021585E+01 -0.42887157861E+01  0.63358379671E+02  0.11253804706E+03  0.92851179142E+02 0.  0.
         24    2    1    2    0    0 -0.39231911663E+02  0.16527944642E+02 -0.29221038072E+03  0.30632584023E+03  0.81463476166E+02 0.  0.
        -13    1    4    4    0    0 -0.26645047138E+01 -0.25875370755E+02 -0.38188620582E+02  0.46206115818E+02  0.00000000000E+00 0.  1.
         14    1    4    4    0    0 -0.36567406950E+02  0.42403315397E+02 -0.25402176013E+03  0.26011972441E+03  0.00000000000E+00 0. -1.
        -11    1    3    3    0    0 -0.33454433164E+02 -0.16800335744E+02  0.63514378371E+02  0.73726024166E+02  0.00000000000E+00 0.  1.
         11    1    3    3    0    0  0.36739735323E+02  0.12511619958E+02 -0.15599869976E+00  0.38812022894E+02  0.00000000000E+00 0. -1.
         21    1    1    2  502  501  0.35946609505E+02 -0.12239228856E+02 -0.47950796423E+02  0.61165646694E+02  0.00000000000E+00 0. -1.
<scales pt_clust_5="13000.00000" pt_clust_6="13000.00000" pt_clust_7="13000.00000" pt_clust_8="13000.00000" pt_clust_9="37.97311"></scales>
<clustering>
<clus scale="   37.973">  2  9  1 -1</clus>
<clus scale="   81.463">  5  6 -1 -1</clus>
<clus scale="   81.852">  2  5  1 -1</clus>
<clus scale="   92.851">  7  8 -1 -1</clus>
<clus scale="   37.973">  2  5  1 -1</clus>
</clustering>
</event>
<event>
 9    2  0.2984928E-005  0.1212795E+03  0.7546771E-02  0.1243803E+00
          2   -1    0    0  502    0  0.00000000000E+00  0.00000000000E+00  0.11616099373E+03  0.11616099373E+03  0.00000000000E+00 0. -1.
         -1   -1    0    0    0  501 -0.00000000000E+00 -0.00000000000E+00 -0.31140123201E+03  0.31140123201E+03  0.00000000000E+00 0.  1.
         23    2    1    2    0    0  0.47888004348E+02 -0.76035068629E+02 -0.23958743964E+03  0.27145968193E+03  0.90629051939E+02 0.  0.
         24    2    1    2    0    0 -0.90703104061E+00  0.47846981932E+02  0.33514642410E+02  0.10025342190E+03  0.81470000377E+02 0.  0.
        -13    1    4    4    0    0 -0.33990318224E+02  0.30143527807E+02  0.41903210310E+02  0.61804959639E+02  0.00000000000E+00 0.  1.
         14    1    4    4    0    0  0.33083287184E+02  0.17703454125E+02 -0.83885678999E+01  0.38448462261E+02  0.00000000000E+00 0. -1.
        -11    1    3    3    0    0  0.54531438716E+02 -0.61655323748E+01 -0.13257853276E+03  0.14348783554E+03  0.00000000000E+00 0.  1.
         11    1    3    3    0    0 -0.66434343675E+01 -0.69869536254E+02 -0.10700890688E+03  0.12797184639E+03  0.00000000000E+00 0. -1.
         21    1    1    2  502  501 -0.46980973308E+02  0.28188086697E+02  0.10832558952E+02  0.55849121909E+02  0.00000000000E+00 0. -1.
<scales pt_clust_5="13000.00000" pt_clust_6="13000.00000" pt_clust_7="13000.00000" pt_clust_8="13000.00000" pt_clust_9="54.78850"></scales>
<clustering>
<clus scale="   54.789">  1  9  2 -1</clus>
<clus scale="   81.470">  5  6 -1 -1</clus>
<clus scale="   90.629">  7  8 -1 -1</clus>
<clus scale="  114.597">  1  5  2 -1</clus>
<clus scale="   54.789">  1  5  2 -1</clus>
</clustering>
</event>
<event>
 9    2  0.2984928E-005  0.1109082E+03  0.7546771E-02  0.1266374E+00
          4   -1    0    0  502    0  0.00000000000E+00  0.00000000000E+00  0.16675659517E+03  0.16675659517E+03  0.00000000000E+00 0. -1.
         -3   -1    0    0    0  501 -0.00000000000E+00 -0.00000000000E+00 -0.49291805061E+03  0.49291805061E+03  0.00000000000E+00 0.  1.
         23    2    1    2    0    0 -0.68343574673E+02  0.19591979593E+02 -0.45101435083E+03  0.46479440613E+03  0.86978189530E+02 0.  0.
         24    2    1    2    0    0  0.36429106653E+02  0.27157441847E+02  0.10990082697E+03  0.13633447956E+03  0.66665523985E+02 0.  0.
        -11    1    4    4    0    0  0.40539216957E+02  0.32447761369E+02  0.38553870769E+02  0.64673690792E+02  0.00000000000E+00 0.  1.
         12    1    4    4    0    0 -0.41101103045E+01 -0.52903195213E+01  0.71346956201E+02  0.71660788766E+02  0.00000000000E+00 0. -1.
        -11    1    3    3    0    0 -0.35479016943E+02 -0.33557595525E+02 -0.22926023937E+03  0.23440377603E+03  0.00000000000E+00 0.  1.
         11    1    3    3    0    0 -0.32864557731E+02  0.53149575118E+02 -0.22175411146E+03  0.23039063010E+03  0.00000000000E+00 0. -1.
         21    1    1    2  502  501  0.31914468021E+02 -0.46749421440E+02  0.14952068418E+02  0.58545760086E+02  0.00000000000E+00 0.  1.
<scales pt_clust_5="13000.00000" pt_clust_6="13000.00000" pt_clust_7="13000.00000" pt_clust_8="13000.00000" pt_clust_9="56.60425"></scales>
<clustering>
<clus scale="   56.604">  1  9  2 -1</clus>
<clus scale="   66.666">  5  6 -1 -1</clus>
<clus scale="   86.978">  7  8 -1 -1</clus>
<clus scale="   95.811">  1  5  2 -1</clus>
<clus scale="   56.604">  1  5  2 -1</clus>
</clustering>
</event>
<event>
 9    2  0.2984928E-005  0.1144156E+03  0.7546771E-02  0.1253785E+00
         -1   -1    0    0    0  501 -0.00000000000E+00  0.00000000000E+00  0.25101910315E+03  0.25101910315E+03  0.00000000000E+00 0.  1.
          2   -1    0    0  502    0  0.00000000000E+00 -0.00000000000E+00 -0.14321211598E+03  0.14321211598E+03  0.00000000000E+00 0. -1.
         23    2    1    2    0    0  0.41869113109E+02 -0.59243207547E+02  0.19521839329E+03  0.22504126768E+03  0.85267642216E+02 0.  0.
         24    2    1    2    0    0 -0.60454681061E+02  0.42373677250E+02 -0.86213807659E+02  0.14406150879E+03  0.88716406030E+02 0.  0.
        -11    1    4    4    0    0 -0.67853411740E+02  0.24900196805E+01 -0.28778594454E+02  0.73746140113E+02  0.00000000000E+00 0.  1.
         12    1    4    4    0    0  0.73987306793E+01  0.39883657569E+02 -0.57435213205E+02  0.70315368681E+02  0.00000000000E+00 0. -1.
        -11    1    3    3    0    0  0.28959593433E+02 -0.81012028491E+02  0.14040122177E+03  0.16466362649E+03  0.00000000000E+00 0.  1.
         11    1    3    3    0    0  0.12909519676E+02  0.21768820944E+02  0.54817171513E+02  0.60377641195E+02  0.00000000000E+00 0. -1.
         21    1    1    2  502  501  0.18585567952E+02  0.16869530297E+02 -0.11975984585E+01  0.25128442662E+02  0.00000000000E+00 0. -1.
<scales pt_clust_5="13000.00000" pt_clust_6="13000.00000" pt_clust_7="13000.00000" pt_clust_8="13000.00000" pt_clust_9="25.09989"></scales>
<clustering>
<clus scale="   25.100">  2  9  1 -1</clus>
<clus scale="   85.268">  7  8 -1 -1</clus>
<clus scale="   88.716">  5  6 -1 -1</clus>
<clus scale="  111.763">  1  7  2 -1</clus>
<clus scale="   25.100">  2  5  1 -1</clus>
</clustering>
</event>
<event>
 9    2  0.2984928E-005  0.1250870E+03  0.7546771E-02  0.1235419E+00
          2   -1    0    0  502    0  0.00000000000E+00  0.00000000000E+00  0.25948160620E+03  0.25948160620E+03  0.00000000000E+00 0. -1.
         -1   -1    0    0    0  501 -0.00000000000E+00 -0.00000000000E+00 -0.12494134146E+03  0.12494134146E+03  0.00000000000E+00 0.  1.
         23    2    1    2    0    0  0.54506283845E+01 -0.76262844083E+02 -0.51277762512E+00  0.12379374983E+03  0.97359636491E+02 0.  0.
         24    2    1    2    0    0  0.16361429208E+02  0.76484546567E+02  0.23388428440E+01  0.12613431405E+03  0.98928321356E+02 0.  0.
        -13    1    4    4    0    0  0.48520017769E+02  0.59853399811E+02 -0.24739284432E+02  0.80923752925E+02  0.00000000000E+00 0.  1.
         14    1    4    4    0    0 -0.32158588561E+02  0.16631146756E+02  0.27078127276E+02  0.45210561127E+02  0.00000000000E+00 0. -1.
        -13    1    3    3    0    0 -0.14948542068E+01 -0.52658974130E+02  0.46799872656E+02  0.70465808915E+02  0.00000000000E+00 0. -1.
         13    1    3    3    0    0  0.69454825914E+01 -0.23603869953E+02 -0.47312650281E+02  0.53327940911E+02  0.00000000000E+00 0.  1.
         21    1    1    2  502  501 -0.21812057593E+02 -0.22170248392E+00  0.13271419953E+03  0.13449488379E+03  0.00000000000E+00 0. -1.
<scales pt_clust_5="13000.00000" pt_clust_6="13000.00000" pt_clust_7="13000.00000" pt_clust_8="13000.00000" pt_clust_9="21.81318"></scales>
<clustering>
<clus scale="   21.813">  1  9  2 -1</clus>
<clus scale="   97.360">  7  8 -1 -1</clus>
<clus scale="   98.928">  5  6 -1 -1</clus>
<clus scale="  123.850">  2  7  1 -1</clus>
<clus scale="   21.813">  1  5  2 -1</clus>
</clustering>
</event>
<event>
 9    2  0.2984928E-005  0.1724770E+03  0.7546771E-02  0.1200515E+00
          2   -1    0    0  502    0  0.00000000000E+00  0.00000000000E+00  0.67836111485E+03  0.67836111485E+03  0.00000000000E+00 0. -1.
         -1   -1    0    0    0  501 -0.00000000000E+00 -0.00000000000E+00 -0.10624597037E+03  0.10624597037E+03  0.00000000000E+00 0.  1.
         23    2    1    2    0    0 -0.13238980324E+03  0.23970088901E+02  0.27917153199E+02  0.16425152332E+03  0.89986500691E+02 0.  0.
         24    2    1    2    0    0 -0.59739056077E+02 -0.30135450972E+02  0.25202582835E+03  0.27061839907E+03  0.72390603922E+02 0.  0.
        -13    1    4    4    0    0 -0.50201542957E+02  0.13821599480E+02  0.15859817795E+03  0.16692697079E+03  0.00000000000E+00 0.  1.
         14    1    4    4    0    0 -0.95375131209E+01 -0.43957050452E+02  0.93427650397E+02  0.10369142828E+03  0.00000000000E+00 0. -1.
        -11    1    3    3    0    0 -0.75942085890E+02 -0.27256876955E+02 -0.58144403546E+01  0.80894656605E+02  0.00000000000E+00 0.  1.
         11    1    3    3    0    0 -0.56447717347E+02  0.51226965856E+02  0.33731593553E+02  0.83356866713E+02  0.00000000000E+00 0. -1.
         21    1    1    2  502  501  0.19212885931E+03  0.61653620707E+01  0.29217216293E+03  0.34973716283E+03  0.00000000000E+00 0. -1.
<scales pt_clust_5="13000.00000" pt_clust_6="13000.00000" pt_clust_7="13000.00000" pt_clust_8="13000.00000" pt_clust_9="147.14196"></scales>
<clustering>
<clus scale="   72.391">  5  6 -1 -1</clus>
<clus scale="   89.987">  7  8 -1 -1</clus>
<clus scale="   98.576">  1  5  2 -1</clus>
<clus scale="  147.142">  1  9  2 -1</clus>
<clus scale="   98.576">  1  5  2 -1</clus>
</clustering>
</event>
<event>
 9    2  0.2984928E-005  0.1070581E+03  0.7546771E-02  0.1272469E+00
         -1   -1    0    0    0  501 -0.00000000000E+00  0.00000000000E+00  0.53486342672E+02  0.53486342672E+02  0.00000000000E+00 0.  1.
          2   -1    0    0  502    0  0.00000000000E+00 -0.00000000000E+00 -0.29886985205E+03  0.29886985205E+03  0.00000000000E+00 0. -1.
         23    2    1    2    0    0  0.58078563203E+02 -0.13574927916E+02 -0.38964212195E+02  0.11689283754E+03  0.92673229487E+02 0.  0.
         24    2    1    2    0    0 -0.42444822347E+02 -0.40184012117E+01 -0.15072189119E+03  0.17499733270E+03  0.78033758564E+02 0.  0.
        -11    1    4    4    0    0 -0.17175538190E+02  0.11354722391E+02  0.81021264051E+00  0.20605467168E+02  0.00000000000E+00 0.  1.
         12    1    4    4    0    0 -0.25269284157E+02 -0.15373123602E+02 -0.15153210383E+03  0.15439186553E+03  0.00000000000E+00 0. -1.
        -13    1    3    3    0    0  0.17683297916E+01  0.22274257864E+02 -0.44618261246E+02  0.49900488878E+02  0.00000000000E+00 0.  1.
         13    1    3    3    0    0  0.56310233411E+02 -0.35849185780E+02  0.56540490510E+01  0.66992348657E+02  0.00000000000E+00 0. -1.
         21    1    1    2  502  501 -0.15633740856E+02  0.17593329127E+02 -0.55697405993E+02  0.60466024488E+02  0.00000000000E+00 0. -1.
<scales pt_clust_5="13000.00000" pt_clust_6="13000.00000" pt_clust_7="13000.00000" pt_clust_8="13000.00000" pt_clust_9="23.53591"></scales>
<clustering>
<clus scale="   23.536">  2  9  1 -1</clus>
<clus scale="   78.034">  5  6 -1 -1</clus>
<clus scale="   92.673">  7  8 -1 -1</clus>
<clus scale="   94.670">  2  5  1 -1</clus>
<clus scale="   23.536">  2  5  1 -1</clus>
</clustering>
</event>
<event>
 9    2  0.2984928E-005  0.2379250E+03  0.7546771E-02  0.1121632E+00
         -1   -1    0    0    0  501 -0.00000000000E+00  0.00000000000E+00  0.19270640396E+03  0.19270640396E+03  0.00000000000E+00 0.  1.
          2   -1    0    0  502    0  0.00000000000E+00 -0.00000000000E+00 -0.35113963689E+03  0.35113963689E+03  0.00000000000E+00 0. -1.
         24    2    1    2    0    0 -0.20741736820E+03  0.47441942827E+02 -0.88891980204E+00  0.22889412681E+03  0.84374335778E+02 0.  0.
         23    2    1    2    0    0  0.22906058732E+03 -0.41750963441E+02 -0.14757145009E+03  0.29045142063E+03  0.91503001350E+02 0.  0.
        -13    1    3    3    0    0 -0.19381878852E+03  0.15895577629E+02 -0.27832712262E+01  0.19448943100E+03  0.00000000000E+00 0.  1.
         14    1    3    3    0    0 -0.13598579685E+02  0.31546365197E+02  0.18943514242E+01  0.34404695812E+02  0.00000000000E+00 0. -1.
        -11    1    4    4    0    0  0.70149603922E+02 -0.52511884628E+02 -0.30514226187E+02  0.92787838413E+02  0.00000000000E+00 0.  1.
         11    1    4    4    0    0  0.15891098340E+03  0.10760921187E+02 -0.11705722390E+03  0.19766358222E+03  0.00000000000E+00 0. -1.
         21    1    1    2  502  501 -0.21643219119E+02 -0.56909793861E+01 -0.99728630435E+01  0.24500493413E+02  0.00000000000E+00 0.  1.
<scales pt_clust_5="13000.00000" pt_clust_6="13000.00000" pt_clust_7="13000.00000" pt_clust_8="13000.00000" pt_clust_9="22.37892"></scales>
<clustering>
<clus scale="   22.379">  2  9  1 -1</clus>
<clus scale="   84.374">  5  6 -1 -1</clus>
<clus scale="   91.503">  7  8 -1 -1</clus>
<clus scale="  235.275">  1  5  2 -1</clus>
<clus scale="   22.379">  2  5  1 -1</clus>
</clustering>
</event>
<event>
 9    2  0.2984928E-005  0.1153687E+03  0.7546771E-02  0.1255882E+00
         -1   -1    0    0    0  501 -0.00000000000E+00  0.00000000000E+00  0.11139514691E+03  0.11139514691E+03  0.00000000000E+00 0.  1.
          2   -1    0    0  502    0  0.00000000000E+00 -0.00000000000E+00 -0.32127413930E+03  0.32127413930E+03  0.00000000000E+00 0. -1.
         24    2    1    2    0    0  0.73017767798E+02  0.73206941655E+00  0.64863228610E+02  0.12492078811E+03  0.77883467671E+02 0.  0.
         23    2    1    2    0    0 -0.44043651630E+02  0.16226334923E+02 -0.22744404937E+03  0.24974674015E+03  0.91866759086E+02 0.  0.
        -11    1    3    3    0    0  0.25230393839E+02 -0.78836250071E+01  0.71202619217E+02  0.75950887421E+02  0.00000000000E+00 0.  1.
         12    1    3    3    0    0  0.47787373959E+02  0.86156944236E+01 -0.63393906071E+01  0.48969900690E+02  0.00000000000E+00 0. -1.
        -11    1    4    4    0    0 -0.65653578343E+02  0.34849136515E+02 -0.17268300118E+03  0.18800072756E+03  0.00000000000E+00 0. -1.
         11    1    4    4    0    0  0.21609926713E+02 -0.18622801592E+02 -0.54761048192E+02  0.61746012590E+02  0.00000000000E+00 0.  1.
         21    1    1    2  502  501 -0.28974116168E+02 -0.16958404339E+02 -0.47298171626E+02  0.58001757945E+02  0.00000000000E+00 0. -1.
<scales pt_clust_5="13000.00000" pt_clust_6="13000.00000" pt_clust_7="13000.00000" pt_clust_8="13000.00000" pt_clust_9="33.57211"></scales>
<clustering>
<clus scale="   33.572">  2  9  1 -1</clus>
<clus scale="   77.883">  5  6 -1 -1</clus>
<clus scale="   91.867">  7  8 -1 -1</clus>
<clus scale="  104.577">  1  5  2 -1</clus>
<clus scale="   33.572">  2  5  1 -1</clus>
</clustering>
</event>
<event>
 9    2  0.2984928E-005  0.1795621E+03  0.7546771E-02  0.1169566E+00
         -1   -1    0    0    0  501 -0.00000000000E+00  0.00000000000E+00  0.32172592756E+03  0.32172592756E+03  0.00000000000E+00 0.  1.
          2   -1    0    0  502    0  0.00000000000E+00 -0.00000000000E+00 -0.18304065796E+03  0.18304065796E+03  0.00000000000E+00 0. -1.
         24    2    1    2    0    0 -0.14587150550E+03  0.55329274907E+02  0.19105117613E+03  0.25964362026E+03  0.81082876521E+02 0.  0.
         23    2    1    2    0    0  0.12867715855E+03 -0.79820241793E+02  0.83208765851E+01  0.17745954331E+03  0.92160568532E+02 0.  0.
        -13    1    3    3    0    0 -0.82416318162E+02  0.67867136429E+02  0.89861832179E+02  0.13954764989E+03  0.00000000000E+00 0.  1.
         14    1    3    3    0    0 -0.63455187336E+02 -0.12537861523E+02  0.10118934395E+03  0.12009597038E+03  0.00000000000E+00 0. -1.
        -11    1    4    4    0    0  0.10593568082E+03 -0.20834445892E+02  0.27470464652E+02  0.11140497760E+03  0.00000000000E+00 0.  1.
         11    1    4    4    0    0  0.22741477727E+02 -0.58985795901E+02 -0.19149588067E+02  0.66054565705E+02  0.00000000000E+00 0. -1.
         21    1    1    2  502  501  0.17194346950E+02  0.24490966886E+02 -0.60686783110E+02  0.67663421952E+02  0.00000000000E+00 0.  1.
<scales pt_clust_5="13000.00000" pt_clust_6="13000.00000" pt_clust_7="13000.00000" pt_clust_8="13000.00000" pt_clust_9="29.92412"></scales>
<clustering>
<clus scale="   29.924">  2  9  1 -1</clus>
<clus scale="   81.083">  5  6 -1 -1</clus>
<clus scale="   92.161">  7  8 -1 -1</clus>
<clus scale="  174.136">  1  5  2 -1</clus>
<clus scale="   29.924">  2  5  1 -1</clus>
</clustering>
</event>
<event>
 9    2  0.2984928E-005  0.1195745E+03  0.7546771E-02  0.1246205E+00
         -1   -1    0    0    0  501 -0.00000000000E+00  0.00000000000E+00  0.13873779503E+03  0.13873779503E+03  0.00000000000E+00 0.  1.
          2   -1    0    0  502    0  0.00000000000E+00 -0.00000000000E+00 -0.31137453891E+03  0.31137453891E+03  0.00000000000E+00 0. -1.
         23    2    1    2    0    0  0.70369812018E+02  0.36583565317E+02  0.85079750315E+02  0.14666965528E+03  0.89348509613E+02 0.  0.
         24    2    1    2    0    0 -0.85160290287E+02 -0.98869680414E+01 -0.24133506236E+03  0.26880429154E+03  0.81627860719E+02 0.  0.
        -11    1    4    4    0    0 -0.20249941793E+02 -0.18784479494E+02 -0.11684450176E+02  0.29990718371E+02  0.00000000000E+00 0.  1.
         12    1    4    4    0    0 -0.64910348493E+02  0.88975114530E+01 -0.22965061219E+03  0.23881357317E+03  0.00000000000E+00 0. -1.
        -13    1    3    3    0    0  0.93658436016E+01  0.33049420398E+02 -0.80508087532E+01  0.35281705409E+02  0.00000000000E+00 0. -1.
         13    1    3    3    0    0  0.61003968417E+02  0.35341449188E+01  0.93130559069E+02  0.11138794987E+03  0.00000000000E+00 0.  1.
         21    1    1    2  502  501  0.14790478269E+02 -0.26696597275E+02 -0.16381431829E+02  0.34638387120E+02  0.00000000000E+00 0.  1.
<scales pt_clust_5="13000.00000" pt_clust_6="13000.00000" pt_clust_7="13000.00000" pt_clust_8="13000.00000" pt_clust_9="30.51994"></scales>
<clustering>
<clus scale="   30.520">  2  9  1 -1</clus>
<clus scale="   81.628">  5  6 -1 -1</clus>
<clus scale="   89.349">  7  8 -1 -1</clus>
<clus scale="  113.921">  2  5  1 -1</clus>
<clus scale="   30.520">  2  5  1 -1</clus>
</clustering>
</event>
<event>
 9    2  0.2984928E-005  0.9665648E+02  0.7546771E-02  0.1292218E+00
          2   -1    0    0  502    0  0.00000000000E+00  0.00000000000E+00  0.15920790259E+03  0.15920790259E+03  0.00000000000E+00 0. -1.
         -1   -1    0    0    0  501 -0.00000000000E+00 -0.00000000000E+00 -0.18225976359E+03  0.18225976359E+03  0.00000000000E+00 0.  1.
         23    2    1    2    0    0  0.36582171910E+02  0.11810307502E+01 -0.14840222022E+03  0.17757805568E+03  0.90394119046E+02 0.  0.
         24    2    1    2    0    0 -0.15984682698E+02 -0.81047259905E+01  0.93964868256E+02  0.12571575609E+03  0.81571184850E+02 0.  0.
        -13    1    4    4    0    0 -0.23296642800E+02 -0.12081760391E+02 -0.47338537624E+01  0.26666680921E+02  0.00000000000E+00 0.  1.
         14    1    4    4    0    0  0.73119601025E+01  0.39770344007E+01  0.98698722018E+02  0.99049075166E+02  0.00000000000E+00 0. -1.
        -11    1    3    3    0    0  0.34079553081E+02  0.42605248739E+02 -0.99181063815E+02  0.11319676046E+03  0.00000000000E+00 0.  1.
         11    1    3    3    0    0  0.25026188293E+01 -0.41424217989E+02 -0.49221156404E+02  0.64381295225E+02  0.00000000000E+00 0. -1.
         21    1    1    2  502  501 -0.20597489212E+02  0.69236952403E+01  0.31385490967E+02  0.38173854414E+02  0.00000000000E+00 0.  1.
<scales pt_clust_5="13000.00000" pt_clust_6="13000.00000" pt_clust_7="13000.00000" pt_clust_8="13000.00000" pt_clust_9="21.73003"></scales>
<clustering>
<clus scale="   21.730">  1  9  2 -1</clus>
<clus scale="   81.571">  5  6 -1 -1</clus>
<clus scale="   88.460">  1  5  2 -1</clus>
<clus scale="   90.394">  7  8 -1 -1</clus>
<clus scale="   21.730">  1  5  2 -1</clus>
</clustering>
</event>
<event>
 9    2  0.2984928E-005  0.1306477E+03  0.7546771E-02  0.1228897E+00
         -1   -1    0    0    0  501 -0.00000000000E+00  0.00000000000E+00  0.73041199318E+02  0.73041199318E+02  0.00000000000E+00 0.  1.
          2   -1    0    0  502    0  0.00000000000E+00 -0.00000000000E+00 -0.37002475964E+03  0.37002475964E+03  0.00000000000E+00 0. -1.
         23    2    1    2    0    0 -0.28746353076E+02 -0.92492987368E+02 -0.30230431612E+02  0.13588089384E+03  0.90379382532E+02 0.  0.
         24    2    1    2    0    0  0.52757884768E+02  0.74133949804E+02 -0.20541251026E+03  0.23880173831E+03  0.80948958784E+02 0.  0.
        -13    1    4    4    0    0  0.11695036569E+02  0.33105927651E+02 -0.12378675627E+02  0.37229127525E+02  0.00000000000E+00 0.  1.
         14    1    4    4    0    0  0.41062848199E+02  0.41028022153E+02 -0.19303383463E+03  0.20157261078E+03  0.00000000000E+00 0. -1.
        -11    1    3    3    0    0 -0.51993240019E+02 -0.23012128759E+02 -0.63276278979E+00  0.56861722331E+02  0.00000000000E+00 0.  1.
         11    1    3    3    0    0  0.23246886943E+02 -0.69480858610E+02 -0.29597668822E+02  0.79019171505E+02  0.00000000000E+00 0. -1.
         21    1    1    2  502  501 -0.24011531692E+02  0.18359037564E+02 -0.61340618448E+02  0.68383326813E+02  0.00000000000E+00 0.  1.
<scales pt_clust_5="13000.00000" pt_clust_6="13000.00000" pt_clust_7="13000.00000" pt_clust_8="13000.00000" pt_clust_9="30.22595"></scales>
<clustering>
<clus scale="   30.226">  2  9  1 -1</clus>
<clus scale="   80.949">  5  6 -1 -1</clus>
<clus scale="   90.379">  7  8 -1 -1</clus>
<clus scale="  124.311">  2  5  1 -1</clus>
<clus scale="   30.226">  2  5  1 -1</clus>
</clustering>
</event>
<event>
 9    2  0.2984928E-005  0.9429709E+02  0.7546771E-02  0.1301394E+00
          2   -1    0    0  502    0  0.00000000000E+00  0.00000000000E+00  0.93766545613E+02  0.93766545613E+02  0.00000000000E+00 0. -1.
         -1   -1    0    0    0  501 -0.00000000000E+00 -0.00000000000E+00 -0.52066650007E+03  0.52066650007E+03  0.00000000000E+00 0.  1.
         24    2    1    2    0    0 -0.25405127445E+02 -0.16504361760E+01 -0.41934058348E+03  0.42712475260E+03  0.77077135961E+02 0.  0.
         23    2    1    2    0    0  0.76396676001E+01 -0.11473056186E+02 -0.73239641769E+02  0.11801373640E+03  0.91505198283E+02 0.  0.
        -11    1    3    3    0    0  0.14795985609E+02  0.27554817593E+02 -0.14738323682E+03  0.15066521715E+03  0.00000000000E+00 0.  1.
         12    1    3    3    0    0 -0.40201113053E+02 -0.29205253769E+02 -0.27195734666E+03  0.27645953545E+03  0.00000000000E+00 0. -1.
        -11    1    4    4    0    0 -0.35647283120E+02 -0.26929743864E+02 -0.24232726399E+02  0.50824845569E+02  0.00000000000E+00 0.  1.
         11    1    4    4    0    0  0.43286950720E+02  0.15456687679E+02 -0.49006915371E+02  0.67188890829E+02  0.00000000000E+00 0. -1.
         21    1    1    2  502  501  0.17765459845E+02  0.13123492362E+02  0.65680270792E+02  0.69294556688E+02  0.00000000000E+00 0. -1.
<scales pt_clust_5="13000.00000" pt_clust_6="13000.00000" pt_clust_7="13000.00000" pt_clust_8="13000.00000" pt_clust_9="22.08705"></scales>
<clustering>
<clus scale="   22.087">  1  9  2 -1</clus>
<clus scale="   77.077">  5  6 -1 -1</clus>
<clus scale="   80.372">  2  5  1 -1</clus>
<clus scale="   91.505">  7  8 -1 -1</clus>
<clus scale="   22.087">  1  5  2 -1</clus>
</clustering>
</event>
<event>
 9    2  0.2984928E-005  0.1314733E+03  0.7546771E-02  0.1228028E+00
         -1   -1    0    0    0  501 -0.00000000000E+00  0.00000000000E+00  0.58626872540E+02  0.58626872540E+02  0.00000000000E+00 0.  1.
          2   -1    0    0  502    0  0.00000000000E+00 -0.00000000000E+00 -0.45048799459E+03  0.45048799459E+03  0.00000000000E+00 0. -1.
         23    2    1    2    0    0 -0.87923424941E+01 -0.91014712168E+02 -0.77556988950E+02  0.15064793127E+03  0.91207069591E+02 0.  0.
         24    2    1    2    0    0 -0.27718857205E+02  0.10247046068E+03 -0.22737318207E+03  0.26348645300E+03  0.80361785897E+02 0.  0.
        -11    1    4    4    0    0 -0.20400114076E+02  0.11644065882E+02 -0.62232835227E+01  0.24299756838E+02  0.00000000000E+00 0.  1.
         12    1    4    4    0    0 -0.73187431295E+01  0.90826394798E+02 -0.22114989855E+03  0.23918669616E+03  0.00000000000E+00 0. -1.
        -13    1    3    3    0    0 -0.27362965433E+02  0.75050715255E+01 -0.22901591282E+02  0.36462869595E+02  0.00000000000E+00 0.  1.
         13    1    3    3    0    0  0.18570622939E+02 -0.98519783693E+02 -0.54655397668E+02  0.11418506167E+03  0.00000000000E+00 0. -1.
         21    1    1    2  502  501  0.36511199699E+02 -0.11455748513E+02 -0.86930951027E+02  0.94980482858E+02  0.00000000000E+00 0.  1.
<scales pt_clust_5="13000.00000" pt_clust_6="13000.00000" pt_clust_7="13000.00000" pt_clust_8="13000.00000" pt_clust_9="38.26620"></scales>
<clustering>
<clus scale="   38.266">  2  9  1 -1</clus>
<clus scale="   80.362">  5  6 -1 -1</clus>
<clus scale="   91.207">  7  8 -1 -1</clus>
<clus scale="  124.195">  2  5  1 -1</clus>
<clus scale="   38.266">  2  5  1 -1</clus>
</clustering>
</event>
<event>
 9    2  0.2984928E-005  0.1283423E+03  0.7546771E-02  0.1232704E+00
          2   -1    0    0  502    0  0.00000000000E+00  0.00000000000E+00  0.29884864860E+03  0.29884864860E+03  0.00000000000E+00 0. -1.
         -1   -1    0    0    0  501 -0.00000000000E+00 -0.00000000000E+00 -0.13433313401E+03  0.13433313401E+03  0.00000000000E+00 0.  1.
         24    2    1    2    0    0 -0.71423389490E+02  0.29233083079E+01 -0.12766803065E+01  0.10699131263E+03  0.79596889185E+02 0.  0.
         23    2    1    2    0    0  0.11569035647E+03 -0.50232118594E+02  0.75093214382E+01  0.15516077687E+03  0.90060826397E+02 0.  0.
        -11    1    3    3    0    0 -0.11150787167E+01  0.21918192318E+02 -0.22199482255E+02  0.31216463083E+02  0.00000000000E+00 0.  1.
         12    1    3    3    0    0 -0.70308310773E+02 -0.18994884010E+02  0.20922801948E+02  0.75774849546E+02  0.00000000000E+00 0. -1.
        -11    1    4    4    0    0  0.51827106231E+02 -0.68954543221E+02 -0.86005107661E+01  0.86687639007E+02  0.00000000000E+00 0.  1.
         11    1    4    4    0    0  0.63863250239E+02  0.18722424627E+02  0.16109832204E+02  0.68473137862E+02  0.00000000000E+00 0. -1.
         21    1    1    2  502  501 -0.44266966980E+02  0.47308810287E+02  0.15828287345E+03  0.17102969311E+03  0.00000000000E+00 0. -1.
<scales pt_clust_5="13000.00000" pt_clust_6="13000.00000" pt_clust_7="13000.00000" pt_clust_8="13000.00000" pt_clust_9="64.78957"></scales>
<clustering>
<clus scale="   64.790">  1  9  2 -1</clus>
<clus scale="   79.597">  5  6 -1 -1</clus>
<clus scale="   90.061">  7  8 -1 -1</clus>
<clus scale="  121.229">  2  5  1 -1</clus>
<clus scale="   64.790">  1  5  2 -1</clus>
</clustering>
</event>
<event>
 9    2  0.2984928E-005  0.2201848E+03  0.7546771E-02  0.1135122E+00
          4   -1    0    0  502    0  0.00000000000E+00  0.00000000000E+00  0.53256886822E+03  0.53256886822E+03  0.00000000000E+00 0. -1.
         -3   -1    0    0    0  501 -0.00000000000E+00 -0.00000000000E+00 -0.14174225202E+03  0.14174225202E+03  0.00000000000E+00 0.  1.
         23    2    1    2    0    0 -0.19271506411E+03  0.48192068056E+02  0.65570778018E+02  0.22834727997E+03  0.91549887932E+02 0.  0.
         24    2    1    2    0    0  0.20335935980E+03 -0.16220626431E+02  0.14027095302E+03  0.25793490142E+03  0.72362525989E+02 0.  0.
        -13    1    4    4    0    0  0.14168605855E+03  0.21913826675E+02  0.84139291066E+02  0.16623650408E+03  0.00000000000E+00 0.  1.
         14    1    4    4    0    0  0.61673301254E+02 -0.38134453106E+02  0.56131661957E+02  0.91698397343E+02  0.00000000000E+00 0. -1.
        -13    1    3    3    0    0 -0.13659256468E+03  0.48801227919E+02  0.40977706375E+01  0.14510644471E+03  0.00000000000E+00 0.  1.
         13    1    3    3    0    0 -0.56122499430E+02 -0.60915986299E+00  0.61473007381E+02  0.83240835258E+02  0.00000000000E+00 0. -1.
         21    1    1    2  502  501 -0.10644295694E+02 -0.31971441625E+02  0.18498488515E+03  0.18802893885E+03  0.00000000000E+00 0. -1.
<scales pt_clust_5="13000.00000" pt_clust_6="13000.00000" pt_clust_7="13000.00000" pt_clust_8="13000.00000" pt_clust_9="33.69680"></scales>
<clustering>
<clus scale="   33.697">  1  9  2 -1</clus>
<clus scale="   72.363">  5  6 -1 -1</clus>
<clus scale="   91.550">  7  8 -1 -1</clus>
<clus scale="  212.923">  1  5  2 -1</clus>
<clus scale="   33.697">  1  5  2 -1</clus>
</clustering>
</event>
<event>
 9    2  0.2984928E-005  0.9352113E+02  0.7546771E-02  0.1299843E+00
         -1   -1    0    0    0  501 -0.00000000000E+00  0.00000000000E+00  0.29072316310E+03  0.29072316310E+03  0.00000000000E+00 0.  1.
          2   -1    0    0  502    0  0.00000000000E+00 -0.00000000000E+00 -0.14813970950E+03  0.14813970950E+03  0.00000000000E+00 0. -1.
         24    2    1    2    0    0 -0.16702073005E+02 -0.13440468110E+02  0.25804310199E+03  0.27154014470E+03  0.81781429880E+02 0.  0.
         23    2    1    2    0    0  0.21102194670E+02  0.34455370764E+02 -0.98799737830E+02  0.14014663870E+03  0.90814189144E+02 0.  0.
        -11    1    3    3    0    0 -0.47777968988E+02  0.71271631915E+00  0.18225140659E+03  0.18841129873E+03  0.00000000000E+00 0.  1.
         12    1    3    3    0    0  0.31075895983E+02 -0.14153184429E+02  0.75791695395E+02  0.83128845965E+02  0.00000000000E+00 0. -1.
        -13    1    4    4    0    0  0.21767952347E+02 -0.28410037196E+02 -0.44237185594E+02  0.56902570699E+02  0.00000000000E+00 0.  1.
         13    1    4    4    0    0 -0.66575767709E+00  0.62865407960E+02 -0.54562552235E+02  0.83244068003E+02  0.00000000000E+00 0. -1.
         21    1    1    2  502  501 -0.44001216649E+01 -0.21014902654E+02 -0.16659910560E+02  0.27176089198E+02  0.00000000000E+00 0.  1.
<scales pt_clust_5="13000.00000" pt_clust_6="13000.00000" pt_clust_7="13000.00000" pt_clust_8="13000.00000" pt_clust_9="21.47061"></scales>
<clustering>
<clus scale="   21.471">  2  9  1 -1</clus>
<clus scale="   81.781">  5  6 -1 -1</clus>
<clus scale="   84.777">  1  5  2 -1</clus>
<clus scale="   90.814">  7  8 -1 -1</clus>
<clus scale="   21.471">  2  5  1 -1</clus>
</clustering>
</event>
<event>
 9    2  0.2984928E-005  0.9211782E+02  0.7546771E-02  0.1302150E+00
          2   -1    0    0  502    0  0.00000000000E+00  0.00000000000E+00  0.10711987207E+04  0.10711987207E+04  0.00000000000E+00 0. -1.
         -1   -1    0    0    0  501 -0.00000000000E+00 -0.00000000000E+00 -0.12302700703E+02  0.12302700703E+02  0.00000000000E+00 0.  1.
         23    2    1    2    0    0 -0.40926765651E+02 -0.13555514930E+02  0.24822958505E+03  0.26179804622E+03  0.71144486657E+02 0.  0.
         24    2    1    2    0    0  0.38756800789E+02  0.47280296406E+02  0.62282327732E+03  0.63084447049E+03  0.79488333323E+02 0.  0.
        -11    1    4    4    0    0  0.37120212195E+02  0.53130774038E+02  0.25953913597E+03  0.26750953704E+03  0.00000000000E+00 0.  1.
         12    1    4    4    0    0  0.16365885940E+01 -0.58504776313E+01  0.36328414135E+03  0.36333493345E+03  0.00000000000E+00 0. -1.
        -11    1    3    3    0    0 -0.55190290310E+02  0.24845388604E+01  0.12431431910E+03  0.13603746179E+03  0.00000000000E+00 0. -1.
         11    1    3    3    0    0  0.14263524659E+02 -0.16040053790E+02  0.12391526595E+03  0.12576058443E+03  0.00000000000E+00 0.  1.
         21    1    1    2  502  501  0.21699648618E+01 -0.33724781476E+02  0.18784315767E+03  0.19085890474E+03  0.00000000000E+00 0. -1.
<scales pt_clust_5="13000.00000" pt_clust_6="13000.00000" pt_clust_7="13000.00000" pt_clust_8="13000.00000" pt_clust_9="33.79452"></scales>
<clustering>
<clus scale="   33.795">  1  9  2 -1</clus>
<clus scale="   71.144">  7  8 -1 -1</clus>
<clus scale="   79.488">  5  6 -1 -1</clus>
<clus scale="   85.023">  2  7  1 -1</clus>
<clus scale="   33.795">  1  5  2 -1</clus>
</clustering>
</event>
<event>
 9    2  0.2984928E-005  0.1089731E+03  0.7546771E-02  0.1280831E+00
          2   -1    0    0  502    0  0.00000000000E+00  0.00000000000E+00  0.67494682877E+02  0.67494682877E+02  0.00000000000E+00 0. -1.
         -1   -1    0    0    0  501 -0.00000000000E+00 -0.00000000000E+00 -0.30833594646E+03  0.30833594646E+03  0.00000000000E+00 0.  1.
         24    2    1    2    0    0 -0.21078130184E+01  0.10073143260E+02 -0.18031505987E+03  0.19603070467E+03  0.76214206479E+02 0.  0.
         23    2    1    2    0    0  0.28246970241E+01  0.10333612311E+02  0.67316180530E+01  0.10951077767E+03  0.10877744844E+03 0.  0.
        -11    1    3    3    0    0  0.15781021756E+02  0.38614998230E+02 -0.80190055469E+02  0.90391391914E+02  0.00000000000E+00 0.  1.
         12    1    3    3    0    0 -0.17888834775E+02 -0.28541854970E+02 -0.10012500440E+03  0.10563931276E+03  0.00000000000E+00 0. -1.
        -11    1    4    4    0    0  0.34046735478E+02 -0.29952296415E+02  0.29067459910E+02  0.53863136586E+02  0.00000000000E+00 0. -1.
         11    1    4    4    0    0 -0.31222038454E+02  0.40285908726E+02 -0.22335841857E+02  0.55647641087E+02  0.00000000000E+00 0.  1.
         21    1    1    2  502  501 -0.71688400571E+00 -0.20406755571E+02 -0.67257821773E+02  0.70289146995E+02  0.00000000000E+00 0. -1.
<scales pt_clust_5="13000.00000" pt_clust_6="13000.00000" pt_clust_7="13000.00000" pt_clust_8="13000.00000" pt_clust_9="20.41934"></scales>
<clustering>
<clus scale="   20.419">  2  9  1 -1</clus>
<clus scale="   76.214">  5  6 -1 -1</clus>
<clus scale="   76.493">  2  5  1 -1</clus>
<clus scale="  108.777">  7  8 -1 -1</clus>
<clus scale="  108.973">  1  5  2 -1</clus>
</clustering>
</event>
<event>
 9    2  0.2984928E-005  0.9760960E+02  0.7546771E-02  0.1291076E+00
          2   -1    0    0  502    0  0.00000000000E+00  0.00000000000E+00  0.41036584937E+03  0.41036584937E+03  0.00000000000E+00 0. -1.
         -1   -1    0    0    0  501 -0.00000000000E+00 -0.00000000000E+00 -0.84748427636E+02  0.84748427636E+02  0.00000000000E+00 0.  1.
         24    2    1    2    0    0 -0.24584375039E+02 -0.19371815626E+02 -0.33112493073E+02  0.93254423735E+02  0.81365174442E+02 0.  0.
         23    2    1    2    0    0  0.69083959019E+02 -0.25496895888E+02  0.22557366283E+03  0.25446921012E+03  0.91915267744E+02 0.  0.
        -11    1    3    3    0    0 -0.21492542551E+02 -0.46694749617E+02 -0.39735126704E+02  0.64970834390E+02  0.00000000000E+00 0.  1.
         12    1    3    3    0    0 -0.30918324878E+01  0.27322933992E+02  0.66226336308E+01  0.28283589345E+02  0.00000000000E+00 0. -1.
        -11    1    4    4    0    0  0.53207946788E+02  0.33918238927E+01  0.21236861241E+03  0.21895894046E+03  0.00000000000E+00 0.  1.
         11    1    4    4    0    0  0.15876012231E+02 -0.28888719781E+02  0.13205050420E+02  0.35510269663E+02  0.00000000000E+00 0. -1.
         21    1    1    2  502  501 -0.44499583980E+02  0.44868711514E+02  0.13315625198E+03  0.14739064315E+03  0.00000000000E+00 0. -1.
<scales pt_clust_5="13000.00000" pt_clust_6="13000.00000" pt_clust_7="13000.00000" pt_clust_8="13000.00000" pt_clust_9="63.19347"></scales>
<clustering>
<clus scale="   63.193">  1  9  2 -1</clus>
<clus scale="   81.365">  5  6 -1 -1</clus>
<clus scale="   87.747">  2  5  1 -1</clus>
<clus scale="   91.915">  7  8 -1 -1</clus>
<clus scale="   63.193">  1  5  2 -1</clus>
</clustering>
</event>
<event>
 9    2  0.2984928E-005  0.1069801E+03  0.7546771E-02  0.1272732E+00
         -1   -1    0    0    0  501 -0.00000000000E+00  0.00000000000E+00  0.14132541189E+03  0.14132541189E+03  0.00000000000E+00 0.  1.
          2   -1    0    0  502    0  0.00000000000E+00 -0.00000000000E+00 -0.14465964232E+03  0.14465964232E+03  0.00000000000E+00 0. -1.
         23    2    1    2    0    0 -0.88378318318E+01 -0.26514870578E+02  0.45840784521E+02  0.10673852465E+03  0.92252856247E+02 0.  0.
         24    2    1    2    0    0 -0.45585628589E+02  0.52801568123E+02 -0.56325895304E+02  0.11838571620E+03  0.77307930960E+02 0.  0.
        -13    1    4    4    0    0 -0.27820378633E+02  0.58705594632E+02 -0.66548686720E+01  0.65303963015E+02  0.00000000000E+00 0.  1.
         14    1    4    4    0    0 -0.17765249957E+02 -0.59040265089E+01 -0.49671026632E+02  0.53081753190E+02  0.00000000000E+00 0. -1.
        -13    1    3    3    0    0  0.22977200950E+02 -0.36702932064E+02 -0.73559082806E+01  0.43922276491E+02  0.00000000000E+00 0.  1.
         13    1    3    3    0    0 -0.31815032781E+02  0.10188061486E+02  0.53196692802E+02  0.62816248159E+02  0.00000000000E+00 0. -1.
         21    1    1    2  502  501  0.54423460421E+02 -0.26286697546E+02  0.71508803572E+01  0.60860813353E+02  0.00000000000E+00 0.  1.
<scales pt_clust_5="13000.00000" pt_clust_6="13000.00000" pt_clust_7="13000.00000" pt_clust_8="13000.00000" pt_clust_9="60.43925"></scales>
<clustering>
<clus scale="   60.439">  1  9  2 -1</clus>
<clus scale="   77.308">  5  6 -1 -1</clus>
<clus scale="   92.253">  7  8 -1 -1</clus>
<clus scale="   94.396">  2  5  1 -1</clus>
<clus scale="   94.396">  2  5  1 -1</clus>
</clustering>
</event>
<event>
 9    2  0.2984928E-005  0.1179090E+03  0.7546771E-02  0.1264726E+00
          2   -1    0    0  502    0  0.00000000000E+00  0.00000000000E+00  0.51272462918E+03  0.51272462918E+03  0.00000000000E+00 0. -1.
         -1   -1    0    0    0  501 -0.00000000000E+00 -0.00000000000E+00 -0.65230470810E+02  0.65230470810E+02  0.00000000000E+00 0.  1.
         23    2    1    2    0    0 -0.55703133309E+02 -0.42306205830E+02  0.24353988466E+02  0.11758341228E+03  0.91324082134E+02 0.  0.
         24    2    1    2    0    0 -0.77013148208E+00 -0.20413916310E+02  0.29993117903E+03  0.31102812812E+03  0.79765050287E+02 0.  0.
        -13    1    4    4    0    0  0.15492013115E+02 -0.14978258679E+02  0.16658648017E+02  0.27237130120E+02  0.00000000000E+00 0.  1.
         14    1    4    4    0    0 -0.16262144597E+02 -0.54356576311E+01  0.28327253101E+03  0.28379099800E+03  0.00000000000E+00 0. -1.
        -13    1    3    3    0    0 -0.22439856569E+01 -0.49349714177E+02 -0.14078336663E+02  0.51367590212E+02  0.00000000000E+00 0. -1.
         13    1    3    3    0    0 -0.53459147653E+02  0.70435083478E+01  0.38432325129E+02  0.66215822070E+02  0.00000000000E+00 0.  1.
         21    1    1    2  502  501  0.56473264792E+02  0.62720122140E+02  0.12320899088E+03  0.14934355959E+03  0.00000000000E+00 0.  1.
<scales pt_clust_5="13000.00000" pt_clust_6="13000.00000" pt_clust_7="13000.00000" pt_clust_8="13000.00000" pt_clust_9="74.58187"></scales>
<clustering>
<clus scale="   79.765">  5  6 -1 -1</clus>
<clus scale="   82.339">  1  5  2 -1</clus>
<clus scale="   74.582">  1  9  2 -1</clus>
<clus scale="   91.324">  7  8 -1 -1</clus>
<clus scale="   82.339">  1  5  2 -1</clus>
</clustering>
</event>
<event>
 9    2  0.2984928E-005  0.1215778E+03  0.7546771E-02  0.1259187E+00
          2   -1    0    0  502    0  0.00000000000E+00  0.00000000000E+00  0.62617692329E+03  0.62617692329E+03  0.00000000000E+00 0. -1.
         -1   -1    0    0    0  501 -0.00000000000E+00 -0.00000000000E+00 -0.72249193344E+02  0.72249193344E+02  0.00000000000E+00 0.  1.
         23    2    1    2    0    0 -0.85628998645E+02 -0.10344373809E+01  0.70464950904E+01  0.11984108459E+03  0.83539433766E+02 0.  0.
         24    2    1    2    0    0 -0.17447993647E+02  0.11503590438E+02  0.20785929296E+03  0.22408489580E+03  0.81066576227E+02 0.  0.
        -11    1    4    4    0    0  0.13557221334E+01 -0.33171912118E+02  0.61227487949E+02  0.69649257115E+02  0.00000000000E+00 0.  1.
         12    1    4    4    0    0 -0.18803715780E+02  0.44675502556E+02  0.14663180501E+03  0.15443563868E+03  0.00000000000E+00 0. -1.
        -13    1    3    3    0    0 -0.78056669302E+02  0.26710785972E+02 -0.14680921220E+02  0.83796414945E+02  0.00000000000E+00 0.  1.
         13    1    3    3    0    0 -0.75723293434E+01 -0.27745223353E+02  0.21727416311E+02  0.36044669649E+02  0.00000000000E+00 0. -1.
         21    1    1    2  502  501  0.10307699229E+03 -0.10469153057E+02  0.33902194190E+03  0.35450013624E+03  0.00000000000E+00 0. -1.
<scales pt_clust_5="13000.00000" pt_clust_6="13000.00000" pt_clust_7="13000.00000" pt_clust_8="13000.00000" pt_clust_9="88.33071"></scales>
<clustering>
<clus scale="   81.067">  5  6 -1 -1</clus>
<clus scale="   83.539">  7  8 -1 -1</clus>
<clus scale="   83.717">  1  5  2 -1</clus>
<clus scale="   88.331">  1  9  2 -1</clus>
<clus scale="   83.717">  1  5  2 -1</clus>
</clustering>
</event>
<event>
 9    2  0.2984928E-005  0.1753963E+03  0.7546771E-02  0.1203553E+00
          2   -1    0    0  502    0  0.00000000000E+00  0.00000000000E+00  0.64656970359E+03  0.64656970359E+03  0.00000000000E+00 0. -1.
         -1   -1    0    0    0  501 -0.00000000000E+00 -0.00000000000E+00 -0.10232938665E+03  0.10232938665E+03  0.00000000000E+00 0.  1.
         24    2    1    2    0    0 -0.90833019631E+00 -0.23472977501E+02 -0.10626160217E+02  0.88412591665E+02  0.84569884400E+02 0.  0.
         23    2    1    2    0    0 -0.36959763191E+02 -0.13734113064E+03  0.39903335186E+03  0.43337610072E+03  0.91425480666E+02 0.  0.
        -11    1    3    3    0    0 -0.59054664491E+01 -0.50670078636E+02 -0.25480859675E+02  0.57022851671E+02  0.00000000000E+00 0.  1.
         12    1    3    3    0    0  0.49971362528E+01  0.27197101135E+02  0.14854699458E+02  0.31389739993E+02  0.00000000000E+00 0. -1.
        -11    1    4    4    0    0 -0.44664668218E+02 -0.16114919970E+02  0.10481520384E+03  0.11506889323E+03  0.00000000000E+00 0.  1.
         11    1    4    4    0    0  0.77049050273E+01 -0.12122621067E+03  0.29421814803E+03  0.31830720749E+03  0.00000000000E+00 0. -1.
         21    1    1    2  502  501  0.37868093387E+02  0.16081410814E+03  0.15583312529E+03  0.22711039785E+03  0.00000000000E+00 0.  1.
<scales pt_clust_5="13000.00000" pt_clust_6="13000.00000" pt_clust_7="13000.00000" pt_clust_8="13000.00000" pt_clust_9="149.68382"></scales>
<clustering>
<clus scale="   84.570">  5  6 -1 -1</clus>
<clus scale="   87.772">  2  5  1 -1</clus>
<clus scale="   91.425">  7  8 -1 -1</clus>
<clus scale="  149.684">  2  9  1 -1</clus>
<clus scale="  175.396">  1  5  2 -1</clus>
</clustering>
</event>
<event>
 9    2  0.2984928E-005  0.1382730E+03  0.7546771E-02  0.1218125E+00
          2   -1    0    0  502    0  0.00000000000E+00  0.00000000000E+00  0.13119059698E+03  0.13119059698E+03  0.00000000000E+00 0. -1.
         -1   -1    0    0    0  501 -0.00000000000E+00 -0.00000000000E+00 -0.18367914331E+03  0.18367914331E+03  0.00000000000E+00 0.  1.
         24    2    1    2    0    0 -0.10777754966E+03 -0.32300943689E+02 -0.70158186293E+02  0.15547218083E+03  0.81179287587E+02 0.  0.
         23    2    1    2    0    0  0.78301806138E+02  0.40669948239E+02  0.17949063055E+02  0.12875546797E+03  0.92035776377E+02 0.  0.
        -13    1    3    3    0    0 -0.50349110512E+02 -0.57091864260E+02 -0.36056618584E+02  0.84229410765E+02  0.00000000000E+00 0.  1.
         14    1    3    3    0    0 -0.57428439151E+02  0.24790920572E+02 -0.34101567709E+02  0.71242770064E+02  0.00000000000E+00 0. -1.
        -11    1    4    4    0    0  0.31405657460E+02  0.53895031198E+01 -0.36673682488E+02  0.48583135465E+02  0.00000000000E+00 0. -1.
         11    1    4    4    0    0  0.46896148678E+02  0.35280445119E+02  0.54622745543E+02  0.80172332505E+02  0.00000000000E+00 0.  1.
         21    1    1    2  502  501  0.29475743525E+02 -0.83690045502E+01 -0.27942309758E+00  0.30642091488E+02  0.00000000000E+00 0.  1.
<scales pt_clust_5="13000.00000" pt_clust_6="13000.00000" pt_clust_7="13000.00000" pt_clust_8="13000.00000" pt_clust_9="30.64082"></scales>
<clustering>
<clus scale="   30.641">  1  9  2 -1</clus>
<clus scale="   81.179">  5  6 -1 -1</clus>
<clus scale="   92.036">  7  8 -1 -1</clus>
<clus scale="  131.297">  2  5  1 -1</clus>
<clus scale="   30.641">  1  5  2 -1</clus>
</clustering>
</event>
<event>
 9    2  0.2984928E-005  0.1270321E+03  0.7546771E-02  0.1244956E+00
         -3   -1    0    0    0  501 -0.00000000000E+00  0.00000000000E+00  0.16780356914E+03  0.16780356914E+03  0.00000000000E+00 0.  1.
          4   -1    0    0  502    0  0.00000000000E+00 -0.00000000000E+00 -0.24325864790E+03  0.24325864790E+03  0.00000000000E+00 0. -1.
         24    2    1    2    0    0  0.47915797129E+02 -0.26222749105E+02  0.12752565481E+03  0.16096909971E+03  0.81637627600E+02 0.  0.
         23    2    1    2    0    0 -0.25127755523E+02  0.31565783589E+02 -0.16246616489E+03  0.20330344823E+03  0.11536565581E+03 0.  0.
        -11    1    3    3    0    0  0.56153704532E+02  0.91535549355E+01  0.10124444676E+03  0.11613554193E+03  0.00000000000E+00 0.  1.
         12    1    3    3    0    0 -0.82379074029E+01 -0.35376304040E+02  0.26281208053E+02  0.44833557774E+02  0.00000000000E+00 0. -1.
        -13    1    4    4    0    0  0.29137732561E+02 -0.36911305611E+01 -0.10398894789E+01  0.29388999196E+02  0.00000000000E+00 0.  1.
         13    1    4    4    0    0 -0.54265488084E+02  0.35256914150E+02 -0.16142627541E+03  0.17391444904E+03  0.00000000000E+00 0. -1.
         21    1    1    2  502  501 -0.22788041607E+02 -0.53430344839E+01 -0.40514568695E+02  0.46789669098E+02  0.00000000000E+00 0. -1.
<scales pt_clust_5="13000.00000" pt_clust_6="13000.00000" pt_clust_7="13000.00000" pt_clust_8="13000.00000" pt_clust_9="23.40604"></scales>
<clustering>
<clus scale="   23.406">  2  9  1 -1</clus>
<clus scale="   81.638">  5  6 -1 -1</clus>
<clus scale="   97.430">  1  5  2 -1</clus>
<clus scale="  115.366">  7  8 -1 -1</clus>
<clus scale="   23.406">  2  5  1 -1</clus>
</clustering>
</event>
<event>
 9    2  0.2984928E-005  0.8727893E+02  0.7546771E-02  0.1314038E+00
          2   -1    0    0  502    0  0.00000000000E+00  0.00000000000E+00  0.85655122743E+03  0.85655122743E+03  0.00000000000E+00 0. -1.
         -1   -1    0    0    0  501 -0.00000000000E+00 -0.00000000000E+00 -0.16777963792E+02  0.16777963792E+02  0.00000000000E+00 0.  1.
         23    2    1    2    0    0  0.79515701951E+01 -0.18783679660E+02  0.17794943230E+03  0.19906525845E+03  0.86861513772E+02 0.  0.
         24    2    1    2    0    0  0.92514858291E+01 -0.20854915243E+02  0.49407922793E+03  0.50104322006E+03  0.80059399269E+02 0.  0.
        -11    1    4    4    0    0  0.34688575025E+02 -0.15456065859E+02  0.11573263493E+03  0.12180406396E+03  0.00000000000E+00 0.  1.
         12    1    4    4    0    0 -0.25437089196E+02 -0.53988493842E+01  0.37834659300E+03  0.37923915610E+03  0.00000000000E+00 0. -1.
        -13    1    3    3    0    0 -0.22519194045E+02 -0.42566863565E+02  0.12106006787E+03  0.13028657647E+03  0.00000000000E+00 0. -1.
         13    1    3    3    0    0  0.30470764240E+02  0.23783183905E+02  0.56889364427E+02  0.68778681980E+02  0.00000000000E+00 0.  1.
         21    1    1    2  502  501 -0.17203056024E+02  0.39638594903E+02  0.16774460341E+03  0.17322071272E+03  0.00000000000E+00 0.  1.
<scales pt_clust_5="13000.00000" pt_clust_6="13000.00000" pt_clust_7="13000.00000" pt_clust_8="13000.00000" pt_clust_9="43.21069"></scales>
<clustering>
<clus scale="   43.211">  1  9  2 -1</clus>
<clus scale="   80.059">  5  6 -1 -1</clus>
<clus scale="   80.512">  1  5  2 -1</clus>
<clus scale="   86.862">  7  8 -1 -1</clus>
<clus scale="   43.211">  1  5  2 -1</clus>
</clustering>
</event>
<event>
 9    2  0.2984928E-005  0.9338595E+02  0.7546771E-02  0.1300572E+00
         -1   -1    0    0    0  501 -0.00000000000E+00  0.00000000000E+00  0.19232167597E+03  0.19232167597E+03  0.00000000000E+00 0.  1.
          2   -1    0    0  502    0  0.00000000000E+00 -0.00000000000E+00 -0.99340431836E+02  0.99340431836E+02  0.00000000000E+00 0. -1.
         23    2    1    2    0    0 -0.93330874417E+00  0.28492713891E+02  0.13539654859E+03  0.16376564261E+03  0.87602822549E+02 0.  0.
         24    2    1    2    0    0 -0.16659986534E+02 -0.48519655398E+02 -0.25777942310E+02  0.96473476100E+02  0.77530104926E+02 0.  0.
        -11    1    4    4    0    0 -0.50366302487E+01  0.20774284852E+02  0.70100004181E+00  0.21387612219E+02  0.00000000000E+00 0.  1.
         12    1    4    4    0    0 -0.11623356285E+02 -0.69293940250E+02 -0.26478942352E+02  0.75085863881E+02  0.00000000000E+00 0. -1.
        -13    1    3    3    0    0 -0.41990226485E+02  0.22992183287E+01  0.48849841759E+02  0.64457525278E+02  0.00000000000E+00 0. -1.
         13    1    3    3    0    0  0.41056917741E+02  0.26193495563E+02  0.86546706834E+02  0.99308117332E+02  0.00000000000E+00 0.  1.
         21    1    1    2  502  501  0.17593295278E+02  0.20026941507E+02 -0.16637362144E+02  0.31422989100E+02  0.00000000000E+00 0.  1.
<scales pt_clust_5="13000.00000" pt_clust_6="13000.00000" pt_clust_7="13000.00000" pt_clust_8="13000.00000" pt_clust_9="26.65713"></scales>
<clustering>
<clus scale="   26.657">  2  9  1 -1</clus>
<clus scale="   77.530">  5  6 -1 -1</clus>
<clus scale="   84.010">  2  5  1 -1</clus>
<clus scale="   87.603">  7  8 -1 -1</clus>
<clus scale="   26.657">  2  5  1 -1</clus>
</clustering>
</event>
<event>
 9    2  0.2984928E-005  0.9213184E+02  0.7546771E-02  0.1301990E+00
         -1   -1    0    0    0  501 -0.00000000000E+00  0.00000000000E+00  0.55951522621E+03  0.55951522621E+03  0.00000000000E+00 0.  1.
          2   -1    0    0  502    0  0.00000000000E+00 -0.00000000000E+00 -0.53438008261E+02  0.53438008261E+02  0.00000000000E+00 0. -1.
         23    2    1    2    0    0  0.13591946604E+02  0.19784037717E+02  0.39876600361E+03  0.40953255049E+03  0.90146742083E+02 0.  0.
         24    2    1    2    0    0 -0.22727221173E+02  0.42194368859E+02  0.23447722535E+02  0.98740879917E+02  0.83084741855E+02 0.  0.
        -11    1    4    4    0    0 -0.72238284547E+01  0.66545018850E+02  0.14168728247E+02  0.68419120803E+02  0.00000000000E+00 0.  1.
         12    1    4    4    0    0 -0.15503392718E+02 -0.24350649991E+02  0.92789942887E+01  0.30321759115E+02  0.00000000000E+00 0. -1.
        -11    1    3    3    0    0  0.17412051560E+02  0.55036938499E+02  0.25625158449E+03  0.26267302620E+03  0.00000000000E+00 0.  1.
         11    1    3    3    0    0 -0.38201049559E+01 -0.35252900783E+02  0.14251441912E+03  0.14685952429E+03  0.00000000000E+00 0. -1.
         21    1    1    2  502  501  0.91352745690E+01 -0.61978406575E+02  0.83863491803E+02  0.10467980407E+03  0.00000000000E+00 0. -1.
<scales pt_clust_5="13000.00000" pt_clust_6="13000.00000" pt_clust_7="13000.00000" pt_clust_8="13000.00000" pt_clust_9="62.64803"></scales>
<clustering>
<clus scale="   62.648">  2  9  1 -1</clus>
<clus scale="   83.085">  5  6 -1 -1</clus>
<clus scale="   85.234">  2  5  1 -1</clus>
<clus scale="   90.147">  7  8 -1 -1</clus>
<clus scale="   62.648">  2  5  1 -1</clus>
</clustering>
</event>
<event>
 9    2  0.2984928E-005  0.9775449E+02  0.7546771E-02  0.1291128E+00
         -1   -1    0    0    0  501 -0.00000000000E+00  0.00000000000E+00  0.10378871087E+03  0.10378871087E+03  0.00000000000E+00 0.  1.
          2   -1    0    0  502    0  0.00000000000E+00 -0.00000000000E+00 -0.23824364364E+03  0.23824364364E+03  0.00000000000E+00 0. -1.
         24    2    1    2    0    0 -0.45439916149E+01  0.42329681299E+02  0.48347545249E+02  0.10271945577E+03  0.80008447572E+02 0.  0.
         23    2    1    2    0    0  0.63639178988E+01 -0.11283375548E+02 -0.54165752919E+02  0.10697019107E+03  0.91328412734E+02 0.  0.
        -13    1    3    3    0    0  0.21534768724E+02  0.26212713482E+02  0.60804731502E+02  0.69628068946E+02  0.00000000000E+00 0.  1.
         14    1    3    3    0    0 -0.26078760339E+02  0.16116967817E+02 -0.12457186253E+02  0.33091386822E+02  0.00000000000E+00 0. -1.
        -13    1    4    4    0    0  0.35357097736E+02  0.21739723488E+02 -0.46556145238E+02  0.62371584853E+02  0.00000000000E+00 0.  1.
         13    1    4    4    0    0 -0.28993179837E+02 -0.33023099036E+02 -0.76096076812E+01  0.44598606212E+02  0.00000000000E+00 0. -1.
         21    1    1    2  502  501 -0.18199262839E+01 -0.31046305752E+02 -0.12863672510E+03  0.13234270768E+03  0.00000000000E+00 0. -1.
<scales pt_clust_5="13000.00000" pt_clust_6="13000.00000" pt_clust_7="13000.00000" pt_clust_8="13000.00000" pt_clust_9="31.09960"></scales>
<clustering>
<clus scale="   31.100">  2  9  1 -1</clus>
<clus scale="   80.008">  5  6 -1 -1</clus>
<clus scale="   87.272">  1  5  2 -1</clus>
<clus scale="   91.328">  7  8 -1 -1</clus>
<clus scale="   31.100">  2  5  1 -1</clus>
</clustering>
</event>
<event>
 9    2  0.2984928E-005  0.1764652E+03  0.7546771E-02  0.1173105E+00
          4   -1    0    0  502    0  0.00000000000E+00  0.00000000000E+00  0.40767494866E+03  0.40767494866E+03  0.00000000000E+00 0. -1.
         -3   -1    0    0    0  501 -0.00000000000E+00 -0.00000000000E+00 -0.15731890320E+03  0.15731890320E+03  0.00000000000E+00 0.  1.
         23    2    1    2    0    0 -0.13938902293E+03 -0.38502943271E+02 -0.59348060284E+02  0.18264087418E+03  0.94465445054E+02 0.  0.
         24    2    1    2    0    0  0.16089400818E+03  0.61482830973E+02  0.28417465113E+03  0.34182776723E+03  0.80149670801E+02 0.  0.
        -13    1    4    4    0    0  0.50077352170E+02  0.22975309183E+02  0.32037915052E+02  0.63734088471E+02  0.00000000000E+00 0.  1.
         14    1    4    4    0    0  0.11081665601E+03  0.38507521790E+02  0.25213673608E+03  0.27809367876E+03  0.00000000000E+00 0. -1.
        -11    1    3    3    0    0 -0.11379293914E+03  0.43128890002E+01 -0.67077586188E+02  0.13216216016E+03  0.00000000000E+00 0.  1.
         11    1    3    3    0    0 -0.25596083783E+02 -0.42815832271E+02  0.77295259038E+01  0.50478714017E+02  0.00000000000E+00 0. -1.
         21    1    1    2  502  501 -0.21504985255E+02 -0.22979887702E+02  0.25529454611E+02  0.40525210454E+02  0.00000000000E+00 0.  1.
<scales pt_clust_5="13000.00000" pt_clust_6="13000.00000" pt_clust_7="13000.00000" pt_clust_8="13000.00000" pt_clust_9="31.47284"></scales>
<clustering>
<clus scale="   31.473">  1  9  2 -1</clus>
<clus scale="   80.150">  5  6 -1 -1</clus>
<clus scale="   94.465">  7  8 -1 -1</clus>
<clus scale="  169.234">  1  5  2 -1</clus>
<clus scale="   31.473">  1  5  2 -1</clus>
</clustering>
</event>
<event>
 9    2  0.2984928E-005  0.1353177E+03  0.7546771E-02  0.1224438E+00
         -1   -1    0    0    0  501 -0.00000000000E+00  0.00000000000E+00  0.85104791630E+02  0.85104791630E+02  0.00000000000E+00 0.  1.
          2   -1    0    0  502    0  0.00000000000E+00 -0.00000000000E+00 -0.46498318873E+03  0.46498318873E+03  0.00000000000E+00 0. -1.
         23    2    1    2    0    0 -0.88295751124E+02  0.74011936438E+01 -0.23344125853E+02  0.13031834665E+03  0.92666099130E+02 0.  0.
         24    2    1    2    0    0  0.13978597566E+03  0.22574469653E+02 -0.28643647045E+03  0.32777243109E+03  0.73069756451E+02 0.  0.
        -13    1    4    4    0    0  0.60180060764E+02 -0.26570658588E+02 -0.11798671164E+03  0.13508702282E+03  0.00000000000E+00 0.  1.
         14    1    4    4    0    0  0.79605914896E+02  0.49145128242E+02 -0.16844975882E+03  0.19268540827E+03  0.00000000000E+00 0. -1.
        -11    1    3    3    0    0 -0.81445567203E+02  0.42899926151E+02 -0.16316939555E+02  0.93488109390E+02  0.00000000000E+00 0.  1.
         11    1    3    3    0    0 -0.68501839207E+01 -0.35498732508E+02 -0.70271862976E+01  0.36830237260E+02  0.00000000000E+00 0. -1.
         21    1    1    2  502  501 -0.51490224536E+02 -0.29975663297E+02 -0.70097800791E+02  0.91997202613E+02  0.00000000000E+00 0.  1.
<scales pt_clust_5="13000.00000" pt_clust_6="13000.00000" pt_clust_7="13000.00000" pt_clust_8="13000.00000" pt_clust_9="59.58006"></scales>
<clustering>
<clus scale="   59.580">  2  9  1 -1</clus>
<clus scale="   73.070">  5  6 -1 -1</clus>
<clus scale="   92.666">  7  8 -1 -1</clus>
<clus scale="  122.732">  2  5  1 -1</clus>
<clus scale="   59.580">  2  5  1 -1</clus>
</clustering>
</event>
<event>
 9    2  0.2984928E-005  0.1697216E+03  0.7546771E-02  0.1183519E+00
         -1   -1    0    0    0  501 -0.00000000000E+00  0.00000000000E+00  0.28360013637E+03  0.28360013637E+03  0.00000000000E+00 0.  1.
          2   -1    0    0  502    0  0.00000000000E+00 -0.00000000000E+00 -0.12495291794E+03  0.12495291794E+03  0.00000000000E+00 0. -1.
         23    2    1    2    0    0  0.62690835335E+02 -0.11156525377E+03  0.12613863652E+03  0.21002844943E+03  0.10873843507E+03 0.  0.
         24    2    1    2    0    0 -0.98017612990E+02  0.96404675414E+02  0.19162233398E+02  0.15783124702E+03  0.75114562161E+02 0.  0.
        -13    1    4    4    0    0 -0.27082092265E+02 -0.21923421835E+01  0.24027881707E+02  0.36270996471E+02  0.00000000000E+00 0.  1.
         14    1    4    4    0    0 -0.70935520725E+02  0.98597017597E+02 -0.48656483088E+01  0.12156025055E+03  0.00000000000E+00 0. -1.
        -11    1    3    3    0    0  0.91685804246E+02 -0.64792815846E+02  0.75930928253E+02  0.13553560990E+03  0.00000000000E+00 0. -1.
         11    1    3    3    0    0 -0.28994968911E+02 -0.46772437920E+02  0.50207708272E+02  0.74492839529E+02  0.00000000000E+00 0.  1.
         21    1    1    2  502  501  0.35326777656E+02  0.15160578353E+02  0.13346348515E+02  0.40693357864E+02  0.00000000000E+00 0. -1.
<scales pt_clust_5="13000.00000" pt_clust_6="13000.00000" pt_clust_7="13000.00000" pt_clust_8="13000.00000" pt_clust_9="38.44248"></scales>
<clustering>
<clus scale="   38.442">  2  9  1 -1</clus>
<clus scale="   75.115">  5  6 -1 -1</clus>
<clus scale="  108.738">  7  8 -1 -1</clus>
<clus scale="  150.411">  2  5  1 -1</clus>
<clus scale="   38.442">  2  5  1 -1</clus>
</clustering>
</event>
<event>
 9    2  0.2984928E-005  0.1262051E+03  0.7546771E-02  0.1237085E+00
          2   -1    0    0  502    0  0.00000000000E+00  0.00000000000E+00  0.26280361298E+03  0.26280361298E+03  0.00000000000E+00 0. -1.
         -1   -1    0    0    0  501 -0.00000000000E+00 -0.00000000000E+00 -0.97490238268E+02  0.97490238268E+02  0.00000000000E+00 0.  1.
         23    2    1    2    0    0 -0.80659148792E+02 -0.20888469978E+02 -0.65255049172E+00  0.12429529594E+03  0.92231601469E+02 0.  0.
         24    2    1    2    0    0  0.92203154807E+02  0.42808714803E+01  0.74322928369E+02  0.14215019213E+03  0.78504979607E+02 0.  0.
        -13    1    4    4    0    0  0.23767450034E+02  0.32793577323E+02  0.52826230659E+01  0.40843806155E+02  0.00000000000E+00 0.  1.
         14    1    4    4    0    0  0.68435704772E+02 -0.28512705842E+02  0.69040305303E+02  0.10130638597E+03  0.00000000000E+00 0. -1.
        -11    1    3    3    0    0 -0.46983429012E+02  0.30927215122E+02  0.19123327261E+02  0.59410747197E+02  0.00000000000E+00 0. -1.
         11    1    3    3    0    0 -0.33675719779E+02 -0.51815685100E+02 -0.19775877753E+02  0.64884548745E+02  0.00000000000E+00 0.  1.
         21    1    1    2  502  501 -0.11544006015E+02  0.16607598497E+02  0.91642996837E+02  0.93848363182E+02  0.00000000000E+00 0. -1.
<scales pt_clust_5="13000.00000" pt_clust_6="13000.00000" pt_clust_7="13000.00000" pt_clust_8="13000.00000" pt_clust_9="20.22564"></scales>
<clustering>
<clus scale="   20.226">  1  9  2 -1</clus>
<clus scale="   78.505">  5  6 -1 -1</clus>
<clus scale="   92.232">  7  8 -1 -1</clus>
<clus scale="  116.551">  1  5  2 -1</clus>
<clus scale="   20.226">  1  5  2 -1</clus>
</clustering>
</event>
<event>
 9    2  0.2984928E-005  0.1012311E+03  0.7546771E-02  0.1282506E+00
         -3   -1    0    0    0  501 -0.00000000000E+00  0.00000000000E+00  0.10772489780E+03  0.10772489780E+03  0.00000000000E+00 0.  1.
          4   -1    0    0  502    0  0.00000000000E+00 -0.00000000000E+00 -0.27622064814E+03  0.27622064814E+03  0.00000000000E+00 0. -1.
         23    2    1    2    0    0 -0.45828946895E+02  0.14755259932E+02  0.63553465601E+02  0.12049340367E+03  0.90341614271E+02 0.  0.
         24    2    1    2    0    0  0.19531744197E+02 -0.24636018821E+02 -0.21214297637E+03  0.22902205892E+03  0.80361922533E+02 0.  0.
        -13    1    4    4    0    0 -0.57477243587E+00  0.28885596276E+02 -0.63542049440E+02  0.69801863031E+02  0.00000000000E+00 0.  1.
         14    1    4    4    0    0  0.20106516633E+02 -0.53521615098E+02 -0.14860092693E+03  0.15922019588E+03  0.00000000000E+00 0. -1.
        -13    1    3    3    0    0 -0.86912918491E+01  0.49737229447E+02  0.39407173530E+02  0.64048855358E+02  0.00000000000E+00 0. -1.
         13    1    3    3    0    0 -0.37137655046E+02 -0.34981969515E+02  0.24146292071E+02  0.56444548313E+02  0.00000000000E+00 0.  1.
         21    1    1    2  502  501  0.26297202699E+02  0.98807588895E+01 -0.19906239570E+02  0.34430083355E+02  0.00000000000E+00 0. -1.
<scales pt_clust_5="13000.00000" pt_clust_6="13000.00000" pt_clust_7="13000.00000" pt_clust_8="13000.00000" pt_clust_9="28.09221"></scales>
<clustering>
<clus scale="   28.092">  2  9  1 -1</clus>
<clus scale="   80.362">  5  6 -1 -1</clus>
<clus scale="   90.342">  7  8 -1 -1</clus>
<clus scale="   92.435">  2  5  1 -1</clus>
<clus scale="   28.092">  2  5  1 -1</clus>
</clustering>
</event>
<event>
 9    2  0.2984928E-005  0.1516787E+03  0.7546771E-02  0.1200619E+00
         -1   -1    0    0    0  501 -0.00000000000E+00  0.00000000000E+00  0.56549637283E+03  0.56549637283E+03  0.00000000000E+00 0.  1.
          2   -1    0    0  502    0  0.00000000000E+00 -0.00000000000E+00 -0.15265664048E+03  0.15265664048E+03  0.00000000000E+00 0. -1.
         24    2    1    2    0    0  0.99482101757E+02 -0.61257062697E+02  0.36177575328E+03  0.38865570602E+03  0.80761660797E+02 0.  0.
         23    2    1    2    0    0 -0.98259776399E+02  0.83168573464E+02  0.15585272120E+03  0.22243522782E+03  0.92818988345E+02 0.  0.
        -11    1    3    3    0    0  0.90904777921E+02 -0.11633022074E+02  0.23663532866E+03  0.25376226004E+03  0.00000000000E+00 0.  1.
         12    1    3    3    0    0  0.85773238362E+01 -0.49624040623E+02  0.12514042462E+03  0.13489344597E+03  0.00000000000E+00 0. -1.
        -11    1    4    4    0    0 -0.42927157461E+02  0.71463688918E+02  0.14126152491E+03  0.16402627259E+03  0.00000000000E+00 0.  1.
         11    1    4    4    0    0 -0.55332618938E+02  0.11704884546E+02  0.14591196292E+02  0.58408955221E+02  0.00000000000E+00 0. -1.
         21    1    1    2  502  501 -0.12223253574E+01 -0.21911510767E+02 -0.10478874213E+03  0.10706207948E+03  0.00000000000E+00 0. -1.
<scales pt_clust_5="13000.00000" pt_clust_6="13000.00000" pt_clust_7="13000.00000" pt_clust_8="13000.00000" pt_clust_9="21.94558"></scales>
<clustering>
<clus scale="   21.946">  2  9  1 -1</clus>
<clus scale="   80.762">  5  6 -1 -1</clus>
<clus scale="   92.819">  7  8 -1 -1</clus>
<clus scale="  144.615">  1  5  2 -1</clus>
<clus scale="   21.946">  2  5  1 -1</clus>
</clustering>
</event>
<event>
 9    2  0.2984928E-005  0.1056850E+03  0.7546771E-02  0.1274246E+00
          2   -1    0    0  502    0  0.00000000000E+00  0.00000000000E+00  0.29781866959E+02  0.29781866959E+02  0.00000000000E+00 0. -1.
         -1   -1    0    0    0  501 -0.00000000000E+00 -0.00000000000E+00 -0.58579866494E+03  0.58579866494E+03  0.00000000000E+00 0.  1.
         24    2    1    2    0    0 -0.43866426778E+02  0.40017154447E+02 -0.37933377766E+03  0.39202928640E+03  0.79165715250E+02 0.  0.
         23    2    1    2    0    0  0.21841647189E+02 -0.33017737765E+02 -0.17359291361E+03  0.20023533871E+03  0.91610385083E+02 0.  0.
        -11    1    3    3    0    0  0.31236207052E+01  0.48973018864E+02 -0.23167964181E+03  0.23681969938E+03  0.00000000000E+00 0.  1.
         12    1    3    3    0    0 -0.46990047483E+02 -0.89558644175E+01 -0.14765413585E+03  0.15520958702E+03  0.00000000000E+00 0. -1.
        -13    1    4    4    0    0 -0.32284302897E+02  0.30265001062E+01 -0.38722360297E+02  0.50506010567E+02  0.00000000000E+00 0.  1.
         13    1    4    4    0    0  0.54125950085E+02 -0.36044237871E+02 -0.13487055331E+03  0.14972932814E+03  0.00000000000E+00 0. -1.
         21    1    1    2  502  501  0.22024779589E+02 -0.69994166813E+01 -0.30901067104E+01  0.23315906788E+02  0.00000000000E+00 0. -1.
<scales pt_clust_5="13000.00000" pt_clust_6="13000.00000" pt_clust_7="13000.00000" pt_clust_8="13000.00000" pt_clust_9="23.11023"></scales>
<clustering>
<clus scale="   23.110">  1  9  2 -1</clus>
<clus scale="   79.166">  5  6 -1 -1</clus>
<clus scale="   91.610">  7  8 -1 -1</clus>
<clus scale="   95.100">  2  5  1 -1</clus>
<clus scale="   23.110">  1  5  2 -1</clus>
</clustering>
</event>
<event>
 9    2  0.2984928E-005  0.1181494E+03  0.7546771E-02  0.1250835E+00
          2   -1    0    0  502    0  0.00000000000E+00  0.00000000000E+00  0.40238469822E+03  0.40238469822E+03  0.00000000000E+00 0. -1.
         -1   -1    0    0    0  501 -0.00000000000E+00 -0.00000000000E+00 -0.77919321554E+02  0.77919321554E+02  0.00000000000E+00 0.  1.
         23    2    1    2    0    0  0.68243789815E+02  0.49368863000E+02  0.97953312405E+00  0.12626522878E+03  0.94060879394E+02 0.  0.
         24    2    1    2    0    0 -0.15174950028E+02 -0.31920311655E+02  0.19025886589E+03  0.20957363507E+03  0.80457983213E+02 0.  0.
        -11    1    4    4    0    0  0.13652422588E+02 -0.50502831069E+02  0.97010642404E+02  0.11021791746E+03  0.00000000000E+00 0.  1.
         12    1    4    4    0    0 -0.28827372616E+02  0.18582519414E+02  0.93248223489E+02  0.99355717618E+02  0.00000000000E+00 0. -1.
        -13    1    3    3    0    0  0.13138248361E+02  0.64521346547E+02 -0.13708165590E+02  0.67257204328E+02  0.00000000000E+00 0.  1.
         13    1    3    3    0    0  0.55105541454E+02 -0.15152483547E+02  0.14687698714E+02  0.59008024455E+02  0.00000000000E+00 0. -1.
         21    1    1    2  502  501 -0.53068839788E+02 -0.17448551345E+02  0.13322697765E+03  0.14446515592E+03  0.00000000000E+00 0. -1.
<scales pt_clust_5="13000.00000" pt_clust_6="13000.00000" pt_clust_7="13000.00000" pt_clust_8="13000.00000" pt_clust_9="55.86371"></scales>
<clustering>
<clus scale="   55.864">  1  9  2 -1</clus>
<clus scale="   80.458">  5  6 -1 -1</clus>
<clus scale="   94.061">  7  8 -1 -1</clus>
<clus scale="  107.635">  1  5  2 -1</clus>
<clus scale="   55.864">  1  5  2 -1</clus>
</clustering>
</event>
<event>
 9    2  0.2984928E-005  0.3273445E+03  0.7546771E-02  0.1104825E+00
          2   -1    0    0  502    0  0.00000000000E+00  0.00000000000E+00  0.18156651857E+04  0.18156651857E+04  0.00000000000E+00 0. -1.
         -1   -1    0    0    0  501 -0.00000000000E+00 -0.00000000000E+00 -0.62320756762E+03  0.62320756762E+03  0.00000000000E+00 0.  1.
         23    2    1    2    0    0  0.12722125755E+03 -0.29132965995E+03 -0.55908782131E+03  0.64964207314E+03  0.91637394742E+02 0.  0.
         24    2    1    2    0    0 -0.15834910418E+02  0.11167334576E+03  0.45425273774E+03  0.47482904319E+03  0.79971182127E+02 0.  0.
        -13    1    4    4    0    0  0.24957550565E+02  0.87152102010E+02  0.30105702936E+03  0.31441008753E+03  0.00000000000E+00 0.  1.
         14    1    4    4    0    0 -0.40792460983E+02  0.24521243750E+02  0.15319570838E+03  0.16041895566E+03  0.00000000000E+00 0. -1.
        -13    1    3    3    0    0  0.34198765853E+02 -0.24584935227E+02 -0.12333695493E+03  0.13033026923E+03  0.00000000000E+00 0. -1.
         13    1    3    3    0    0  0.93022491701E+02 -0.26674472472E+03 -0.43575086639E+03  0.51931180391E+03  0.00000000000E+00 0.  1.
         21    1    1    2  502  501 -0.11138634714E+03  0.17965631419E+03  0.12972927016E+04  0.13144016369E+04  0.00000000000E+00 0. -1.
<scales pt_clust_5="13000.00000" pt_clust_6="13000.00000" pt_clust_7="13000.00000" pt_clust_8="13000.00000" pt_clust_9="314.25631"></scales>
<clustering>
<clus scale="   79.971">  5  6 -1 -1</clus>
<clus scale="   91.637">  7  8 -1 -1</clus>
<clus scale="  138.264">  1  5  2 -1</clus>
<clus scale="  314.256">  1  9  2 -1</clus>
<clus scale="  138.264">  1  5  2 -1</clus>
</clustering>
</event>
<event>
 9    2  0.2984928E-005  0.1272804E+03  0.7546771E-02  0.1234154E+00
         -1   -1    0    0    0  501 -0.00000000000E+00  0.00000000000E+00  0.18090926623E+03  0.18090926623E+03  0.00000000000E+00 0.  1.
          2   -1    0    0  502    0  0.00000000000E+00 -0.00000000000E+00 -0.14490575136E+03  0.14490575136E+03  0.00000000000E+00 0. -1.
         23    2    1    2    0    0 -0.36494846861E+02 -0.89408774915E+02  0.10137988367E+03  0.16703075864E+03  0.91080133073E+02 0.  0.
         24    2    1    2    0    0  0.39384231803E+02  0.55585922214E+02 -0.65524897465E+02  0.12483788991E+03  0.81547986520E+02 0.  0.
        -11    1    4    4    0    0 -0.21582170851E+02  0.21553042720E+02 -0.40425644804E+02  0.50641450482E+02  0.00000000000E+00 0.  1.
         12    1    4    4    0    0  0.60966402653E+02  0.34032879495E+02 -0.25099252661E+02  0.74196439425E+02  0.00000000000E+00 0. -1.
        -11    1    3    3    0    0 -0.29203028881E+02 -0.39272362092E+02  0.10539962772E+03  0.11620764537E+03  0.00000000000E+00 0.  1.
         11    1    3    3    0    0 -0.72918179806E+01 -0.50136412823E+02 -0.40197440472E+01  0.50823113270E+02  0.00000000000E+00 0. -1.
         21    1    1    2  502  501 -0.28893849415E+01  0.33822852700E+02  0.14852866135E+00  0.33946369038E+02  0.00000000000E+00 0.  1.
<scales pt_clust_5="13000.00000" pt_clust_6="13000.00000" pt_clust_7="13000.00000" pt_clust_8="13000.00000" pt_clust_9="33.94604"></scales>
<clustering>
<clus scale="   33.946">  2  9  1 -1</clus>
<clus scale="   81.548">  5  6 -1 -1</clus>
<clus scale="   91.080">  7  8 -1 -1</clus>
<clus scale="  120.643">  2  5  1 -1</clus>
<clus scale="   33.946">  2  5  1 -1</clus>
</clustering>
</event>
<event>
 9    2  0.2984928E-005  0.9015773E+02  0.7546771E-02  0.1306763E+00
         -3   -1    0    0    0  501 -0.00000000000E+00  0.00000000000E+00  0.61494081661E+02  0.61494081661E+02  0.00000000000E+00 0.  1.
          4   -1    0    0  502    0  0.00000000000E+00 -0.00000000000E+00 -0.41719044485E+03  0.41719044485E+03  0.00000000000E+00 0. -1.
         24    2    1    2    0    0  0.12717373727E+02 -0.64171126068E+01  0.16801251549E+02  0.85540720599E+02  0.82656045745E+02 0.  0.
         23    2    1    2    0    0  0.20309950384E+02  0.20922397522E+01 -0.25555046666E+03  0.27154551602E+03  0.89521252806E+02 0.  0.
        -13    1    3    3    0    0  0.39092430533E+02 -0.14127089560E+02 -0.14375727070E+02  0.43982431870E+02  0.00000000000E+00 0.  1.
         14    1    3    3    0    0 -0.26375056807E+02  0.77099769531E+01  0.31176978620E+02  0.41558288728E+02  0.00000000000E+00 0. -1.
        -13    1    4    4    0    0  0.49920929484E+01 -0.42749999902E+02 -0.14535557948E+03  0.15159395756E+03  0.00000000000E+00 0.  1.
         13    1    4    4    0    0  0.15317857436E+02  0.44842239654E+02 -0.11019488719E+03  0.11995155846E+03  0.00000000000E+00 0. -1.
         21    1    1    2  502  501 -0.33027324111E+02  0.43248728546E+01 -0.11694714807E+03  0.12159828989E+03  0.00000000000E+00 0. -1.
<scales pt_clust_5="13000.00000" pt_clust_6="13000.00000" pt_clust_7="13000.00000" pt_clust_8="13000.00000" pt_clust_9="33.30929"></scales>
<clustering>
<clus scale="   33.309">  2  9  1 -1</clus>
<clus scale="   82.656">  5  6 -1 -1</clus>
<clus scale="   83.345">  1  5  2 -1</clus>
<clus scale="   89.521">  7  8 -1 -1</clus>
<clus scale="   33.309">  2  5  1 -1</clus>
</clustering>
</event>
<event>
 9    2  0.2984928E-005  0.6106198E+03  0.7546771E-02  0.9883615E-01
         -1   -1    0    0    0  501 -0.00000000000E+00  0.00000000000E+00  0.49408277892E+03  0.49408277892E+03  0.00000000000E+00 0.  1.
          2   -1    0    0  502    0  0.00000000000E+00 -0.00000000000E+00 -0.18236706912E+04  0.18236706912E+04  0.00000000000E+00 0. -1.
         24    2    1    2    0    0 -0.38827699005E+03  0.42956444789E+02  0.16361399584E+03  0.43093849255E+03  0.79587483780E+02 0.  0.
         23    2    1    2    0    0 -0.93168018987E+02  0.16650440093E+03  0.81385860880E+02  0.22699878747E+03  0.92199760685E+02 0.  0.
        -11    1    3    3    0    0 -0.68430639617E+02 -0.11272400299E+01  0.62291616063E+02  0.92543333310E+02  0.00000000000E+00 0.  1.
         12    1    3    3    0    0 -0.31984635043E+03  0.44083684819E+02  0.10132237978E+03  0.33839515924E+03  0.00000000000E+00 0. -1.
        -11    1    4    4    0    0 -0.66785491304E+02  0.36533927690E+02  0.48830596173E+02  0.90440349644E+02  0.00000000000E+00 0. -1.
         11    1    4    4    0    0 -0.26382527683E+02  0.12997047324E+03  0.32555264707E+02  0.13655843783E+03  0.00000000000E+00 0.  1.
         21    1    1    2  502  501  0.48144500903E+03 -0.20946084572E+03 -0.15745877690E+04  0.16598161901E+04  0.00000000000E+00 0. -1.
<scales pt_clust_5="13000.00000" pt_clust_6="13000.00000" pt_clust_7="13000.00000" pt_clust_8="13000.00000" pt_clust_9="525.03633"></scales>
<clustering>
<clus scale="   79.587">  5  6 -1 -1</clus>
<clus scale="   92.200">  7  8 -1 -1</clus>
<clus scale="  197.611">  5  7 -1 -1</clus>
<clus scale="  525.036">  2  9  1 -1</clus>
<clus scale="  525.036">  2  5  1 -1</clus>
</clustering>
</event>
<event>
 9    2  0.2984928E-005  0.1575470E+03  0.7546771E-02  0.1193972E+00
          2   -1    0    0  502    0  0.00000000000E+00  0.00000000000E+00  0.36559325529E+03  0.36559325529E+03  0.00000000000E+00 0. -1.
         -1   -1    0    0    0  501 -0.00000000000E+00 -0.00000000000E+00 -0.97849965326E+02  0.97849965326E+02  0.00000000000E+00 0.  1.
         23    2    1    2    0    0 -0.10560508650E+03 -0.73991463836E+02  0.59284907199E+02  0.17026950009E+03  0.94073542629E+02 0.  0.
         24    2    1    2    0    0  0.12502941136E+03  0.28855276572E+02  0.12315558816E+03  0.19473009928E+03  0.79293959294E+02 0.  0.
        -13    1    4    4    0    0  0.57875571466E+02 -0.19758924035E+02  0.24536469379E+02  0.65894120991E+02  0.00000000000E+00 0.  1.
         14    1    4    4    0    0  0.67153839890E+02  0.48614200608E+02  0.98619118779E+02  0.12883597829E+03  0.00000000000E+00 0. -1.
        -11    1    3    3    0    0 -0.68695170753E+02 -0.94545414883E+02  0.37496559432E+02  0.12273489288E+03  0.00000000000E+00 0.  1.
         11    1    3    3    0    0 -0.36909915750E+02  0.20553951047E+02  0.21788347767E+02  0.47534607212E+02  0.00000000000E+00 0. -1.
         21    1    1    2  502  501 -0.19424324853E+02  0.45136187263E+02  0.85302794605E+02  0.98443621246E+02  0.00000000000E+00 0. -1.
<scales pt_clust_5="13000.00000" pt_clust_6="13000.00000" pt_clust_7="13000.00000" pt_clust_8="13000.00000" pt_clust_9="49.13837"></scales>
<clustering>
<clus scale="   49.138">  1  9  2 -1</clus>
<clus scale="   79.294">  5  6 -1 -1</clus>
<clus scale="   94.074">  7  8 -1 -1</clus>
<clus scale="  149.194">  1  5  2 -1</clus>
<clus scale="   49.138">  1  5  2 -1</clus>
</clustering>
</event>
<event>
 9    2  0.2984928E-005  0.9329249E+02  0.7546771E-02  0.1302577E+00
          2   -1    0    0  502    0  0.00000000000E+00  0.00000000000E+00  0.24489684473E+03  0.24489684473E+03  0.00000000000E+00 0. -1.
         -1   -1    0    0    0  501 -0.00000000000E+00 -0.00000000000E+00 -0.92304604687E+02  0.92304604687E+02  0.00000000000E+00 0.  1.
         23    2    1    2    0    0  0.55998477274E+01 -0.82877334262E+01 -0.28572568946E+02  0.97225595361E+02  0.92392531502E+02 0.  0.
         24    2    1    2    0    0 -0.33273950479E+02 -0.41123756649E+02  0.84454150747E+02  0.12790309763E+03  0.80177176706E+02 0.  0.
        -13    1    4    4    0    0  0.22231398310E+02 -0.74931677749E+01  0.28411995631E+01  0.23631653541E+02  0.00000000000E+00 0.  1.
         14    1    4    4    0    0 -0.55505348789E+02 -0.33630588874E+02  0.81612951183E+02  0.10427144409E+03  0.00000000000E+00 0. -1.
        -11    1    3    3    0    0 -0.25615159974E+02 -0.27085867533E+02  0.15210423768E+02  0.40263353458E+02  0.00000000000E+00 0. -1.
         11    1    3    3    0    0  0.31215007702E+02  0.18798134106E+02 -0.43782992713E+02  0.56962241903E+02  0.00000000000E+00 0.  1.
         21    1    1    2  502  501  0.27674102752E+02  0.49411490075E+02  0.96710658246E+02  0.11207275643E+03  0.00000000000E+00 0.  1.
<scales pt_clust_5="13000.00000" pt_clust_6="13000.00000" pt_clust_7="13000.00000" pt_clust_8="13000.00000" pt_clust_9="56.63348"></scales>
<clustering>
<clus scale="   56.633">  1  9  2 -1</clus>
<clus scale="   80.177">  5  6 -1 -1</clus>
<clus scale="   81.213">  1  5  2 -1</clus>
<clus scale="   92.393">  7  8 -1 -1</clus>
<clus scale="   56.633">  1  5  2 -1</clus>
</clustering>
</event>
<event>
 9    2  0.2984928E-005  0.9271923E+02  0.7546771E-02  0.1304172E+00
          2   -1    0    0  502    0  0.00000000000E+00  0.00000000000E+00  0.27343146329E+03  0.27343146329E+03  0.00000000000E+00 0. -1.
         -1   -1    0    0    0  501 -0.00000000000E+00 -0.00000000000E+00 -0.94252083263E+02  0.94252083263E+02  0.00000000000E+00 0.  1.
         23    2    1    2    0    0 -0.33282049686E+01  0.17367387897E+02 -0.56668476186E+02  0.10899020314E+03  0.91404841644E+02 0.  0.
         24    2    1    2    0    0  0.16664141643E+02  0.43994273445E+01  0.18336352553E+03  0.20033028644E+03  0.78822538599E+02 0.  0.
        -11    1    4    4    0    0 -0.66655389707E+01  0.38150446742E+02  0.73962288832E+02  0.83488359462E+02  0.00000000000E+00 0.  1.
         12    1    4    4    0    0  0.23329680614E+02 -0.33751019398E+02  0.10940123670E+03  0.11684192698E+03  0.00000000000E+00 0. -1.
        -11    1    3    3    0    0  0.27153082760E+02 -0.27178196019E+02 -0.30237368038E+02  0.48890108080E+02  0.00000000000E+00 0.  1.
         11    1    3    3    0    0 -0.30481287729E+02  0.44545583915E+02 -0.26431108148E+02  0.60100095057E+02  0.00000000000E+00 0. -1.
         21    1    1    2  502  501 -0.13335936675E+02 -0.21766815241E+02  0.52484330683E+02  0.58363056979E+02  0.00000000000E+00 0. -1.
<scales pt_clust_5="13000.00000" pt_clust_6="13000.00000" pt_clust_7="13000.00000" pt_clust_8="13000.00000" pt_clust_9="25.52727"></scales>
<clustering>
<clus scale="   25.527">  1  9  2 -1</clus>
<clus scale="   78.823">  5  6 -1 -1</clus>
<clus scale="   80.343">  1  5  2 -1</clus>
<clus scale="   91.405">  7  8 -1 -1</clus>
<clus scale="   25.527">  1  5  2 -1</clus>
</clustering>
</event>
<event>
 9    2  0.2984928E-005  0.1284167E+03  0.7546771E-02  0.1232415E+00
          2   -1    0    0  502    0  0.00000000000E+00  0.00000000000E+00  0.42733220135E+02  0.42733220135E+02  0.00000000000E+00 0. -1.
         -1   -1    0    0    0  501 -0.00000000000E+00 -0.00000000000E+00 -0.66657557126E+03  0.66657557126E+03  0.00000000000E+00 0.  1.
         24    2    1    2    0    0 -0.82412714062E+02 -0.42353167885E+02 -0.44163099472E+03  0.45856887138E+03  0.81620022255E+02 0.  0.
         23    2    1    2    0    0  0.58896232734E+02  0.66749399536E+02 -0.17427815654E+03  0.21593853107E+03  0.91281568701E+02 0.  0.
        -11    1    3    3    0    0 -0.65387700710E+02 -0.66890378299E+02 -0.32777952446E+03  0.34086550246E+03  0.00000000000E+00 0.  1.
         12    1    3    3    0    0 -0.17025013352E+02  0.24537210414E+02 -0.11385147026E+03  0.11770336892E+03  0.00000000000E+00 0. -1.
        -11    1    4    4    0    0  0.26791555679E+02  0.83889887484E+02 -0.10017250154E+03  0.13337852429E+03  0.00000000000E+00 0.  1.
         11    1    4    4    0    0  0.32104677055E+02 -0.17140487948E+02 -0.74105654997E+02  0.82560006774E+02  0.00000000000E+00 0. -1.
         21    1    1    2  502  501  0.23516481328E+02 -0.24396231651E+02 -0.79331998721E+01  0.34801388952E+02  0.00000000000E+00 0. -1.
<scales pt_clust_5="13000.00000" pt_clust_6="13000.00000" pt_clust_7="13000.00000" pt_clust_8="13000.00000" pt_clust_9="33.88511"></scales>
<clustering>
<clus scale="   33.885">  1  9  2 -1</clus>
<clus scale="   81.620">  5  6 -1 -1</clus>
<clus scale="   91.282">  7  8 -1 -1</clus>
<clus scale="  121.739">  2  5  1 -1</clus>
<clus scale="   33.885">  1  5  2 -1</clus>
</clustering>
</event>
<event>
 9    2  0.2984928E-005  0.1069040E+03  0.7546771E-02  0.1271021E+00
          2   -1    0    0  502    0  0.00000000000E+00  0.00000000000E+00  0.55839755076E+03  0.55839755076E+03  0.00000000000E+00 0. -1.
         -1   -1    0    0    0  501 -0.00000000000E+00 -0.00000000000E+00 -0.28022478136E+02  0.28022478136E+02  0.00000000000E+00 0.  1.
         23    2    1    2    0    0  0.39680594151E+02  0.49889189972E+02  0.14779125902E+03  0.18498882771E+03  0.91187330832E+02 0.  0.
         24    2    1    2    0    0 -0.33029217544E+02 -0.29962691536E+02  0.23412430612E+03  0.25149277545E+03  0.80285324271E+02 0.  0.
        -13    1    4    4    0    0  0.18561948202E+02 -0.34309627004E+02  0.11980998844E+03  0.12600051490E+03  0.00000000000E+00 0.  1.
         14    1    4    4    0    0 -0.51591165746E+02  0.43469354680E+01  0.11431431768E+03  0.12549226055E+03  0.00000000000E+00 0. -1.
        -11    1    3    3    0    0  0.58169368982E+02  0.32881995770E+02  0.48492414803E+02  0.82561585662E+02  0.00000000000E+00 0.  1.
         11    1    3    3    0    0 -0.18488774830E+02  0.17007194202E+02  0.99298844221E+02  0.10242724205E+03  0.00000000000E+00 0. -1.
         21    1    1    2  502  501 -0.66513766072E+01 -0.19926498436E+02  0.14845950749E+03  0.14993842574E+03  0.00000000000E+00 0. -1.
<scales pt_clust_5="13000.00000" pt_clust_6="13000.00000" pt_clust_7="13000.00000" pt_clust_8="13000.00000" pt_clust_9="21.00729"></scales>
<clustering>
<clus scale="   21.007">  1  9  2 -1</clus>
<clus scale="   80.285">  5  6 -1 -1</clus>
<clus scale="   91.187">  7  8 -1 -1</clus>
<clus scale="   97.771">  1  5  2 -1</clus>
<clus scale="   21.007">  1  5  2 -1</clus>
</clustering>
</event>
<event>
 9    2  0.2984928E-005  0.1532395E+03  0.7546771E-02  0.1198701E+00
          2   -1    0    0  502    0  0.00000000000E+00  0.00000000000E+00  0.49965493267E+03  0.49965493267E+03  0.00000000000E+00 0. -1.
         -1   -1    0    0    0  501 -0.00000000000E+00 -0.00000000000E+00 -0.15071798424E+03  0.15071798424E+03  0.00000000000E+00 0.  1.
         23    2    1    2    0    0  0.18488362832E+02 -0.13802713732E+03 -0.62528099496E+02  0.17792126579E+03  0.91394219714E+02 0.  0.
         24    2    1    2    0    0 -0.78560809730E+02  0.42639131706E+02  0.21945043335E+03  0.24979230884E+03  0.79043079897E+02 0.  0.
        -11    1    4    4    0    0 -0.88638452694E+02  0.41528363073E+02  0.21872360223E+03  0.23962761612E+03  0.00000000000E+00 0.  1.
         12    1    4    4    0    0  0.10077642964E+02  0.11107686324E+01  0.72683112583E+00  0.10164692723E+02  0.00000000000E+00 0. -1.
        -13    1    3    3    0    0 -0.25790731398E+02 -0.11022546397E+03 -0.52062055523E+02  0.12460045087E+03  0.00000000000E+00 0.  1.
         13    1    3    3    0    0  0.44279094229E+02 -0.27801673354E+02 -0.10466043973E+02  0.53320814918E+02  0.00000000000E+00 0. -1.
         21    1    1    2  502  501  0.60072446899E+02  0.95388005613E+02  0.19201461457E+03  0.22265934227E+03  0.00000000000E+00 0. -1.
<scales pt_clust_5="13000.00000" pt_clust_6="13000.00000" pt_clust_7="13000.00000" pt_clust_8="13000.00000" pt_clust_9="112.72786"></scales>
<clustering>
<clus scale="   79.043">  5  6 -1 -1</clus>
<clus scale="   91.394">  7  8 -1 -1</clus>
<clus scale="  112.728">  1  9  2 -1</clus>
<clus scale="  146.210">  1  5  2 -1</clus>
<clus scale="  112.728">  1  5  2 -1</clus>
</clustering>
</event>
<event>
 9    2  0.2984928E-005  0.2661080E+03  0.7546771E-02  0.1103625E+00
          2   -1    0    0  502    0  0.00000000000E+00  0.00000000000E+00  0.53458813808E+03  0.53458813808E+03  0.00000000000E+00 0. -1.
         -1   -1    0    0    0  501 -0.00000000000E+00 -0.00000000000E+00 -0.51210735817E+03  0.51210735817E+03  0.00000000000E+00 0.  1.
         23    2    1    2    0    0  0.39049703288E+02  0.24954303724E+03 -0.42033610198E+03  0.49746962764E+03  0.83647982828E+02 0.  0.
         24    2    1    2    0    0 -0.89340810301E+02 -0.24163927473E+03  0.33827888469E+03  0.43295094540E+03  0.81502133830E+02 0.  0.
        -13    1    4    4    0    0 -0.23005644292E+01 -0.83415129669E+02  0.66773204824E+02  0.10687393198E+03  0.00000000000E+00 0.  1.
         14    1    4    4    0    0 -0.87040245872E+02 -0.15822414506E+03  0.27150567987E+03  0.32607701342E+03  0.00000000000E+00 0. -1.
        -11    1    3    3    0    0  0.12501028373E+02  0.14988039701E+03 -0.17150522552E+03  0.22811061242E+03  0.00000000000E+00 0.  1.
         11    1    3    3    0    0  0.26548674915E+02  0.99662640228E+02 -0.24883087647E+03  0.26935901522E+03  0.00000000000E+00 0. -1.
         21    1    1    2  502  501  0.50291107013E+02 -0.79037625135E+01  0.10453799721E+03  0.11627492321E+03  0.00000000000E+00 0. -1.
<scales pt_clust_5="13000.00000" pt_clust_6="13000.00000" pt_clust_7="13000.00000" pt_clust_8="13000.00000" pt_clust_9="50.90840"></scales>
<clustering>
<clus scale="   50.908">  1  9  2 -1</clus>
<clus scale="   81.502">  5  6 -1 -1</clus>
<clus scale="   83.648">  7  8 -1 -1</clus>
<clus scale="  265.441">  1  5  2 -1</clus>
<clus scale="   50.908">  1  5  2 -1</clus>
</clustering>
</event>
<event>
 9    2  0.2984928E-005  0.1721372E+03  0.7546771E-02  0.1198128E+00
         -1   -1    0    0    0  501 -0.00000000000E+00  0.00000000000E+00  0.76149461698E+02  0.76149461698E+02  0.00000000000E+00 0.  1.
          2   -1    0    0  502    0  0.00000000000E+00 -0.00000000000E+00 -0.70737956797E+03  0.70737956797E+03  0.00000000000E+00 0. -1.
         23    2    1    2    0    0  0.32944845220E+02  0.37810194786E+02 -0.51590502601E+02  0.11649058106E+03  0.91616056782E+02 0.  0.
         24    2    1    2    0    0 -0.16740733871E+03  0.31177463955E+01 -0.38206105742E+03  0.42456671735E+03  0.79065216644E+02 0.  0.
        -13    1    4    4    0    0 -0.13698153726E+03  0.34669742419E+02 -0.28819038743E+03  0.32096671478E+03  0.00000000000E+00 0.  1.
         14    1    4    4    0    0 -0.30425801451E+02 -0.31551996024E+02 -0.93870669993E+02  0.10360000257E+03  0.00000000000E+00 0. -1.
        -13    1    3    3    0    0  0.45015468917E+02  0.22638965032E+01 -0.62811326394E+02  0.77309639713E+02  0.00000000000E+00 0.  1.
         13    1    3    3    0    0 -0.12070623697E+02  0.35546298283E+02  0.11220823793E+02  0.39180941345E+02  0.00000000000E+00 0. -1.
         21    1    1    2  502  501  0.13446249349E+03 -0.40927941182E+02 -0.19757854625E+03  0.24247173127E+03  0.00000000000E+00 0. -1.
<scales pt_clust_5="13000.00000" pt_clust_6="13000.00000" pt_clust_7="13000.00000" pt_clust_8="13000.00000" pt_clust_9="152.90492"></scales>
<clustering>
<clus scale="   79.065">  5  6 -1 -1</clus>
<clus scale="   91.616">  7  8 -1 -1</clus>
<clus scale="  104.444">  1  7  2 -1</clus>
<clus scale="  152.905">  1  9  2 -1</clus>
<clus scale="  172.137">  2  5  1 -1</clus>
</clustering>
</event>
<event>
 9    2  0.2984928E-005  0.2500719E+03  0.7546771E-02  0.1113862E+00
         -1   -1    0    0    0  501 -0.00000000000E+00  0.00000000000E+00  0.56786476881E+03  0.56786476881E+03  0.00000000000E+00 0.  1.
          2   -1    0    0  502    0  0.00000000000E+00 -0.00000000000E+00 -0.14132481763E+03  0.14132481763E+03  0.00000000000E+00 0. -1.
         23    2    1    2    0    0  0.20155270207E+03 -0.10786004751E+03  0.32570695587E+03  0.40821829544E+03  0.91103644669E+02 0.  0.
         24    2    1    2    0    0 -0.20250901084E+03  0.13473309593E+03  0.85336325329E+02  0.26993547237E+03  0.80124679162E+02 0.  0.
        -13    1    4    4    0    0 -0.14370068743E+03  0.11551509776E+03  0.94848041794E+02  0.20733976080E+03  0.00000000000E+00 0.  1.
         14    1    4    4    0    0 -0.58808323408E+02  0.19217998170E+02 -0.95117164647E+01  0.62595711561E+02  0.00000000000E+00 0. -1.
        -11    1    3    3    0    0  0.10916406873E+03 -0.73460642133E+02  0.25484355396E+03  0.28680742117E+03  0.00000000000E+00 0. -1.
         11    1    3    3    0    0  0.92388633345E+02 -0.34399405378E+02  0.70863401911E+02  0.12141087427E+03  0.00000000000E+00 0.  1.
         21    1    1    2  502  501  0.95630877061E+00 -0.26873048414E+02  0.15496669983E+02  0.31035818631E+02  0.00000000000E+00 0. -1.
<scales pt_clust_5="13000.00000" pt_clust_6="13000.00000" pt_clust_7="13000.00000" pt_clust_8="13000.00000" pt_clust_9="26.89006"></scales>
<clustering>
<clus scale="   26.890">  2  9  1 -1</clus>
<clus scale="   80.125">  5  6 -1 -1</clus>
<clus scale="   91.104">  7  8 -1 -1</clus>
<clus scale="  246.284">  2  5  1 -1</clus>
<clus scale="   26.890">  2  5  1 -1</clus>
</clustering>
</event>
<event>
 9    2  0.2984928E-005  0.9478584E+02  0.7546771E-02  0.1295349E+00
         -1   -1    0    0    0  501 -0.00000000000E+00  0.00000000000E+00  0.40090789264E+02  0.40090789264E+02  0.00000000000E+00 0.  1.
          2   -1    0    0  502    0  0.00000000000E+00 -0.00000000000E+00 -0.50232516304E+03  0.50232516304E+03  0.00000000000E+00 0. -1.
         23    2    1    2    0    0 -0.16279656167E+02  0.30407354019E+02 -0.36475838148E+02  0.10279458165E+03  0.89702869876E+02 0.  0.
         24    2    1    2    0    0  0.97834809972E+01 -0.67960568034E+01 -0.35396508156E+03  0.36376628714E+03  0.83022465689E+02 0.  0.
        -13    1    4    4    0    0  0.16232706075E+01  0.34168555045E+02 -0.85797741997E+02  0.92365457250E+02  0.00000000000E+00 0.  1.
         14    1    4    4    0    0  0.81602103896E+01 -0.40964611849E+02 -0.26816733956E+03  0.27140082989E+03  0.00000000000E+00 0. -1.
        -13    1    3    3    0    0  0.37267878337E+02  0.93599188756E+01 -0.17378684861E+02  0.42172520966E+02  0.00000000000E+00 0.  1.
         13    1    3    3    0    0 -0.53547534504E+02  0.21047435143E+02 -0.19097153287E+02  0.60622060681E+02  0.00000000000E+00 0. -1.
         21    1    1    2  502  501  0.64961751694E+01 -0.23611297215E+02 -0.71793454069E+02  0.75855083515E+02  0.00000000000E+00 0. -1.
<scales pt_clust_5="13000.00000" pt_clust_6="13000.00000" pt_clust_7="13000.00000" pt_clust_8="13000.00000" pt_clust_9="24.48864"></scales>
<clustering>
<clus scale="   24.489">  2  9  1 -1</clus>
<clus scale="   83.022">  5  6 -1 -1</clus>
<clus scale="   88.490">  2  5  1 -1</clus>
<clus scale="   89.703">  7  8 -1 -1</clus>
<clus scale="   24.489">  2  5  1 -1</clus>
</clustering>
</event>
<event>
 9    2  0.2984928E-005  0.9908476E+02  0.7546771E-02  0.1292711E+00
          2   -1    0    0  502    0  0.00000000000E+00  0.00000000000E+00  0.32346085973E+03  0.32346085973E+03  0.00000000000E+00 0. -1.
         -1   -1    0    0    0  501 -0.00000000000E+00 -0.00000000000E+00 -0.44327367275E+02  0.44327367275E+02  0.00000000000E+00 0.  1.
         23    2    1    2    0    0 -0.23887051303E+02  0.14624652361E+02  0.43062717709E+02  0.10721493696E+03  0.94107244007E+02 0.  0.
         24    2    1    2    0    0  0.42333209716E+02 -0.41566896919E+01  0.20916361392E+03  0.22631202465E+03  0.75221914355E+02 0.  0.
        -11    1    4    4    0    0  0.19431279037E+02  0.35426014693E+02  0.89070643234E+02  0.97806730894E+02  0.00000000000E+00 0.  1.
         12    1    4    4    0    0  0.22901930679E+02 -0.39582704385E+02  0.12009297069E+03  0.12850529376E+03  0.00000000000E+00 0. -1.
        -11    1    3    3    0    0 -0.54344020732E+02 -0.14019629044E+02  0.28466388361E+02  0.62929785111E+02  0.00000000000E+00 0.  1.
         11    1    3    3    0    0  0.30456969428E+02  0.28644281405E+02  0.14596329348E+02  0.44285151850E+02  0.00000000000E+00 0. -1.
         21    1    1    2  502  501 -0.18446158413E+02 -0.10467962669E+02  0.26907160824E+02  0.34261265392E+02  0.00000000000E+00 0. -1.
<scales pt_clust_5="13000.00000" pt_clust_6="13000.00000" pt_clust_7="13000.00000" pt_clust_8="13000.00000" pt_clust_9="21.20941"></scales>
<clustering>
<clus scale="   21.209">  1  9  2 -1</clus>
<clus scale="   75.222">  5  6 -1 -1</clus>
<clus scale="   81.363">  1  5  2 -1</clus>
<clus scale="   94.107">  7  8 -1 -1</clus>
<clus scale="   21.209">  1  5  2 -1</clus>
</clustering>
</event>
<event>
 9    2  0.2984928E-005  0.1059775E+03  0.7546771E-02  0.1272029E+00
         -1   -1    0    0    0  501 -0.00000000000E+00  0.00000000000E+00  0.13123926781E+03  0.13123926781E+03  0.00000000000E+00 0.  1.
          2   -1    0    0  502    0  0.00000000000E+00 -0.00000000000E+00 -0.20723624620E+03  0.20723624620E+03  0.00000000000E+00 0. -1.
         24    2    1    2    0    0 -0.20327281343E+02 -0.44459304343E+02  0.73239458418E+02  0.12068686899E+03  0.82531654341E+02 0.  0.
         23    2    1    2    0    0  0.38919688533E+02  0.73668739526E+02 -0.12210227573E+03  0.17379851651E+03  0.91406418075E+02 0.  0.
        -13    1    3    3    0    0  0.21907988923E+02 -0.37350045975E+02  0.63343094551E+02  0.76728961548E+02  0.00000000000E+00 0.  1.
         14    1    3    3    0    0 -0.42235270267E+02 -0.71092583675E+01  0.98963638673E+01  0.43957907444E+02  0.00000000000E+00 0. -1.
        -13    1    4    4    0    0 -0.11738786851E+02  0.63586260700E+02 -0.37708403849E+02  0.74852758048E+02  0.00000000000E+00 0.  1.
         13    1    4    4    0    0  0.50658475384E+02  0.10082478825E+02 -0.84393871878E+02  0.98945758464E+02  0.00000000000E+00 0. -1.
         21    1    1    2  502  501 -0.18592407189E+02 -0.29209435183E+02 -0.27134161075E+02  0.43990128507E+02  0.00000000000E+00 0.  1.
<scales pt_clust_5="13000.00000" pt_clust_6="13000.00000" pt_clust_7="13000.00000" pt_clust_8="13000.00000" pt_clust_9="34.62468"></scales>
<clustering>
<clus scale="   34.625">  2  9  1 -1</clus>
<clus scale="   82.532">  5  6 -1 -1</clus>
<clus scale="   91.406">  7  8 -1 -1</clus>
<clus scale="   98.425">  1  5  2 -1</clus>
<clus scale="   34.625">  2  5  1 -1</clus>
</clustering>
</event>
<event>
 9    2  0.2984928E-005  0.9241521E+02  0.7546771E-02  0.1304829E+00
          2   -1    0    0  502    0  0.00000000000E+00  0.00000000000E+00  0.40721149281E+03  0.40721149281E+03  0.00000000000E+00 0. -1.
         -1   -1    0    0    0  501 -0.00000000000E+00 -0.00000000000E+00 -0.70213724182E+02  0.70213724182E+02  0.00000000000E+00 0.  1.
         24    2    1    2    0    0  0.16071666325E+02 -0.66908685603E+02  0.67461794099E+02  0.12405250997E+03  0.78120809643E+02 0.  0.
         23    2    1    2    0    0  0.22885117503E+01  0.52627778590E+01  0.27422986924E+03  0.28887970952E+03  0.90645084094E+02 0.  0.
        -11    1    3    3    0    0  0.43058912914E+02 -0.17455788003E+02  0.40319082281E+02  0.61517500860E+02  0.00000000000E+00 0.  1.
         12    1    3    3    0    0 -0.26987246589E+02 -0.49452897600E+02  0.27142711818E+02  0.62535009110E+02  0.00000000000E+00 0. -1.
        -13    1    4    4    0    0 -0.62662295797E+01  0.41159424163E+02  0.70833750987E+02  0.82163155425E+02  0.00000000000E+00 0.  1.
         13    1    4    4    0    0  0.85547413300E+01 -0.35896646304E+02  0.20339611825E+03  0.20671655409E+03  0.00000000000E+00 0. -1.
         21    1    1    2  502  501 -0.18360178075E+02  0.61645907744E+02 -0.46938947053E+01  0.64492997511E+02  0.00000000000E+00 0.  1.
<scales pt_clust_5="13000.00000" pt_clust_6="13000.00000" pt_clust_7="13000.00000" pt_clust_8="13000.00000" pt_clust_9="64.32196"></scales>
<clustering>
<clus scale="   64.322">  2  9  1 -1</clus>
<clus scale="   78.121">  5  6 -1 -1</clus>
<clus scale="   80.168">  2  5  1 -1</clus>
<clus scale="   90.645">  7  8 -1 -1</clus>
<clus scale="   92.415">  1  5  2 -1</clus>
</clustering>
</event>
<event>
 9    2  0.2984928E-005  0.1202120E+03  0.7546771E-02  0.1244678E+00
          2   -1    0    0  502    0  0.00000000000E+00  0.00000000000E+00  0.44983628607E+03  0.44983628607E+03  0.00000000000E+00 0. -1.
         -1   -1    0    0    0  501 -0.00000000000E+00 -0.00000000000E+00 -0.10160696749E+03  0.10160696749E+03  0.00000000000E+00 0.  1.
         24    2    1    2    0    0 -0.79859535846E+02  0.35326081001E+02 -0.44643371428E+02  0.12731683968E+03  0.81185402560E+02 0.  0.
         23    2    1    2    0    0  0.53212159391E+02 -0.26272396692E+02  0.17543280251E+03  0.20487277869E+03  0.87603735745E+02 0.  0.
        -13    1    3    3    0    0 -0.90584604130E+02  0.13964119079E+02 -0.47520265857E+02  0.10324118749E+03  0.00000000000E+00 0.  1.
         14    1    3    3    0    0  0.10725068283E+02  0.21361961922E+02  0.28768944287E+01  0.24075652190E+02  0.00000000000E+00 0. -1.
        -13    1    4    4    0    0  0.34228654640E+01 -0.37216187476E+02  0.13420012856E+03  0.13930698160E+03  0.00000000000E+00 0. -1.
         13    1    4    4    0    0  0.49789293927E+02  0.10943790784E+02  0.41232673953E+02  0.65565797088E+02  0.00000000000E+00 0.  1.
         21    1    1    2  502  501  0.26647376456E+02 -0.90536843098E+01  0.21743988749E+03  0.21925363519E+03  0.00000000000E+00 0. -1.
<scales pt_clust_5="13000.00000" pt_clust_6="13000.00000" pt_clust_7="13000.00000" pt_clust_8="13000.00000" pt_clust_9="28.14342"></scales>
<clustering>
<clus scale="   28.143">  1  9  2 -1</clus>
<clus scale="   81.185">  5  6 -1 -1</clus>
<clus scale="   87.604">  7  8 -1 -1</clus>
<clus scale="  115.618">  2  5  1 -1</clus>
<clus scale="   28.143">  1  5  2 -1</clus>
</clustering>
</event>
<event>
 9    2  0.2984928E-005  0.1439300E+03  0.7546771E-02  0.1210348E+00
         -1   -1    0    0    0  501 -0.00000000000E+00  0.00000000000E+00  0.48350075522E+03  0.48350075522E+03  0.00000000000E+00 0.  1.
          2   -1    0    0  502    0  0.00000000000E+00 -0.00000000000E+00 -0.59871315993E+03  0.59871315993E+03  0.00000000000E+00 0. -1.
         23    2    1    2    0    0  0.81247034982E+02 -0.77660394090E+02  0.45949941205E+03  0.48164457176E+03  0.90606657207E+02 0.  0.
         24    2    1    2    0    0 -0.42039503464E+02  0.79279460891E+02 -0.51729128682E+03  0.53102102088E+03  0.79627234210E+02 0.  0.
        -11    1    4    4    0    0  0.20688112093E+02  0.42447362468E+02 -0.20677231578E+03  0.21209565563E+03  0.00000000000E+00 0.  1.
         12    1    4    4    0    0 -0.62727615557E+02  0.36832098423E+02 -0.31051897104E+03  0.31892536525E+03  0.00000000000E+00 0. -1.
        -13    1    3    3    0    0  0.75113134063E+02 -0.18888108015E+02  0.33495251418E+03  0.34379053258E+03  0.00000000000E+00 0. -1.
         13    1    3    3    0    0  0.61339009188E+01 -0.58772286075E+02  0.12454689787E+03  0.13785403918E+03  0.00000000000E+00 0.  1.
         21    1    1    2  502  501 -0.39207531518E+02 -0.16190668001E+01 -0.57420529938E+02  0.69548322506E+02  0.00000000000E+00 0.  1.
<scales pt_clust_5="13000.00000" pt_clust_6="13000.00000" pt_clust_7="13000.00000" pt_clust_8="13000.00000" pt_clust_9="39.24095"></scales>
<clustering>
<clus scale="   39.241">  2  9  1 -1</clus>
<clus scale="   79.627">  5  6 -1 -1</clus>
<clus scale="   90.607">  7  8 -1 -1</clus>
<clus scale="  137.284">  2  5  1 -1</clus>
<clus scale="   39.241">  2  5  1 -1</clus>
</clustering>
</event>
<event>
 9    2  0.3774552E-005  0.1133711E+03  0.7546771E-02  0.1258720E+00
          2   -1    0    0  502    0  0.00000000000E+00  0.00000000000E+00  0.48496269788E+03  0.48496269788E+03  0.00000000000E+00 0. -1.
         -1   -1    0    0    0  501 -0.00000000000E+00 -0.00000000000E+00 -0.14505856933E+03  0.14505856933E+03  0.00000000000E+00 0.  1.
         23    2    1    2    0    0 -0.27916239703E+02  0.56893069387E+02 -0.11262368017E+03  0.16004834735E+03  0.94420561160E+02 0.  0.
         24    2    1    2    0    0  0.38905625669E+02 -0.38384503420E+02  0.41443258337E+03  0.42621700811E+03  0.83183856795E+02 0.  0.
        -11    1    4    4    0    0 -0.11209375663E+02 -0.35219689102E+02  0.81122531310E+02  0.89145620696E+02  0.00000000000E+00 0.  1.
         12    1    4    4    0    0  0.50115001332E+02 -0.31648143183E+01  0.33331005206E+03  0.33707138741E+03  0.00000000000E+00 0. -1.
        -11    1    3    3    0    0 -0.37691666587E+02 -0.14470096071E+02 -0.52462455210E+02  0.66199355111E+02  0.00000000000E+00 0.  1.
         11    1    3    3    0    0  0.97754268832E+01  0.71363165458E+02 -0.60161224963E+02  0.93848992238E+02  0.00000000000E+00 0. -1.
         21    1    1    2  502  501 -0.10989385965E+02 -0.18508565967E+02  0.38095225354E+02  0.43755911748E+02  0.00000000000E+00 0.  1.
<scales pt_clust_5="13000.00000" pt_clust_6="13000.00000" pt_clust_7="13000.00000" pt_clust_8="13000.00000" pt_clust_9="21.52519"></scales>
<clustering>
<clus scale="   21.525">  1  9  2 -1</clus>
<clus scale="   83.184">  5  6 -1 -1</clus>
<clus scale="   94.421">  7  8 -1 -1</clus>
<clus scale="  104.198">  1  5  2 -1</clus>
<clus scale="   21.525">  1  5  2 -1</clus>
</clustering>
</event>
<event>
 9    2  0.2984928E-005  0.1315194E+03  0.7546771E-02  0.1227691E+00
          2   -1    0    0  502    0  0.00000000000E+00  0.00000000000E+00  0.18132228508E+03  0.18132228508E+03  0.00000000000E+00 0. -1.
         -1   -1    0    0    0  501 -0.00000000000E+00 -0.00000000000E+00 -0.18942648647E+03  0.18942648647E+03  0.00000000000E+00 0.  1.
         24    2    1    2    0    0 -0.83148027793E+02 -0.48068974198E+02 -0.89286221078E+02  0.15443203055E+03  0.81565936383E+02 0.  0.
         23    2    1    2    0    0  0.66426959567E+02  0.67898302505E+02  0.11416935650E+03  0.17435293787E+03  0.91332275466E+02 0.  0.
        -11    1    3    3    0    0 -0.95448216729E+02 -0.52922038405E+02 -0.65687251882E+02  0.12738100049E+03  0.00000000000E+00 0.  1.
         12    1    3    3    0    0  0.12300188937E+02  0.48530642072E+01 -0.23598969196E+02  0.27051030058E+02  0.00000000000E+00 0. -1.
        -11    1    4    4    0    0  0.74196390033E+01  0.69391556475E+02  0.43328252377E+02  0.82143634002E+02  0.00000000000E+00 0.  1.
         11    1    4    4    0    0  0.59007320563E+02 -0.14932539704E+01  0.70841104120E+02  0.92209303871E+02  0.00000000000E+00 0. -1.
         21    1    1    2  502  501  0.16721068226E+02 -0.19829328307E+02 -0.32987336806E+02  0.41963803132E+02  0.00000000000E+00 0. -1.
<scales pt_clust_5="13000.00000" pt_clust_6="13000.00000" pt_clust_7="13000.00000" pt_clust_8="13000.00000" pt_clust_9="25.93832"></scales>
<clustering>
<clus scale="   25.938">  2  9  1 -1</clus>
<clus scale="   81.566">  5  6 -1 -1</clus>
<clus scale="   91.332">  7  8 -1 -1</clus>
<clus scale="  124.935">  2  5  1 -1</clus>
<clus scale="  131.519">  1  5  2 -1</clus>
</clustering>
</event>
<event>
 9    2  0.2984928E-005  0.1350113E+03  0.7546771E-02  0.1238098E+00
          2   -1    0    0  502    0  0.00000000000E+00  0.00000000000E+00  0.72040534502E+03  0.72040534502E+03  0.00000000000E+00 0. -1.
         -1   -1    0    0    0  501 -0.00000000000E+00 -0.00000000000E+00 -0.75831960585E+02  0.75831960585E+02  0.00000000000E+00 0.  1.
         23    2    1    2    0    0  0.19899055624E+02  0.17185517824E+01  0.68082996205E+01  0.93500682348E+02  0.91088412111E+02 0.  0.
         24    2    1    2    0    0 -0.36199956424E+02 -0.11084462820E+03  0.53420017132E+03  0.55140945707E+03  0.71313377813E+02 0.  0.
        -11    1    4    4    0    0 -0.80085586643E+01 -0.10629860073E+03  0.38414609448E+03  0.39866245301E+03  0.00000000000E+00 0.  1.
         12    1    4    4    0    0 -0.28191397759E+02 -0.45460274659E+01  0.15005407684E+03  0.15274700406E+03  0.00000000000E+00 0. -1.
        -13    1    3    3    0    0 -0.90368955757E+00 -0.28740603099E+02 -0.29885265610E+02  0.41472497174E+02  0.00000000000E+00 0.  1.
         13    1    3    3    0    0  0.20802745182E+02  0.30459154882E+02  0.36693565230E+02  0.52028185174E+02  0.00000000000E+00 0. -1.
         21    1    1    2  502  501  0.16300900799E+02  0.10912607642E+03  0.10356491350E+03  0.15132716619E+03  0.00000000000E+00 0. -1.
<scales pt_clust_5="13000.00000" pt_clust_6="13000.00000" pt_clust_7="13000.00000" pt_clust_8="13000.00000" pt_clust_9="114.64049"></scales>
<clustering>
<clus scale="   71.313">  5  6 -1 -1</clus>
<clus scale="   91.088">  7  8 -1 -1</clus>
<clus scale="   93.252">  2  7  1 -1</clus>
<clus scale="  114.640">  2  9  1 -1</clus>
<clus scale="  135.011">  1  5  2 -1</clus>
</clustering>
</event>
<event>
 9    2  0.2984928E-005  0.1096200E+03  0.7546771E-02  0.1266631E+00
         -1   -1    0    0    0  501 -0.00000000000E+00  0.00000000000E+00  0.12314279783E+03  0.12314279783E+03  0.00000000000E+00 0.  1.
          2   -1    0    0  502    0  0.00000000000E+00 -0.00000000000E+00 -0.32367494910E+03  0.32367494910E+03  0.00000000000E+00 0. -1.
         23    2    1    2    0    0 -0.31748948927E+01 -0.56831805790E+02  0.69143028139E+02  0.12958800393E+03  0.93660868649E+02 0.  0.
         24    2    1    2    0    0  0.26824036374E+02  0.54622267786E+02 -0.87921676577E+02  0.13393080754E+03  0.80648117956E+02 0.  0.
        -13    1    4    4    0    0 -0.18147372436E+02  0.27066955441E+02 -0.14204270432E+01  0.32618473541E+02  0.00000000000E+00 0.  1.
         14    1    4    4    0    0  0.44971408810E+02  0.27555312345E+02 -0.86501249533E+02  0.10131233400E+03  0.00000000000E+00 0. -1.
        -13    1    3    3    0    0 -0.10575875906E+02 -0.18490322471E+02  0.84861354760E+02  0.87493946693E+02  0.00000000000E+00 0.  1.
         13    1    3    3    0    0  0.74009810133E+01 -0.38341483319E+02 -0.15718326621E+02  0.42094057239E+02  0.00000000000E+00 0. -1.
         21    1    1    2  502  501 -0.23649141481E+02  0.22095380042E+01 -0.18175350283E+03  0.18329893546E+03  0.00000000000E+00 0. -1.
<scales pt_clust_5="13000.00000" pt_clust_6="13000.00000" pt_clust_7="13000.00000" pt_clust_8="13000.00000" pt_clust_9="23.75214"></scales>
<clustering>
<clus scale="   23.752">  2  9  1 -1</clus>
<clus scale="   80.648">  5  6 -1 -1</clus>
<clus scale="   93.661">  7  8 -1 -1</clus>
<clus scale="   98.733">  2  5  1 -1</clus>
<clus scale="   23.752">  2  5  1 -1</clus>
</clustering>
</event>
<event>
 9    2  0.2984928E-005  0.9637193E+02  0.7546771E-02  0.1295997E+00
         -1   -1    0    0    0  501 -0.00000000000E+00  0.00000000000E+00  0.75929942152E+02  0.75929942152E+02  0.00000000000E+00 0.  1.
          2   -1    0    0  502    0  0.00000000000E+00 -0.00000000000E+00 -0.25430843486E+03  0.25430843486E+03  0.00000000000E+00 0. -1.
         24    2    1    2    0    0 -0.22861425217E+02  0.88996782980E+01 -0.38446984238E+00  0.84879114779E+02  0.81255567636E+02 0.  0.
         23    2    1    2    0    0 -0.41526097443E+01 -0.18205494887E+02 -0.40091533454E+02  0.10452796992E+03  0.94710512774E+02 0.  0.
        -11    1    3    3    0    0  0.28929849266E+02 -0.58153674343E+01  0.75432942104E+01  0.30457445140E+02  0.00000000000E+00 0.  1.
         12    1    3    3    0    0 -0.51791274483E+02  0.14715045732E+02 -0.79277640528E+01  0.54421669639E+02  0.00000000000E+00 0. -1.
        -13    1    4    4    0    0  0.17147276047E+02 -0.46004416165E+02  0.27749636159E+01  0.49174544284E+02  0.00000000000E+00 0. -1.
         13    1    4    4    0    0 -0.21299885791E+02  0.27798921278E+02 -0.42866497070E+02  0.55353425639E+02  0.00000000000E+00 0.  1.
         21    1    1    2  502  501  0.27014034961E+02  0.93058165890E+01 -0.13790248941E+03  0.14083129231E+03  0.00000000000E+00 0.  1.
<scales pt_clust_5="13000.00000" pt_clust_6="13000.00000" pt_clust_7="13000.00000" pt_clust_8="13000.00000" pt_clust_9="28.57195"></scales>
<clustering>
<clus scale="   28.572">  2  9  1 -1</clus>
<clus scale="   81.256">  5  6 -1 -1</clus>
<clus scale="   83.186">  1  5  2 -1</clus>
<clus scale="   94.711">  7  8 -1 -1</clus>
<clus scale="   28.572">  2  5  1 -1</clus>
</clustering>
</event>
<event>
 9    2  0.2984928E-005  0.9798584E+02  0.7546771E-02  0.1291565E+00
         -1   -1    0    0    0  501 -0.00000000000E+00  0.00000000000E+00  0.87203711383E+02  0.87203711383E+02  0.00000000000E+00 0.  1.
          2   -1    0    0  502    0  0.00000000000E+00 -0.00000000000E+00 -0.56922469967E+03  0.56922469967E+03  0.00000000000E+00 0. -1.
         24    2    1    2    0    0 -0.36230507824E+02 -0.32368813245E+01  0.45428329957E+02  0.99222398933E+02  0.80363077277E+02 0.  0.
         23    2    1    2    0    0 -0.22352041657E+02  0.31519766559E+02 -0.20733666248E+03  0.23055030793E+03  0.93122733141E+02 0.  0.
        -13    1    3    3    0    0 -0.53615519670E+02  0.12492292457E+02  0.51088052948E+02  0.75104397170E+02  0.00000000000E+00 0.  1.
         14    1    3    3    0    0  0.17385011846E+02 -0.15729173781E+02 -0.56597229911E+01  0.24118001763E+02  0.00000000000E+00 0. -1.
        -13    1    4    4    0    0 -0.22263955789E+02 -0.22810695447E+02 -0.14220325950E+03  0.14573187217E+03  0.00000000000E+00 0.  1.
         13    1    4    4    0    0 -0.88085868156E-01  0.54330462006E+02 -0.65133402988E+02  0.84818435766E+02  0.00000000000E+00 0. -1.
         21    1    1    2  502  501  0.58582549481E+02 -0.28282885234E+02 -0.32011265576E+03  0.32665570419E+03  0.00000000000E+00 0. -1.
<scales pt_clust_5="13000.00000" pt_clust_6="13000.00000" pt_clust_7="13000.00000" pt_clust_8="13000.00000" pt_clust_9="65.05257"></scales>
<clustering>
<clus scale="   65.053">  2  9  1 -1</clus>
<clus scale="   80.363">  5  6 -1 -1</clus>
<clus scale="   85.951">  1  5  2 -1</clus>
<clus scale="   93.123">  7  8 -1 -1</clus>
<clus scale="   65.053">  2  5  1 -1</clus>
</clustering>
</event>
<event>
 9    2  0.2984928E-005  0.1120518E+03  0.7546771E-02  0.1262450E+00
         -1   -1    0    0    0  501 -0.00000000000E+00  0.00000000000E+00  0.28495760403E+03  0.28495760403E+03  0.00000000000E+00 0.  1.
          2   -1    0    0  502    0  0.00000000000E+00 -0.00000000000E+00 -0.11512529703E+03  0.11512529703E+03  0.00000000000E+00 0. -1.
         24    2    1    2    0    0 -0.18060886829E+02 -0.50404687882E+02  0.14164470807E+03  0.16929814016E+03  0.75708709826E+02 0.  0.
         23    2    1    2    0    0  0.55622781984E+02  0.85830904613E+02  0.79376834563E+02  0.15807815428E+03  0.90703819839E+02 0.  0.
        -11    1    3    3    0    0 -0.21961110490E+02 -0.29117016527E+02  0.14303518955E+03  0.14761150522E+03  0.00000000000E+00 0.  1.
         12    1    3    3    0    0  0.39002236603E+01 -0.21287671355E+02 -0.13904814718E+01  0.21686634941E+02  0.00000000000E+00 0. -1.
        -13    1    4    4    0    0  0.39552044135E+02  0.47040528278E+02 -0.71783080938E+01  0.61876518996E+02  0.00000000000E+00 0. -1.
         13    1    4    4    0    0  0.16070737849E+02  0.38790376335E+02  0.86555142657E+02  0.96201635286E+02  0.00000000000E+00 0.  1.
         21    1    1    2  502  501 -0.37561895154E+02 -0.35426216731E+02 -0.51189235644E+02  0.72706606614E+02  0.00000000000E+00 0. -1.
<scales pt_clust_5="13000.00000" pt_clust_6="13000.00000" pt_clust_7="13000.00000" pt_clust_8="13000.00000" pt_clust_9="51.63248"></scales>
<clustering>
<clus scale="   51.632">  2  9  1 -1</clus>
<clus scale="   75.709">  5  6 -1 -1</clus>
<clus scale="   90.704">  7  8 -1 -1</clus>
<clus scale="  100.301">  1  5  2 -1</clus>
<clus scale="   51.632">  2  5  1 -1</clus>
</clustering>
</event>
<event>
 9    2  0.2984928E-005  0.2227624E+03  0.7546771E-02  0.1170279E+00
          2   -1    0    0  502    0  0.00000000000E+00  0.00000000000E+00  0.46763920313E+03  0.46763920313E+03  0.00000000000E+00 0. -1.
         -1   -1    0    0    0  501 -0.00000000000E+00 -0.00000000000E+00 -0.18137113122E+03  0.18137113122E+03  0.00000000000E+00 0.  1.
         24    2    1    2    0    0  0.48764066655E+02 -0.20713410530E+02 -0.30714683866E+02  0.94839092870E+02  0.72416035233E+02 0.  0.
         23    2    1    2    0    0  0.14702575768E+03 -0.78893379567E+02  0.29824611508E+02  0.19262599153E+03  0.91512438502E+02 0.  0.
        -11    1    3    3    0    0  0.66059023461E+02 -0.10005872953E+02 -0.32729168988E+02  0.74398323750E+02  0.00000000000E+00 0.  1.
         12    1    3    3    0    0 -0.17294956806E+02 -0.10707537577E+02  0.20144851226E+01  0.20440769120E+02  0.00000000000E+00 0. -1.
        -13    1    4    4    0    0  0.86062934037E+01 -0.42702773305E+02 -0.87787564485E+01  0.44437165738E+02  0.00000000000E+00 0.  1.
         13    1    4    4    0    0  0.13841946427E+03 -0.36190606262E+02  0.38603367956E+02  0.14818882579E+03  0.00000000000E+00 0. -1.
         21    1    1    2  502  501 -0.19578982433E+03  0.99606790098E+02  0.28715814427E+03  0.36154524996E+03  0.00000000000E+00 0.  1.
<scales pt_clust_5="13000.00000" pt_clust_6="13000.00000" pt_clust_7="13000.00000" pt_clust_8="13000.00000" pt_clust_9="203.09740"></scales>
<clustering>
<clus scale="   72.416">  5  6 -1 -1</clus>
<clus scale="   89.728">  2  5  1 -1</clus>
<clus scale="   91.512">  7  8 -1 -1</clus>
<clus scale="  203.097">  1  9  2 -1</clus>
<clus scale="  203.097">  1  5  2 -1</clus>
</clustering>
</event>
<event>
 9    2  0.2984928E-005  0.3348922E+03  0.7546771E-02  0.1126282E+00
         -1   -1    0    0    0  501 -0.00000000000E+00  0.00000000000E+00  0.89707096963E+02  0.89707096963E+02  0.00000000000E+00 0.  1.
          2   -1    0    0  502    0  0.00000000000E+00 -0.00000000000E+00 -0.21705873006E+04  0.21705873006E+04  0.00000000000E+00 0. -1.
         24    2    1    2    0    0  0.27250004036E+01  0.19609401114E+01  0.28563488413E+01  0.75223243190E+02  0.75093985605E+02 0.  0.
         23    2    1    2    0    0 -0.15262156886E+03  0.28319641931E+03 -0.10049327981E+04  0.10591931675E+04  0.92231676744E+02 0.  0.
        -13    1    3    3    0    0 -0.84315498376E+01  0.27289245267E+02  0.26394904013E+02  0.38890678803E+02  0.00000000000E+00 0.  1.
         14    1    3    3    0    0  0.11156550241E+02 -0.25328305156E+02 -0.23538555172E+02  0.36332564387E+02  0.00000000000E+00 0. -1.
        -13    1    4    4    0    0 -0.73519481481E+02  0.22040097757E+03 -0.74222813841E+03  0.77774309031E+03  0.00000000000E+00 0.  1.
         13    1    4    4    0    0 -0.79102087376E+02  0.62795441738E+02 -0.26270465968E+03  0.28145007719E+03  0.00000000000E+00 0. -1.
         21    1    1    2  502  501  0.14989656845E+03 -0.28515735942E+03 -0.10788037544E+04  0.11258779869E+04  0.00000000000E+00 0. -1.
<scales pt_clust_5="13000.00000" pt_clust_6="13000.00000" pt_clust_7="13000.00000" pt_clust_8="13000.00000" pt_clust_9="321.94116"></scales>
<clustering>
<clus scale="   75.094">  5  6 -1 -1</clus>
<clus scale="   75.169">  1  5  2 -1</clus>
<clus scale="   92.232">  7  8 -1 -1</clus>
<clus scale="  321.941">  2  9  1 -1</clus>
<clus scale="  321.941">  2  5  1 -1</clus>
</clustering>
</event>
<event>
 9    2  0.2984928E-005  0.1170153E+03  0.7546771E-02  0.1248123E+00
          2   -1    0    0  502    0  0.00000000000E+00  0.00000000000E+00  0.24535454245E+03  0.24535454245E+03  0.00000000000E+00 0. -1.
         -1   -1    0    0    0  501 -0.00000000000E+00 -0.00000000000E+00 -0.35575579686E+03  0.35575579686E+03  0.00000000000E+00 0.  1.
         24    2    1    2    0    0  0.68226150661E+02  0.22958071556E+02 -0.28653094135E+03  0.31009870693E+03  0.94230287091E+02 0.  0.
         23    2    1    2    0    0 -0.44461425501E+02  0.56252843088E+02  0.17117677752E+03  0.20816440870E+03  0.94285370939E+02 0.  0.
        -13    1    3    3    0    0  0.67183528689E+02  0.11270555832E+02 -0.28997533966E+03  0.29786968554E+03  0.00000000000E+00 0.  1.
         14    1    3    3    0    0  0.10426219725E+01  0.11687515724E+02  0.34443983084E+01  0.12229021387E+02  0.00000000000E+00 0. -1.
        -11    1    4    4    0    0 -0.14370388841E+01 -0.25241197627E+02  0.26455795610E+02  0.36593609548E+02  0.00000000000E+00 0.  1.
         11    1    4    4    0    0 -0.43024386617E+02  0.81494040715E+02  0.14472098191E+03  0.17157079915E+03  0.00000000000E+00 0. -1.
         21    1    1    2  502  501 -0.23764725160E+02 -0.79210914643E+02  0.49529094071E+01  0.82847223684E+02  0.00000000000E+00 0. -1.
<scales pt_clust_5="13000.00000" pt_clust_6="13000.00000" pt_clust_7="13000.00000" pt_clust_8="13000.00000" pt_clust_9="82.69904"></scales>
<clustering>
<clus scale="   82.699">  1  9  2 -1</clus>
<clus scale="   94.230">  5  6 -1 -1</clus>
<clus scale="   94.285">  7  8 -1 -1</clus>
<clus scale="  116.971">  2  5  1 -1</clus>
<clus scale="   82.699">  1  5  2 -1</clus>
</clustering>
</event>
<event>
 9    2  0.2984928E-005  0.1055387E+03  0.7546771E-02  0.1276084E+00
          2   -1    0    0  502    0  0.00000000000E+00  0.00000000000E+00  0.10880063885E+03  0.10880063885E+03  0.00000000000E+00 0. -1.
         -1   -1    0    0    0  501 -0.00000000000E+00 -0.00000000000E+00 -0.27330706083E+03  0.27330706083E+03  0.00000000000E+00 0.  1.
         23    2    1    2    0    0  0.12370610466E+02  0.12274550179E+02 -0.21243208695E+03  0.23178940799E+03  0.91078216408E+02 0.  0.
         24    2    1    2    0    0 -0.69995480407E+01  0.22060495377E+02  0.30040033573E+02  0.11123326290E+03  0.10456947943E+03 0.  0.
        -11    1    4    4    0    0  0.59864006100E+01  0.55218467905E+02 -0.11290324227E+02  0.56677928783E+02  0.00000000000E+00 0.  1.
         12    1    4    4    0    0 -0.12985948651E+02 -0.33157972528E+02  0.41330357800E+02  0.54555334115E+02  0.00000000000E+00 0. -1.
        -11    1    3    3    0    0  0.13273858161E+02 -0.39099551301E+02 -0.98708433400E+02  0.10699684597E+03  0.00000000000E+00 0. -1.
         11    1    3    3    0    0 -0.90324769482E+00  0.51374101480E+02 -0.11372365355E+03  0.12479256202E+03  0.00000000000E+00 0.  1.
         21    1    1    2  502  501 -0.53710624252E+01 -0.34335045556E+02  0.17885631398E+02  0.39085028789E+02  0.00000000000E+00 0. -1.
<scales pt_clust_5="13000.00000" pt_clust_6="13000.00000" pt_clust_7="13000.00000" pt_clust_8="13000.00000" pt_clust_9="34.75261"></scales>
<clustering>
<clus scale="   34.753">  1  9  2 -1</clus>
<clus scale="   91.078">  7  8 -1 -1</clus>
<clus scale="   92.189">  2  7  1 -1</clus>
<clus scale="  104.569">  5  6 -1 -1</clus>
<clus scale="   34.753">  1  5  2 -1</clus>
</clustering>
</event>
<event>
 9    2  0.2984928E-005  0.9489582E+02  0.7546771E-02  0.1300844E+00
          2   -1    0    0  502    0  0.00000000000E+00  0.00000000000E+00  0.49946072359E+03  0.49946072359E+03  0.00000000000E+00 0. -1.
         -1   -1    0    0    0  501 -0.00000000000E+00 -0.00000000000E+00 -0.51179507432E+02  0.51179507432E+02  0.00000000000E+00 0.  1.
         24    2    1    2    0    0 -0.79869588044E+01 -0.12044167231E+00 -0.69295690280E+01  0.79837421400E+02  0.79133993402E+02 0.  0.
         23    2    1    2    0    0  0.20055430065E+02  0.17997285066E+02  0.38655764582E+03  0.39884113181E+03  0.94452698950E+02 0.  0.
        -13    1    3    3    0    0 -0.96759256224E+01 -0.38748111047E+02 -0.96171606128E+01  0.41079549957E+02  0.00000000000E+00 0.  1.
         14    1    3    3    0    0  0.16889668180E+01  0.38627669375E+02  0.26875915848E+01  0.38757871443E+02  0.00000000000E+00 0. -1.
        -11    1    4    4    0    0  0.25529526366E+02 -0.32493298608E+02  0.10688815620E+03  0.11459777095E+03  0.00000000000E+00 0.  1.
         11    1    4    4    0    0 -0.54740963013E+01  0.50490583674E+02  0.27966948962E+03  0.28424336086E+03  0.00000000000E+00 0. -1.
         21    1    1    2  502  501 -0.12068471261E+02 -0.17876843394E+02  0.68653139363E+02  0.71961677807E+02  0.00000000000E+00 0.  1.
<scales pt_clust_5="13000.00000" pt_clust_6="13000.00000" pt_clust_7="13000.00000" pt_clust_8="13000.00000" pt_clust_9="21.56918"></scales>
<clustering>
<clus scale="   21.569">  1  9  2 -1</clus>
<clus scale="   79.134">  5  6 -1 -1</clus>
<clus scale="   79.662">  2  5  1 -1</clus>
<clus scale="   94.453">  7  8 -1 -1</clus>
<clus scale="   21.569">  1  5  2 -1</clus>
</clustering>
</event>
<event>
 9    2  0.2984928E-005  0.1952582E+03  0.7546771E-02  0.1154850E+00
          2   -1    0    0  502    0  0.00000000000E+00  0.00000000000E+00  0.10145965013E+04  0.10145965013E+04  0.00000000000E+00 0. -1.
         -1   -1    0    0    0  501 -0.00000000000E+00 -0.00000000000E+00 -0.10185302014E+03  0.10185302014E+03  0.00000000000E+00 0.  1.
         24    2    1    2    0    0  0.23607086291E+02 -0.16334615699E+03  0.21819306686E+02  0.18363140024E+03  0.77492886656E+02 0.  0.
         23    2    1    2    0    0 -0.60940562433E+02  0.16479910749E+03  0.86561036292E+03  0.88768843516E+03  0.88526603665E+02 0.  0.
        -13    1    3    3    0    0  0.17878223174E+02 -0.13905525687E+03 -0.12989281278E+02  0.14080027257E+03  0.00000000000E+00 0.  1.
         14    1    3    3    0    0  0.57288631164E+01 -0.24290900117E+02  0.34808587964E+02  0.42831127666E+02  0.00000000000E+00 0. -1.
        -13    1    4    4    0    0  0.98512963491E+01  0.71633225776E+02  0.22052234475E+03  0.23207428037E+03  0.00000000000E+00 0.  1.
         13    1    4    4    0    0 -0.70791858782E+02  0.93165881711E+02  0.64508801817E+03  0.65561415479E+03  0.00000000000E+00 0. -1.
         21    1    1    2  502  501  0.37333476143E+02 -0.14529504959E+01  0.25313811542E+02  0.45129686026E+02  0.00000000000E+00 0.  1.
<scales pt_clust_5="13000.00000" pt_clust_6="13000.00000" pt_clust_7="13000.00000" pt_clust_8="13000.00000" pt_clust_9="37.36174"></scales>
<clustering>
<clus scale="   37.362">  2  9  1 -1</clus>
<clus scale="   77.493">  5  6 -1 -1</clus>
<clus scale="   88.527">  7  8 -1 -1</clus>
<clus scale="  190.510">  2  5  1 -1</clus>
<clus scale="  195.258">  1  5  2 -1</clus>
</clustering>
</event>
<event>
 9    2  0.2984928E-005  0.1297591E+03  0.7546771E-02  0.1230424E+00
         -1   -1    0    0    0  501 -0.00000000000E+00  0.00000000000E+00  0.90337135472E+03  0.90337135472E+03  0.00000000000E+00 0.  1.
          2   -1    0    0  502    0  0.00000000000E+00 -0.00000000000E+00 -0.33006952404E+02  0.33006952404E+02  0.00000000000E+00 0. -1.
         23    2    1    2    0    0 -0.81414949169E+02 -0.56774694399E+02  0.71996802947E+03  0.73226974666E+03  0.89516805996E+02 0.  0.
         24    2    1    2    0    0  0.59567676496E+02  0.49634019111E+02  0.14070640879E+03  0.17916486446E+03  0.79308960678E+02 0.  0.
        -13    1    4    4    0    0 -0.72613190063E+00  0.23284976554E+02  0.97976660318E+02  0.10070820904E+03  0.00000000000E+00 0.  1.
         14    1    4    4    0    0  0.60293808396E+02  0.26349042557E+02  0.42729748476E+02  0.78456655418E+02  0.00000000000E+00 0. -1.
        -11    1    3    3    0    0  0.87342480740E+01 -0.38821874521E+02  0.16428182657E+03  0.16903237433E+03  0.00000000000E+00 0.  1.
         11    1    3    3    0    0 -0.90149197243E+02 -0.17952819878E+02  0.55568620289E+03  0.56323737233E+03  0.00000000000E+00 0. -1.
         21    1    1    2  502  501  0.21847272673E+02  0.71406752884E+01  0.96899640571E+01  0.24943696002E+02  0.00000000000E+00 0. -1.
<scales pt_clust_5="13000.00000" pt_clust_6="13000.00000" pt_clust_7="13000.00000" pt_clust_8="13000.00000" pt_clust_9="22.98462"></scales>
<clustering>
<clus scale="   22.985">  2  9  1 -1</clus>
<clus scale="   79.309">  5  6 -1 -1</clus>
<clus scale="   89.517">  7  8 -1 -1</clus>
<clus scale="  122.939">  2  5  1 -1</clus>
<clus scale="   22.985">  2  5  1 -1</clus>
</clustering>
</event>
<event>
 9    2  0.2984928E-005  0.1061934E+03  0.7546771E-02  0.1271931E+00
          2   -1    0    0  502    0  0.00000000000E+00  0.00000000000E+00  0.51670471766E+02  0.51670471766E+02  0.00000000000E+00 0. -1.
         -1   -1    0    0    0  501 -0.00000000000E+00 -0.00000000000E+00 -0.28176991117E+03  0.28176991117E+03  0.00000000000E+00 0.  1.
         23    2    1    2    0    0  0.26944045312E+02  0.17969251025E+02 -0.13905530052E+03  0.17130791995E+03  0.94663357611E+02 0.  0.
         24    2    1    2    0    0 -0.43040094245E+02 -0.36539472013E+02 -0.49121166542E+02  0.11353748888E+03  0.85383193021E+02 0.  0.
        -13    1    4    4    0    0 -0.38745861216E+02  0.26685492843E+01  0.12127935772E+02  0.40687218420E+02  0.00000000000E+00 0.  1.
         14    1    4    4    0    0 -0.42942330286E+01 -0.39208021297E+02 -0.61249102314E+02  0.72850270457E+02  0.00000000000E+00 0. -1.
        -13    1    3    3    0    0  0.47109002429E+02  0.39210321546E+02 -0.12412607826E+03  0.13843406636E+03  0.00000000000E+00 0.  1.
         13    1    3    3    0    0 -0.20164957117E+02 -0.21241070521E+02 -0.14929222264E+02  0.32873853589E+02  0.00000000000E+00 0. -1.
         21    1    1    2  502  501  0.16096048933E+02  0.18570220988E+02 -0.41922972340E+02  0.48594974108E+02  0.00000000000E+00 0.  1.
<scales pt_clust_5="13000.00000" pt_clust_6="13000.00000" pt_clust_7="13000.00000" pt_clust_8="13000.00000" pt_clust_9="24.57511"></scales>
<clustering>
<clus scale="   24.575">  2  9  1 -1</clus>
<clus scale="   85.383">  5  6 -1 -1</clus>
<clus scale="   94.663">  7  8 -1 -1</clus>
<clus scale="   98.011">  1  5  2 -1</clus>
<clus scale="   98.011">  1  5  2 -1</clus>
</clustering>
</event>
<event>
 9    2  0.2984928E-005  0.1528171E+03  0.7546771E-02  0.1200146E+00
         -1   -1    0    0    0  501 -0.00000000000E+00  0.00000000000E+00  0.10986584005E+03  0.10986584005E+03  0.00000000000E+00 0.  1.
          2   -1    0    0  502    0  0.00000000000E+00 -0.00000000000E+00 -0.44272820147E+03  0.44272820147E+03  0.00000000000E+00 0. -1.
         24    2    1    2    0    0 -0.95231056917E+02 -0.73010565533E+02  0.28670892261E+02  0.14712645842E+03  0.80154088000E+02 0.  0.
         23    2    1    2    0    0  0.98916926730E+02  0.52399813187E+02 -0.23858477866E+03  0.28074903492E+03  0.96783393145E+02 0.  0.
        -11    1    3    3    0    0 -0.10795130913E+03 -0.58024839985E+02  0.33159010131E+02  0.12696411757E+03  0.00000000000E+00 0.  1.
         12    1    3    3    0    0  0.12720252211E+02 -0.14985725548E+02 -0.44881178695E+01  0.20162340849E+02  0.00000000000E+00 0. -1.
        -11    1    4    4    0    0  0.25667972417E+02  0.26631805293E+02 -0.85511704380E+01  0.37963408396E+02  0.00000000000E+00 0.  1.
         11    1    4    4    0    0  0.73248954312E+02  0.25768007894E+02 -0.23003360822E+03  0.24278562653E+03  0.00000000000E+00 0. -1.
         21    1    1    2  502  501 -0.36858698128E+01  0.20610752346E+02 -0.12294847502E+03  0.12471854817E+03  0.00000000000E+00 0. -1.
<scales pt_clust_5="13000.00000" pt_clust_6="13000.00000" pt_clust_7="13000.00000" pt_clust_8="13000.00000" pt_clust_9="20.93774"></scales>
<clustering>
<clus scale="   20.938">  2  9  1 -1</clus>
<clus scale="   80.154">  5  6 -1 -1</clus>
<clus scale="   96.783">  7  8 -1 -1</clus>
<clus scale="  142.866">  1  5  2 -1</clus>
<clus scale="   20.938">  2  5  1 -1</clus>
</clustering>
</event>
<event>
 9    2  0.2984928E-005  0.1036660E+03  0.7546771E-02  0.1278224E+00
          2   -1    0    0  502    0  0.00000000000E+00  0.00000000000E+00  0.26654411629E+03  0.26654411629E+03  0.00000000000E+00 0. -1.
         -1   -1    0    0    0  501 -0.00000000000E+00 -0.00000000000E+00 -0.12519124725E+03  0.12519124725E+03  0.00000000000E+00 0.  1.
         23    2    1    2    0    0  0.15697400271E+02 -0.61787346119E+02 -0.70366816920E+02  0.13068277123E+03  0.89790941954E+02 0.  0.
         24    2    1    2    0    0 -0.25126848929E+02 -0.81203587889E+01  0.11919369127E+03  0.14470371435E+03  0.77683525564E+02 0.  0.
        -13    1    4    4    0    0  0.21414143223E+02 -0.23713398617E+02  0.36217331395E+02  0.48296851836E+02  0.00000000000E+00 0.  1.
         14    1    4    4    0    0 -0.46540992152E+02  0.15593039828E+02  0.82976359872E+02  0.96406862511E+02  0.00000000000E+00 0. -1.
        -13    1    3    3    0    0  0.29288265670E+02 -0.29945242157E+02 -0.83689505735E+02  0.93586609106E+02  0.00000000000E+00 0.  1.
         13    1    3    3    0    0 -0.13590865400E+02 -0.31842103961E+02  0.13322688815E+02  0.37096162123E+02  0.00000000000E+00 0. -1.
         21    1    1    2  502  501  0.94294486585E+01  0.69907704908E+02  0.92525994699E+02  0.11634887796E+03  0.00000000000E+00 0. -1.
<scales pt_clust_5="13000.00000" pt_clust_6="13000.00000" pt_clust_7="13000.00000" pt_clust_8="13000.00000" pt_clust_9="70.54078"></scales>
<clustering>
<clus scale="   70.541">  1  9  2 -1</clus>
<clus scale="   77.684">  5  6 -1 -1</clus>
<clus scale="   89.791">  7  8 -1 -1</clus>
<clus scale="   93.375">  1  5  2 -1</clus>
<clus scale="   70.541">  1  5  2 -1</clus>
</clustering>
</event>
<event>
 9    2  0.2984928E-005  0.1202420E+03  0.7546771E-02  0.1245742E+00
          2   -1    0    0  502    0  0.00000000000E+00  0.00000000000E+00  0.37950098137E+03  0.37950098137E+03  0.00000000000E+00 0. -1.
         -1   -1    0    0    0  501 -0.00000000000E+00 -0.00000000000E+00 -0.12748788638E+03  0.12748788638E+03  0.00000000000E+00 0.  1.
         23    2    1    2    0    0  0.76830124355E+02 -0.30479943174E+02 -0.83827227756E+02  0.14809339202E+03  0.89848504173E+02 0.  0.
         24    2    1    2    0    0 -0.52446083441E+02  0.17132293081E+02  0.28240429960E+03  0.29866135099E+03  0.80014417492E+02 0.  0.
        -13    1    4    4    0    0 -0.37514681192E+02  0.30804006829E+02  0.69366375077E+02  0.84663641151E+02  0.00000000000E+00 0.  1.
         14    1    4    4    0    0 -0.14931402249E+02 -0.13671713748E+02  0.21303792453E+03  0.21399770984E+03  0.00000000000E+00 0. -1.
        -11    1    3    3    0    0  0.53912901685E+02 -0.39954104725E+02 -0.98570217660E+02  0.11924352922E+03  0.00000000000E+00 0.  1.
         11    1    3    3    0    0  0.22917222670E+02  0.94741615503E+01  0.14742989904E+02  0.28849862795E+02  0.00000000000E+00 0. -1.
         21    1    1    2  502  501 -0.24384040915E+02  0.13347650094E+02  0.53436023139E+02  0.60234124741E+02  0.00000000000E+00 0.  1.
<scales pt_clust_5="13000.00000" pt_clust_6="13000.00000" pt_clust_7="13000.00000" pt_clust_8="13000.00000" pt_clust_9="27.79822"></scales>
<clustering>
<clus scale="   27.798">  1  9  2 -1</clus>
<clus scale="   80.014">  5  6 -1 -1</clus>
<clus scale="   89.849">  7  8 -1 -1</clus>
<clus scale="  113.083">  1  5  2 -1</clus>
<clus scale="   27.798">  1  5  2 -1</clus>
</clustering>
</event>
<event>
 9    2  0.2984928E-005  0.1076191E+03  0.7546771E-02  0.1269446E+00
         -1   -1    0    0    0  501 -0.00000000000E+00  0.00000000000E+00  0.38456423494E+03  0.38456423494E+03  0.00000000000E+00 0.  1.
          2   -1    0    0  502    0  0.00000000000E+00 -0.00000000000E+00 -0.56315484673E+02  0.56315484673E+02  0.00000000000E+00 0. -1.
         23    2    1    2    0    0  0.91884582130E+01  0.58680352808E+02  0.24501071947E+03  0.26816265188E+03  0.91395534020E+02 0.  0.
         24    2    1    2    0    0  0.11861993801E+02 -0.53673301011E+02  0.10400449051E+03  0.14272643676E+03  0.80823088083E+02 0.  0.
        -11    1    4    4    0    0  0.30524690139E+02 -0.85709696053E+01  0.84341248581E+02  0.90103631671E+02  0.00000000000E+00 0.  1.
         12    1    4    4    0    0 -0.18662696337E+02 -0.45102331406E+02  0.19663241926E+02  0.52622805093E+02  0.00000000000E+00 0. -1.
        -11    1    3    3    0    0  0.48656430370E+02  0.18327500882E+02  0.10395595666E+03  0.11623332754E+03  0.00000000000E+00 0.  1.
         11    1    3    3    0    0 -0.39467972157E+02  0.40352851927E+02  0.14105476280E+03  0.15192932434E+03  0.00000000000E+00 0. -1.
         21    1    1    2  502  501 -0.21050452014E+02 -0.50070517976E+01 -0.20766459703E+02  0.29990630975E+02  0.00000000000E+00 0. -1.
<scales pt_clust_5="13000.00000" pt_clust_6="13000.00000" pt_clust_7="13000.00000" pt_clust_8="13000.00000" pt_clust_9="21.63775"></scales>
<clustering>
<clus scale="   21.638">  2  9  1 -1</clus>
<clus scale="   80.823">  5  6 -1 -1</clus>
<clus scale="   91.396">  7  8 -1 -1</clus>
<clus scale="   98.798">  2  5  1 -1</clus>
<clus scale="   21.638">  2  5  1 -1</clus>
</clustering>
</event>
<event>
 9    2  0.2984928E-005  0.1279576E+03  0.7546771E-02  0.1239596E+00
          2   -1    0    0  502    0  0.00000000000E+00  0.00000000000E+00  0.55863051217E+03  0.55863051217E+03  0.00000000000E+00 0. -1.
         -1   -1    0    0    0  501 -0.00000000000E+00 -0.00000000000E+00 -0.90902056163E+02  0.90902056163E+02  0.00000000000E+00 0.  1.
         23    2    1    2    0    0 -0.53466467026E+02 -0.57295212199E+02 -0.29738375382E+02  0.13381730227E+03  0.10431344583E+03 0.  0.
         24    2    1    2    0    0  0.49507721726E+02  0.23080663795E+02  0.27333060574E+03  0.28894808450E+03  0.76142261241E+02 0.  0.
        -13    1    4    4    0    0 -0.16493104377E+02  0.18185754350E+02  0.45517827936E+02  0.51716697626E+02  0.00000000000E+00 0.  1.
         14    1    4    4    0    0  0.66000826103E+02  0.48949094449E+01  0.22781277781E+03  0.23723138687E+03  0.00000000000E+00 0. -1.
        -13    1    3    3    0    0 -0.75074272501E+02 -0.48639536501E+02 -0.50415794760E+02  0.10268253631E+03  0.00000000000E+00 0.  1.
         13    1    3    3    0    0  0.21607805475E+02 -0.86556756978E+01  0.20677419378E+02  0.31134765959E+02  0.00000000000E+00 0. -1.
         21    1    1    2  502  501  0.39587453004E+01  0.34214548403E+02  0.22413622565E+03  0.22676718156E+03  0.00000000000E+00 0. -1.
<scales pt_clust_5="13000.00000" pt_clust_6="13000.00000" pt_clust_7="13000.00000" pt_clust_8="13000.00000" pt_clust_9="34.44281"></scales>
<clustering>
<clus scale="   34.443">  1  9  2 -1</clus>
<clus scale="   76.142">  5  6 -1 -1</clus>
<clus scale="  104.313">  7  8 -1 -1</clus>
<clus scale="  106.252">  1  5  2 -1</clus>
<clus scale="   34.443">  1  5  2 -1</clus>
</clustering>
</event>
<event>
 9    2  0.2984928E-005  0.1554981E+03  0.7546771E-02  0.1195795E+00
         -1   -1    0    0    0  501 -0.00000000000E+00  0.00000000000E+00  0.15901931185E+03  0.15901931185E+03  0.00000000000E+00 0.  1.
          2   -1    0    0  502    0  0.00000000000E+00 -0.00000000000E+00 -0.21413426546E+03  0.21413426546E+03  0.00000000000E+00 0. -1.
         24    2    1    2    0    0 -0.97246262248E+02 -0.64228544838E+02 -0.19988029608E+01  0.14191263297E+03  0.80950964728E+02 0.  0.
         23    2    1    2    0    0  0.13671671570E+03  0.21592423019E+02 -0.46918858410E+02  0.17281011334E+03  0.92218560580E+02 0.  0.
        -11    1    3    3    0    0 -0.43193910981E+02 -0.62052928345E+02  0.27309723588E+02  0.80387193411E+02  0.00000000000E+00 0.  1.
         12    1    3    3    0    0 -0.54052351267E+02 -0.21756164929E+01 -0.29308526549E+02  0.61525439561E+02  0.00000000000E+00 0. -1.
        -13    1    4    4    0    0  0.83855746232E+02 -0.30081034018E+02 -0.84772278394E+01  0.89490324480E+02  0.00000000000E+00 0.  1.
         13    1    4    4    0    0  0.52860969470E+02  0.51673457037E+02 -0.38441630570E+02  0.83319788864E+02  0.00000000000E+00 0. -1.
         21    1    1    2  502  501 -0.39470453454E+02  0.42636121819E+02 -0.61972922363E+01  0.58430830994E+02  0.00000000000E+00 0.  1.
<scales pt_clust_5="13000.00000" pt_clust_6="13000.00000" pt_clust_7="13000.00000" pt_clust_8="13000.00000" pt_clust_9="58.10125"></scales>
<clustering>
<clus scale="   58.101">  1  9  2 -1</clus>
<clus scale="   80.951">  5  6 -1 -1</clus>
<clus scale="   92.219">  7  8 -1 -1</clus>
<clus scale="  149.092">  1  5  2 -1</clus>
<clus scale="  155.498">  2  5  1 -1</clus>
</clustering>
</event>
<event>
 9    2  0.4045806E-005  0.1593897E+03  0.7546771E-02  0.1190229E+00
         -1   -1    0    0    0  501 -0.00000000000E+00  0.00000000000E+00  0.86783421091E+02  0.86783421091E+02  0.00000000000E+00 0.  1.
          2   -1    0    0  502    0  0.00000000000E+00 -0.00000000000E+00 -0.11149678554E+04  0.11149678554E+04  0.00000000000E+00 0. -1.
         23    2    1    2    0    0 -0.11975272516E+03 -0.62233109183E+02 -0.37200375064E+01  0.16065698325E+03  0.87081298370E+02 0.  0.
         24    2    1    2    0    0  0.93354792710E+02  0.72400479656E+02 -0.96026895988E+03  0.97094245520E+03  0.81583265540E+02 0.  0.
        -13    1    4    4    0    0  0.37927651938E+02  0.53861015217E+01 -0.11502610044E+03  0.12123745565E+03  0.00000000000E+00 0.  1.
         14    1    4    4    0    0  0.55427140772E+02  0.67014378134E+02 -0.84524285944E+03  0.84970499954E+03  0.00000000000E+00 0. -1.
        -11    1    3    3    0    0 -0.32850298059E+02 -0.19141390524E+02 -0.41750901780E+02  0.56468333721E+02  0.00000000000E+00 0. -1.
         11    1    3    3    0    0 -0.86902427102E+02 -0.43091718659E+02  0.38030864274E+02  0.10418864953E+03  0.00000000000E+00 0.  1.
         21    1    1    2  502  501  0.26397932451E+02 -0.10167370472E+02 -0.64195436966E+02  0.70151838089E+02  0.00000000000E+00 0. -1.
<scales pt_clust_5="13000.00000" pt_clust_6="13000.00000" pt_clust_7="13000.00000" pt_clust_8="13000.00000" pt_clust_9="28.28827"></scales>
<clustering>
<clus scale="   28.288">  2  9  1 -1</clus>
<clus scale="   81.583">  5  6 -1 -1</clus>
<clus scale="   87.081">  7  8 -1 -1</clus>
<clus scale="  156.454">  2  5  1 -1</clus>
<clus scale="   28.288">  2  5  1 -1</clus>
</clustering>
</event>
<event>
 9    2  0.2984928E-005  0.1158942E+03  0.7546771E-02  0.1253000E+00
          2   -1    0    0  502    0  0.00000000000E+00  0.00000000000E+00  0.27620484726E+03  0.27620484726E+03  0.00000000000E+00 0. -1.
         -1   -1    0    0    0  501 -0.00000000000E+00 -0.00000000000E+00 -0.13361283140E+03  0.13361283140E+03  0.00000000000E+00 0.  1.
         24    2    1    2    0    0  0.30956607163E+02 -0.72005648044E+02 -0.79215840198E+02  0.13912466592E+03  0.83291046643E+02 0.  0.
         23    2    1    2    0    0  0.58178345310E+00  0.26288879804E+02  0.16853180363E+03  0.19373178392E+03  0.91856363917E+02 0.  0.
        -11    1    3    3    0    0  0.91732759139E+00 -0.76472033388E+02 -0.31818728289E+02  0.82832631555E+02  0.00000000000E+00 0.  1.
         12    1    3    3    0    0  0.30039279572E+02  0.44663853439E+01 -0.47397111909E+02  0.56292034362E+02  0.00000000000E+00 0. -1.
        -11    1    4    4    0    0  0.32216727953E+02 -0.14039718424E+02  0.11218238176E+03  0.11755814744E+03  0.00000000000E+00 0.  1.
         11    1    4    4    0    0 -0.31634944500E+02  0.40328598228E+02  0.56349421876E+02  0.76173636479E+02  0.00000000000E+00 0. -1.
         21    1    1    2  502  501 -0.31538390616E+02  0.45716768240E+02  0.53276052424E+02  0.76961228829E+02  0.00000000000E+00 0. -1.
<scales pt_clust_5="13000.00000" pt_clust_6="13000.00000" pt_clust_7="13000.00000" pt_clust_8="13000.00000" pt_clust_9="55.54001"></scales>
<clustering>
<clus scale="   55.540">  1  9  2 -1</clus>
<clus scale="   83.291">  5  6 -1 -1</clus>
<clus scale="   91.856">  7  8 -1 -1</clus>
<clus scale="  109.230">  2  5  1 -1</clus>
<clus scale="   55.540">  1  5  2 -1</clus>
</clustering>
</event>
<event>
 9    2  0.2984928E-005  0.1248534E+03  0.7546771E-02  0.1238938E+00
          2   -1    0    0  502    0  0.00000000000E+00  0.00000000000E+00  0.40494651944E+02  0.40494651944E+02  0.00000000000E+00 0. -1.
         -1   -1    0    0    0  501 -0.00000000000E+00 -0.00000000000E+00 -0.79215010613E+03  0.79215010613E+03  0.00000000000E+00 0.  1.
         24    2    1    2    0    0 -0.23597816483E+02 -0.96808548952E+02 -0.54006291349E+03  0.55507784457E+03  0.80713759160E+02 0.  0.
         23    2    1    2    0    0  0.23475295535E+02  0.25391025813E+02 -0.78747684686E+02  0.12674173857E+03  0.93093913662E+02 0.  0.
        -11    1    3    3    0    0 -0.24496136868E+02 -0.11111169888E+03 -0.47164939170E+03  0.48517936791E+03  0.00000000000E+00 0.  1.
         12    1    3    3    0    0  0.89832038499E+00  0.14303149924E+02 -0.68413521785E+02  0.69898476667E+02  0.00000000000E+00 0. -1.
        -11    1    4    4    0    0  0.52344842822E+02  0.36252924231E+02 -0.33409709036E+02  0.71905950680E+02  0.00000000000E+00 0. -1.
         11    1    4    4    0    0 -0.28869547287E+02 -0.10861898419E+02 -0.45337975651E+02  0.54835787894E+02  0.00000000000E+00 0.  1.
         21    1    1    2  502  501  0.12252094811E+00  0.71417523140E+02 -0.13284485601E+03  0.15082517493E+03  0.00000000000E+00 0. -1.
<scales pt_clust_5="13000.00000" pt_clust_6="13000.00000" pt_clust_7="13000.00000" pt_clust_8="13000.00000" pt_clust_9="71.41763"></scales>
<clustering>
<clus scale="   71.418">  1  9  2 -1</clus>
<clus scale="   80.714">  5  6 -1 -1</clus>
<clus scale="   93.094">  7  8 -1 -1</clus>
<clus scale="  115.916">  2  5  1 -1</clus>
<clus scale="   71.418">  1  5  2 -1</clus>
</clustering>
</event>
<event>
 9    2  0.2984928E-005  0.1333041E+03  0.7546771E-02  0.1227496E+00
         -1   -1    0    0    0  501 -0.00000000000E+00  0.00000000000E+00  0.33351975661E+03  0.33351975661E+03  0.00000000000E+00 0.  1.
          2   -1    0    0  502    0  0.00000000000E+00 -0.00000000000E+00 -0.10712872047E+03  0.10712872047E+03  0.00000000000E+00 0. -1.
         23    2    1    2    0    0  0.72223348032E+02  0.46082947622E+02  0.26531691673E+03  0.29792434557E+03  0.10500475855E+03 0.  0.
         24    2    1    2    0    0 -0.47718618730E+02 -0.49122847008E+02 -0.25039941061E+02  0.11439495815E+03  0.88142425257E+02 0.  0.
        -13    1    4    4    0    0 -0.11773820956E+01 -0.50196432824E+02 -0.41372348656E+02  0.65059506071E+02  0.00000000000E+00 0.  1.
         14    1    4    4    0    0 -0.46541236634E+02  0.10735858166E+01  0.16332407595E+02  0.49335452079E+02  0.00000000000E+00 0. -1.
        -11    1    3    3    0    0  0.93530400754E+02  0.14005619686E+02  0.16094054492E+03  0.18667070538E+03  0.00000000000E+00 0.  1.
         11    1    3    3    0    0 -0.21307052721E+02  0.32077327935E+02  0.10437637181E+03  0.11125364019E+03  0.00000000000E+00 0. -1.
         21    1    1    2  502  501 -0.24504729302E+02  0.30398993861E+01 -0.13885939533E+02  0.28329173358E+02  0.00000000000E+00 0. -1.
<scales pt_clust_5="13000.00000" pt_clust_6="13000.00000" pt_clust_7="13000.00000" pt_clust_8="13000.00000" pt_clust_9="24.69256"></scales>
<clustering>
<clus scale="   24.693">  2  9  1 -1</clus>
<clus scale="   88.142">  5  6 -1 -1</clus>
<clus scale="  105.005">  7  8 -1 -1</clus>
<clus scale="  120.470">  2  5  1 -1</clus>
<clus scale="   24.693">  2  5  1 -1</clus>
</clustering>
</event>
<event>
 9    2  0.2984928E-005  0.1106682E+03  0.7546771E-02  0.1263340E+00
          2   -1    0    0  502    0  0.00000000000E+00  0.00000000000E+00  0.12461578161E+03  0.12461578161E+03  0.00000000000E+00 0. -1.
         -1   -1    0    0    0  501 -0.00000000000E+00 -0.00000000000E+00 -0.33778361438E+03  0.33778361438E+03  0.00000000000E+00 0.  1.
         23    2    1    2    0    0 -0.50099316235E+02  0.43303915200E+02 -0.28911937304E+03  0.31012736349E+03  0.90574826319E+02 0.  0.
         24    2    1    2    0    0  0.38394384296E+02 -0.14135411392E+02  0.80217667539E+02  0.12055442086E+03  0.80153325588E+02 0.  0.
        -11    1    4    4    0    0  0.20653856324E+02 -0.14393371800E+02 -0.11111681893E+02  0.27517638113E+02  0.00000000000E+00 0.  1.
         12    1    4    4    0    0  0.17740527972E+02  0.25796040857E+00  0.91329349432E+02  0.93036782747E+02  0.00000000000E+00 0. -1.
        -11    1    3    3    0    0  0.24876816938E+02 -0.13158694646E+01 -0.60820930323E+02  0.65724980782E+02  0.00000000000E+00 0. -1.
         11    1    3    3    0    0 -0.74976133173E+02  0.44619784664E+02 -0.22829844271E+03  0.24440238271E+03  0.00000000000E+00 0.  1.
         21    1    1    2  502  501  0.11704931938E+02 -0.29168503808E+02 -0.42661272641E+01  0.31717611636E+02  0.00000000000E+00 0. -1.
<scales pt_clust_5="13000.00000" pt_clust_6="13000.00000" pt_clust_7="13000.00000" pt_clust_8="13000.00000" pt_clust_9="31.42940"></scales>
<clustering>
<clus scale="   31.429">  1  9  2 -1</clus>
<clus scale="   80.153">  5  6 -1 -1</clus>
<clus scale="   90.575">  7  8 -1 -1</clus>
<clus scale="  102.314">  1  5  2 -1</clus>
<clus scale="   31.429">  1  5  2 -1</clus>
</clustering>
</event>
<event>
 9    2  0.2984928E-005  0.1076152E+03  0.7546771E-02  0.1270259E+00
         -1   -1    0    0    0  501 -0.00000000000E+00  0.00000000000E+00  0.36413661615E+03  0.36413661615E+03  0.00000000000E+00 0.  1.
          2   -1    0    0  502    0  0.00000000000E+00 -0.00000000000E+00 -0.64142469994E+02  0.64142469994E+02  0.00000000000E+00 0. -1.
         23    2    1    2    0    0 -0.47336135693E+02 -0.31894684381E+02  0.21206829792E+03  0.23843635779E+03  0.92849087753E+02 0.  0.
         24    2    1    2    0    0  0.23979906816E+02  0.49770646757E+02  0.11426290616E+03  0.15036230183E+03  0.80626651163E+02 0.  0.
        -13    1    4    4    0    0  0.26568971990E+02  0.42089901545E+02  0.12635486292E+03  0.13580508631E+03  0.00000000000E+00 0.  1.
         14    1    4    4    0    0 -0.25890651737E+01  0.76807452113E+01 -0.12091956757E+02  0.14557215520E+02  0.00000000000E+00 0. -1.
        -13    1    3    3    0    0  0.13938783513E+02 -0.23666198952E+02  0.14352647703E+03  0.14613086007E+03  0.00000000000E+00 0.  1.
         13    1    3    3    0    0 -0.61274919205E+02 -0.82284854288E+01  0.68541820898E+02  0.92305497714E+02  0.00000000000E+00 0. -1.
         21    1    1    2  502  501  0.23356228877E+02 -0.17875962376E+02 -0.26337057930E+02  0.39480426525E+02  0.00000000000E+00 0. -1.
<scales pt_clust_5="13000.00000" pt_clust_6="13000.00000" pt_clust_7="13000.00000" pt_clust_8="13000.00000" pt_clust_9="29.41196"></scales>
<clustering>
<clus scale="   29.412">  2  9  1 -1</clus>
<clus scale="   80.627">  5  6 -1 -1</clus>
<clus scale="   92.849">  7  8 -1 -1</clus>
<clus scale="   97.266">  2  5  1 -1</clus>
<clus scale="   29.412">  2  5  1 -1</clus>
</clustering>
</event>
<event>
 9    2  0.2984928E-005  0.9759677E+02  0.7546771E-02  0.1289961E+00
         -1   -1    0    0    0  501 -0.00000000000E+00  0.00000000000E+00  0.99532028982E+02  0.99532028982E+02  0.00000000000E+00 0.  1.
          2   -1    0    0  502    0  0.00000000000E+00 -0.00000000000E+00 -0.26950417903E+03  0.26950417903E+03  0.00000000000E+00 0. -1.
         24    2    1    2    0    0  0.85875764399E+01 -0.43642016067E+02  0.50443602276E+02  0.10598876459E+03  0.81918796210E+02 0.  0.
         23    2    1    2    0    0  0.13099099254E+02  0.71981682382E+00 -0.11335779357E+03  0.14568461446E+03  0.90564413480E+02 0.  0.
        -13    1    3    3    0    0 -0.46739364319E+01 -0.30323775471E+02  0.71475573539E+02  0.77782611510E+02  0.00000000000E+00 0.  1.
         14    1    3    3    0    0  0.13261512872E+02 -0.13318240596E+02 -0.21031971262E+02  0.28206153077E+02  0.00000000000E+00 0. -1.
        -11    1    4    4    0    0 -0.32051171317E+02 -0.22293494422E+02 -0.63836638553E+02  0.74829097937E+02  0.00000000000E+00 0.  1.
         11    1    4    4    0    0  0.45150270571E+02  0.23013311246E+02 -0.49521155017E+02  0.70855516520E+02  0.00000000000E+00 0. -1.
         21    1    1    2  502  501 -0.21686675694E+02  0.42922199243E+02 -0.10705795875E+03  0.11736282896E+03  0.00000000000E+00 0. -1.
<scales pt_clust_5="13000.00000" pt_clust_6="13000.00000" pt_clust_7="13000.00000" pt_clust_8="13000.00000" pt_clust_9="48.08978"></scales>
<clustering>
<clus scale="   48.090">  2  9  1 -1</clus>
<clus scale="   81.919">  5  6 -1 -1</clus>
<clus scale="   89.632">  1  5  2 -1</clus>
<clus scale="   90.564">  7  8 -1 -1</clus>
<clus scale="   48.090">  2  5  1 -1</clus>
</clustering>
</event>
<event>
 9    2  0.2984928E-005  0.1196558E+03  0.7546771E-02  0.1248711E+00
         -1   -1    0    0    0  501 -0.00000000000E+00  0.00000000000E+00  0.12113049784E+03  0.12113049784E+03  0.00000000000E+00 0.  1.
          2   -1    0    0  502    0  0.00000000000E+00 -0.00000000000E+00 -0.85296893508E+03  0.85296893508E+03  0.00000000000E+00 0. -1.
         24    2    1    2    0    0  0.45067313725E+02 -0.46140225032E+02  0.67461015025E+02  0.13983700592E+03  0.10413172688E+03 0.  0.
         23    2    1    2    0    0 -0.62643083329E+02 -0.57804476956E+02 -0.31626872371E+03  0.33986168521E+03  0.90634132835E+02 0.  0.
        -13    1    3    3    0    0  0.28032358615E+02 -0.79146948828E+02  0.56150950930E+02  0.10100981105E+03  0.00000000000E+00 0.  1.
         14    1    3    3    0    0  0.17034955111E+02  0.33006723796E+02  0.11310064095E+02  0.38827194867E+02  0.00000000000E+00 0. -1.
        -13    1    4    4    0    0 -0.73377060835E+02 -0.22572375897E+02 -0.27011911246E+03  0.28081673762E+03  0.00000000000E+00 0. -1.
         13    1    4    4    0    0  0.10733977507E+02 -0.35232101058E+02 -0.46149611249E+02  0.59044947595E+02  0.00000000000E+00 0.  1.
         21    1    1    2  502  501  0.17575769603E+02  0.10394470199E+03 -0.48303072856E+03  0.49440074179E+03  0.00000000000E+00 0. -1.
<scales pt_clust_5="13000.00000" pt_clust_6="13000.00000" pt_clust_7="13000.00000" pt_clust_8="13000.00000" pt_clust_9="105.42015"></scales>
<clustering>
<clus scale="   90.634">  7  8 -1 -1</clus>
<clus scale="  104.132">  5  6 -1 -1</clus>
<clus scale="  105.420">  2  9  1 -1</clus>
<clus scale="  108.114">  2  7  1 -1</clus>
<clus scale="  105.420">  2  5  1 -1</clus>
</clustering>
</event>
<event>
 9    2  0.2984928E-005  0.1012114E+03  0.7546771E-02  0.1282778E+00
          4   -1    0    0  502    0  0.00000000000E+00  0.00000000000E+00  0.37358958376E+03  0.37358958376E+03  0.00000000000E+00 0. -1.
         -3   -1    0    0    0  501 -0.00000000000E+00 -0.00000000000E+00 -0.58846931741E+02  0.58846931741E+02  0.00000000000E+00 0.  1.
         24    2    1    2    0    0  0.17453726637E+02  0.37368282120E+02  0.55790340338E+01  0.89887808806E+02  0.79672275410E+02 0.  0.
         23    2    1    2    0    0 -0.27788388027E+02 -0.67075587459E+02  0.25180999195E+03  0.27713641706E+03  0.90138741223E+02 0.  0.
        -11    1    3    3    0    0  0.37362474440E+00  0.60578134611E+02  0.23720784269E+00  0.60579751204E+02  0.00000000000E+00 0.  1.
         12    1    3    3    0    0  0.17080101893E+02 -0.23209852491E+02  0.53418261912E+01  0.29308057602E+02  0.00000000000E+00 0. -1.
        -11    1    4    4    0    0  0.20859145021E+01 -0.82216313947E+02  0.17748426088E+03  0.19561323109E+03  0.00000000000E+00 0. -1.
         11    1    4    4    0    0 -0.29874302529E+02  0.15140726487E+02  0.74325731079E+02  0.81523185969E+02  0.00000000000E+00 0.  1.
         21    1    1    2  502  501  0.10334661390E+02  0.29707305340E+02  0.57353626027E+02  0.65412289633E+02  0.00000000000E+00 0.  1.
<scales pt_clust_5="13000.00000" pt_clust_6="13000.00000" pt_clust_7="13000.00000" pt_clust_8="13000.00000" pt_clust_9="31.45360"></scales>
<clustering>
<clus scale="   31.454">  1  9  2 -1</clus>
<clus scale="   79.672">  5  6 -1 -1</clus>
<clus scale="   90.139">  7  8 -1 -1</clus>
<clus scale="   92.013">  2  5  1 -1</clus>
<clus scale="   31.454">  1  5  2 -1</clus>
</clustering>
</event>
<event>
 9    2  0.2984928E-005  0.9647313E+02  0.7546771E-02  0.1295940E+00
         -1   -1    0    0    0  501 -0.00000000000E+00  0.00000000000E+00  0.30638846780E+03  0.30638846780E+03  0.00000000000E+00 0.  1.
          2   -1    0    0  502    0  0.00000000000E+00 -0.00000000000E+00 -0.53523079649E+02  0.53523079649E+02  0.00000000000E+00 0. -1.
         23    2    1    2    0    0 -0.44473845153E+01  0.33286493398E+02  0.21616534452E+03  0.23717879960E+03  0.91643640997E+02 0.  0.
         24    2    1    2    0    0  0.19466447577E+02 -0.18840089449E+02  0.51841198739E+02  0.96973760682E+02  0.77346679453E+02 0.  0.
        -13    1    4    4    0    0 -0.56803987096E+01 -0.24746933836E+02  0.63682625407E+02  0.68557672382E+02  0.00000000000E+00 0.  1.
         14    1    4    4    0    0  0.25146846286E+02  0.59068443869E+01 -0.11841426667E+02  0.28416088300E+02  0.00000000000E+00 0. -1.
        -11    1    3    3    0    0 -0.43010045080E+02 -0.24818759695E+01  0.12107332623E+03  0.12850982068E+03  0.00000000000E+00 0. -1.
         11    1    3    3    0    0  0.38562660565E+02  0.35768369368E+02  0.95092018288E+02  0.10866897892E+03  0.00000000000E+00 0.  1.
         21    1    1    2  502  501 -0.15019063062E+02 -0.14446403950E+02 -0.15141155104E+02  0.25758987174E+02  0.00000000000E+00 0. -1.
<scales pt_clust_5="13000.00000" pt_clust_6="13000.00000" pt_clust_7="13000.00000" pt_clust_8="13000.00000" pt_clust_9="20.83917"></scales>
<clustering>
<clus scale="   20.839">  2  9  1 -1</clus>
<clus scale="   77.347">  5  6 -1 -1</clus>
<clus scale="   83.012">  2  5  1 -1</clus>
<clus scale="   91.644">  7  8 -1 -1</clus>
<clus scale="   20.839">  2  5  1 -1</clus>
</clustering>
</event>
<event>
 9    2  0.2984928E-005  0.1443480E+03  0.7546771E-02  0.1209492E+00
          2   -1    0    0  502    0  0.00000000000E+00  0.00000000000E+00  0.24494895088E+03  0.24494895088E+03  0.00000000000E+00 0. -1.
         -1   -1    0    0    0  501 -0.00000000000E+00 -0.00000000000E+00 -0.16573178368E+03  0.16573178368E+03  0.00000000000E+00 0.  1.
         24    2    1    2    0    0  0.59280542925E+02  0.59865134006E+02 -0.91550989804E+02  0.14760801287E+03  0.79426221686E+02 0.  0.
         23    2    1    2    0    0 -0.73974437456E+02 -0.95480709760E+02  0.16674619045E+03  0.22433571111E+03  0.89069837314E+02 0.  0.
        -13    1    3    3    0    0  0.37675872953E+02 -0.96212464242E+00 -0.70096431890E+02  0.79585845791E+02  0.00000000000E+00 0.  1.
         14    1    3    3    0    0  0.21604669972E+02  0.60827258649E+02 -0.21454557914E+02  0.68022167083E+02  0.00000000000E+00 0. -1.
        -11    1    4    4    0    0 -0.94710620639E+02 -0.77859240918E+02  0.13122163827E+03  0.17958641766E+03  0.00000000000E+00 0. -1.
         11    1    4    4    0    0  0.20736183182E+02 -0.17621468842E+02  0.35524552181E+02  0.44749293456E+02  0.00000000000E+00 0.  1.
         21    1    1    2  502  501  0.14693894531E+02  0.35615575754E+02  0.40219665592E+01  0.38737010569E+02  0.00000000000E+00 0.  1.
<scales pt_clust_5="13000.00000" pt_clust_6="13000.00000" pt_clust_7="13000.00000" pt_clust_8="13000.00000" pt_clust_9="38.52765"></scales>
<clustering>
<clus scale="   38.528">  2  9  1 -1</clus>
<clus scale="   79.426">  5  6 -1 -1</clus>
<clus scale="   89.070">  7  8 -1 -1</clus>
<clus scale="  138.605">  2  5  1 -1</clus>
<clus scale="  144.348">  1  5  2 -1</clus>
</clustering>
</event>
<event>
 9    2  0.2984928E-005  0.9717536E+02  0.7546771E-02  0.1292004E+00
         -1   -1    0    0    0  501 -0.00000000000E+00  0.00000000000E+00  0.90132313359E+02  0.90132313359E+02  0.00000000000E+00 0.  1.
          2   -1    0    0  502    0  0.00000000000E+00 -0.00000000000E+00 -0.27251829546E+03  0.27251829546E+03  0.00000000000E+00 0. -1.
         23    2    1    2    0    0 -0.26617599296E+02  0.32957404414E+02  0.37535762985E+02  0.10526797992E+03  0.88756560300E+02 0.  0.
         24    2    1    2    0    0 -0.13034736293E+02 -0.42397964316E+02 -0.12280818434E+03  0.15206180679E+03  0.77932350243E+02 0.  0.
        -11    1    4    4    0    0  0.24423078842E+02  0.70961556652E+01 -0.52088367610E+02  0.57965854135E+02  0.00000000000E+00 0.  1.
         12    1    4    4    0    0 -0.37457815135E+02 -0.49494119981E+02 -0.70719816734E+02  0.94095952656E+02  0.00000000000E+00 0. -1.
        -13    1    3    3    0    0 -0.98774000180E+01  0.21322257825E+02 -0.28046748540E+02  0.36589914095E+02  0.00000000000E+00 0. -1.
         13    1    3    3    0    0 -0.16740199278E+02  0.11635146589E+02  0.65582511525E+02  0.68678065828E+02  0.00000000000E+00 0.  1.
         21    1    1    2  502  501  0.39652335589E+02  0.94405599017E+01 -0.97113560741E+02  0.10532082210E+03  0.00000000000E+00 0. -1.
<scales pt_clust_5="13000.00000" pt_clust_6="13000.00000" pt_clust_7="13000.00000" pt_clust_8="13000.00000" pt_clust_9="40.76067"></scales>
<clustering>
<clus scale="   40.761">  2  9  1 -1</clus>
<clus scale="   77.932">  5  6 -1 -1</clus>
<clus scale="   87.400">  2  5  1 -1</clus>
<clus scale="   88.757">  7  8 -1 -1</clus>
<clus scale="   40.761">  2  5  1 -1</clus>
</clustering>
</event>
<event>
 9    2  0.2984928E-005  0.1090252E+03  0.7546771E-02  0.1265869E+00
         -1   -1    0    0    0  501 -0.00000000000E+00  0.00000000000E+00  0.18600756597E+03  0.18600756597E+03  0.00000000000E+00 0.  1.
          2   -1    0    0  502    0  0.00000000000E+00 -0.00000000000E+00 -0.11188075137E+03  0.11188075137E+03  0.00000000000E+00 0. -1.
         24    2    1    2    0    0 -0.47028608055E+02 -0.45178543183E+02  0.11452688700E+03  0.15437009312E+03  0.80379892165E+02 0.  0.
         23    2    1    2    0    0  0.56580265031E+02  0.16085349788E+02 -0.28410927294E+02  0.11063376508E+03  0.89289329246E+02 0.  0.
        -11    1    3    3    0    0 -0.60505157407E+02 -0.16514839868E+02  0.10313875086E+03  0.12071129167E+03  0.00000000000E+00 0.  1.
         12    1    3    3    0    0  0.13476549352E+02 -0.28663703315E+02  0.11388136141E+02  0.33658801448E+02  0.00000000000E+00 0. -1.
        -13    1    4    4    0    0  0.35359524732E+02 -0.29215680319E+02  0.10741642190E+02  0.47108755479E+02  0.00000000000E+00 0. -1.
         13    1    4    4    0    0  0.21220740298E+02  0.45301030107E+02 -0.39152569484E+02  0.63525009601E+02  0.00000000000E+00 0.  1.
         21    1    1    2  502  501 -0.95516569756E+01  0.29093193395E+02 -0.11989145103E+02  0.32884459144E+02  0.00000000000E+00 0.  1.
<scales pt_clust_5="13000.00000" pt_clust_6="13000.00000" pt_clust_7="13000.00000" pt_clust_8="13000.00000" pt_clust_9="30.62104"></scales>
<clustering>
<clus scale="   30.621">  2  9  1 -1</clus>
<clus scale="   80.380">  5  6 -1 -1</clus>
<clus scale="   89.289">  7  8 -1 -1</clus>
<clus scale="  101.857">  1  5  2 -1</clus>
<clus scale="   30.621">  2  5  1 -1</clus>
</clustering>
</event>
<event>
 9    2  0.2984928E-005  0.1284202E+03  0.7546771E-02  0.1234820E+00
         -3   -1    0    0    0  501 -0.00000000000E+00  0.00000000000E+00  0.63694190418E+02  0.63694190418E+02  0.00000000000E+00 0.  1.
          4   -1    0    0  502    0  0.00000000000E+00 -0.00000000000E+00 -0.51832648135E+03  0.51832648135E+03  0.00000000000E+00 0. -1.
         24    2    1    2    0    0 -0.52625471153E+02 -0.66573178108E+02 -0.27115500090E+02  0.11872769622E+03  0.78483037962E+02 0.  0.
         23    2    1    2    0    0  0.80225821933E+02  0.45126570865E+02 -0.25878173439E+03  0.29097566475E+03  0.96053430537E+02 0.  0.
        -11    1    3    3    0    0  0.81775614718E+01 -0.26628558355E+02  0.17961170278E+02  0.33144475700E+02  0.00000000000E+00 0.  1.
         12    1    3    3    0    0 -0.60803032625E+02 -0.39944619753E+02 -0.45076670367E+02  0.85583220522E+02  0.00000000000E+00 0. -1.
        -11    1    4    4    0    0 -0.11041251654E+02  0.36984777630E+02 -0.10617984372E+03  0.11297761825E+03  0.00000000000E+00 0. -1.
         11    1    4    4    0    0  0.91267073588E+02  0.81417932346E+01 -0.15260189067E+03  0.17799804649E+03  0.00000000000E+00 0.  1.
         21    1    1    2  502  501 -0.27600350780E+02  0.21446607243E+02 -0.16873505645E+03  0.17231731080E+03  0.00000000000E+00 0. -1.
<scales pt_clust_5="13000.00000" pt_clust_6="13000.00000" pt_clust_7="13000.00000" pt_clust_8="13000.00000" pt_clust_9="34.95334"></scales>
<clustering>
<clus scale="   34.953">  2  9  1 -1</clus>
<clus scale="   78.483">  5  6 -1 -1</clus>
<clus scale="   96.053">  7  8 -1 -1</clus>
<clus scale="  115.867">  1  5  2 -1</clus>
<clus scale="   34.953">  2  5  1 -1</clus>
</clustering>
</event>
<event>
 9    2  0.2984928E-005  0.1580674E+03  0.7546771E-02  0.1191989E+00
          2   -1    0    0  502    0  0.00000000000E+00  0.00000000000E+00  0.40306634447E+03  0.40306634447E+03  0.00000000000E+00 0. -1.
         -1   -1    0    0    0  501 -0.00000000000E+00 -0.00000000000E+00 -0.10705868347E+03  0.10705868347E+03  0.00000000000E+00 0.  1.
         24    2    1    2    0    0 -0.13471235919E+03  0.36734641065E+02  0.20134667897E+02  0.16456928258E+03  0.84739544154E+02 0.  0.
         23    2    1    2    0    0  0.10572541727E+03  0.15539369082E+02  0.23244595029E+03  0.27167257416E+03  0.91408598575E+02 0.  0.
        -13    1    3    3    0    0 -0.14282369057E+02 -0.14322571603E+02 -0.19290697336E+02  0.27950905654E+02  0.00000000000E+00 0.  1.
         14    1    3    3    0    0 -0.12042999013E+03  0.51057212668E+02  0.39425365233E+02  0.13661837692E+03  0.00000000000E+00 0. -1.
        -13    1    4    4    0    0  0.10286063260E+03 -0.15331331089E+02  0.20664201583E+03  0.23133586440E+03  0.00000000000E+00 0.  1.
         13    1    4    4    0    0  0.28647846703E+01  0.30870700172E+02  0.25803934466E+02  0.40336709759E+02  0.00000000000E+00 0. -1.
         21    1    1    2  502  501  0.28986941920E+02 -0.52274010148E+02  0.43427042811E+02  0.73883171196E+02  0.00000000000E+00 0.  1.
<scales pt_clust_5="13000.00000" pt_clust_6="13000.00000" pt_clust_7="13000.00000" pt_clust_8="13000.00000" pt_clust_9="59.77303"></scales>
<clustering>
<clus scale="   59.773">  1  9  2 -1</clus>
<clus scale="   84.740">  5  6 -1 -1</clus>
<clus scale="   91.409">  7  8 -1 -1</clus>
<clus scale="  154.307">  2  5  1 -1</clus>
<clus scale="   59.773">  1  5  2 -1</clus>
</clustering>
</event>
<event>
 9    2  0.2984928E-005  0.9256456E+02  0.7546771E-02  0.1304099E+00
         -1   -1    0    0    0  501 -0.00000000000E+00  0.00000000000E+00  0.41472596491E+02  0.41472596491E+02  0.00000000000E+00 0.  1.
          2   -1    0    0  502    0  0.00000000000E+00 -0.00000000000E+00 -0.55359774912E+03  0.55359774912E+03  0.00000000000E+00 0. -1.
         24    2    1    2    0    0 -0.55514369449E+01 -0.46355617625E+01 -0.34665061478E+02  0.87759030031E+02  0.80297409545E+02 0.  0.
         23    2    1    2    0    0  0.15350927235E+02 -0.33239554936E+02 -0.16541756399E+03  0.19282587358E+03  0.92077836990E+02 0.  0.
        -11    1    3    3    0    0 -0.14415070304E+00 -0.42242432906E+02 -0.13958069948E+02  0.44489005765E+02  0.00000000000E+00 0.  1.
         12    1    3    3    0    0 -0.54072862418E+01  0.37606871144E+02 -0.20706991529E+02  0.43270024265E+02  0.00000000000E+00 0. -1.
        -13    1    4    4    0    0  0.40259232744E+01  0.22002601707E+02 -0.51864166134E+01  0.22961303477E+02  0.00000000000E+00 0.  1.
         13    1    4    4    0    0  0.11325003960E+02 -0.55242156643E+02 -0.16023114738E+03  0.16986457010E+03  0.00000000000E+00 0. -1.
         21    1    1    2  502  501 -0.97994902897E+01  0.37875116699E+02 -0.31204252716E+03  0.31448544200E+03  0.00000000000E+00 0.  1.
<scales pt_clust_5="13000.00000" pt_clust_6="13000.00000" pt_clust_7="13000.00000" pt_clust_8="13000.00000" pt_clust_9="39.12230"></scales>
<clustering>
<clus scale="   39.122">  2  9  1 -1</clus>
<clus scale="   80.297">  5  6 -1 -1</clus>
<clus scale="   80.855">  1  5  2 -1</clus>
<clus scale="   92.078">  7  8 -1 -1</clus>
<clus scale="   39.122">  2  5  1 -1</clus>
</clustering>
</event>
<event>
 9    2  0.2984928E-005  0.1097110E+03  0.7546771E-02  0.1267668E+00
          2   -1    0    0  502    0  0.00000000000E+00  0.00000000000E+00  0.45431937455E+03  0.45431937455E+03  0.00000000000E+00 0. -1.
         -1   -1    0    0    0  501 -0.00000000000E+00 -0.00000000000E+00 -0.40231915256E+03  0.40231915256E+03  0.00000000000E+00 0.  1.
         24    2    1    2    0    0 -0.30747691273E+02 -0.69039021364E+02 -0.32053891874E+03  0.33868993738E+03  0.79081402769E+02 0.  0.
         23    2    1    2    0    0  0.54091655181E+02  0.12587024055E+02  0.42405293568E+03  0.43803964330E+03  0.94728541139E+02 0.  0.
        -11    1    3    3    0    0 -0.71323226678E+01 -0.63301923003E+02 -0.11288497577E+03  0.12961875342E+03  0.00000000000E+00 0.  1.
         12    1    3    3    0    0 -0.23615368605E+02 -0.57370983611E+01 -0.20765394297E+03  0.20907118396E+03  0.00000000000E+00 0. -1.
        -11    1    4    4    0    0 -0.54489653367E+01 -0.33221872538E+02  0.16028356027E+03  0.16378096266E+03  0.00000000000E+00 0.  1.
         11    1    4    4    0    0  0.59540620518E+02  0.45808896593E+02  0.26376937542E+03  0.27425868064E+03  0.00000000000E+00 0. -1.
         21    1    1    2  502  501 -0.23343963908E+02  0.56451997310E+02 -0.51513794943E+02  0.79908946436E+02  0.00000000000E+00 0.  1.
<scales pt_clust_5="13000.00000" pt_clust_6="13000.00000" pt_clust_7="13000.00000" pt_clust_8="13000.00000" pt_clust_9="61.08820"></scales>
<clustering>
<clus scale="   61.088">  2  9  1 -1</clus>
<clus scale="   79.081">  5  6 -1 -1</clus>
<clus scale="   94.729">  7  8 -1 -1</clus>
<clus scale="   96.524">  2  5  1 -1</clus>
<clus scale="  109.711">  1  5  2 -1</clus>
</clustering>
</event>
<event>
 9    2  0.2984928E-005  0.2127197E+03  0.7546771E-02  0.1140236E+00
         -1   -1    0    0    0  501 -0.00000000000E+00  0.00000000000E+00  0.24163784997E+03  0.24163784997E+03  0.00000000000E+00 0.  1.
          2   -1    0    0  502    0  0.00000000000E+00 -0.00000000000E+00 -0.75239190649E+03  0.75239190649E+03  0.00000000000E+00 0. -1.
         23    2    1    2    0    0 -0.27658622925E+03 -0.62675244577E+02  0.73827322353E+02  0.30662031695E+03  0.90207631308E+02 0.  0.
         24    2    1    2    0    0  0.17382197058E+03  0.60772211726E+02 -0.53859635578E+03  0.57480954278E+03  0.80078941335E+02 0.  0.
        -13    1    4    4    0    0  0.55738634021E+02 -0.17742990747E+02 -0.13940372665E+03  0.15117872882E+03  0.00000000000E+00 0.  1.
         14    1    4    4    0    0  0.11808333656E+03  0.78515202473E+02 -0.39919262913E+03  0.42363081396E+03  0.00000000000E+00 0. -1.
        -11    1    3    3    0    0 -0.21987567629E+03 -0.22118428861E+02  0.26988382512E+02  0.22262729103E+03  0.00000000000E+00 0.  1.
         11    1    3    3    0    0 -0.56710552961E+02 -0.40556815716E+02  0.46838939841E+02  0.83993025923E+02  0.00000000000E+00 0. -1.
         21    1    1    2  502  501  0.10276425867E+03  0.19030328513E+01 -0.45985023094E+02  0.11259989673E+03  0.00000000000E+00 0. -1.
<scales pt_clust_5="13000.00000" pt_clust_6="13000.00000" pt_clust_7="13000.00000" pt_clust_8="13000.00000" pt_clust_9="102.78188"></scales>
<clustering>
<clus scale="   80.079">  5  6 -1 -1</clus>
<clus scale="   90.208">  7  8 -1 -1</clus>
<clus scale="  102.782">  1  9  2 -1</clus>
<clus scale="  208.626">  2  5  1 -1</clus>
<clus scale="  208.626">  2  5  1 -1</clus>
</clustering>
</event>
<event>
 9    2  0.2984928E-005  0.9378096E+02  0.7546771E-02  0.1295189E+00
         -1   -1    0    0    0  501 -0.00000000000E+00  0.00000000000E+00  0.23076148984E+03  0.23076148984E+03  0.00000000000E+00 0.  1.
          2   -1    0    0  502    0  0.00000000000E+00 -0.00000000000E+00 -0.22016061658E+03  0.22016061658E+03  0.00000000000E+00 0. -1.
         23    2    1    2    0    0 -0.17421112114E+02  0.10740187933E+02  0.18603685313E+03  0.20808395917E+03  0.90941610711E+02 0.  0.
         24    2    1    2    0    0  0.19932500761E+02 -0.66024817928E+02 -0.12282254655E+03  0.16647800875E+03  0.88729748598E+02 0.  0.
        -11    1    4    4    0    0  0.18580368556E+02  0.18825052548E+02 -0.20004961718E+02  0.33163401400E+02  0.00000000000E+00 0.  1.
         12    1    4    4    0    0  0.13521322056E+01 -0.84849870476E+02 -0.10281758483E+03  0.13331460735E+03  0.00000000000E+00 0. -1.
        -13    1    3    3    0    0 -0.40912511982E+02 -0.61230751832E+01  0.17011575703E+03  0.17507340311E+03  0.00000000000E+00 0.  1.
         13    1    3    3    0    0  0.23491399868E+02  0.16863263116E+02  0.15921096102E+02  0.33010556066E+02  0.00000000000E+00 0. -1.
         21    1    1    2  502  501 -0.25113886476E+01  0.55284629995E+02 -0.52613433319E+02  0.76360138504E+02  0.00000000000E+00 0. -1.
<scales pt_clust_5="13000.00000" pt_clust_6="13000.00000" pt_clust_7="13000.00000" pt_clust_8="13000.00000" pt_clust_9="55.34164"></scales>
<clustering>
<clus scale="   55.342">  2  9  1 -1</clus>
<clus scale="   88.730">  5  6 -1 -1</clus>
<clus scale="   90.942">  7  8 -1 -1</clus>
<clus scale="   91.638">  2  5  1 -1</clus>
<clus scale="   55.342">  2  5  1 -1</clus>
</clustering>
</event>
<event>
 9    2  0.2984928E-005  0.1154499E+03  0.7546771E-02  0.1254605E+00
         -1   -1    0    0    0  501 -0.00000000000E+00  0.00000000000E+00  0.43803697529E+02  0.43803697529E+02  0.00000000000E+00 0.  1.
          2   -1    0    0  502    0  0.00000000000E+00 -0.00000000000E+00 -0.40615302897E+03  0.40615302897E+03  0.00000000000E+00 0. -1.
         24    2    1    2    0    0 -0.65017222000E+02 -0.21847378199E+01 -0.11125748397E+03  0.15168196040E+03  0.79982355154E+02 0.  0.
         23    2    1    2    0    0  0.72004903308E+02 -0.31572308192E+02 -0.22478060418E+03  0.25490833474E+03  0.90941862507E+02 0.  0.
        -11    1    3    3    0    0 -0.10083909397E+02  0.34662081136E+02 -0.30240374548E+02  0.47091669648E+02  0.00000000000E+00 0.  1.
         12    1    3    3    0    0 -0.54933312603E+02 -0.36846818956E+02 -0.81017109427E+02  0.10459029076E+03  0.00000000000E+00 0. -1.
        -13    1    4    4    0    0 -0.17174268206E+02 -0.17277681057E+02 -0.21600166103E+02  0.32558269714E+02  0.00000000000E+00 0.  1.
         13    1    4    4    0    0  0.89179171513E+02 -0.14294627135E+02 -0.20318043808E+03  0.22235006502E+03  0.00000000000E+00 0. -1.
         21    1    1    2  502  501 -0.69876813073E+01  0.33757046012E+02 -0.26311243280E+02  0.43366431355E+02  0.00000000000E+00 0.  1.
<scales pt_clust_5="13000.00000" pt_clust_6="13000.00000" pt_clust_7="13000.00000" pt_clust_8="13000.00000" pt_clust_9="34.47268"></scales>
<clustering>
<clus scale="   34.473">  1  9  2 -1</clus>
<clus scale="   79.982">  5  6 -1 -1</clus>
<clus scale="   90.942">  7  8 -1 -1</clus>
<clus scale="  107.030">  1  5  2 -1</clus>
<clus scale="  115.450">  2  5  1 -1</clus>
</clustering>
</event>
<event>
 9    2  0.2984928E-005  0.2031164E+03  0.7546771E-02  0.1147829E+00
         -1   -1    0    0    0  501 -0.00000000000E+00  0.00000000000E+00  0.19141664107E+03  0.19141664107E+03  0.00000000000E+00 0.  1.
          2   -1    0    0  502    0  0.00000000000E+00 -0.00000000000E+00 -0.76980629548E+03  0.76980629548E+03  0.00000000000E+00 0. -1.
         23    2    1    2    0    0 -0.90328436550E+02 -0.15470122713E+03  0.10111554762E+03  0.22485721158E+03  0.90800415767E+02 0.  0.
         24    2    1    2    0    0  0.13056692116E+03  0.16539987576E+03 -0.64025958132E+03  0.67914845946E+03  0.83099089712E+02 0.  0.
        -11    1    4    4    0    0  0.25226582574E+02  0.54770643115E+02 -0.91965884548E+02  0.10997239534E+03  0.00000000000E+00 0.  1.
         12    1    4    4    0    0  0.10534033859E+03  0.11062923265E+03 -0.54829369678E+03  0.56917606413E+03  0.00000000000E+00 0. -1.
        -11    1    3    3    0    0 -0.76485598730E+02 -0.85412700205E+02  0.18481650992E+02  0.11613331819E+03  0.00000000000E+00 0. -1.
         11    1    3    3    0    0 -0.13842837820E+02 -0.69288526924E+02  0.82633896632E+02  0.10872389339E+03  0.00000000000E+00 0.  1.
         21    1    1    2  502  501 -0.40238484611E+02 -0.10698648633E+02 -0.39245620718E+02  0.57217265505E+02  0.00000000000E+00 0.  1.
<scales pt_clust_5="13000.00000" pt_clust_6="13000.00000" pt_clust_7="13000.00000" pt_clust_8="13000.00000" pt_clust_9="41.63648"></scales>
<clustering>
<clus scale="   41.636">  2  9  1 -1</clus>
<clus scale="   83.099">  5  6 -1 -1</clus>
<clus scale="   90.800">  7  8 -1 -1</clus>
<clus scale="  199.792">  2  5  1 -1</clus>
<clus scale="   41.636">  2  5  1 -1</clus>
</clustering>
</event>
<event>
 9    2  0.2984928E-005  0.1406972E+03  0.7546771E-02  0.1230597E+00
          4   -1    0    0  502    0  0.00000000000E+00  0.00000000000E+00  0.97878915829E+02  0.97878915829E+02  0.00000000000E+00 0. -1.
         -3   -1    0    0    0  501 -0.00000000000E+00 -0.00000000000E+00 -0.35833464920E+03  0.35833464920E+03  0.00000000000E+00 0.  1.
         24    2    1    2    0    0 -0.16985340989E+02 -0.49707577972E+02 -0.14196686069E+03  0.17143229926E+03  0.80467997240E+02 0.  0.
         23    2    1    2    0    0  0.11169477861E+03 -0.38861669575E+01 -0.96822412263E+02  0.17382360458E+03  0.91374176486E+02 0.  0.
        -13    1    3    3    0    0 -0.29000775911E+02  0.13164986813E+02 -0.41620948592E+02  0.52408637103E+02  0.00000000000E+00 0.  1.
         14    1    3    3    0    0  0.12015434923E+02 -0.62872564785E+02 -0.10034591210E+03  0.11902366216E+03  0.00000000000E+00 0. -1.
        -13    1    4    4    0    0  0.69762749918E+02  0.20110000603E+02 -0.10203631301E+03  0.12523043788E+03  0.00000000000E+00 0.  1.
         13    1    4    4    0    0  0.41932028696E+02 -0.23996167561E+02  0.52139007462E+01  0.48593166692E+02  0.00000000000E+00 0. -1.
         21    1    1    2  502  501 -0.94709437625E+02  0.53593744929E+02 -0.21666460424E+02  0.11095766120E+03  0.00000000000E+00 0.  1.
<scales pt_clust_5="13000.00000" pt_clust_6="13000.00000" pt_clust_7="13000.00000" pt_clust_8="13000.00000" pt_clust_9="106.98815"></scales>
<clustering>
<clus scale="   80.468">  5  6 -1 -1</clus>
<clus scale="   91.374">  7  8 -1 -1</clus>
<clus scale="   96.096">  2  5  1 -1</clus>
<clus scale="  106.988">  1  9  2 -1</clus>
<clus scale="  106.988">  1  5  2 -1</clus>
</clustering>
</event>
<event>
 9    2  0.2984928E-005  0.1369924E+03  0.7546771E-02  0.1219277E+00
          2   -1    0    0  502    0  0.00000000000E+00  0.00000000000E+00  0.69332761628E+03  0.69332761628E+03  0.00000000000E+00 0. -1.
         -1   -1    0    0    0  501 -0.00000000000E+00 -0.00000000000E+00 -0.99614818407E+02  0.99614818407E+02  0.00000000000E+00 0.  1.
         24    2    1    2    0    0 -0.33871619031E+02  0.11782097042E+02 -0.43854622048E+02  0.99849824912E+02  0.82223203985E+02 0.  0.
         23    2    1    2    0    0  0.91538404631E+02 -0.63341516239E+02  0.57784960537E+03  0.59536825640E+03  0.90342498810E+02 0.  0.
        -11    1    3    3    0    0 -0.75906635179E+01  0.45545138257E+02 -0.16334185203E+02  0.48977376387E+02  0.00000000000E+00 0.  1.
         12    1    3    3    0    0 -0.26280955513E+02 -0.33763041215E+02 -0.27520436844E+02  0.50872448525E+02  0.00000000000E+00 0. -1.
        -11    1    4    4    0    0 -0.11379388210E+02 -0.28847861782E+02  0.79490469257E+02  0.85325402478E+02  0.00000000000E+00 0.  1.
         11    1    4    4    0    0  0.10291779284E+03 -0.34493654457E+02  0.49835913612E+03  0.51004285392E+03  0.00000000000E+00 0. -1.
         21    1    1    2  502  501 -0.57666785600E+02  0.51559419197E+02  0.59717814549E+02  0.97724353382E+02  0.00000000000E+00 0. -1.
<scales pt_clust_5="13000.00000" pt_clust_6="13000.00000" pt_clust_7="13000.00000" pt_clust_8="13000.00000" pt_clust_9="77.35523"></scales>
<clustering>
<clus scale="   77.355">  2  9  1 -1</clus>
<clus scale="   82.223">  5  6 -1 -1</clus>
<clus scale="   90.342">  7  8 -1 -1</clus>
<clus scale="  131.779">  2  5  1 -1</clus>
<clus scale="  136.992">  1  5  2 -1</clus>
</clustering>
</event>
<event>
 9    2  0.2984928E-005  0.1176639E+03  0.7546771E-02  0.1250451E+00
         -1   -1    0    0    0  501 -0.00000000000E+00  0.00000000000E+00  0.65106809542E+02  0.65106809542E+02  0.00000000000E+00 0.  1.
          2   -1    0    0  502    0  0.00000000000E+00 -0.00000000000E+00 -0.85786017843E+03  0.85786017843E+03  0.00000000000E+00 0. -1.
         24    2    1    2    0    0  0.70441733128E+02  0.27101365173E+02  0.44697409840E+01  0.11000650170E+03  0.79905757435E+02 0.  0.
         23    2    1    2    0    0 -0.54714685175E+02 -0.60711595787E+02 -0.59271284354E+03  0.60511093329E+03  0.90394314283E+02 0.  0.
        -13    1    3    3    0    0  0.66894716500E+02  0.52020224615E+02  0.30142030877E+01  0.84794411873E+02  0.00000000000E+00 0.  1.
         14    1    3    3    0    0  0.35470166281E+01 -0.24918859442E+02  0.14555378963E+01  0.25212089826E+02  0.00000000000E+00 0. -1.
        -13    1    4    4    0    0  0.16987766382E+02 -0.43691278528E+02 -0.18898380743E+03  0.19471104616E+03  0.00000000000E+00 0.  1.
         13    1    4    4    0    0 -0.71702451558E+02 -0.17020317259E+02 -0.40372903611E+03  0.41039988713E+03  0.00000000000E+00 0. -1.
         21    1    1    2  502  501 -0.15727047953E+02  0.33610230614E+02 -0.20451026633E+03  0.20784955298E+03  0.00000000000E+00 0.  1.
<scales pt_clust_5="13000.00000" pt_clust_6="13000.00000" pt_clust_7="13000.00000" pt_clust_8="13000.00000" pt_clust_9="37.10778"></scales>
<clustering>
<clus scale="   37.108">  2  9  1 -1</clus>
<clus scale="   79.906">  5  6 -1 -1</clus>
<clus scale="   90.394">  7  8 -1 -1</clus>
<clus scale="  109.812">  1  5  2 -1</clus>
<clus scale="   37.108">  2  5  1 -1</clus>
</clustering>
</event>
<event>
 9    2  0.2984928E-005  0.1005601E+03  0.7546771E-02  0.1283885E+00
          4   -1    0    0  502    0  0.00000000000E+00  0.00000000000E+00  0.20629040967E+03  0.20629040967E+03  0.00000000000E+00 0. -1.
         -3   -1    0    0    0  501 -0.00000000000E+00 -0.00000000000E+00 -0.77819484479E+02  0.77819484479E+02  0.00000000000E+00 0.  1.
         24    2    1    2    0    0  0.19713526560E+02 -0.32043229546E+02 -0.12291340822E+02  0.89346745481E+02  0.80102260765E+02 0.  0.
         23    2    1    2    0    0  0.65642810357E+00  0.49153103239E+02  0.13120835396E+03  0.16649726700E+03  0.89940254143E+02 0.  0.
        -11    1    3    3    0    0  0.22470805266E+02  0.79106565730E+01 -0.35729759986E+02  0.42943350188E+02  0.00000000000E+00 0.  1.
         12    1    3    3    0    0 -0.27572787055E+01 -0.39953886119E+02  0.23438419163E+02  0.46403395293E+02  0.00000000000E+00 0. -1.
        -11    1    4    4    0    0  0.25628703159E+02  0.45324524336E+02  0.25812346170E+02  0.58115575766E+02  0.00000000000E+00 0.  1.
         11    1    4    4    0    0 -0.24972275055E+02  0.38285789037E+01  0.10539600779E+03  0.10838169123E+03  0.00000000000E+00 0. -1.
         21    1    1    2  502  501 -0.20369954664E+02 -0.17109873693E+02  0.95539120576E+01  0.28265881667E+02  0.00000000000E+00 0. -1.
<scales pt_clust_5="13000.00000" pt_clust_6="13000.00000" pt_clust_7="13000.00000" pt_clust_8="13000.00000" pt_clust_9="26.60231"></scales>
<clustering>
<clus scale="   26.602">  2  9  1 -1</clus>
<clus scale="   80.102">  5  6 -1 -1</clus>
<clus scale="   89.940">  7  8 -1 -1</clus>
<clus scale="   91.867">  2  5  1 -1</clus>
<clus scale="  100.560">  1  5  2 -1</clus>
</clustering>
</event>
<event>
 9    2  0.2984928E-005  0.1064065E+03  0.7546771E-02  0.1267896E+00
          2   -1    0    0  502    0  0.00000000000E+00  0.00000000000E+00  0.32685395792E+03  0.32685395792E+03  0.00000000000E+00 0. -1.
         -1   -1    0    0    0  501 -0.00000000000E+00 -0.00000000000E+00 -0.23616789681E+03  0.23616789681E+03  0.00000000000E+00 0.  1.
         24    2    1    2    0    0 -0.55483741058E+02 -0.20606390819E+02 -0.20953707682E+03  0.23479722429E+03  0.87868544460E+02 0.  0.
         23    2    1    2    0    0  0.29939784249E+02  0.33774232190E+02  0.19454299594E+03  0.21870669498E+03  0.89154650556E+02 0.  0.
        -11    1    3    3    0    0 -0.75720743808E+02 -0.86289678257E+01 -0.18819560567E+03  0.20304107004E+03  0.00000000000E+00 0.  1.
         12    1    3    3    0    0  0.20237002750E+02 -0.11977422993E+02 -0.21341471156E+02  0.31756154253E+02  0.00000000000E+00 0. -1.
        -11    1    4    4    0    0 -0.24102287717E+02  0.11477585949E+02  0.12517285317E+03  0.12798788389E+03  0.00000000000E+00 0. -1.
         11    1    4    4    0    0  0.54042071966E+02  0.22296646241E+02  0.69370142771E+02  0.90718811081E+02  0.00000000000E+00 0.  1.
         21    1    1    2  502  501  0.25543956810E+02 -0.13167841371E+02  0.10568014199E+03  0.10951793546E+03  0.00000000000E+00 0. -1.
<scales pt_clust_5="13000.00000" pt_clust_6="13000.00000" pt_clust_7="13000.00000" pt_clust_8="13000.00000" pt_clust_9="28.73823"></scales>
<clustering>
<clus scale="   28.738">  1  9  2 -1</clus>
<clus scale="   87.869">  5  6 -1 -1</clus>
<clus scale="   89.155">  7  8 -1 -1</clus>
<clus scale="  105.331">  2  5  1 -1</clus>
<clus scale="   28.738">  1  5  2 -1</clus>
</clustering>
</event>
<event>
 9    2  0.2984928E-005  0.1124299E+03  0.7546771E-02  0.1260589E+00
         -1   -1    0    0    0  501 -0.00000000000E+00  0.00000000000E+00  0.11737003527E+03  0.11737003527E+03  0.00000000000E+00 0.  1.
          2   -1    0    0  502    0  0.00000000000E+00 -0.00000000000E+00 -0.35461508243E+03  0.35461508243E+03  0.00000000000E+00 0. -1.
         23    2    1    2    0    0  0.51263474370E+02  0.40676975976E+02  0.50031620016E+02  0.12347408754E+03  0.91978949298E+02 0.  0.
         24    2    1    2    0    0 -0.67400984364E+02 -0.12156257506E+02 -0.65054986668E+02  0.12388617423E+03  0.80155883040E+02 0.  0.
        -13    1    4    4    0    0 -0.30433005217E+02 -0.40761683889E+02 -0.57097124324E+02  0.76470675988E+02  0.00000000000E+00 0.  1.
         14    1    4    4    0    0 -0.36967979147E+02  0.28605426383E+02 -0.79578623439E+01  0.47415498245E+02  0.00000000000E+00 0. -1.
        -11    1    3    3    0    0 -0.96408862484E+01  0.38553043165E+02 -0.65965049111E+01  0.40283963335E+02  0.00000000000E+00 0. -1.
         11    1    3    3    0    0  0.60904360618E+02  0.21239328112E+01  0.56628124927E+02  0.83190124207E+02  0.00000000000E+00 0.  1.
         21    1    1    2  502  501  0.16137509994E+02 -0.28520718470E+02 -0.22222168051E+03  0.22462485592E+03  0.00000000000E+00 0. -1.
<scales pt_clust_5="13000.00000" pt_clust_6="13000.00000" pt_clust_7="13000.00000" pt_clust_8="13000.00000" pt_clust_9="32.76966"></scales>
<clustering>
<clus scale="   32.770">  2  9  1 -1</clus>
<clus scale="   80.156">  5  6 -1 -1</clus>
<clus scale="   91.979">  7  8 -1 -1</clus>
<clus scale="  102.982">  2  5  1 -1</clus>
<clus scale="   32.770">  2  5  1 -1</clus>
</clustering>
</event>
<event>
 9    2  0.2984928E-005  0.2078919E+03  0.7546771E-02  0.1171376E+00
          2   -1    0    0  502    0  0.00000000000E+00  0.00000000000E+00  0.74548675124E+03  0.74548675124E+03  0.00000000000E+00 0. -1.
         -1   -1    0    0    0  501 -0.00000000000E+00 -0.00000000000E+00 -0.31561261181E+03  0.31561261181E+03  0.00000000000E+00 0.  1.
         24    2    1    2    0    0 -0.30233117303E+02 -0.67216630440E+02  0.32200277223E+02  0.11237287639E+03  0.78477313311E+02 0.  0.
         23    2    1    2    0    0  0.19282951814E+03  0.15277925322E+03 -0.19579815143E+03  0.32746359307E+03  0.91491887080E+02 0.  0.
        -11    1    3    3    0    0 -0.44102394097E+02 -0.78327179082E+02  0.26926751743E+02  0.93836123681E+02  0.00000000000E+00 0.  1.
         12    1    3    3    0    0  0.13869276793E+02  0.11110548642E+02  0.52735254800E+01  0.18536752706E+02  0.00000000000E+00 0. -1.
        -11    1    4    4    0    0  0.14821531359E+03  0.14575518125E+03 -0.12225878744E+03  0.24116293900E+03  0.00000000000E+00 0.  1.
         11    1    4    4    0    0  0.44614204550E+02  0.70240719637E+01 -0.73539363998E+02  0.86300654064E+02  0.00000000000E+00 0. -1.
         21    1    1    2  502  501 -0.16259640084E+03 -0.85562622775E+02  0.59347201364E+03  0.62126289359E+03  0.00000000000E+00 0. -1.
<scales pt_clust_5="13000.00000" pt_clust_6="13000.00000" pt_clust_7="13000.00000" pt_clust_8="13000.00000" pt_clust_9="186.67698"></scales>
<clustering>
<clus scale="   78.477">  5  6 -1 -1</clus>
<clus scale="   91.492">  7  8 -1 -1</clus>
<clus scale="  107.661">  2  5  1 -1</clus>
<clus scale="  186.677">  1  9  2 -1</clus>
<clus scale="  186.677">  1  5  2 -1</clus>
</clustering>
</event>
<event>
 9    2  0.2984928E-005  0.1024733E+03  0.7546771E-02  0.1278368E+00
          2   -1    0    0  502    0  0.00000000000E+00  0.00000000000E+00  0.37197740731E+03  0.37197740731E+03  0.00000000000E+00 0. -1.
         -1   -1    0    0    0  501 -0.00000000000E+00 -0.00000000000E+00 -0.53409838333E+02  0.53409838333E+02  0.00000000000E+00 0.  1.
         24    2    1    2    0    0  0.37673699754E+02  0.24998511663E+02  0.17195588119E+02  0.94694820286E+02  0.81407539575E+02 0.  0.
         23    2    1    2    0    0 -0.30559971792E+02 -0.44253880803E+02  0.28834778491E+03  0.30638185057E+03  0.88504663463E+02 0.  0.
        -11    1    3    3    0    0 -0.65062316330E+01  0.40666060085E+02 -0.72676707085E+01  0.41819595053E+02  0.00000000000E+00 0.  1.
         12    1    3    3    0    0  0.44179931387E+02 -0.15667548422E+02  0.24463258828E+02  0.52875225233E+02  0.00000000000E+00 0. -1.
        -11    1    4    4    0    0  0.17175450727E+02 -0.50288089481E+02  0.18313586905E+03  0.19068989115E+03  0.00000000000E+00 0. -1.
         11    1    4    4    0    0 -0.47735422519E+02  0.60342086774E+01  0.10521191586E+03  0.11569195943E+03  0.00000000000E+00 0.  1.
         21    1    1    2  502  501 -0.71137279621E+01  0.19255369141E+02  0.13024195944E+02  0.24310574782E+02  0.00000000000E+00 0. -1.
<scales pt_clust_5="13000.00000" pt_clust_6="13000.00000" pt_clust_7="13000.00000" pt_clust_8="13000.00000" pt_clust_9="20.52741"></scales>
<clustering>
<clus scale="   20.527">  2  9  1 -1</clus>
<clus scale="   81.408">  5  6 -1 -1</clus>
<clus scale="   88.505">  7  8 -1 -1</clus>
<clus scale="   96.410">  2  5  1 -1</clus>
<clus scale="  102.473">  1  5  2 -1</clus>
</clustering>
</event>
<event>
 9    2  0.2984928E-005  0.9102226E+02  0.7546771E-02  0.1301363E+00
          2   -1    0    0  502    0  0.00000000000E+00  0.00000000000E+00  0.37162772863E+03  0.37162772863E+03  0.00000000000E+00 0. -1.
         -1   -1    0    0    0  501 -0.00000000000E+00 -0.00000000000E+00 -0.45817299603E+02  0.45817299603E+02  0.00000000000E+00 0.  1.
         23    2    1    2    0    0 -0.10517753940E+02  0.26958286879E+02  0.25220564651E+02  0.87159496258E+02  0.78251699836E+02 0.  0.
         24    2    1    2    0    0  0.40489895410E+02 -0.25829227795E+02  0.27641556138E+03  0.29176279890E+03  0.80083628825E+02 0.  0.
        -11    1    4    4    0    0  0.18458788339E+02 -0.54285596861E+02  0.17465006943E+03  0.18382137973E+03  0.00000000000E+00 0.  1.
         12    1    4    4    0    0  0.22031107071E+02  0.28456369067E+02  0.10176549195E+03  0.10794141917E+03  0.00000000000E+00 0. -1.
        -13    1    3    3    0    0 -0.28618468954E+02 -0.15072142867E+02 -0.44068913781E+01  0.32643635635E+02  0.00000000000E+00 0.  1.
         13    1    3    3    0    0  0.18100715014E+02  0.42030429747E+02  0.29627456029E+02  0.54515860623E+02  0.00000000000E+00 0. -1.
         21    1    1    2  502  501 -0.29972141470E+02 -0.11290590849E+01  0.24174302994E+02  0.38522733080E+02  0.00000000000E+00 0.  1.
<scales pt_clust_5="13000.00000" pt_clust_6="13000.00000" pt_clust_7="13000.00000" pt_clust_8="13000.00000" pt_clust_9="29.99340"></scales>
<clustering>
<clus scale="   29.993">  2  9  1 -1</clus>
<clus scale="   78.252">  7  8 -1 -1</clus>
<clus scale="   80.084">  5  6 -1 -1</clus>
<clus scale="   89.415">  2  7  1 -1</clus>
<clus scale="   91.022">  1  5  2 -1</clus>
</clustering>
</event>
<event>
 9    2  0.2984928E-005  0.1101048E+03  0.7546771E-02  0.1292139E+00
         -1   -1    0    0    0  501 -0.00000000000E+00  0.00000000000E+00  0.26251234740E+03  0.26251234740E+03  0.00000000000E+00 0.  1.
          2   -1    0    0  502    0  0.00000000000E+00 -0.00000000000E+00 -0.24063761514E+03  0.24063761514E+03  0.00000000000E+00 0. -1.
         24    2    1    2    0    0  0.89652781191E+01 -0.28679049468E+02  0.22513013208E+03  0.23297103161E+03  0.51856157891E+02 0.  0.
         23    2    1    2    0    0 -0.60888008108E+02 -0.16645939645E+02 -0.12829884240E+03  0.16835157691E+03  0.88866324603E+02 0.  0.
        -11    1    3    3    0    0  0.17179941565E+02 -0.41083127514E+02  0.18113502758E+03  0.18652847497E+03  0.00000000000E+00 0.  1.
         12    1    3    3    0    0 -0.82146634460E+01  0.12404078045E+02  0.43995104494E+02  0.46442556639E+02  0.00000000000E+00 0. -1.
        -11    1    4    4    0    0 -0.38449694245E+02 -0.26872079875E+02 -0.10592991222E+02  0.48090530537E+02  0.00000000000E+00 0.  1.
         11    1    4    4    0    0 -0.22438313864E+02  0.10226140230E+02 -0.11770585118E+03  0.12026104637E+03  0.00000000000E+00 0. -1.
         21    1    1    2  502  501  0.51922729989E+02  0.45324989113E+02 -0.74956557419E+02  0.10182735402E+03  0.00000000000E+00 0. -1.
<scales pt_clust_5="13000.00000" pt_clust_6="13000.00000" pt_clust_7="13000.00000" pt_clust_8="13000.00000" pt_clust_9="65.00654"></scales>
<clustering>
<clus scale="   51.856">  5  6 -1 -1</clus>
<clus scale="   59.933">  1  5  2 -1</clus>
<clus scale="   65.007">  1  9  2 -1</clus>
<clus scale="   88.866">  7  8 -1 -1</clus>
<clus scale="  110.105">  2  5  1 -1</clus>
</clustering>
</event>
<event>
 9    2  0.2984928E-005  0.1194545E+03  0.7546771E-02  0.1248437E+00
          2   -1    0    0  502    0  0.00000000000E+00  0.00000000000E+00  0.39921472240E+03  0.39921472240E+03  0.00000000000E+00 0. -1.
         -1   -1    0    0    0  501 -0.00000000000E+00 -0.00000000000E+00 -0.88072778200E+02  0.88072778200E+02  0.00000000000E+00 0.  1.
         24    2    1    2    0    0 -0.51552568807E+02  0.51716655680E+02 -0.13408600928E+02  0.10577050757E+03  0.75334785245E+02 0.  0.
         23    2    1    2    0    0  0.70773981407E+02 -0.72275962631E+02  0.13885707889E+03  0.19370269323E+03  0.89480018935E+02 0.  0.
        -13    1    3    3    0    0 -0.25033279049E+02  0.63516929864E+02 -0.27379001203E+02  0.73557291590E+02  0.00000000000E+00 0.  1.
         14    1    3    3    0    0 -0.26519289757E+02 -0.11800274183E+02  0.13970400275E+02  0.32213215982E+02  0.00000000000E+00 0. -1.
        -13    1    4    4    0    0  0.61970278649E+02 -0.45870329056E+01  0.91573154118E+02  0.11066615952E+03  0.00000000000E+00 0.  1.
         13    1    4    4    0    0  0.88037027579E+01 -0.67688929725E+02  0.47283924767E+02  0.83036533713E+02  0.00000000000E+00 0. -1.
         21    1    1    2  502  501 -0.19221412600E+02  0.20559306950E+02  0.18569346624E+03  0.18781429980E+03  0.00000000000E+00 0. -1.
<scales pt_clust_5="13000.00000" pt_clust_6="13000.00000" pt_clust_7="13000.00000" pt_clust_8="13000.00000" pt_clust_9="28.14512"></scales>
<clustering>
<clus scale="   28.145">  1  9  2 -1</clus>
<clus scale="   75.335">  5  6 -1 -1</clus>
<clus scale="   89.480">  7  8 -1 -1</clus>
<clus scale="  109.261">  2  5  1 -1</clus>
<clus scale="   28.145">  1  5  2 -1</clus>
</clustering>
</event>
<event>
 9    2  0.2984928E-005  0.1015710E+03  0.7546771E-02  0.1280781E+00
          2   -1    0    0  502    0  0.00000000000E+00  0.00000000000E+00  0.64698593338E+03  0.64698593338E+03  0.00000000000E+00 0. -1.
         -1   -1    0    0    0  501 -0.00000000000E+00 -0.00000000000E+00 -0.28091730028E+02  0.28091730028E+02  0.00000000000E+00 0.  1.
         24    2    1    2    0    0 -0.27272019218E+02 -0.40133957713E+02  0.95328398966E+02  0.13436477215E+03  0.81313533624E+02 0.  0.
         23    2    1    2    0    0  0.32044217587E+01  0.53029017054E+02  0.45867375657E+03  0.47031040783E+03  0.89375163128E+02 0.  0.
        -11    1    3    3    0    0 -0.55197122294E+02 -0.21555208218E+02  0.47483787326E+02  0.75934572954E+02  0.00000000000E+00 0.  1.
         12    1    3    3    0    0  0.27925103076E+02 -0.18578749495E+02  0.47844611640E+02  0.58430199192E+02  0.00000000000E+00 0. -1.
        -11    1    4    4    0    0 -0.41408009557E+02  0.39460396181E+02  0.24035067357E+03  0.24706313445E+03  0.00000000000E+00 0.  1.
         11    1    4    4    0    0  0.44612431316E+02  0.13568620873E+02  0.21832308300E+03  0.22324727338E+03  0.00000000000E+00 0. -1.
         21    1    1    2  502  501  0.24067597459E+02 -0.12895059341E+02  0.64892047822E+02  0.70402483432E+02  0.00000000000E+00 0.  1.
<scales pt_clust_5="13000.00000" pt_clust_6="13000.00000" pt_clust_7="13000.00000" pt_clust_8="13000.00000" pt_clust_9="27.30443"></scales>
<clustering>
<clus scale="   27.304">  1  9  2 -1</clus>
<clus scale="   81.314">  5  6 -1 -1</clus>
<clus scale="   89.375">  7  8 -1 -1</clus>
<clus scale="   94.555">  2  5  1 -1</clus>
<clus scale="   27.304">  1  5  2 -1</clus>
</clustering>
</event>
<event>
 9    2  0.2984928E-005  0.1193745E+03  0.7546771E-02  0.1248105E+00
         -1   -1    0    0    0  501 -0.00000000000E+00  0.00000000000E+00  0.63478743021E+02  0.63478743021E+02  0.00000000000E+00 0.  1.
          2   -1    0    0  502    0  0.00000000000E+00 -0.00000000000E+00 -0.56789320610E+03  0.56789320610E+03  0.00000000000E+00 0. -1.
         23    2    1    2    0    0  0.65601663400E+01  0.64702087984E+02 -0.35193719145E+02  0.11882365906E+03  0.93011118223E+02 0.  0.
         24    2    1    2    0    0 -0.28076061142E+02 -0.98838589869E+02 -0.19142065441E+03  0.23183291067E+03  0.80915384668E+02 0.  0.
        -11    1    4    4    0    0 -0.48454376271E+02 -0.44640598136E+02 -0.13858018046E+03  0.15344404843E+03  0.00000000000E+00 0.  1.
         12    1    4    4    0    0  0.20378315128E+02 -0.54197991734E+02 -0.52840473948E+02  0.78388862235E+02  0.00000000000E+00 0. -1.
        -13    1    3    3    0    0  0.40330805372E+01 -0.23670537850E+02 -0.99917332916E+00  0.24032445737E+02  0.00000000000E+00 0. -1.
         13    1    3    3    0    0  0.25270858028E+01  0.88372625835E+02 -0.34194545816E+02  0.94791213322E+02  0.00000000000E+00 0.  1.
         21    1    1    2  502  501  0.21515894802E+02  0.34136501885E+02 -0.27780008953E+03  0.28071537940E+03  0.00000000000E+00 0. -1.
<scales pt_clust_5="13000.00000" pt_clust_6="13000.00000" pt_clust_7="13000.00000" pt_clust_8="13000.00000" pt_clust_9="40.35139"></scales>
<clustering>
<clus scale="   40.351">  2  9  1 -1</clus>
<clus scale="   80.915">  5  6 -1 -1</clus>
<clus scale="   93.011">  7  8 -1 -1</clus>
<clus scale="  110.211">  2  5  1 -1</clus>
<clus scale="   40.351">  2  5  1 -1</clus>
</clustering>
</event>
<event>
 9    2  0.2984928E-005  0.1252165E+03  0.7546771E-02  0.1240569E+00
         -1   -1    0    0    0  501 -0.00000000000E+00  0.00000000000E+00  0.18826939323E+03  0.18826939323E+03  0.00000000000E+00 0.  1.
          2   -1    0    0  502    0  0.00000000000E+00 -0.00000000000E+00 -0.19621635702E+03  0.19621635702E+03  0.00000000000E+00 0. -1.
         24    2    1    2    0    0  0.77447266410E+02  0.31490933437E+01  0.13731015252E+03  0.17676684249E+03  0.79902708061E+02 0.  0.
         23    2    1    2    0    0 -0.76114367255E+02  0.18476722774E+02 -0.11487420468E+03  0.17040170178E+03  0.98518378398E+02 0.  0.
        -11    1    3    3    0    0  0.31305354796E+02  0.97906722704E+01  0.12403115604E+03  0.12829501227E+03  0.00000000000E+00 0.  1.
         12    1    3    3    0    0  0.46141911614E+02 -0.66415789267E+01  0.13278996478E+02  0.48471830226E+02  0.00000000000E+00 0. -1.
        -11    1    4    4    0    0 -0.36697531719E+02  0.58745419704E+02 -0.58038867682E+02  0.90367269143E+02  0.00000000000E+00 0.  1.
         11    1    4    4    0    0 -0.39416835535E+02 -0.40268696931E+02 -0.56835337001E+02  0.80034432641E+02  0.00000000000E+00 0. -1.
         21    1    1    2  502  501 -0.13328991552E+01 -0.21625816117E+02 -0.30382911628E+02  0.37317205977E+02  0.00000000000E+00 0. -1.
<scales pt_clust_5="13000.00000" pt_clust_6="13000.00000" pt_clust_7="13000.00000" pt_clust_8="13000.00000" pt_clust_9="21.66685"></scales>
<clustering>
<clus scale="   21.667">  2  9  1 -1</clus>
<clus scale="   79.903">  5  6 -1 -1</clus>
<clus scale="   98.518">  7  8 -1 -1</clus>
<clus scale="  111.165">  1  5  2 -1</clus>
<clus scale="   21.667">  2  5  1 -1</clus>
</clustering>
</event>
<event>
 9    2  0.2984928E-005  0.1350732E+03  0.7546771E-02  0.1223105E+00
          2   -1    0    0  502    0  0.00000000000E+00  0.00000000000E+00  0.20616073449E+03  0.20616073449E+03  0.00000000000E+00 0. -1.
         -1   -1    0    0    0  501 -0.00000000000E+00 -0.00000000000E+00 -0.29918750169E+03  0.29918750169E+03  0.00000000000E+00 0.  1.
         23    2    1    2    0    0 -0.10108103602E+03 -0.93735525399E+00 -0.25736208450E+03  0.29144914654E+03  0.92136355480E+02 0.  0.
         24    2    1    2    0    0  0.77200002308E+02 -0.76088748515E+01  0.13971318508E+03  0.17854953214E+03  0.79639349640E+02 0.  0.
        -13    1    4    4    0    0 -0.78915580329E+01 -0.22366312596E+02  0.20548758801E+02  0.31381206407E+02  0.00000000000E+00 0.  1.
         14    1    4    4    0    0  0.85091560341E+02  0.14757437744E+02  0.11916442628E+03  0.14716832574E+03  0.00000000000E+00 0. -1.
        -11    1    3    3    0    0 -0.30994315514E+02 -0.29332368655E+02 -0.17286895490E+03  0.17805816750E+03  0.00000000000E+00 0.  1.
         11    1    3    3    0    0 -0.70086720508E+02  0.28395013401E+02 -0.84493129601E+02  0.11339097904E+03  0.00000000000E+00 0. -1.
         21    1    1    2  502  501  0.23881033714E+02  0.85462301055E+01  0.24622132223E+02  0.35349557500E+02  0.00000000000E+00 0.  1.
<scales pt_clust_5="13000.00000" pt_clust_6="13000.00000" pt_clust_7="13000.00000" pt_clust_8="13000.00000" pt_clust_9="25.36418"></scales>
<clustering>
<clus scale="   25.364">  1  9  2 -1</clus>
<clus scale="   79.639">  5  6 -1 -1</clus>
<clus scale="   92.136">  7  8 -1 -1</clus>
<clus scale="  126.878">  1  5  2 -1</clus>
<clus scale="   25.364">  1  5  2 -1</clus>
</clustering>
</event>
<event>
 9    2  0.2984928E-005  0.2144815E+03  0.7546771E-02  0.1173122E+00
          2   -1    0    0  502    0  0.00000000000E+00  0.00000000000E+00  0.11535103480E+04  0.11535103480E+04  0.00000000000E+00 0. -1.
         -1   -1    0    0    0  501 -0.00000000000E+00 -0.00000000000E+00 -0.76692085107E+02  0.76692085107E+02  0.00000000000E+00 0.  1.
         23    2    1    2    0    0  0.32428915456E+02  0.13219592390E+02  0.41289439199E+02  0.10286720086E+03  0.87466856824E+02 0.  0.
         24    2    1    2    0    0  0.17089811208E+03  0.35366630602E+02  0.25557540919E+03  0.31985159156E+03  0.80804007108E+02 0.  0.
        -13    1    4    4    0    0  0.10211982303E+03 -0.98098249898E+01  0.18456126381E+03  0.21115764495E+03  0.00000000000E+00 0.  1.
         14    1    4    4    0    0  0.68778289053E+02  0.45176455592E+02  0.71014145387E+02  0.10869394661E+03  0.00000000000E+00 0. -1.
        -13    1    3    3    0    0  0.13239679274E+02  0.49082770309E+02  0.34973811701E+02  0.61705550426E+02  0.00000000000E+00 0. -1.
         13    1    3    3    0    0  0.19189236182E+02 -0.35863177919E+02  0.63156274974E+01  0.41161650433E+02  0.00000000000E+00 0.  1.
         21    1    1    2  502  501 -0.20332702754E+03 -0.48586222992E+02  0.77995341450E+03  0.80748364069E+03  0.00000000000E+00 0. -1.
<scales pt_clust_5="13000.00000" pt_clust_6="13000.00000" pt_clust_7="13000.00000" pt_clust_8="13000.00000" pt_clust_9="198.67825"></scales>
<clustering>
<clus scale="   80.804">  5  6 -1 -1</clus>
<clus scale="   87.467">  7  8 -1 -1</clus>
<clus scale="   94.217">  2  7  1 -1</clus>
<clus scale="  198.678">  1  9  2 -1</clus>
<clus scale="  198.678">  1  5  2 -1</clus>
</clustering>
</event>
<event>
 9    2  0.2984928E-005  0.1798568E+03  0.7546771E-02  0.1169736E+00
         -1   -1    0    0    0  501 -0.00000000000E+00  0.00000000000E+00  0.32620019079E+02  0.32620019079E+02  0.00000000000E+00 0.  1.
          2   -1    0    0  502    0  0.00000000000E+00 -0.00000000000E+00 -0.11262269235E+04  0.11262269235E+04  0.00000000000E+00 0. -1.
         24    2    1    2    0    0 -0.14148128083E+03  0.36739095690E+02 -0.43248242614E+03  0.46267978369E+03  0.75264994102E+02 0.  0.
         23    2    1    2    0    0  0.15973692898E+03 -0.46278289297E+02 -0.51752742800E+03  0.55110035444E+03  0.90660881264E+02 0.  0.
        -11    1    3    3    0    0 -0.62294768670E+02  0.54245635018E+02 -0.19671665522E+03  0.21335573478E+03  0.00000000000E+00 0.  1.
         12    1    3    3    0    0 -0.79186512162E+02 -0.17506539328E+02 -0.23576577092E+03  0.24932404891E+03  0.00000000000E+00 0. -1.
        -13    1    4    4    0    0  0.79278268077E+02  0.17145797557E+02 -0.16299048936E+03  0.18205746836E+03  0.00000000000E+00 0.  1.
         13    1    4    4    0    0  0.80458660899E+02 -0.63424086855E+02 -0.35453693863E+03  0.36904288607E+03  0.00000000000E+00 0. -1.
         21    1    1    2  502  501 -0.18255648144E+02  0.95391936078E+01 -0.14359705033E+03  0.14506680450E+03  0.00000000000E+00 0.  1.
<scales pt_clust_5="13000.00000" pt_clust_6="13000.00000" pt_clust_7="13000.00000" pt_clust_8="13000.00000" pt_clust_9="20.59769"></scales>
<clustering>
<clus scale="   20.598">  2  9  1 -1</clus>
<clus scale="   75.265">  5  6 -1 -1</clus>
<clus scale="   90.661">  7  8 -1 -1</clus>
<clus scale="  172.609">  1  5  2 -1</clus>
<clus scale="   20.598">  2  5  1 -1</clus>
</clustering>
</event>
<event>
 9    2  0.2984928E-005  0.1217270E+03  0.7546771E-02  0.1244062E+00
         -1   -1    0    0    0  501 -0.00000000000E+00  0.00000000000E+00  0.24074964686E+03  0.24074964686E+03  0.00000000000E+00 0.  1.
          2   -1    0    0  502    0  0.00000000000E+00 -0.00000000000E+00 -0.16936239090E+03  0.16936239090E+03  0.00000000000E+00 0. -1.
         24    2    1    2    0    0  0.22686742943E+02 -0.90920998750E+02  0.17097639113E+03  0.21039715466E+03  0.79074142709E+02 0.  0.
         23    2    1    2    0    0  0.18165781816E+02  0.26747212093E+02 -0.58522316653E+02  0.11326439290E+03  0.91425117829E+02 0.  0.
        -11    1    3    3    0    0  0.81778206536E+01 -0.48285925258E+02  0.15509410450E+03  0.16264251775E+03  0.00000000000E+00 0.  1.
         12    1    3    3    0    0  0.14508922289E+02 -0.42635073492E+02  0.15882286627E+02  0.47754636908E+02  0.00000000000E+00 0. -1.
        -13    1    4    4    0    0 -0.11428762790E+02 -0.24922794414E+02 -0.44212174301E+02  0.52023827779E+02  0.00000000000E+00 0.  1.
         13    1    4    4    0    0  0.29594544606E+02  0.51670006507E+02 -0.14310142352E+02  0.61240565126E+02  0.00000000000E+00 0. -1.
         21    1    1    2  502  501 -0.40852524759E+02  0.64173786657E+02 -0.41066818515E+02  0.86450490201E+02  0.00000000000E+00 0. -1.
<scales pt_clust_5="13000.00000" pt_clust_6="13000.00000" pt_clust_7="13000.00000" pt_clust_8="13000.00000" pt_clust_9="76.07367"></scales>
<clustering>
<clus scale="   76.074">  2  9  1 -1</clus>
<clus scale="   79.074">  5  6 -1 -1</clus>
<clus scale="   91.425">  7  8 -1 -1</clus>
<clus scale="  112.746">  1  5  2 -1</clus>
<clus scale="   76.074">  2  5  1 -1</clus>
</clustering>
</event>
<event>
 9    2  0.2984928E-005  0.1039256E+03  0.7546771E-02  0.1276367E+00
          2   -1    0    0  502    0  0.00000000000E+00  0.00000000000E+00  0.23155038295E+03  0.23155038295E+03  0.00000000000E+00 0. -1.
         -1   -1    0    0    0  501 -0.00000000000E+00 -0.00000000000E+00 -0.10986484044E+03  0.10986484044E+03  0.00000000000E+00 0.  1.
         24    2    1    2    0    0  0.26883360493E+02  0.40256970316E+02 -0.61689409198E+02  0.11292453361E+03  0.81259020131E+02 0.  0.
         23    2    1    2    0    0 -0.43450324919E+02 -0.54733051379E+02  0.15289270980E+03  0.19089829288E+03  0.90456287058E+02 0.  0.
        -13    1    3    3    0    0 -0.17898280431E+02  0.39163536459E+02 -0.51233658310E+02  0.66925471789E+02  0.00000000000E+00 0.  1.
         14    1    3    3    0    0  0.44781640925E+02  0.10934338572E+01 -0.10455750889E+02  0.45999061818E+02  0.00000000000E+00 0. -1.
        -11    1    4    4    0    0  0.16406367576E+02 -0.19819681437E+02  0.10127285994E+03  0.10449009920E+03  0.00000000000E+00 0. -1.
         11    1    4    4    0    0 -0.59856692495E+02 -0.34913369942E+02  0.51619849852E+02  0.86408193685E+02  0.00000000000E+00 0.  1.
         21    1    1    2  502  501  0.16566964426E+02  0.14476081063E+02  0.30482241910E+02  0.37592396906E+02  0.00000000000E+00 0. -1.
<scales pt_clust_5="13000.00000" pt_clust_6="13000.00000" pt_clust_7="13000.00000" pt_clust_8="13000.00000" pt_clust_9="22.00048"></scales>
<clustering>
<clus scale="   22.000">  1  9  2 -1</clus>
<clus scale="   81.259">  5  6 -1 -1</clus>
<clus scale="   90.456">  7  8 -1 -1</clus>
<clus scale="   96.027">  2  5  1 -1</clus>
<clus scale="   22.000">  1  5  2 -1</clus>
</clustering>
</event>
<event>
 9    2  0.2984928E-005  0.2006156E+03  0.7546771E-02  0.1150022E+00
          4   -1    0    0  502    0  0.00000000000E+00  0.00000000000E+00  0.51948140026E+03  0.51948140026E+03  0.00000000000E+00 0. -1.
         -3   -1    0    0    0  501 -0.00000000000E+00 -0.00000000000E+00 -0.79355468818E+03  0.79355468818E+03  0.00000000000E+00 0.  1.
         24    2    1    2    0    0 -0.11337144697E+03 -0.14337152936E+03 -0.75183395256E+03  0.77790689127E+03  0.80475827783E+02 0.  0.
         23    2    1    2    0    0  0.68631788771E+02  0.10389904142E+03  0.20513316387E+03  0.25604951591E+03  0.89310729685E+02 0.  0.
        -13    1    3    3    0    0 -0.68375067332E+02 -0.64276497850E+02 -0.52813325233E+03  0.53640595656E+03  0.00000000000E+00 0.  1.
         14    1    3    3    0    0 -0.44996379633E+02 -0.79095031507E+02 -0.22370070022E+03  0.24150093472E+03  0.00000000000E+00 0. -1.
        -11    1    4    4    0    0  0.73802865644E+01  0.88596228059E+02  0.10391477031E+03  0.13675540115E+03  0.00000000000E+00 0.  1.
         11    1    4    4    0    0  0.61251502207E+02  0.15302813366E+02  0.10121839356E+03  0.11929411475E+03  0.00000000000E+00 0. -1.
         21    1    1    2  502  501  0.44739658194E+02  0.39472487932E+02  0.27262750076E+03  0.27907968126E+03  0.00000000000E+00 0. -1.
<scales pt_clust_5="13000.00000" pt_clust_6="13000.00000" pt_clust_7="13000.00000" pt_clust_8="13000.00000" pt_clust_9="59.66334"></scales>
<clustering>
<clus scale="   59.663">  1  9  2 -1</clus>
<clus scale="   80.476">  5  6 -1 -1</clus>
<clus scale="   89.311">  7  8 -1 -1</clus>
<clus scale="  196.841">  2  5  1 -1</clus>
<clus scale="   59.663">  1  5  2 -1</clus>
</clustering>
</event>
<event>
 9    2  0.2984928E-005  0.9098691E+02  0.7546771E-02  0.1309504E+00
         -1   -1    0    0    0  501 -0.00000000000E+00  0.00000000000E+00  0.28915166540E+03  0.28915166540E+03  0.00000000000E+00 0.  1.
          2   -1    0    0  502    0  0.00000000000E+00 -0.00000000000E+00 -0.26476037528E+03  0.26476037528E+03  0.00000000000E+00 0. -1.
         23    2    1    2    0    0 -0.70149198236E+00  0.17640815828E+01  0.26892907519E+03  0.28390952046E+03  0.90984417635E+02 0.  0.
         24    2    1    2    0    0 -0.50090447748E+01  0.28850512695E+02 -0.16237707849E+03  0.18213759367E+03  0.77138478060E+02 0.  0.
        -11    1    4    4    0    0  0.15430702507E+02  0.18296897534E+02 -0.68183282249E+01  0.24887198296E+02  0.00000000000E+00 0.  1.
         12    1    4    4    0    0 -0.20439747282E+02  0.10553615161E+02 -0.15555875026E+03  0.15725039537E+03  0.00000000000E+00 0. -1.
        -11    1    3    3    0    0 -0.41457868129E+02 -0.28347140296E+01  0.19487144075E+03  0.19925277627E+03  0.00000000000E+00 0. -1.
         11    1    3    3    0    0  0.40756376146E+02  0.45987956124E+01  0.74057634438E+02  0.84656744186E+02  0.00000000000E+00 0.  1.
         21    1    1    2  502  501  0.57105367572E+01 -0.30614594278E+02 -0.82160706574E+02  0.87864926550E+02  0.00000000000E+00 0. -1.
<scales pt_clust_5="13000.00000" pt_clust_6="13000.00000" pt_clust_7="13000.00000" pt_clust_8="13000.00000" pt_clust_9="31.14263"></scales>
<clustering>
<clus scale="   31.143">  2  9  1 -1</clus>
<clus scale="   77.138">  5  6 -1 -1</clus>
<clus scale="   77.141">  2  5  1 -1</clus>
<clus scale="   90.984">  7  8 -1 -1</clus>
<clus scale="   31.143">  2  5  1 -1</clus>
</clustering>
</event>
<event>
 9    2  0.2984928E-005  0.9630149E+02  0.7546771E-02  0.1296644E+00
          2   -1    0    0  502    0  0.00000000000E+00  0.00000000000E+00  0.61851956809E+03  0.61851956809E+03  0.00000000000E+00 0. -1.
         -1   -1    0    0    0  501 -0.00000000000E+00 -0.00000000000E+00 -0.47515752062E+02  0.47515752062E+02  0.00000000000E+00 0.  1.
         23    2    1    2    0    0  0.49327152940E+01 -0.21923514810E+02  0.14287938159E+02  0.97558911212E+02  0.93854268940E+02 0.  0.
         24    2    1    2    0    0 -0.29779965852E+02  0.61008464105E+01  0.43480359307E+03  0.44305572532E+03  0.79499336451E+02 0.  0.
        -13    1    4    4    0    0  0.11561261947E+02  0.32799249927E+02  0.14566949986E+03  0.14976333584E+03  0.00000000000E+00 0.  1.
         14    1    4    4    0    0 -0.41341227799E+02 -0.26698403517E+02  0.28913409321E+03  0.29329238948E+03  0.00000000000E+00 0. -1.
        -11    1    3    3    0    0 -0.24603924445E+02  0.25256565394E+02 -0.10261681067E+02  0.36722599199E+02  0.00000000000E+00 0.  1.
         11    1    3    3    0    0  0.29536639740E+02 -0.47180080204E+02  0.24549619226E+02  0.60836312012E+02  0.00000000000E+00 0. -1.
         21    1    1    2  502  501  0.24847250558E+02  0.15822668399E+02  0.12191228480E+03  0.12542068362E+03  0.00000000000E+00 0.  1.
<scales pt_clust_5="13000.00000" pt_clust_6="13000.00000" pt_clust_7="13000.00000" pt_clust_8="13000.00000" pt_clust_9="29.45747"></scales>
<clustering>
<clus scale="   29.457">  1  9  2 -1</clus>
<clus scale="   79.499">  5  6 -1 -1</clus>
<clus scale="   82.374">  1  5  2 -1</clus>
<clus scale="   93.854">  7  8 -1 -1</clus>
<clus scale="   29.457">  1  5  2 -1</clus>
</clustering>
</event>
<event>
 9    2  0.2984928E-005  0.3070820E+03  0.7546771E-02  0.1082323E+00
          2   -1    0    0  502    0  0.00000000000E+00  0.00000000000E+00  0.34438665514E+03  0.34438665514E+03  0.00000000000E+00 0. -1.
         -1   -1    0    0    0  501 -0.00000000000E+00 -0.00000000000E+00 -0.62027329192E+03  0.62027329192E+03  0.00000000000E+00 0.  1.
         23    2    1    2    0    0 -0.29286959665E+03  0.39946968667E+02 -0.49645123460E+03  0.58579690676E+03  0.96570319890E+02 0.  0.
         24    2    1    2    0    0  0.26514339025E+03 -0.32040823312E+02  0.19520885565E+03  0.34046820580E+03  0.80526207449E+02 0.  0.
        -11    1    4    4    0    0  0.13677477820E+03  0.23912899711E+02  0.93501821043E+02  0.16739700494E+03  0.00000000000E+00 0.  1.
         12    1    4    4    0    0  0.12836861206E+03 -0.55953723023E+02  0.10170703460E+03  0.17307120087E+03  0.00000000000E+00 0. -1.
        -13    1    3    3    0    0 -0.27914993753E+02  0.33957823339E+02 -0.49696080413E+02  0.66348180461E+02  0.00000000000E+00 0. -1.
         13    1    3    3    0    0 -0.26495460290E+03  0.59891453281E+01 -0.44675515419E+03  0.51944872630E+03  0.00000000000E+00 0.  1.
         21    1    1    2  502  501  0.27726206397E+02 -0.79061453549E+01  0.25355742162E+02  0.38394834498E+02  0.00000000000E+00 0.  1.
<scales pt_clust_5="13000.00000" pt_clust_6="13000.00000" pt_clust_7="13000.00000" pt_clust_8="13000.00000" pt_clust_9="28.83140"></scales>
<clustering>
<clus scale="   28.831">  1  9  2 -1</clus>
<clus scale="   80.526">  5  6 -1 -1</clus>
<clus scale="   96.570">  7  8 -1 -1</clus>
<clus scale="  302.420">  1  5  2 -1</clus>
<clus scale="   28.831">  1  5  2 -1</clus>
</clustering>
</event>
<event>
 9    2  0.2984928E-005  0.1005928E+03  0.7546771E-02  0.1290138E+00
          2   -1    0    0  502    0  0.00000000000E+00  0.00000000000E+00  0.18406736305E+03  0.18406736305E+03  0.00000000000E+00 0. -1.
         -1   -1    0    0    0  501 -0.00000000000E+00 -0.00000000000E+00 -0.11523614163E+03  0.11523614163E+03  0.00000000000E+00 0.  1.
         23    2    1    2    0    0 -0.22254729721E+02  0.42417239076E+02 -0.64611000472E+02  0.12492178033E+03  0.95584384988E+02 0.  0.
         24    2    1    2    0    0  0.56725633637E+01 -0.28973356233E+02  0.12946589819E+03  0.15266727346E+03  0.75327579574E+02 0.  0.
        -13    1    4    4    0    0 -0.30242365036E+02 -0.17679477859E+02  0.29331813169E+02  0.45689384370E+02  0.00000000000E+00 0.  1.
         14    1    4    4    0    0  0.35914928400E+02 -0.11293878374E+02  0.10013408503E+03  0.10697788909E+03  0.00000000000E+00 0. -1.
        -13    1    3    3    0    0  0.10199918409E+02  0.65089147903E+02 -0.50054456107E+02  0.82741066506E+02  0.00000000000E+00 0.  1.
         13    1    3    3    0    0 -0.32454648129E+02 -0.22671908827E+02 -0.14556544365E+02  0.42180713826E+02  0.00000000000E+00 0. -1.
         21    1    1    2  502  501  0.16582166357E+02 -0.13443882843E+02  0.39763237036E+01  0.21714450884E+02  0.00000000000E+00 0. -1.
<scales pt_clust_5="13000.00000" pt_clust_6="13000.00000" pt_clust_7="13000.00000" pt_clust_8="13000.00000" pt_clust_9="21.34728"></scales>
<clustering>
<clus scale="   21.347">  2  9  1 -1</clus>
<clus scale="   75.328">  5  6 -1 -1</clus>
<clus scale="   81.589">  1  5  2 -1</clus>
<clus scale="   95.584">  7  8 -1 -1</clus>
<clus scale="   81.589">  1  5  2 -1</clus>
</clustering>
</event>
<event>
 9    2  0.2984928E-005  0.1040010E+03  0.7546771E-02  0.1274908E+00
         -1   -1    0    0    0  501 -0.00000000000E+00  0.00000000000E+00  0.51031973823E+03  0.51031973823E+03  0.00000000000E+00 0.  1.
          2   -1    0    0  502    0  0.00000000000E+00 -0.00000000000E+00 -0.52059957289E+02  0.52059957289E+02  0.00000000000E+00 0. -1.
         24    2    1    2    0    0 -0.61267564038E+02 -0.26520323211E+02  0.34911194865E+03  0.36491792973E+03  0.82637163577E+02 0.  0.
         23    2    1    2    0    0  0.25270890863E+02 -0.29019507486E+02  0.77026711475E+02  0.12389411205E+03  0.89083595464E+02 0.  0.
        -13    1    3    3    0    0 -0.22490789988E+02 -0.48062991551E+02  0.26018561577E+03  0.26554178851E+03  0.00000000000E+00 0.  1.
         14    1    3    3    0    0 -0.38776774050E+02  0.21542668339E+02  0.88926332872E+02  0.99376141216E+02  0.00000000000E+00 0. -1.
        -13    1    4    4    0    0  0.41261365867E+02  0.16222910257E+02  0.18067779671E+02  0.47876171449E+02  0.00000000000E+00 0. -1.
         13    1    4    4    0    0 -0.15990475004E+02 -0.45242417742E+02  0.58958931804E+02  0.76017940602E+02  0.00000000000E+00 0.  1.
         21    1    1    2  502  501  0.35996673175E+02  0.55539830697E+02  0.32121120818E+02  0.73567653735E+02  0.00000000000E+00 0. -1.
<scales pt_clust_5="13000.00000" pt_clust_6="13000.00000" pt_clust_7="13000.00000" pt_clust_8="13000.00000" pt_clust_9="66.18484"></scales>
<clustering>
<clus scale="   66.185">  2  9  1 -1</clus>
<clus scale="   82.637">  5  6 -1 -1</clus>
<clus scale="   89.084">  7  8 -1 -1</clus>
<clus scale="   98.535">  1  5  2 -1</clus>
<clus scale="   66.185">  2  5  1 -1</clus>
</clustering>
</event>
<event>
 9    2  0.2984928E-005  0.1038400E+03  0.7546771E-02  0.1274683E+00
         -1   -1    0    0    0  501 -0.00000000000E+00  0.00000000000E+00  0.22750541789E+02  0.22750541789E+02  0.00000000000E+00 0.  1.
          2   -1    0    0  502    0  0.00000000000E+00 -0.00000000000E+00 -0.85947727746E+03  0.85947727746E+03  0.00000000000E+00 0. -1.
         23    2    1    2    0    0 -0.40907962448E+01  0.42696596767E+02 -0.16689750279E+03  0.19234910546E+03  0.85461499761E+02 0.  0.
         24    2    1    2    0    0  0.45020123979E+02 -0.49921144451E+02 -0.59651614666E+03  0.60560408791E+03  0.80036653068E+02 0.  0.
        -11    1    4    4    0    0  0.33360797144E+01 -0.40912765444E+02 -0.11324686928E+03  0.12045678564E+03  0.00000000000E+00 0.  1.
         12    1    4    4    0    0  0.41684044265E+02 -0.90083790073E+01 -0.48326927738E+03  0.48514730227E+03  0.00000000000E+00 0. -1.
        -13    1    3    3    0    0 -0.39806553852E+02  0.34004227205E+02 -0.13054348110E+03  0.14065009654E+03  0.00000000000E+00 0.  1.
         13    1    3    3    0    0  0.35715757607E+02  0.86923695619E+01 -0.36354021689E+02  0.51699008917E+02  0.00000000000E+00 0. -1.
         21    1    1    2  502  501 -0.40929327734E+02  0.72245476849E+01 -0.73313086214E+02  0.84274625886E+02  0.00000000000E+00 0.  1.
<scales pt_clust_5="13000.00000" pt_clust_6="13000.00000" pt_clust_7="13000.00000" pt_clust_8="13000.00000" pt_clust_9="41.56205"></scales>
<clustering>
<clus scale="   41.562">  1  9  2 -1</clus>
<clus scale="   80.037">  5  6 -1 -1</clus>
<clus scale="   85.461">  7  8 -1 -1</clus>
<clus scale="   99.423">  2  5  1 -1</clus>
<clus scale="   99.423">  2  5  1 -1</clus>
</clustering>
</event>
<event>
 9    2  0.2984928E-005  0.2194771E+03  0.7546771E-02  0.1154737E+00
          2   -1    0    0  502    0  0.00000000000E+00  0.00000000000E+00  0.12433318225E+04  0.12433318225E+04  0.00000000000E+00 0. -1.
         -1   -1    0    0    0  501 -0.00000000000E+00 -0.00000000000E+00 -0.14394021361E+03  0.14394021361E+03  0.00000000000E+00 0.  1.
         23    2    1    2    0    0 -0.14118944018E+03 -0.14780045782E+03 -0.14945806119E+02  0.22563188289E+03  0.94376565443E+02 0.  0.
         24    2    1    2    0    0  0.10112904394E+03 -0.16297826834E+02  0.28327493165E+03  0.31358476964E+03  0.87166611487E+02 0.  0.
        -11    1    4    4    0    0  0.46415377635E+02  0.19153851932E+02  0.20812533823E+03  0.21409673920E+03  0.00000000000E+00 0.  1.
         12    1    4    4    0    0  0.54713666307E+02 -0.35451678766E+02  0.75149593427E+02  0.99488030438E+02  0.00000000000E+00 0. -1.
        -13    1    3    3    0    0 -0.12614572422E+03 -0.68791447931E+02 -0.19878658949E+02  0.14505229446E+03  0.00000000000E+00 0. -1.
         13    1    3    3    0    0 -0.15043715961E+02 -0.79009009893E+02  0.49328528301E+01  0.80579588428E+02  0.00000000000E+00 0.  1.
         21    1    1    2  502  501  0.40060396238E+02  0.16409828466E+03  0.83106248335E+03  0.84805538357E+03  0.00000000000E+00 0. -1.
<scales pt_clust_5="13000.00000" pt_clust_6="13000.00000" pt_clust_7="13000.00000" pt_clust_8="13000.00000" pt_clust_9="198.14965"></scales>
<clustering>
<clus scale="   87.167">  5  6 -1 -1</clus>
<clus scale="   94.377">  7  8 -1 -1</clus>
<clus scale="  134.502">  1  5  2 -1</clus>
<clus scale="  198.150">  1  9  2 -1</clus>
<clus scale="  134.502">  1  5  2 -1</clus>
</clustering>
</event>
<event>
 9    2  0.2984928E-005  0.1143753E+03  0.7546771E-02  0.1254872E+00
          2   -1    0    0  502    0  0.00000000000E+00  0.00000000000E+00  0.27465091786E+03  0.27465091786E+03  0.00000000000E+00 0. -1.
         -1   -1    0    0    0  501 -0.00000000000E+00 -0.00000000000E+00 -0.10724025724E+03  0.10724025724E+03  0.00000000000E+00 0.  1.
         23    2    1    2    0    0  0.25091033240E+02  0.72671963961E+02 -0.52008645327E+02  0.12844632002E+03  0.88785041773E+02 0.  0.
         24    2    1    2    0    0 -0.59532395006E+01 -0.51609690615E+02  0.15572918247E+03  0.18368593926E+03  0.82401121248E+02 0.  0.
        -11    1    4    4    0    0 -0.76078534601E+01 -0.29211466215E+02  0.41710350818E+01  0.30472721020E+02  0.00000000000E+00 0.  1.
         12    1    4    4    0    0  0.16546139595E+01 -0.22398224400E+02  0.15155814739E+03  0.15321321824E+03  0.00000000000E+00 0. -1.
        -13    1    3    3    0    0  0.31558994297E+02 -0.61877201598E+01  0.26647676516E+01  0.32270094336E+02  0.00000000000E+00 0. -1.
         13    1    3    3    0    0 -0.64679610570E+01  0.78859684121E+02 -0.54673412979E+02  0.96176225683E+02  0.00000000000E+00 0.  1.
         21    1    1    2  502  501 -0.19137793740E+02 -0.21062273346E+02  0.63690123477E+02  0.69758915819E+02  0.00000000000E+00 0. -1.
<scales pt_clust_5="13000.00000" pt_clust_6="13000.00000" pt_clust_7="13000.00000" pt_clust_8="13000.00000" pt_clust_9="28.45829"></scales>
<clustering>
<clus scale="   28.458">  1  9  2 -1</clus>
<clus scale="   82.401">  5  6 -1 -1</clus>
<clus scale="   88.785">  7  8 -1 -1</clus>
<clus scale="  109.494">  1  5  2 -1</clus>
<clus scale="   28.458">  1  5  2 -1</clus>
</clustering>
</event>
<event>
 9    2  0.2984928E-005  0.1346923E+03  0.7546771E-02  0.1221080E+00
          2   -1    0    0  502    0  0.00000000000E+00  0.00000000000E+00  0.88438261283E+02  0.88438261283E+02  0.00000000000E+00 0. -1.
         -1   -1    0    0    0  501 -0.00000000000E+00 -0.00000000000E+00 -0.42732271852E+03  0.42732271852E+03  0.00000000000E+00 0.  1.
         23    2    1    2    0    0  0.96071988788E+02  0.96480218775E+01 -0.32155597390E+03  0.34769779370E+03  0.90402433802E+02 0.  0.
         24    2    1    2    0    0 -0.11500957031E+03 -0.18206008320E+02 -0.16686856345E+02  0.14727177415E+03  0.88610745867E+02 0.  0.
        -13    1    4    4    0    0 -0.86686625358E+02  0.10283065468E+02 -0.44916767049E+02  0.98172442230E+02  0.00000000000E+00 0.  1.
         14    1    4    4    0    0 -0.28322944954E+02 -0.28489073788E+02  0.28229910704E+02  0.49099331916E+02  0.00000000000E+00 0. -1.
        -13    1    3    3    0    0  0.40922749204E+02  0.48148746209E+02 -0.12715925506E+03  0.14199453973E+03  0.00000000000E+00 0. -1.
         13    1    3    3    0    0  0.55149239584E+02 -0.38500724332E+02 -0.19439671883E+03  0.20570325397E+03  0.00000000000E+00 0.  1.
         21    1    1    2  502  501  0.18937581524E+02  0.85579864428E+01 -0.64162699175E+00  0.20791411956E+02  0.00000000000E+00 0. -1.
<scales pt_clust_5="13000.00000" pt_clust_6="13000.00000" pt_clust_7="13000.00000" pt_clust_8="13000.00000" pt_clust_9="20.78151"></scales>
<clustering>
<clus scale="   20.782">  1  9  2 -1</clus>
<clus scale="   88.611">  5  6 -1 -1</clus>
<clus scale="   90.402">  7  8 -1 -1</clus>
<clus scale="  133.496">  1  5  2 -1</clus>
<clus scale="   20.782">  1  5  2 -1</clus>
</clustering>
</event>
<event>
 9    2  0.2984928E-005  0.9871932E+02  0.7546771E-02  0.1290265E+00
         -1   -1    0    0    0  501 -0.00000000000E+00  0.00000000000E+00  0.98035786153E+02  0.98035786153E+02  0.00000000000E+00 0.  1.
          2   -1    0    0  502    0  0.00000000000E+00 -0.00000000000E+00 -0.46269211666E+03  0.46269211666E+03  0.00000000000E+00 0. -1.
         23    2    1    2    0    0  0.24082316849E+02  0.14790664708E+02  0.55912774342E+02  0.11237996797E+03  0.93296822661E+02 0.  0.
         24    2    1    2    0    0 -0.67051852053E+02 -0.17231023822E+02 -0.23208566751E+03  0.25501314114E+03  0.79844135925E+02 0.  0.
        -11    1    4    4    0    0 -0.17652940863E+02 -0.45322034941E+02 -0.99011963025E+02  0.11031356215E+03  0.00000000000E+00 0.  1.
         12    1    4    4    0    0 -0.49398911190E+02  0.28091011120E+02 -0.13307370449E+03  0.14469957899E+03  0.00000000000E+00 0. -1.
        -11    1    3    3    0    0 -0.28035392186E+01 -0.34334740041E+02  0.17843727576E+01  0.34495190853E+02  0.00000000000E+00 0. -1.
         11    1    3    3    0    0  0.26885856067E+02  0.49125404749E+02  0.54128401584E+02  0.77884777116E+02  0.00000000000E+00 0.  1.
         21    1    1    2  502  501  0.42969535205E+02  0.24403591134E+01 -0.18848343734E+03  0.19333479371E+03  0.00000000000E+00 0.  1.
<scales pt_clust_5="13000.00000" pt_clust_6="13000.00000" pt_clust_7="13000.00000" pt_clust_8="13000.00000" pt_clust_9="43.03878"></scales>
<clustering>
<clus scale="   43.039">  2  9  1 -1</clus>
<clus scale="   79.844">  5  6 -1 -1</clus>
<clus scale="   86.118">  2  5  1 -1</clus>
<clus scale="   93.297">  7  8 -1 -1</clus>
<clus scale="   43.039">  2  5  1 -1</clus>
</clustering>
</event>
<event>
 9    2  0.2984928E-005  0.9357785E+02  0.7546771E-02  0.1300583E+00
          2   -1    0    0  502    0  0.00000000000E+00  0.00000000000E+00  0.29505666075E+02  0.29505666075E+02  0.00000000000E+00 0. -1.
         -1   -1    0    0    0  501 -0.00000000000E+00 -0.00000000000E+00 -0.10266759180E+04  0.10266759180E+04  0.00000000000E+00 0.  1.
         24    2    1    2    0    0 -0.91909782989E+01 -0.26411027175E+02 -0.67980169760E+03  0.68504743476E+03  0.79860023698E+02 0.  0.
         23    2    1    2    0    0 -0.10725629250E+02  0.18386977529E+02 -0.33227085623E+03  0.34499729344E+03  0.90366423604E+02 0.  0.
        -11    1    3    3    0    0 -0.28531710256E+02  0.61936672296E+01 -0.10461153676E+03  0.10860936252E+03  0.00000000000E+00 0.  1.
         12    1    3    3    0    0  0.19340731957E+02 -0.32604694404E+02 -0.57519016084E+03  0.57643807225E+03  0.00000000000E+00 0. -1.
        -13    1    4    4    0    0  0.22478081294E+02  0.44506096352E+02 -0.15808357080E+03  0.16576028508E+03  0.00000000000E+00 0. -1.
         13    1    4    4    0    0 -0.33203710543E+02 -0.26119118823E+02 -0.17418728543E+03  0.17923700836E+03  0.00000000000E+00 0.  1.
         21    1    1    2  502  501  0.19916607549E+02  0.80240496462E+01  0.14902301949E+02  0.26136855824E+02  0.00000000000E+00 0. -1.
<scales pt_clust_5="13000.00000" pt_clust_6="13000.00000" pt_clust_7="13000.00000" pt_clust_8="13000.00000" pt_clust_9="21.47223"></scales>
<clustering>
<clus scale="   21.472">  1  9  2 -1</clus>
<clus scale="   79.860">  5  6 -1 -1</clus>
<clus scale="   83.477">  2  5  1 -1</clus>
<clus scale="   90.366">  7  8 -1 -1</clus>
<clus scale="   21.472">  1  5  2 -1</clus>
</clustering>
</event>
<event>
 9    2  0.2984928E-005  0.1404758E+03  0.7546771E-02  0.1215137E+00
         -1   -1    0    0    0  501 -0.00000000000E+00  0.00000000000E+00  0.23616042901E+03  0.23616042901E+03  0.00000000000E+00 0.  1.
          2   -1    0    0  502    0  0.00000000000E+00 -0.00000000000E+00 -0.18724098077E+03  0.18724098077E+03  0.00000000000E+00 0. -1.
         24    2    1    2    0    0  0.78697558447E+02 -0.68310565057E+02  0.92334539806E+02  0.16142268961E+03  0.81682179674E+02 0.  0.
         23    2    1    2    0    0 -0.11617807433E+03 -0.23327015013E+02 -0.59143120101E+02  0.16173099683E+03  0.92830555820E+02 0.  0.
        -11    1    3    3    0    0  0.49960366171E+02 -0.13554991010E+02  0.84491520742E+02  0.99088813932E+02  0.00000000000E+00 0.  1.
         12    1    3    3    0    0  0.28737192277E+02 -0.54755574048E+02  0.78430190641E+01  0.62333875680E+02  0.00000000000E+00 0. -1.
        -11    1    4    4    0    0 -0.18069179757E+02 -0.36911413143E+02 -0.46216893016E+02  0.61846171081E+02  0.00000000000E+00 0.  1.
         11    1    4    4    0    0 -0.98108894576E+02  0.13584398130E+02 -0.12926227085E+02  0.99884825745E+02  0.00000000000E+00 0. -1.
         21    1    1    2  502  501  0.37480515886E+02  0.91637580070E+02  0.15728028534E+02  0.10024772333E+03  0.00000000000E+00 0.  1.
<scales pt_clust_5="13000.00000" pt_clust_6="13000.00000" pt_clust_7="13000.00000" pt_clust_8="13000.00000" pt_clust_9="99.00624"></scales>
<clustering>
<clus scale="   81.682">  5  6 -1 -1</clus>
<clus scale="   92.831">  7  8 -1 -1</clus>
<clus scale="   99.006">  1  9  2 -1</clus>
<clus scale="  133.371">  1  5  2 -1</clus>
<clus scale="  140.476">  2  5  1 -1</clus>
</clustering>
</event>
<event>
 9    2  0.2984928E-005  0.1093837E+03  0.7546771E-02  0.1266779E+00
          2   -1    0    0  502    0  0.00000000000E+00  0.00000000000E+00  0.11034168036E+03  0.11034168036E+03  0.00000000000E+00 0. -1.
         -1   -1    0    0    0  501 -0.00000000000E+00 -0.00000000000E+00 -0.24162332960E+03  0.24162332960E+03  0.00000000000E+00 0.  1.
         24    2    1    2    0    0  0.75413864033E+02 -0.22335048984E+01 -0.15751259684E+03  0.19193793963E+03  0.79609767442E+02 0.  0.
         23    2    1    2    0    0 -0.14285409483E+02 -0.46875314541E+01  0.45608394360E+00  0.93326753270E+02  0.92106617504E+02 0.  0.
        -11    1    3    3    0    0  0.49410050942E+01  0.31263851620E+02 -0.45702577887E+02  0.55592873419E+02  0.00000000000E+00 0.  1.
         12    1    3    3    0    0  0.70472858938E+02 -0.33497356519E+02 -0.11181001895E+03  0.13634506621E+03  0.00000000000E+00 0. -1.
        -13    1    4    4    0    0 -0.50233196227E+02  0.96704369865E+01  0.12734858468E+02  0.52716866133E+02  0.00000000000E+00 0. -1.
         13    1    4    4    0    0  0.35947786743E+02 -0.14357968441E+02 -0.12278774524E+02  0.40609887137E+02  0.00000000000E+00 0.  1.
         21    1    1    2  502  501 -0.61128454549E+02  0.69210363525E+01  0.25774863652E+02  0.66700317061E+02  0.00000000000E+00 0. -1.
<scales pt_clust_5="13000.00000" pt_clust_6="13000.00000" pt_clust_7="13000.00000" pt_clust_8="13000.00000" pt_clust_9="61.51901"></scales>
<clustering>
<clus scale="   61.519">  1  9  2 -1</clus>
<clus scale="   79.610">  5  6 -1 -1</clus>
<clus scale="   92.107">  7  8 -1 -1</clus>
<clus scale="   99.090">  2  5  1 -1</clus>
<clus scale="   61.519">  1  5  2 -1</clus>
</clustering>
</event>
<event>
 9    2  0.2984928E-005  0.1603184E+03  0.7546771E-02  0.1189873E+00
         -1   -1    0    0    0  501 -0.00000000000E+00  0.00000000000E+00  0.22334558323E+03  0.22334558323E+03  0.00000000000E+00 0.  1.
          2   -1    0    0  502    0  0.00000000000E+00 -0.00000000000E+00 -0.35416241396E+03  0.35416241396E+03  0.00000000000E+00 0. -1.
         24    2    1    2    0    0 -0.39408548517E+02  0.12368210210E+03  0.15385504430E+03  0.21662447437E+03  0.80028071103E+02 0.  0.
         23    2    1    2    0    0  0.46065404543E+02 -0.14500483833E+03 -0.17416900518E+03  0.24814552099E+03  0.89960728030E+02 0.  0.
        -11    1    3    3    0    0  0.54504854273E+01  0.10291366330E+03  0.10325189059E+03  0.14588311347E+03  0.00000000000E+00 0.  1.
         12    1    3    3    0    0 -0.44859033945E+02  0.20768438793E+02  0.50603153713E+02  0.70741360901E+02  0.00000000000E+00 0. -1.
        -11    1    4    4    0    0  0.19368195952E+02 -0.70618853474E+01  0.42466474358E+01  0.21048307617E+02  0.00000000000E+00 0.  1.
         11    1    4    4    0    0  0.26697208591E+02 -0.13794295298E+03 -0.17841565261E+03  0.22709721337E+03  0.00000000000E+00 0. -1.
         21    1    1    2  502  501 -0.66568560253E+01  0.21322736231E+02 -0.11050286985E+03  0.11273800184E+03  0.00000000000E+00 0. -1.
<scales pt_clust_5="13000.00000" pt_clust_6="13000.00000" pt_clust_7="13000.00000" pt_clust_8="13000.00000" pt_clust_9="22.33770"></scales>
<clustering>
<clus scale="   22.338">  2  9  1 -1</clus>
<clus scale="   80.028">  5  6 -1 -1</clus>
<clus scale="   89.961">  7  8 -1 -1</clus>
<clus scale="  154.963">  1  5  2 -1</clus>
<clus scale="   22.338">  2  5  1 -1</clus>
</clustering>
</event>
<event>
 9    2  0.2984928E-005  0.1189056E+03  0.7546771E-02  0.1246067E+00
          2   -1    0    0  502    0  0.00000000000E+00  0.00000000000E+00  0.50257273050E+03  0.50257273050E+03  0.00000000000E+00 0. -1.
         -1   -1    0    0    0  501 -0.00000000000E+00 -0.00000000000E+00 -0.39780916663E+02  0.39780916663E+02  0.00000000000E+00 0.  1.
         24    2    1    2    0    0  0.29873784607E+02  0.67409243792E+02  0.12592570762E+03  0.16916839711E+03  0.85581619442E+02 0.  0.
         23    2    1    2    0    0 -0.16478867149E+02 -0.85715951295E+02  0.20997272033E+03  0.24428028220E+03  0.89249849425E+02 0.  0.
        -11    1    3    3    0    0 -0.17809092200E+02  0.59088647322E+02  0.88929159623E+02  0.10824521901E+03  0.00000000000E+00 0.  1.
         12    1    3    3    0    0  0.47682876807E+02  0.83205964693E+01  0.36996547996E+02  0.60923178100E+02  0.00000000000E+00 0. -1.
        -11    1    4    4    0    0 -0.10598953610E+02 -0.65275439946E+02  0.21278632085E+03  0.22282558026E+03  0.00000000000E+00 0. -1.
         11    1    4    4    0    0 -0.58799135387E+01 -0.20440511349E+02 -0.28136005239E+01  0.21454701941E+02  0.00000000000E+00 0.  1.
         21    1    1    2  502  501 -0.13394917458E+02  0.18306707503E+02  0.12689338589E+03  0.12890496785E+03  0.00000000000E+00 0.  1.
<scales pt_clust_5="13000.00000" pt_clust_6="13000.00000" pt_clust_7="13000.00000" pt_clust_8="13000.00000" pt_clust_9="22.68390"></scales>
<clustering>
<clus scale="   22.684">  1  9  2 -1</clus>
<clus scale="   85.582">  5  6 -1 -1</clus>
<clus scale="   89.250">  7  8 -1 -1</clus>
<clus scale="  116.178">  2  5  1 -1</clus>
<clus scale="   22.684">  1  5  2 -1</clus>
</clustering>
</event>
<event>
 9    2  0.2984928E-005  0.2104212E+03  0.7546771E-02  0.1160561E+00
         -1   -1    0    0    0  501 -0.00000000000E+00  0.00000000000E+00  0.91792383938E+02  0.91792383938E+02  0.00000000000E+00 0.  1.
          2   -1    0    0  502    0  0.00000000000E+00 -0.00000000000E+00 -0.10776004152E+04  0.10776004152E+04  0.00000000000E+00 0. -1.
         24    2    1    2    0    0 -0.21091106041E+03  0.48517281174E+02 -0.16223556796E+03  0.28238564950E+03  0.81141071937E+02 0.  0.
         23    2    1    2    0    0  0.76519815997E+02  0.61392420744E+02 -0.52494578351E+03  0.54158126317E+03  0.90099264335E+02 0.  0.
        -11    1    3    3    0    0 -0.14305233184E+03  0.58604441061E+02 -0.14430532599E+03  0.21147689535E+03  0.00000000000E+00 0.  1.
         12    1    3    3    0    0 -0.67858728569E+02 -0.10087159886E+02 -0.17930241964E+02  0.70908754146E+02  0.00000000000E+00 0. -1.
        -11    1    4    4    0    0  0.65647601568E+02  0.84401012699E+02 -0.39821175269E+03  0.41231752148E+03  0.00000000000E+00 0. -1.
         11    1    4    4    0    0  0.10872214429E+02 -0.23008591955E+02 -0.12673403082E+03  0.12926374170E+03  0.00000000000E+00 0.  1.
         21    1    1    2  502  501  0.13439124442E+03 -0.10990970192E+03 -0.29862667975E+03  0.34542588643E+03  0.00000000000E+00 0.  1.
<scales pt_clust_5="13000.00000" pt_clust_6="13000.00000" pt_clust_7="13000.00000" pt_clust_8="13000.00000" pt_clust_9="194.14740"></scales>
<clustering>
<clus scale="   81.141">  5  6 -1 -1</clus>
<clus scale="   90.099">  7  8 -1 -1</clus>
<clus scale="  133.200">  2  7  1 -1</clus>
<clus scale="  194.147">  2  9  1 -1</clus>
<clus scale="  133.200">  2  5  1 -1</clus>
</clustering>
</event>
<event>
 9    2  0.2984928E-005  0.1228603E+03  0.7546771E-02  0.1241186E+00
          4   -1    0    0  502    0  0.00000000000E+00  0.00000000000E+00  0.21615365598E+03  0.21615365598E+03  0.00000000000E+00 0. -1.
         -3   -1    0    0    0  501 -0.00000000000E+00 -0.00000000000E+00 -0.39312740111E+03  0.39312740111E+03  0.00000000000E+00 0.  1.
         24    2    1    2    0    0  0.37784930557E+02 -0.75606306397E+02 -0.35354744384E+03  0.37256073959E+03  0.81619207900E+02 0.  0.
         23    2    1    2    0    0 -0.23504560225E+02  0.58504429749E+02  0.77122878079E+02  0.13480432815E+03  0.90824203350E+02 0.  0.
        -13    1    3    3    0    0  0.53452042822E+02 -0.55549644184E+02 -0.32627184619E+03  0.33525542720E+03  0.00000000000E+00 0.  1.
         14    1    3    3    0    0 -0.15667112264E+02 -0.20056662213E+02 -0.27275597651E+02  0.37305312397E+02  0.00000000000E+00 0. -1.
        -13    1    4    4    0    0 -0.48386126422E+02  0.68256529532E+02  0.61611480643E+02  0.10390450231E+03  0.00000000000E+00 0. -1.
         13    1    4    4    0    0  0.24881566197E+02 -0.97520997829E+01  0.15511397436E+02  0.30899825841E+02  0.00000000000E+00 0.  1.
         21    1    1    2  502  501 -0.14280370333E+02  0.17101876648E+02  0.99450820624E+02  0.10191598935E+03  0.00000000000E+00 0. -1.
<scales pt_clust_5="13000.00000" pt_clust_6="13000.00000" pt_clust_7="13000.00000" pt_clust_8="13000.00000" pt_clust_9="22.28011"></scales>
<clustering>
<clus scale="   22.280">  1  9  2 -1</clus>
<clus scale="   81.619">  5  6 -1 -1</clus>
<clus scale="   90.824">  7  8 -1 -1</clus>
<clus scale="  116.221">  2  5  1 -1</clus>
<clus scale="   22.280">  1  5  2 -1</clus>
</clustering>
</event>
<event>
 9    2  0.2984928E-005  0.2319049E+03  0.7546771E-02  0.1126856E+00
          2   -1    0    0  502    0  0.00000000000E+00  0.00000000000E+00  0.72790315022E+03  0.72790315022E+03  0.00000000000E+00 0. -1.
         -1   -1    0    0    0  501 -0.00000000000E+00 -0.00000000000E+00 -0.28944483502E+03  0.28944483502E+03  0.00000000000E+00 0.  1.
         24    2    1    2    0    0 -0.15628904160E+03  0.14291209702E+03 -0.21314597328E+03  0.30748207133E+03  0.65298439957E+02 0.  0.
         23    2    1    2    0    0  0.16739722423E+03 -0.16164277752E+03  0.52478791314E+03  0.58119337152E+03  0.90736779294E+02 0.  0.
        -13    1    3    3    0    0 -0.13708448321E+03  0.14467279972E+03 -0.17719037888E+03  0.26668109210E+03  0.00000000000E+00 0.  1.
         14    1    3    3    0    0 -0.19204558395E+02 -0.17607026994E+01 -0.35955594403E+02  0.40800979228E+02  0.00000000000E+00 0. -1.
        -11    1    4    4    0    0  0.11327852568E+03 -0.49633531381E+02  0.29542149057E+03  0.32026452958E+03  0.00000000000E+00 0. -1.
         11    1    4    4    0    0  0.54118698554E+02 -0.11200924613E+03  0.22936642257E+03  0.26092884194E+03  0.00000000000E+00 0.  1.
         21    1    1    2  502  501 -0.11108182631E+02  0.18730680494E+02  0.12681637533E+03  0.12867254239E+03  0.00000000000E+00 0.  1.
<scales pt_clust_5="13000.00000" pt_clust_6="13000.00000" pt_clust_7="13000.00000" pt_clust_8="13000.00000" pt_clust_9="21.77683"></scales>
<clustering>
<clus scale="   21.777">  1  9  2 -1</clus>
<clus scale="   65.298">  5  6 -1 -1</clus>
<clus scale="   90.737">  7  8 -1 -1</clus>
<clus scale="  223.183">  2  5  1 -1</clus>
<clus scale="   21.777">  1  5  2 -1</clus>
</clustering>
</event>
<event>
 9    2  0.2984928E-005  0.9021682E+02  0.7546771E-02  0.1309576E+00
         -1   -1    0    0    0  501 -0.00000000000E+00  0.00000000000E+00  0.14524723562E+03  0.14524723562E+03  0.00000000000E+00 0.  1.
          2   -1    0    0  502    0  0.00000000000E+00 -0.00000000000E+00 -0.23570044765E+03  0.23570044765E+03  0.00000000000E+00 0. -1.
         24    2    1    2    0    0  0.15833264009E+02  0.43208023357E+01  0.11362864542E+03  0.13818741025E+03  0.76908580210E+02 0.  0.
         23    2    1    2    0    0 -0.39218839253E+02  0.35903540211E+01 -0.11479845152E+03  0.15012659610E+03  0.88364599195E+02 0.  0.
        -11    1    3    3    0    0  0.29444834862E+02  0.28816995629E+02  0.32872101856E+02  0.52706665779E+02  0.00000000000E+00 0.  1.
         12    1    3    3    0    0 -0.13611570853E+02 -0.24496193294E+02  0.80756543569E+02  0.85480744476E+02  0.00000000000E+00 0. -1.
        -13    1    4    4    0    0 -0.56057658441E+02 -0.20957710261E+02 -0.47053018398E+02  0.76129319119E+02  0.00000000000E+00 0.  1.
         13    1    4    4    0    0  0.16838819188E+02  0.24548064282E+02 -0.67745433123E+02  0.73997276981E+02  0.00000000000E+00 0. -1.
         21    1    1    2  502  501  0.23385575244E+02 -0.79111563568E+01 -0.89283405926E+02  0.92633676912E+02  0.00000000000E+00 0. -1.
<scales pt_clust_5="13000.00000" pt_clust_6="13000.00000" pt_clust_7="13000.00000" pt_clust_8="13000.00000" pt_clust_9="24.68748"></scales>
<clustering>
<clus scale="   24.687">  2  9  1 -1</clus>
<clus scale="   76.909">  5  6 -1 -1</clus>
<clus scale="   79.030">  1  5  2 -1</clus>
<clus scale="   88.365">  7  8 -1 -1</clus>
<clus scale="   24.687">  2  5  1 -1</clus>
</clustering>
</event>
<event>
 9    2  0.2984928E-005  0.1244617E+03  0.7546771E-02  0.1240539E+00
         -1   -1    0    0    0  501 -0.00000000000E+00  0.00000000000E+00  0.45766347350E+03  0.45766347350E+03  0.00000000000E+00 0.  1.
          2   -1    0    0  502    0  0.00000000000E+00 -0.00000000000E+00 -0.72076021165E+02  0.72076021165E+02  0.00000000000E+00 0. -1.
         23    2    1    2    0    0 -0.72611594651E+02 -0.59458847432E+02  0.31426859486E+03  0.34040028018E+03  0.91103253619E+02 0.  0.
         24    2    1    2    0    0  0.72624501642E+02 -0.68249735436E+01  0.22665272340E+02  0.10711563857E+03  0.75094253791E+02 0.  0.
        -13    1    4    4    0    0  0.17635109760E+01 -0.28932860549E+02  0.14580405353E+02  0.32447012355E+02  0.00000000000E+00 0.  1.
         14    1    4    4    0    0  0.70860990666E+02  0.22107887005E+02  0.80848669870E+01  0.74668626211E+02  0.00000000000E+00 0. -1.
        -11    1    3    3    0    0 -0.48869803390E+02 -0.33333656417E+02  0.29358533229E+03  0.29948578876E+03  0.00000000000E+00 0.  1.
         11    1    3    3    0    0 -0.23741791261E+02 -0.26125191014E+02  0.20683262562E+02  0.40914491418E+02  0.00000000000E+00 0. -1.
         21    1    1    2  502  501 -0.12906991210E-01  0.66283820975E+02  0.48653585139E+02  0.82223575917E+02  0.00000000000E+00 0. -1.
<scales pt_clust_5="13000.00000" pt_clust_6="13000.00000" pt_clust_7="13000.00000" pt_clust_8="13000.00000" pt_clust_9="66.28382"></scales>
<clustering>
<clus scale="   66.284">  2  9  1 -1</clus>
<clus scale="   75.094">  5  6 -1 -1</clus>
<clus scale="   91.103">  7  8 -1 -1</clus>
<clus scale="  113.270">  2  5  1 -1</clus>
<clus scale="   66.284">  2  5  1 -1</clus>
</clustering>
</event>
<event>
 9    2  0.2984928E-005  0.1569894E+03  0.7546771E-02  0.1194134E+00
          2   -1    0    0  502    0  0.00000000000E+00  0.00000000000E+00  0.12235184182E+04  0.12235184182E+04  0.00000000000E+00 0. -1.
         -1   -1    0    0    0  501 -0.00000000000E+00 -0.00000000000E+00 -0.44554387720E+02  0.44554387720E+02  0.00000000000E+00 0.  1.
         23    2    1    2    0    0 -0.14611898359E+02 -0.12530753443E+03  0.13539353581E+03  0.20659625369E+03  0.91842891629E+02 0.  0.
         24    2    1    2    0    0  0.41730159008E+02  0.12962363276E+03  0.97362783505E+03  0.98633665337E+03  0.79781829076E+02 0.  0.
        -13    1    4    4    0    0  0.42866572584E+02  0.55445432167E+02  0.27535628714E+03  0.28413522109E+03  0.00000000000E+00 0.  1.
         14    1    4    4    0    0 -0.11364135760E+01  0.74178200589E+02  0.69827154791E+03  0.70220143228E+03  0.00000000000E+00 0. -1.
        -11    1    3    3    0    0  0.36934847046E+02 -0.76673093374E+02  0.77007058166E+02  0.11477383492E+03  0.00000000000E+00 0.  1.
         11    1    3    3    0    0 -0.51546745405E+02 -0.48634441060E+02  0.58386477641E+02  0.91822418779E+02  0.00000000000E+00 0. -1.
         21    1    1    2  502  501 -0.27118260649E+02 -0.43160983212E+01  0.69942659628E+02  0.75139898863E+02  0.00000000000E+00 0.  1.
<scales pt_clust_5="13000.00000" pt_clust_6="13000.00000" pt_clust_7="13000.00000" pt_clust_8="13000.00000" pt_clust_9="27.45958"></scales>
<clustering>
<clus scale="   27.460">  1  9  2 -1</clus>
<clus scale="   79.782">  5  6 -1 -1</clus>
<clus scale="   91.843">  7  8 -1 -1</clus>
<clus scale="  150.252">  1  5  2 -1</clus>
<clus scale="   27.460">  1  5  2 -1</clus>
</clustering>
</event>
<event>
 9    2  0.2984928E-005  0.3333377E+03  0.7546771E-02  0.1124834E+00
         -1   -1    0    0    0  501 -0.00000000000E+00  0.00000000000E+00  0.15113125244E+04  0.15113125244E+04  0.00000000000E+00 0.  1.
          2   -1    0    0  502    0  0.00000000000E+00 -0.00000000000E+00 -0.93265991135E+02  0.93265991135E+02  0.00000000000E+00 0. -1.
         24    2    1    2    0    0  0.34836960877E+02  0.58398364261E+01  0.27270611362E+03  0.28392044344E+03  0.70671608626E+02 0.  0.
         23    2    1    2    0    0 -0.64271637414E+02 -0.32051093532E+03  0.53162786621E+03  0.63034843222E+03  0.88616335051E+02 0.  0.
        -11    1    3    3    0    0 -0.75560649034E+01  0.26524803009E+02  0.59830600821E+02  0.65881409260E+02  0.00000000000E+00 0.  1.
         12    1    3    3    0    0  0.42393025780E+02 -0.20684966583E+02  0.21287551280E+03  0.21803903418E+03  0.00000000000E+00 0. -1.
        -13    1    4    4    0    0  0.67840643430E+01 -0.62754122264E+02  0.16437529061E+03  0.17607765205E+03  0.00000000000E+00 0.  1.
         13    1    4    4    0    0 -0.71055701757E+02 -0.25775681305E+03  0.36725257560E+03  0.45427078017E+03  0.00000000000E+00 0. -1.
         21    1    1    2  502  501  0.29434676537E+02  0.31467109889E+03  0.61371255347E+03  0.69030963991E+03  0.00000000000E+00 0.  1.
<scales pt_clust_5="13000.00000" pt_clust_6="13000.00000" pt_clust_7="13000.00000" pt_clust_8="13000.00000" pt_clust_9="321.34274"></scales>
<clustering>
<clus scale="   70.672">  5  6 -1 -1</clus>
<clus scale="   79.008">  1  5  2 -1</clus>
<clus scale="   88.616">  7  8 -1 -1</clus>
<clus scale="  321.343">  1  9  2 -1</clus>
<clus scale="  333.338">  2  5  1 -1</clus>
</clustering>
</event>
<event>
 9    2  0.2984928E-005  0.1304355E+03  0.7546771E-02  0.1250886E+00
          2   -1    0    0  502    0  0.00000000000E+00  0.00000000000E+00  0.39687165091E+03  0.39687165091E+03  0.00000000000E+00 0. -1.
         -1   -1    0    0    0  501 -0.00000000000E+00 -0.00000000000E+00 -0.24550769069E+03  0.24550769069E+03  0.00000000000E+00 0.  1.
         23    2    1    2    0    0 -0.94318849465E+02 -0.45380638695E+01 -0.20535308068E+03  0.24327599389E+03  0.89981565165E+02 0.  0.
         24    2    1    2    0    0 -0.38138428730E+00  0.83125526834E+01  0.12058439566E+03  0.14466080569E+03  0.79478979869E+02 0.  0.
        -11    1    4    4    0    0 -0.38553196498E+02  0.30275522751E+01  0.79052861603E+02  0.88004942819E+02  0.00000000000E+00 0.  1.
         12    1    4    4    0    0  0.38171812211E+02  0.52850004083E+01  0.41531534054E+02  0.56655862871E+02  0.00000000000E+00 0. -1.
        -13    1    3    3    0    0 -0.14699363784E+02 -0.40140388759E+02 -0.77506386202E+02  0.88513061225E+02  0.00000000000E+00 0.  1.
         13    1    3    3    0    0 -0.79619485681E+02  0.35602324889E+02 -0.12784669448E+03  0.15476293266E+03  0.00000000000E+00 0. -1.
         21    1    1    2  502  501  0.94700233752E+02 -0.37744888139E+01  0.23613264524E+03  0.25444254202E+03  0.00000000000E+00 0. -1.
<scales pt_clust_5="13000.00000" pt_clust_6="13000.00000" pt_clust_7="13000.00000" pt_clust_8="13000.00000" pt_clust_9="94.42852"></scales>
<clustering>
<clus scale="   79.479">  5  6 -1 -1</clus>
<clus scale="   79.913">  1  5  2 -1</clus>
<clus scale="   89.982">  7  8 -1 -1</clus>
<clus scale="   94.429">  1  9  2 -1</clus>
<clus scale="   79.913">  1  5  2 -1</clus>
</clustering>
</event>
<event>
 9    2  0.2984928E-005  0.9173870E+02  0.7546771E-02  0.1304305E+00
         -1   -1    0    0    0  501 -0.00000000000E+00  0.00000000000E+00  0.10634930220E+03  0.10634930220E+03  0.00000000000E+00 0.  1.
          2   -1    0    0  502    0  0.00000000000E+00 -0.00000000000E+00 -0.25210379627E+03  0.25210379627E+03  0.00000000000E+00 0. -1.
         24    2    1    2    0    0 -0.62287310642E+01  0.68296850200E+01  0.58178107117E+02  0.10034595678E+03  0.81235319941E+02 0.  0.
         23    2    1    2    0    0  0.31316990731E+02 -0.44134784322E+02 -0.10168938405E+03  0.14641664676E+03  0.90379591297E+02 0.  0.
        -11    1    3    3    0    0 -0.13889393673E+02 -0.15190218550E+02  0.70871607196E+02  0.73800018311E+02  0.00000000000E+00 0.  1.
         12    1    3    3    0    0  0.76606626086E+01  0.22019903570E+02 -0.12693500079E+02  0.26545938467E+02  0.00000000000E+00 0. -1.
        -13    1    4    4    0    0 -0.48437309834E+01 -0.32874116045E+02 -0.10329596846E+03  0.10850910716E+03  0.00000000000E+00 0.  1.
         13    1    4    4    0    0  0.36160721715E+02 -0.11260668276E+02  0.16065844098E+01  0.37907539599E+02  0.00000000000E+00 0. -1.
         21    1    1    2  502  501 -0.25088259667E+02  0.37305099302E+02 -0.10224321714E+03  0.11169049493E+03  0.00000000000E+00 0. -1.
<scales pt_clust_5="13000.00000" pt_clust_6="13000.00000" pt_clust_7="13000.00000" pt_clust_8="13000.00000" pt_clust_9="44.95655"></scales>
<clustering>
<clus scale="   44.957">  2  9  1 -1</clus>
<clus scale="   81.235">  5  6 -1 -1</clus>
<clus scale="   82.745">  1  5  2 -1</clus>
<clus scale="   90.380">  7  8 -1 -1</clus>
<clus scale="   44.957">  2  5  1 -1</clus>
</clustering>
</event>
<event>
 9    2  0.2984928E-005  0.1066732E+03  0.7546771E-02  0.1270748E+00
          4   -1    0    0  502    0  0.00000000000E+00  0.00000000000E+00  0.58985874168E+03  0.58985874168E+03  0.00000000000E+00 0. -1.
         -3   -1    0    0    0  501 -0.00000000000E+00 -0.00000000000E+00 -0.16092251688E+03  0.16092251688E+03  0.00000000000E+00 0.  1.
         23    2    1    2    0    0 -0.15213431700E+02 -0.39335510926E+02 -0.91357129902E+02  0.13322758734E+03  0.87319722398E+02 0.  0.
         24    2    1    2    0    0  0.77748704515E+02  0.30385287748E+02  0.40345617365E+02  0.13346628509E+03  0.96007049998E+02 0.  0.
        -11    1    4    4    0    0  0.38823036776E+02  0.63734792055E+02  0.33320896613E+02  0.81729028221E+02  0.00000000000E+00 0.  1.
         12    1    4    4    0    0  0.38925667739E+02 -0.33349504307E+02  0.70247207516E+01  0.51737256867E+02  0.00000000000E+00 0. -1.
        -13    1    3    3    0    0  0.32993686474E+02  0.27069069988E+00 -0.43492562828E+02  0.54591754340E+02  0.00000000000E+00 0.  1.
         13    1    3    3    0    0 -0.48207118174E+02 -0.39606201626E+02 -0.47864567075E+02  0.78635832997E+02  0.00000000000E+00 0. -1.
         21    1    1    2  502  501 -0.62535272816E+02  0.89502231786E+01  0.47994773734E+03  0.48408738614E+03  0.00000000000E+00 0. -1.
<scales pt_clust_5="13000.00000" pt_clust_6="13000.00000" pt_clust_7="13000.00000" pt_clust_8="13000.00000" pt_clust_9="63.17252"></scales>
<clustering>
<clus scale="   63.173">  1  9  2 -1</clus>
<clus scale="   87.320">  7  8 -1 -1</clus>
<clus scale="   96.007">  5  6 -1 -1</clus>
<clus scale="   98.927">  2  7  1 -1</clus>
<clus scale="   63.173">  1  5  2 -1</clus>
</clustering>
</event>
<event>
 9    2  0.2984928E-005  0.1299055E+03  0.7546771E-02  0.1229533E+00
          2   -1    0    0  502    0  0.00000000000E+00  0.00000000000E+00  0.46446815942E+02  0.46446815942E+02  0.00000000000E+00 0. -1.
         -1   -1    0    0    0  501 -0.00000000000E+00 -0.00000000000E+00 -0.56749372872E+03  0.56749372872E+03  0.00000000000E+00 0.  1.
         24    2    1    2    0    0 -0.10070253701E+03  0.23986899133E+01 -0.37824654683E+03  0.40017888436E+03  0.83222200299E+02 0.  0.
         23    2    1    2    0    0  0.70814830649E+02 -0.26180766920E+02 -0.89123430758E+02  0.14788241054E+03  0.90697566896E+02 0.  0.
        -11    1    3    3    0    0 -0.41651991890E+02 -0.32715608211E+02 -0.24034147245E+03  0.24610815270E+03  0.00000000000E+00 0.  1.
         12    1    3    3    0    0 -0.59050545118E+02  0.35114298125E+02 -0.13790507439E+03  0.15407073166E+03  0.00000000000E+00 0. -1.
        -11    1    4    4    0    0  0.37500125656E+02 -0.26217391310E+02 -0.10229222118E+03  0.11205940186E+03  0.00000000000E+00 0.  1.
         11    1    4    4    0    0  0.33314704993E+02  0.36624390062E-01  0.13168790418E+02  0.35823008684E+02  0.00000000000E+00 0. -1.
         21    1    1    2  502  501  0.29887706359E+02  0.23782077007E+02 -0.53676935184E+02  0.65879249759E+02  0.00000000000E+00 0.  1.
<scales pt_clust_5="13000.00000" pt_clust_6="13000.00000" pt_clust_7="13000.00000" pt_clust_8="13000.00000" pt_clust_9="38.19505"></scales>
<clustering>
<clus scale="   38.195">  1  9  2 -1</clus>
<clus scale="   83.222">  5  6 -1 -1</clus>
<clus scale="   90.698">  7  8 -1 -1</clus>
<clus scale="  124.801">  2  5  1 -1</clus>
<clus scale="   38.195">  1  5  2 -1</clus>
</clustering>
</event>
<event>
 9    2  0.2984928E-005  0.1836275E+03  0.7546771E-02  0.1165742E+00
         -1   -1    0    0    0  501 -0.00000000000E+00  0.00000000000E+00  0.13774344649E+03  0.13774344649E+03  0.00000000000E+00 0.  1.
          2   -1    0    0  502    0  0.00000000000E+00 -0.00000000000E+00 -0.51613110151E+03  0.51613110151E+03  0.00000000000E+00 0. -1.
         23    2    1    2    0    0 -0.14961818814E+03 -0.80824940901E+02  0.94228048484E+01  0.19403634518E+03  0.92967955262E+02 0.  0.
         24    2    1    2    0    0  0.13802641320E+03  0.17073341552E+02 -0.17639427571E+03  0.23871507288E+03  0.80790814974E+02 0.  0.
        -11    1    4    4    0    0  0.49847911233E+02  0.25582278623E+02 -0.20985267017E+02  0.59830165181E+02  0.00000000000E+00 0.  1.
         12    1    4    4    0    0  0.88178501967E+02 -0.85089370703E+01 -0.15540900870E+03  0.17888490770E+03  0.00000000000E+00 0. -1.
        -11    1    3    3    0    0 -0.12463709359E+03 -0.56321060908E+02  0.45145971165E+02  0.14402994728E+03  0.00000000000E+00 0.  1.
         11    1    3    3    0    0 -0.24981094555E+02 -0.24503879993E+02 -0.35723166317E+02  0.50006397906E+02  0.00000000000E+00 0. -1.
         21    1    1    2  502  501  0.11591774944E+02  0.63751599348E+02 -0.21141618416E+03  0.22112312993E+03  0.00000000000E+00 0. -1.
<scales pt_clust_5="13000.00000" pt_clust_6="13000.00000" pt_clust_7="13000.00000" pt_clust_8="13000.00000" pt_clust_9="64.79688"></scales>
<clustering>
<clus scale="   64.797">  2  9  1 -1</clus>
<clus scale="   80.791">  5  6 -1 -1</clus>
<clus scale="   92.968">  7  8 -1 -1</clus>
<clus scale="  177.773">  2  5  1 -1</clus>
<clus scale="   64.797">  2  5  1 -1</clus>
</clustering>
</event>
<event>
 9    2  0.2984928E-005  0.1444475E+03  0.7546771E-02  0.1208183E+00
         -1   -1    0    0    0  501 -0.00000000000E+00  0.00000000000E+00  0.15148602763E+03  0.15148602763E+03  0.00000000000E+00 0.  1.
          2   -1    0    0  502    0  0.00000000000E+00 -0.00000000000E+00 -0.27884782004E+03  0.27884782004E+03  0.00000000000E+00 0. -1.
         23    2    1    2    0    0  0.74009999900E+02  0.12096173929E+03  0.47773340204E+02  0.17432058151E+03  0.89421197979E+02 0.  0.
         24    2    1    2    0    0 -0.32007038583E+02 -0.50206680217E+02 -0.97567720392E+02  0.14293262863E+03  0.85820248240E+02 0.  0.
        -13    1    4    4    0    0  0.20106430938E+02 -0.44239044593E+02 -0.65124468227E+02  0.81256125882E+02  0.00000000000E+00 0.  1.
         14    1    4    4    0    0 -0.52113469521E+02 -0.59676356247E+01 -0.32443252165E+02  0.61676502750E+02  0.00000000000E+00 0. -1.
        -11    1    3    3    0    0  0.20187616754E+02  0.91406982873E+02 -0.44462813238E+01  0.93715237852E+02  0.00000000000E+00 0.  1.
         11    1    3    3    0    0  0.53822383145E+02  0.29554756417E+02  0.52219621528E+02  0.80605343661E+02  0.00000000000E+00 0. -1.
         21    1    1    2  502  501 -0.42002961317E+02 -0.70755059072E+02 -0.77567412224E+02  0.11308063752E+03  0.00000000000E+00 0. -1.
<scales pt_clust_5="13000.00000" pt_clust_6="13000.00000" pt_clust_7="13000.00000" pt_clust_8="13000.00000" pt_clust_9="82.28321"></scales>
<clustering>
<clus scale="   82.283">  2  9  1 -1</clus>
<clus scale="   85.820">  5  6 -1 -1</clus>
<clus scale="   89.421">  7  8 -1 -1</clus>
<clus scale="  142.246">  2  5  1 -1</clus>
<clus scale="   82.283">  2  5  1 -1</clus>
</clustering>
</event>
<event>
 9    2  0.2984928E-005  0.1360830E+03  0.7546771E-02  0.1221430E+00
          2   -1    0    0  502    0  0.00000000000E+00  0.00000000000E+00  0.75014644210E+03  0.75014644210E+03  0.00000000000E+00 0. -1.
         -1   -1    0    0    0  501 -0.00000000000E+00 -0.00000000000E+00 -0.20909316892E+03  0.20909316892E+03  0.00000000000E+00 0.  1.
         23    2    1    2    0    0 -0.52290007323E+02 -0.88784713152E+02 -0.17785726839E+03  0.22482693742E+03  0.91087725378E+02 0.  0.
         24    2    1    2    0    0  0.13345017753E+02  0.65055363968E+02  0.45699620988E+03  0.46855761654E+03  0.79312132030E+02 0.  0.
        -11    1    4    4    0    0  0.42327045140E+02  0.37433292578E+02  0.17937657149E+03  0.18806590479E+03  0.00000000000E+00 0.  1.
         12    1    4    4    0    0 -0.28982027386E+02  0.27622071390E+02  0.27761963839E+03  0.28049171175E+03  0.00000000000E+00 0. -1.
        -11    1    3    3    0    0 -0.75639078051E+02 -0.84510004199E+02 -0.15304621947E+03  0.19048977986E+03  0.00000000000E+00 0.  1.
         11    1    3    3    0    0  0.23349070728E+02 -0.42747089523E+01 -0.24811048924E+02  0.34337157559E+02  0.00000000000E+00 0. -1.
         21    1    1    2  502  501  0.38944989570E+02  0.23729349183E+02  0.26191433169E+03  0.26585505707E+03  0.00000000000E+00 0. -1.
<scales pt_clust_5="13000.00000" pt_clust_6="13000.00000" pt_clust_7="13000.00000" pt_clust_8="13000.00000" pt_clust_9="45.60476"></scales>
<clustering>
<clus scale="   45.605">  1  9  2 -1</clus>
<clus scale="   79.312">  5  6 -1 -1</clus>
<clus scale="   91.088">  7  8 -1 -1</clus>
<clus scale="  128.499">  1  5  2 -1</clus>
<clus scale="   45.605">  1  5  2 -1</clus>
</clustering>
</event>
<event>
 9    2  0.2984928E-005  0.9048523E+02  0.7546771E-02  0.1302766E+00
         -1   -1    0    0    0  501 -0.00000000000E+00  0.00000000000E+00  0.85020992432E+02  0.85020992432E+02  0.00000000000E+00 0.  1.
          2   -1    0    0  502    0  0.00000000000E+00 -0.00000000000E+00 -0.21338493469E+03  0.21338493469E+03  0.00000000000E+00 0. -1.
         24    2    1    2    0    0 -0.15426837158E+02 -0.39622238519E+02  0.28329565785E+02  0.95412655070E+02  0.80579782576E+02 0.  0.
         23    2    1    2    0    0  0.39271005105E+02  0.21819960095E+02 -0.80241877001E+02  0.12095476066E+03  0.78568268415E+02 0.  0.
        -13    1    3    3    0    0 -0.13865685420E+02 -0.57602818746E+02  0.42124023293E+02  0.72696460010E+02  0.00000000000E+00 0.  1.
         14    1    3    3    0    0 -0.15611517374E+01  0.17980580227E+02 -0.13794457508E+02  0.22716195060E+02  0.00000000000E+00 0. -1.
        -11    1    4    4    0    0  0.40638132353E+02 -0.31419494357E+01 -0.42783117274E+01  0.40983333181E+02  0.00000000000E+00 0.  1.
         11    1    4    4    0    0 -0.13671272479E+01  0.24961909531E+02 -0.75963565273E+02  0.79971427481E+02  0.00000000000E+00 0. -1.
         21    1    1    2  502  501 -0.23844167947E+02  0.17802278423E+02 -0.76451631046E+02  0.82038511394E+02  0.00000000000E+00 0. -1.
<scales pt_clust_5="13000.00000" pt_clust_6="13000.00000" pt_clust_7="13000.00000" pt_clust_8="13000.00000" pt_clust_9="29.75677"></scales>
<clustering>
<clus scale="   29.757">  2  9  1 -1</clus>
<clus scale="   78.568">  7  8 -1 -1</clus>
<clus scale="   80.580">  5  6 -1 -1</clus>
<clus scale="   88.699">  2  7  1 -1</clus>
<clus scale="   29.757">  2  5  1 -1</clus>
</clustering>
</event>
<event>
 9    2  0.3768253E-005  0.9815023E+02  0.7546771E-02  0.1288506E+00
          2   -1    0    0  502    0  0.00000000000E+00  0.00000000000E+00  0.68848157766E+03  0.68848157766E+03  0.00000000000E+00 0. -1.
         -1   -1    0    0    0  501 -0.00000000000E+00 -0.00000000000E+00 -0.16218306958E+03  0.16218306958E+03  0.00000000000E+00 0.  1.
         24    2    1    2    0    0 -0.32548800890E+02  0.16560631866E+02 -0.13359702471E+03  0.16119830527E+03  0.82480601619E+02 0.  0.
         23    2    1    2    0    0  0.65301210864E+02 -0.41842784011E+02  0.62202588875E+03  0.63337697117E+03  0.90747532356E+02 0.  0.
        -11    1    3    3    0    0 -0.27158892384E+02  0.29214418490E+02 -0.16288096915E+02  0.43085842040E+02  0.00000000000E+00 0.  1.
         12    1    3    3    0    0 -0.53899085057E+01 -0.12653786624E+02 -0.11730892780E+03  0.11811246323E+03  0.00000000000E+00 0. -1.
        -11    1    4    4    0    0  0.95580577399E+01  0.26842274678E+02  0.10306831620E+03  0.10693428815E+03  0.00000000000E+00 0.  1.
         11    1    4    4    0    0  0.55743153124E+02 -0.68685058689E+02  0.51895757254E+03  0.52644268302E+03  0.00000000000E+00 0. -1.
         21    1    1    2  502  501 -0.32752409974E+02  0.25282152145E+02  0.37869644048E+02  0.56089370798E+02  0.00000000000E+00 0.  1.
<scales pt_clust_5="13000.00000" pt_clust_6="13000.00000" pt_clust_7="13000.00000" pt_clust_8="13000.00000" pt_clust_9="41.37520"></scales>
<clustering>
<clus scale="   41.375">  1  9  2 -1</clus>
<clus scale="   82.481">  5  6 -1 -1</clus>
<clus scale="   90.562">  2  5  1 -1</clus>
<clus scale="   90.748">  7  8 -1 -1</clus>
<clus scale="   41.375">  1  5  2 -1</clus>
</clustering>
</event>
<event>
 9    2  0.2984928E-005  0.1270771E+03  0.7546771E-02  0.1234678E+00
          2   -1    0    0  502    0  0.00000000000E+00  0.00000000000E+00  0.45516879975E+03  0.45516879975E+03  0.00000000000E+00 0. -1.
         -1   -1    0    0    0  501 -0.00000000000E+00 -0.00000000000E+00 -0.12765218577E+03  0.12765218577E+03  0.00000000000E+00 0.  1.
         23    2    1    2    0    0 -0.90828749625E+02 -0.88885362979E+01 -0.81579973181E+02  0.15279492078E+03  0.91444671557E+02 0.  0.
         24    2    1    2    0    0  0.60490891906E+02  0.19413736186E+01  0.32023752677E+03  0.33587415931E+03  0.81218596446E+02 0.  0.
        -13    1    4    4    0    0  0.52626196117E+02 -0.16149251881E+02  0.95169965436E+02  0.10994379098E+03  0.00000000000E+00 0.  1.
         14    1    4    4    0    0  0.78646957884E+01  0.18090625499E+02  0.22506756133E+03  0.22593036833E+03  0.00000000000E+00 0. -1.
        -13    1    3    3    0    0 -0.42581955620E+02  0.39372851399E+02 -0.21428867220E+02  0.61827507811E+02  0.00000000000E+00 0. -1.
         13    1    3    3    0    0 -0.48246794005E+02 -0.48261387697E+02 -0.60151105961E+02  0.90967412970E+02  0.00000000000E+00 0.  1.
         21    1    1    2  502  501  0.30337857719E+02  0.69471626793E+01  0.88859060393E+02  0.94151905420E+02  0.00000000000E+00 0. -1.
<scales pt_clust_5="13000.00000" pt_clust_6="13000.00000" pt_clust_7="13000.00000" pt_clust_8="13000.00000" pt_clust_9="31.12312"></scales>
<clustering>
<clus scale="   31.123">  1  9  2 -1</clus>
<clus scale="   81.219">  5  6 -1 -1</clus>
<clus scale="   91.445">  7  8 -1 -1</clus>
<clus scale="  119.929">  1  5  2 -1</clus>
<clus scale="   31.123">  1  5  2 -1</clus>
</clustering>
</event>
<event>
 9    2  0.2984928E-005  0.9397285E+02  0.7546771E-02  0.1303057E+00
         -1   -1    0    0    0  501 -0.00000000000E+00  0.00000000000E+00  0.43912558161E+03  0.43912558161E+03  0.00000000000E+00 0.  1.
          2   -1    0    0  502    0  0.00000000000E+00 -0.00000000000E+00 -0.39525782887E+02  0.39525782887E+02  0.00000000000E+00 0. -1.
         23    2    1    2    0    0  0.11405810150E+02  0.32965097157E+02  0.27549305074E+03  0.29250592922E+03  0.91904882839E+02 0.  0.
         24    2    1    2    0    0  0.25784237513E+02  0.10528859757E+02  0.66739036750E+02  0.10511532837E+03  0.76285316014E+02 0.  0.
        -11    1    4    4    0    0  0.32732198880E+02 -0.18079174757E+02  0.65773531472E+02  0.75659836411E+02  0.00000000000E+00 0.  1.
         12    1    4    4    0    0 -0.69479613666E+01  0.28608034514E+02  0.96550527808E+00  0.29455491956E+02  0.00000000000E+00 0. -1.
        -11    1    3    3    0    0  0.39005603259E+01 -0.26208349036E+02  0.30713037666E+02  0.40563316096E+02  0.00000000000E+00 0. -1.
         11    1    3    3    0    0  0.75052498240E+01  0.59173446193E+02  0.24478001307E+03  0.25194261313E+03  0.00000000000E+00 0.  1.
         21    1    1    2  502  501 -0.37190047663E+02 -0.43493956914E+02  0.57367711233E+02  0.81030106907E+02  0.00000000000E+00 0. -1.
<scales pt_clust_5="13000.00000" pt_clust_6="13000.00000" pt_clust_7="13000.00000" pt_clust_8="13000.00000" pt_clust_9="57.22608"></scales>
<clustering>
<clus scale="   57.226">  2  9  1 -1</clus>
<clus scale="   76.285">  5  6 -1 -1</clus>
<clus scale="   78.764">  2  5  1 -1</clus>
<clus scale="   91.905">  7  8 -1 -1</clus>
<clus scale="   57.226">  2  5  1 -1</clus>
</clustering>
</event>
<event>
 9    2  0.2984928E-005  0.2836451E+03  0.7546771E-02  0.1104284E+00
         -1   -1    0    0    0  501 -0.00000000000E+00  0.00000000000E+00  0.19862808378E+03  0.19862808378E+03  0.00000000000E+00 0.  1.
          2   -1    0    0  502    0  0.00000000000E+00 -0.00000000000E+00 -0.10231540610E+04  0.10231540610E+04  0.00000000000E+00 0. -1.
         23    2    1    2    0    0  0.45706064923E+02 -0.29761316330E+03 -0.34475661590E+02  0.31709739686E+03  0.93271370282E+02 0.  0.
         24    2    1    2    0    0  0.12157369425E+03  0.15940759175E+03 -0.30646834548E+03  0.37465190016E+03  0.79058561048E+02 0.  0.
        -11    1    4    4    0    0  0.13183595803E+03  0.13346435368E+03 -0.26753617914E+03  0.32675535295E+03  0.00000000000E+00 0.  1.
         12    1    4    4    0    0 -0.10262263775E+02  0.25943238067E+02 -0.38932166333E+02  0.47896547209E+02  0.00000000000E+00 0. -1.
        -11    1    3    3    0    0  0.14724125562E+02 -0.22119272245E+03  0.12788373995E+02  0.22205081141E+03  0.00000000000E+00 0.  1.
         11    1    3    3    0    0  0.30981939362E+02 -0.76420440850E+02 -0.47264035585E+02  0.95046585452E+02  0.00000000000E+00 0. -1.
         21    1    1    2  502  501 -0.16727975918E+03  0.13820557155E+03 -0.48358197014E+03  0.53003284774E+03  0.00000000000E+00 0. -1.
<scales pt_clust_5="13000.00000" pt_clust_6="13000.00000" pt_clust_7="13000.00000" pt_clust_8="13000.00000" pt_clust_9="267.87121"></scales>
<clustering>
<clus scale="   79.059">  5  6 -1 -1</clus>
<clus scale="   93.271">  7  8 -1 -1</clus>
<clus scale="  215.502">  2  5  1 -1</clus>
<clus scale="  267.871">  2  9  1 -1</clus>
<clus scale="  215.502">  2  5  1 -1</clus>
</clustering>
</event>
<event>
 9    2  0.2984928E-005  0.9728891E+02  0.7546771E-02  0.1290251E+00
          2   -1    0    0  502    0  0.00000000000E+00  0.00000000000E+00  0.52578980701E+03  0.52578980701E+03  0.00000000000E+00 0. -1.
         -1   -1    0    0    0  501 -0.00000000000E+00 -0.00000000000E+00 -0.24805793815E+02  0.24805793815E+02  0.00000000000E+00 0.  1.
         24    2    1    2    0    0  0.38800569576E+02 -0.84900183958E+01  0.11852074689E+03  0.15053563013E+03  0.83882321632E+02 0.  0.
         23    2    1    2    0    0 -0.17259040968E+02 -0.17895138366E+01  0.29511838219E+03  0.30951255208E+03  0.91662879796E+02 0.  0.
        -11    1    3    3    0    0  0.76795186418E+01  0.33829439950E+02  0.73802437636E+02  0.81548794074E+02  0.00000000000E+00 0.  1.
         12    1    3    3    0    0  0.31121050934E+02 -0.42319458346E+02  0.44718309254E+02  0.68986836052E+02  0.00000000000E+00 0. -1.
        -13    1    4    4    0    0  0.33201857370E+02  0.88629823758E+01  0.63297389128E+02  0.72024129705E+02  0.00000000000E+00 0.  1.
         13    1    4    4    0    0 -0.50460898339E+02 -0.10652496212E+02  0.23182099306E+03  0.23748842237E+03  0.00000000000E+00 0. -1.
         21    1    1    2  502  501 -0.21541528608E+02  0.10279532232E+02  0.87344884114E+02  0.90547418619E+02  0.00000000000E+00 0. -1.
<scales pt_clust_5="13000.00000" pt_clust_6="13000.00000" pt_clust_7="13000.00000" pt_clust_8="13000.00000" pt_clust_9="23.86852"></scales>
<clustering>
<clus scale="   23.869">  1  9  2 -1</clus>
<clus scale="   83.882">  5  6 -1 -1</clus>
<clus scale="   89.996">  2  5  1 -1</clus>
<clus scale="   91.663">  7  8 -1 -1</clus>
<clus scale="   23.869">  1  5  2 -1</clus>
</clustering>
</event>
<event>
 9    2  0.2984928E-005  0.1008568E+03  0.7546771E-02  0.1284678E+00
          2   -1    0    0  502    0  0.00000000000E+00  0.00000000000E+00  0.16966511447E+03  0.16966511447E+03  0.00000000000E+00 0. -1.
         -1   -1    0    0    0  501 -0.00000000000E+00 -0.00000000000E+00 -0.24470861540E+03  0.24470861540E+03  0.00000000000E+00 0.  1.
         23    2    1    2    0    0 -0.28073248219E+02  0.27915127951E+02 -0.21381881725E+03  0.23657812715E+03  0.93184558816E+02 0.  0.
         24    2    1    2    0    0  0.28820273630E+02 -0.76067199151E+01  0.12910896597E+03  0.15529165167E+03  0.80980871961E+02 0.  0.
        -13    1    4    4    0    0  0.36383028331E+02 -0.39319042487E+02  0.76230651057E+02  0.93170939746E+02  0.00000000000E+00 0.  1.
         14    1    4    4    0    0 -0.75627547007E+01  0.31712322571E+02  0.52878314911E+02  0.62120711919E+02  0.00000000000E+00 0. -1.
        -13    1    3    3    0    0 -0.37207893663E+02 -0.13364009863E+02 -0.17422752427E+03  0.17865680598E+03  0.00000000000E+00 0. -1.
         13    1    3    3    0    0  0.91346454436E+01  0.41279137814E+02 -0.39591292978E+02  0.57921321167E+02  0.00000000000E+00 0.  1.
         21    1    1    2  502  501 -0.74702541042E+00 -0.20308408036E+02  0.96663503466E+01  0.22503951052E+02  0.00000000000E+00 0.  1.
<scales pt_clust_5="13000.00000" pt_clust_6="13000.00000" pt_clust_7="13000.00000" pt_clust_8="13000.00000" pt_clust_9="20.32214"></scales>
<clustering>
<clus scale="   20.322">  1  9  2 -1</clus>
<clus scale="   80.981">  5  6 -1 -1</clus>
<clus scale="   89.703">  1  5  2 -1</clus>
<clus scale="   93.185">  7  8 -1 -1</clus>
<clus scale="   20.322">  1  5  2 -1</clus>
</clustering>
</event>
<event>
 9    2  0.2984928E-005  0.1065879E+03  0.7546771E-02  0.1271442E+00
         -1   -1    0    0    0  501 -0.00000000000E+00  0.00000000000E+00  0.14412588698E+03  0.14412588698E+03  0.00000000000E+00 0.  1.
          2   -1    0    0  502    0  0.00000000000E+00 -0.00000000000E+00 -0.18933880189E+03  0.18933880189E+03  0.00000000000E+00 0. -1.
         23    2    1    2    0    0 -0.40745591363E+02  0.29438848014E+02  0.53207499672E+02  0.11677671227E+03  0.90988535097E+02 0.  0.
         24    2    1    2    0    0  0.78924216943E+02  0.13536296331E+02 -0.13859241046E+02  0.11443797634E+03  0.80571139543E+02 0.  0.
        -13    1    4    4    0    0  0.93161194032E+02 -0.10271075091E+01 -0.99108521593E+01  0.93692518452E+02  0.00000000000E+00 0.  1.
         14    1    4    4    0    0 -0.14236977089E+02  0.14563403840E+02 -0.39483888863E+01  0.20745457885E+02  0.00000000000E+00 0. -1.
        -11    1    3    3    0    0 -0.47029526510E+02  0.54310084513E+02  0.55836663572E+02  0.90989530400E+02  0.00000000000E+00 0. -1.
         11    1    3    3    0    0  0.62839351469E+01 -0.24871236499E+02 -0.26291639005E+01  0.25787181869E+02  0.00000000000E+00 0.  1.
         21    1    1    2  502  501 -0.38178625580E+02 -0.42975144346E+02 -0.84561173536E+02  0.10225000026E+03  0.00000000000E+00 0. -1.
<scales pt_clust_5="13000.00000" pt_clust_6="13000.00000" pt_clust_7="13000.00000" pt_clust_8="13000.00000" pt_clust_9="57.48452"></scales>
<clustering>
<clus scale="   57.485">  2  9  1 -1</clus>
<clus scale="   80.571">  5  6 -1 -1</clus>
<clus scale="   90.989">  7  8 -1 -1</clus>
<clus scale="   97.846">  2  5  1 -1</clus>
<clus scale="   57.485">  2  5  1 -1</clus>
</clustering>
</event>
<event>
 9    2  0.2984928E-005  0.9196042E+02  0.7546771E-02  0.1304569E+00
          2   -1    0    0  502    0  0.00000000000E+00  0.00000000000E+00  0.29448515294E+03  0.29448515294E+03  0.00000000000E+00 0. -1.
         -1   -1    0    0    0  501 -0.00000000000E+00 -0.00000000000E+00 -0.27057797212E+03  0.27057797212E+03  0.00000000000E+00 0.  1.
         24    2    1    2    0    0  0.17081486924E+02 -0.60778419396E+01 -0.25042885590E+03  0.26343783844E+03  0.79725563638E+02 0.  0.
         23    2    1    2    0    0 -0.24281924842E+02 -0.20128850559E+02  0.18439473076E+03  0.20766744738E+03  0.90164125184E+02 0.  0.
        -11    1    3    3    0    0  0.41045116130E+02 -0.85372303965E+01 -0.22311139103E+03  0.22701603174E+03  0.00000000000E+00 0.  1.
         12    1    3    3    0    0 -0.23963629206E+02  0.24593884569E+01 -0.27317464870E+02  0.36421806699E+02  0.00000000000E+00 0. -1.
        -11    1    4    4    0    0 -0.56329979373E+02 -0.39648700018E+01  0.85541649259E+02  0.10249956355E+03  0.00000000000E+00 0.  1.
         11    1    4    4    0    0  0.32048054531E+02 -0.16163980558E+02  0.98853081499E+02  0.10516788383E+03  0.00000000000E+00 0. -1.
         21    1    1    2  502  501  0.72004379186E+01  0.26206692499E+02  0.89941305956E+02  0.93957839242E+02  0.00000000000E+00 0.  1.
<scales pt_clust_5="13000.00000" pt_clust_6="13000.00000" pt_clust_7="13000.00000" pt_clust_8="13000.00000" pt_clust_9="27.17788"></scales>
<clustering>
<clus scale="   27.178">  1  9  2 -1</clus>
<clus scale="   79.726">  5  6 -1 -1</clus>
<clus scale="   81.752">  2  5  1 -1</clus>
<clus scale="   90.164">  7  8 -1 -1</clus>
<clus scale="   27.178">  1  5  2 -1</clus>
</clustering>
</event>
<event>
 9    2  0.2984928E-005  0.1137669E+03  0.7546771E-02  0.1262802E+00
          4   -1    0    0  502    0  0.00000000000E+00  0.00000000000E+00  0.16667197335E+03  0.16667197335E+03  0.00000000000E+00 0. -1.
         -3   -1    0    0    0  501 -0.00000000000E+00 -0.00000000000E+00 -0.12458880181E+03  0.12458880181E+03  0.00000000000E+00 0.  1.
         24    2    1    2    0    0  0.42695622241E+02  0.50293111406E+01 -0.50073655253E+02  0.10447012311E+03  0.80984106731E+02 0.  0.
         23    2    1    2    0    0 -0.74770862139E+02 -0.10791258844E+02  0.58367337738E+02  0.13984652967E+03  0.10219184240E+03 0.  0.
        -13    1    3    3    0    0  0.25942614468E+01  0.28400905409E+02 -0.50564380724E+02  0.58052547046E+02  0.00000000000E+00 0.  1.
         14    1    3    3    0    0  0.40101360794E+02 -0.23371594268E+02  0.49072547107E+00  0.46417576064E+02  0.00000000000E+00 0. -1.
        -13    1    4    4    0    0 -0.15697716044E+02 -0.49992393103E+02  0.82981825131E+01  0.53052026259E+02  0.00000000000E+00 0. -1.
         13    1    4    4    0    0 -0.59073146095E+02  0.39201134259E+02  0.50069155225E+02  0.86794503407E+02  0.00000000000E+00 0.  1.
         21    1    1    2  502  501  0.32075239898E+02  0.57619477034E+01  0.33789489054E+02  0.46944122384E+02  0.00000000000E+00 0. -1.
<scales pt_clust_5="13000.00000" pt_clust_6="13000.00000" pt_clust_7="13000.00000" pt_clust_8="13000.00000" pt_clust_9="32.58866"></scales>
<clustering>
<clus scale="   32.589">  1  9  2 -1</clus>
<clus scale="   80.984">  5  6 -1 -1</clus>
<clus scale="   95.174">  2  5  1 -1</clus>
<clus scale="  102.192">  7  8 -1 -1</clus>
<clus scale="   32.589">  1  5  2 -1</clus>
</clustering>
</event>
<event>
 9    2  0.2984928E-005  0.1138886E+03  0.7546771E-02  0.1255927E+00
          2   -1    0    0  502    0  0.00000000000E+00  0.00000000000E+00  0.14668058681E+04  0.14668058681E+04  0.00000000000E+00 0. -1.
         -1   -1    0    0    0  501 -0.00000000000E+00 -0.00000000000E+00 -0.38818433366E+02  0.38818433366E+02  0.00000000000E+00 0.  1.
         23    2    1    2    0    0 -0.56276379312E+02 -0.27558470367E+02  0.84379168441E+02  0.13806713792E+03  0.89533180164E+02 0.  0.
         24    2    1    2    0    0 -0.63245997886E+02 -0.36613248952E+02  0.40991165654E+03  0.42405678343E+03  0.80349257353E+02 0.  0.
        -11    1    4    4    0    0 -0.52069953946E+01 -0.48959589005E+02  0.18026143220E+03  0.18686449127E+03  0.00000000000E+00 0.  1.
         12    1    4    4    0    0 -0.58039002491E+02  0.12346340053E+02  0.22965022434E+03  0.23719229216E+03  0.00000000000E+00 0. -1.
        -13    1    3    3    0    0  0.58680470099E+01  0.20336792428E+02  0.46186563067E+02  0.50805685803E+02  0.00000000000E+00 0. -1.
         13    1    3    3    0    0 -0.62144426321E+02 -0.47895262795E+02  0.38192605374E+02  0.87261452121E+02  0.00000000000E+00 0.  1.
         21    1    1    2  502  501  0.11952237720E+03  0.64171719319E+02  0.93369660976E+03  0.94350038012E+03  0.00000000000E+00 0. -1.
<scales pt_clust_5="13000.00000" pt_clust_6="13000.00000" pt_clust_7="13000.00000" pt_clust_8="13000.00000" pt_clust_9="70.38758"></scales>
<clustering>
<clus scale="   80.349">  5  6 -1 -1</clus>
<clus scale="   89.533">  7  8 -1 -1</clus>
<clus scale="  108.612">  1  5  2 -1</clus>
<clus scale="   70.388">  1  9  2 -1</clus>
<clus scale="  108.612">  1  5  2 -1</clus>
</clustering>
</event>
<event>
 9    2  0.2984928E-005  0.9770161E+02  0.7546771E-02  0.1291328E+00
          2   -1    0    0  502    0  0.00000000000E+00  0.00000000000E+00  0.13530553486E+03  0.13530553486E+03  0.00000000000E+00 0. -1.
         -1   -1    0    0    0  501 -0.00000000000E+00 -0.00000000000E+00 -0.39067800559E+03  0.39067800559E+03  0.00000000000E+00 0.  1.
         24    2    1    2    0    0  0.33478448977E+02  0.14651184782E+02 -0.33729409838E+03  0.34862986403E+03  0.80249669961E+02 0.  0.
         23    2    1    2    0    0  0.13209737880E+02  0.96151635490E+01  0.82994256292E+02  0.12472485366E+03  0.91658572965E+02 0.  0.
        -13    1    3    3    0    0  0.31889803579E+02  0.43225724132E+02 -0.27328761442E+03  0.27851668351E+03  0.00000000000E+00 0.  1.
         14    1    3    3    0    0  0.15886453980E+01 -0.28574539349E+02 -0.64006483962E+02  0.70113180519E+02  0.00000000000E+00 0. -1.
        -11    1    4    4    0    0 -0.34266031500E+01  0.49377510275E+02  0.37861661046E+02  0.62316815606E+02  0.00000000000E+00 0. -1.
         11    1    4    4    0    0  0.16636341030E+02 -0.39762346726E+02  0.45132595246E+02  0.62408038053E+02  0.00000000000E+00 0.  1.
         21    1    1    2  502  501 -0.46688186857E+02 -0.24266348331E+02 -0.10726286410E+01  0.52628822765E+02  0.00000000000E+00 0. -1.
<scales pt_clust_5="13000.00000" pt_clust_6="13000.00000" pt_clust_7="13000.00000" pt_clust_8="13000.00000" pt_clust_9="52.61789"></scales>
<clustering>
<clus scale="   52.618">  1  9  2 -1</clus>
<clus scale="   80.250">  5  6 -1 -1</clus>
<clus scale="   87.088">  2  5  1 -1</clus>
<clus scale="   91.659">  7  8 -1 -1</clus>
<clus scale="   52.618">  1  5  2 -1</clus>
</clustering>
</event>
<event>
 9    2  0.2984928E-005  0.2266259E+03  0.7546771E-02  0.1129720E+00
          2   -1    0    0  502    0  0.00000000000E+00  0.00000000000E+00  0.22185658123E+03  0.22185658123E+03  0.00000000000E+00 0. -1.
         -1   -1    0    0    0  501 -0.00000000000E+00 -0.00000000000E+00 -0.51233468420E+03  0.51233468420E+03  0.00000000000E+00 0.  1.
         23    2    1    2    0    0 -0.18132080620E+03  0.12080437969E+03 -0.35964362677E+03  0.43028590409E+03  0.91276985431E+02 0.  0.
         24    2    1    2    0    0  0.10048629300E+03 -0.13567681618E+03  0.10429495641E+03  0.21452144261E+03  0.81463598471E+02 0.  0.
        -13    1    4    4    0    0  0.14021267254E+02 -0.67602568349E+02  0.10318049522E+02  0.69808060628E+02  0.00000000000E+00 0.  1.
         14    1    4    4    0    0  0.86465025750E+02 -0.68074247831E+02  0.93976906891E+02  0.14471338198E+03  0.00000000000E+00 0. -1.
        -11    1    3    3    0    0 -0.18506243941E+03  0.91820838776E+02 -0.30621402408E+03  0.36938624969E+03  0.00000000000E+00 0. -1.
         11    1    3    3    0    0  0.37416332080E+01  0.28983540916E+02 -0.53429602690E+02  0.60899654406E+02  0.00000000000E+00 0.  1.
         21    1    1    2  502  501  0.80834513200E+02  0.14872436488E+02 -0.35129432606E+02  0.89383918725E+02  0.00000000000E+00 0.  1.
<scales pt_clust_5="13000.00000" pt_clust_6="13000.00000" pt_clust_7="13000.00000" pt_clust_8="13000.00000" pt_clust_9="82.19129"></scales>
<clustering>
<clus scale="   81.464">  5  6 -1 -1</clus>
<clus scale="   82.191">  1  9  2 -1</clus>
<clus scale="   91.277">  7  8 -1 -1</clus>
<clus scale="  222.855">  1  5  2 -1</clus>
<clus scale="   82.191">  1  5  2 -1</clus>
</clustering>
</event>
<event>
 9    2  0.2984928E-005  0.3498774E+03  0.7546771E-02  0.1063899E+00
          2   -1    0    0  502    0  0.00000000000E+00  0.00000000000E+00  0.41419211791E+03  0.41419211791E+03  0.00000000000E+00 0. -1.
         -1   -1    0    0    0  501 -0.00000000000E+00 -0.00000000000E+00 -0.52682387297E+03  0.52682387297E+03  0.00000000000E+00 0.  1.
         23    2    1    2    0    0  0.28872432408E+03  0.64938341327E+02 -0.35440523111E+03  0.47750147527E+03  0.12176151922E+03 0.  0.
         24    2    1    2    0    0 -0.32722929221E+03 -0.70942344885E+02  0.24718001263E+03  0.42417101211E+03  0.81922297890E+02 0.  0.
        -11    1    4    4    0    0 -0.79372492925E+02  0.80532401085E+01  0.89836236759E+02  0.12014739591E+03  0.00000000000E+00 0.  1.
         12    1    4    4    0    0 -0.24785679928E+03 -0.78995584993E+02  0.15734377587E+03  0.30402361620E+03  0.00000000000E+00 0. -1.
        -13    1    3    3    0    0  0.12652181364E+03  0.11148701653E+02 -0.24095867993E+03  0.27238419247E+03  0.00000000000E+00 0. -1.
         13    1    3    3    0    0  0.16220251044E+03  0.53789639674E+02 -0.11344655118E+03  0.20511728280E+03  0.00000000000E+00 0.  1.
         21    1    1    2  502  501  0.38504968131E+02  0.60040035575E+01 -0.54065365841E+01  0.39343503496E+02  0.00000000000E+00 0. -1.
<scales pt_clust_5="13000.00000" pt_clust_6="13000.00000" pt_clust_7="13000.00000" pt_clust_8="13000.00000" pt_clust_9="38.97025"></scales>
<clustering>
<clus scale="   38.970">  2  9  1 -1</clus>
<clus scale="   81.922">  5  6 -1 -1</clus>
<clus scale="  121.762">  7  8 -1 -1</clus>
<clus scale="  338.082">  1  5  2 -1</clus>
<clus scale="  338.082">  1  5  2 -1</clus>
</clustering>
</event>
<event>
 9    2  0.2984928E-005  0.1069591E+03  0.7546771E-02  0.1271313E+00
          2   -1    0    0  502    0  0.00000000000E+00  0.00000000000E+00  0.72807734431E+02  0.72807734431E+02  0.00000000000E+00 0. -1.
         -1   -1    0    0    0  501 -0.00000000000E+00 -0.00000000000E+00 -0.28895324282E+03  0.28895324282E+03  0.00000000000E+00 0.  1.
         23    2    1    2    0    0  0.31397953186E+02  0.41121415131E+02 -0.19072178800E+03  0.21813580150E+03  0.92366797236E+02 0.  0.
         24    2    1    2    0    0 -0.63323353480E+02 -0.25002700339E+02 -0.18585410261E+02  0.10721354800E+03  0.80711494096E+02 0.  0.
        -13    1    4    4    0    0 -0.55728708242E+02  0.20032359395E+02 -0.43673278691E+01  0.59380618875E+02  0.00000000000E+00 0.  1.
         14    1    4    4    0    0 -0.75946452387E+01 -0.45035059733E+02 -0.14218082392E+02  0.47832929122E+02  0.00000000000E+00 0. -1.
        -11    1    3    3    0    0  0.64897168795E+01  0.45153966843E+02 -0.18717670106E+03  0.19265542963E+03  0.00000000000E+00 0.  1.
         11    1    3    3    0    0  0.24908236306E+02 -0.40325517126E+01 -0.35450869407E+01  0.25480371870E+02  0.00000000000E+00 0. -1.
         21    1    1    2  502  501  0.31925400295E+02 -0.16118714792E+02 -0.68383101324E+01  0.36411627758E+02  0.00000000000E+00 0.  1.
<scales pt_clust_5="13000.00000" pt_clust_6="13000.00000" pt_clust_7="13000.00000" pt_clust_8="13000.00000" pt_clust_9="35.76373"></scales>
<clustering>
<clus scale="   35.764">  1  9  2 -1</clus>
<clus scale="   80.711">  5  6 -1 -1</clus>
<clus scale="   92.367">  7  8 -1 -1</clus>
<clus scale="   97.072">  1  5  2 -1</clus>
<clus scale="   35.764">  1  5  2 -1</clus>
</clustering>
</event>
<event>
 9    2  0.2984928E-005  0.1247960E+03  0.7546771E-02  0.1239179E+00
          2   -1    0    0  502    0  0.00000000000E+00  0.00000000000E+00  0.61559169378E+03  0.61559169378E+03  0.00000000000E+00 0. -1.
         -1   -1    0    0    0  501 -0.00000000000E+00 -0.00000000000E+00 -0.29528583854E+02  0.29528583854E+02  0.00000000000E+00 0.  1.
         24    2    1    2    0    0  0.76954240992E+01  0.85053245371E+02  0.23893417063E+03  0.26608591570E+03  0.80118053786E+02 0.  0.
         23    2    1    2    0    0 -0.33290031268E+02 -0.76067115885E+02  0.27387901148E+03  0.30092299038E+03  0.93008069068E+02 0.  0.
        -13    1    3    3    0    0 -0.30388833794E+02  0.95987154353E+01  0.79135160699E+02  0.85311137703E+02  0.00000000000E+00 0.  1.
         14    1    3    3    0    0  0.38084257893E+02  0.75454529936E+02  0.15979900993E+03  0.18077477800E+03  0.00000000000E+00 0. -1.
        -13    1    4    4    0    0 -0.52905723018E+02 -0.11048037710E+02  0.15309743390E+03  0.16235731869E+03  0.00000000000E+00 0.  1.
         13    1    4    4    0    0  0.19615691749E+02 -0.65019078175E+02  0.12078157758E+03  0.13856567169E+03  0.00000000000E+00 0. -1.
         21    1    1    2  502  501  0.25594607169E+02 -0.89861294861E+01  0.73249927815E+02  0.78111371542E+02  0.00000000000E+00 0. -1.
<scales pt_clust_5="13000.00000" pt_clust_6="13000.00000" pt_clust_7="13000.00000" pt_clust_8="13000.00000" pt_clust_9="27.12627"></scales>
<clustering>
<clus scale="   27.126">  1  9  2 -1</clus>
<clus scale="   80.118">  5  6 -1 -1</clus>
<clus scale="   93.008">  7  8 -1 -1</clus>
<clus scale="  115.510">  2  5  1 -1</clus>
<clus scale="   27.126">  1  5  2 -1</clus>
</clustering>
</event>
<event>
 9    2  0.2984928E-005  0.3857160E+03  0.7546771E-02  0.1049109E+00
         -1   -1    0    0    0  501 -0.00000000000E+00  0.00000000000E+00  0.12695101249E+03  0.12695101249E+03  0.00000000000E+00 0.  1.
          2   -1    0    0  502    0  0.00000000000E+00 -0.00000000000E+00 -0.22397074712E+04  0.22397074712E+04  0.00000000000E+00 0. -1.
         23    2    1    2    0    0  0.35325312346E+03 -0.75081347540E+02 -0.24195415111E+03  0.44435727462E+03  0.92122734920E+02 0.  0.
         24    2    1    2    0    0 -0.37565315044E+03  0.38609839082E+02 -0.17873663493E+04  0.18285275919E+04  0.78921978162E+02 0.  0.
        -11    1    4    4    0    0 -0.15143450396E+03  0.54041606743E+02 -0.77829829927E+03  0.79473338101E+03  0.00000000000E+00 0.  1.
         12    1    4    4    0    0 -0.22421864649E+03 -0.15431767661E+02 -0.10090680500E+04  0.10337942109E+04  0.00000000000E+00 0. -1.
        -13    1    3    3    0    0  0.73879177393E+02 -0.19845737733E+02 -0.10167691718E+02  0.77171031568E+02  0.00000000000E+00 0.  1.
         13    1    3    3    0    0  0.27937394606E+03 -0.55235609807E+02 -0.23178645939E+03  0.36718624305E+03  0.00000000000E+00 0. -1.
         21    1    1    2  502  501  0.22400026985E+02  0.36471508457E+02 -0.83435958322E+02  0.93773617181E+02  0.00000000000E+00 0.  1.
<scales pt_clust_5="13000.00000" pt_clust_6="13000.00000" pt_clust_7="13000.00000" pt_clust_8="13000.00000" pt_clust_9="42.80108"></scales>
<clustering>
<clus scale="   42.801">  1  9  2 -1</clus>
<clus scale="   78.922">  5  6 -1 -1</clus>
<clus scale="   92.123">  7  8 -1 -1</clus>
<clus scale="  382.778">  2  5  1 -1</clus>
<clus scale="  382.778">  2  5  1 -1</clus>
</clustering>
</event>
<event>
 9    2  0.2984928E-005  0.2097437E+03  0.7546771E-02  0.1142515E+00
         -1   -1    0    0    0  501 -0.00000000000E+00  0.00000000000E+00  0.14297831626E+03  0.14297831626E+03  0.00000000000E+00 0.  1.
          2   -1    0    0  502    0  0.00000000000E+00 -0.00000000000E+00 -0.39621038145E+03  0.39621038145E+03  0.00000000000E+00 0. -1.
         24    2    1    2    0    0 -0.13468030459E+03 -0.15185023275E+03 -0.42095396857E+02  0.22225751663E+03  0.80181691370E+02 0.  0.
         23    2    1    2    0    0  0.10253424048E+03  0.13685786749E+03 -0.14310962355E+03  0.24021208779E+03  0.89320414273E+02 0.  0.
        -11    1    3    3    0    0 -0.31259482279E+02 -0.88814744480E+02 -0.37421658262E+00  0.94156009407E+02  0.00000000000E+00 0.  1.
         12    1    3    3    0    0 -0.10342082231E+03 -0.63035488266E+02 -0.41721180275E+02  0.12810150722E+03  0.00000000000E+00 0. -1.
        -13    1    4    4    0    0  0.60990178093E+02  0.15927592562E+02 -0.64112028647E+02  0.89910189889E+02  0.00000000000E+00 0.  1.
         13    1    4    4    0    0  0.41544062382E+02  0.12093027493E+03 -0.78997594901E+02  0.15030189790E+03  0.00000000000E+00 0. -1.
         21    1    1    2  502  501  0.32146064114E+02  0.14992365257E+02 -0.68027044784E+02  0.76719093296E+02  0.00000000000E+00 0.  1.
<scales pt_clust_5="13000.00000" pt_clust_6="13000.00000" pt_clust_7="13000.00000" pt_clust_8="13000.00000" pt_clust_9="35.47028"></scales>
<clustering>
<clus scale="   35.470">  2  9  1 -1</clus>
<clus scale="   80.182">  5  6 -1 -1</clus>
<clus scale="   89.320">  7  8 -1 -1</clus>
<clus scale="  206.018">  1  5  2 -1</clus>
<clus scale="   35.470">  2  5  1 -1</clus>
</clustering>
</event>
<event>
 9    2  0.2984928E-005  0.9149224E+02  0.7546771E-02  0.1306839E+00
          2   -1    0    0  502    0  0.00000000000E+00  0.00000000000E+00  0.31722234195E+03  0.31722234195E+03  0.00000000000E+00 0. -1.
         -1   -1    0    0    0  501 -0.00000000000E+00 -0.00000000000E+00 -0.35166949722E+03  0.35166949722E+03  0.00000000000E+00 0.  1.
         24    2    1    2    0    0  0.55345377657E+01 -0.33712554823E+01 -0.33136567351E+03  0.34080114228E+03  0.79373878089E+02 0.  0.
         23    2    1    2    0    0 -0.17074465971E+02 -0.15107204660E+02  0.13398512056E+03  0.16370725639E+03  0.91259455635E+02 0.  0.
        -13    1    3    3    0    0  0.22438191294E+02 -0.35251195512E+02 -0.21289050540E+03  0.21695272873E+03  0.00000000000E+00 0.  1.
         14    1    3    3    0    0 -0.16903653528E+02  0.31879940030E+02 -0.11847516811E+03  0.12384841355E+03  0.00000000000E+00 0. -1.
        -13    1    4    4    0    0 -0.18851910913E+02  0.18107237348E+02  0.50392723084E+00  0.26144225598E+02  0.00000000000E+00 0.  1.
         13    1    4    4    0    0  0.17774449414E+01 -0.33214442008E+02  0.13348119333E+03  0.13756303080E+03  0.00000000000E+00 0. -1.
         21    1    1    2  502  501  0.11539928206E+02  0.18478460142E+02  0.16293339767E+03  0.16438344050E+03  0.00000000000E+00 0. -1.
<scales pt_clust_5="13000.00000" pt_clust_6="13000.00000" pt_clust_7="13000.00000" pt_clust_8="13000.00000" pt_clust_9="21.78585"></scales>
<clustering>
<clus scale="   21.786">  1  9  2 -1</clus>
<clus scale="   79.374">  5  6 -1 -1</clus>
<clus scale="   79.641">  2  5  1 -1</clus>
<clus scale="   91.259">  7  8 -1 -1</clus>
<clus scale="   21.786">  1  5  2 -1</clus>
</clustering>
</event>
<event>
 9    2  0.2984928E-005  0.1063278E+03  0.7546771E-02  0.1279119E+00
          2   -1    0    0  502    0  0.00000000000E+00  0.00000000000E+00  0.94614678348E+03  0.94614678348E+03  0.00000000000E+00 0. -1.
         -1   -1    0    0    0  501 -0.00000000000E+00 -0.00000000000E+00 -0.63574288739E+02  0.63574288739E+02  0.00000000000E+00 0.  1.
         23    2    1    2    0    0 -0.22236659715E+02 -0.28415020532E+02 -0.91146912600E+01  0.10566059930E+03  0.98889848926E+02 0.  0.
         24    2    1    2    0    0  0.37401519207E+02  0.65395581822E+02  0.57026662204E+03  0.58016432627E+03  0.75572279985E+02 0.  0.
        -11    1    4    4    0    0 -0.83349831089E+01  0.45192561708E+02  0.14859800268E+03  0.15554165351E+03  0.00000000000E+00 0.  1.
         12    1    4    4    0    0  0.45736502316E+02  0.20203020114E+02  0.42166861936E+03  0.42462267276E+03  0.00000000000E+00 0. -1.
        -11    1    3    3    0    0 -0.49972383015E+02 -0.17664915430E+02 -0.37197092147E+02  0.64752698520E+02  0.00000000000E+00 0.  1.
         11    1    3    3    0    0  0.27735723300E+02 -0.10750105103E+02  0.28082400887E+02  0.40907900781E+02  0.00000000000E+00 0. -1.
         21    1    1    2  502  501 -0.15164859492E+02 -0.36980561290E+02  0.32142056396E+03  0.32389614665E+03  0.00000000000E+00 0. -1.
<scales pt_clust_5="13000.00000" pt_clust_6="13000.00000" pt_clust_7="13000.00000" pt_clust_8="13000.00000" pt_clust_9="39.96917"></scales>
<clustering>
<clus scale="   39.969">  1  9  2 -1</clus>
<clus scale="   75.572">  5  6 -1 -1</clus>
<clus scale="   85.074">  1  5  2 -1</clus>
<clus scale="   98.890">  7  8 -1 -1</clus>
<clus scale="   39.969">  1  5  2 -1</clus>
</clustering>
</event>
<event>
 9    2  0.2984928E-005  0.1274630E+03  0.7546771E-02  0.1234751E+00
          4   -1    0    0  502    0  0.00000000000E+00  0.00000000000E+00  0.10142602779E+03  0.10142602779E+03  0.00000000000E+00 0. -1.
         -3   -1    0    0    0  501 -0.00000000000E+00 -0.00000000000E+00 -0.21810080235E+03  0.21810080235E+03  0.00000000000E+00 0.  1.
         24    2    1    2    0    0  0.60976801560E+02 -0.44673569440E+02 -0.44502813908E+02  0.11798553386E+03  0.78906195068E+02 0.  0.
         23    2    1    2    0    0 -0.10223773837E+03  0.30584351834E+02 -0.71868666211E+02  0.15794011572E+03  0.91607954053E+02 0.  0.
        -13    1    3    3    0    0  0.61937646247E+02 -0.61428680259E+02 -0.22092986286E+02  0.89988081566E+02  0.00000000000E+00 0.  1.
         14    1    3    3    0    0 -0.96084468680E+00  0.16755110819E+02 -0.22409827621E+02  0.27997452296E+02  0.00000000000E+00 0. -1.
        -11    1    4    4    0    0 -0.42303383534E+02  0.11778181217E+02 -0.83231399901E+02  0.94105088814E+02  0.00000000000E+00 0. -1.
         11    1    4    4    0    0 -0.59934354836E+02  0.18806170617E+02  0.11362733690E+02  0.63835026903E+02  0.00000000000E+00 0.  1.
         21    1    1    2  502  501  0.41260936810E+02  0.14089217606E+02 -0.30329444494E+00  0.43601180566E+02  0.00000000000E+00 0. -1.
<scales pt_clust_5="13000.00000" pt_clust_6="13000.00000" pt_clust_7="13000.00000" pt_clust_8="13000.00000" pt_clust_9="43.60013"></scales>
<clustering>
<clus scale="   43.600">  1  9  2 -1</clus>
<clus scale="   78.906">  5  6 -1 -1</clus>
<clus scale="   91.608">  7  8 -1 -1</clus>
<clus scale="  118.663">  2  5  1 -1</clus>
<clus scale="   43.600">  1  5  2 -1</clus>
</clustering>
</event>
<event>
 9    2  0.2984928E-005  0.1304966E+03  0.7546771E-02  0.1231396E+00
          2   -1    0    0  502    0  0.00000000000E+00  0.00000000000E+00  0.95966432568E+02  0.95966432568E+02  0.00000000000E+00 0. -1.
         -1   -1    0    0    0  501 -0.00000000000E+00 -0.00000000000E+00 -0.45811338784E+03  0.45811338784E+03  0.00000000000E+00 0.  1.
         23    2    1    2    0    0 -0.59977823994E+01 -0.93479779655E+02 -0.37539193738E+03  0.39885957506E+03  0.96929930205E+02 0.  0.
         24    2    1    2    0    0  0.20348665514E+02  0.48550551831E+02  0.36675578045E+02  0.10255549257E+03  0.80008166833E+02 0.  0.
        -11    1    4    4    0    0 -0.53267252013E+01  0.62143784357E+02  0.38751725910E+02  0.73429695605E+02  0.00000000000E+00 0.  1.
         12    1    4    4    0    0  0.25675390715E+02 -0.13593232526E+02 -0.20761478652E+01  0.29125796965E+02  0.00000000000E+00 0. -1.
        -11    1    3    3    0    0  0.18726069446E+01 -0.11242010174E+03 -0.33802012311E+03  0.35622940580E+03  0.00000000000E+00 0. -1.
         11    1    3    3    0    0 -0.78703893439E+01  0.18940322084E+02 -0.37371814275E+02  0.42630169262E+02  0.00000000000E+00 0.  1.
         21    1    1    2  502  501 -0.14350883115E+02  0.44929227825E+02 -0.23430595935E+02  0.52664752776E+02  0.00000000000E+00 0.  1.
<scales pt_clust_5="13000.00000" pt_clust_6="13000.00000" pt_clust_7="13000.00000" pt_clust_8="13000.00000" pt_clust_9="47.16549"></scales>
<clustering>
<clus scale="   47.165">  1  9  2 -1</clus>
<clus scale="   80.008">  5  6 -1 -1</clus>
<clus scale="   96.930">  7  8 -1 -1</clus>
<clus scale="  118.470">  1  5  2 -1</clus>
<clus scale="   47.165">  1  5  2 -1</clus>
</clustering>
</event>
<event>
 9    2  0.2984928E-005  0.9344139E+02  0.7546771E-02  0.1300951E+00
          2   -1    0    0  502    0  0.00000000000E+00  0.00000000000E+00  0.30149204114E+03  0.30149204114E+03  0.00000000000E+00 0. -1.
         -1   -1    0    0    0  501 -0.00000000000E+00 -0.00000000000E+00 -0.53076572527E+02  0.53076572527E+02  0.00000000000E+00 0.  1.
         24    2    1    2    0    0 -0.11519330211E+02 -0.29889568491E+02  0.14366779080E+02  0.86716790543E+02  0.79292598317E+02 0.  0.
         23    2    1    2    0    0 -0.16434563292E+02  0.52387063566E+01  0.18327173080E+03  0.20486464424E+03  0.89908043205E+02 0.  0.
        -11    1    3    3    0    0  0.26500602031E+02  0.76864007839E+01 -0.80625336651E+01  0.28746601784E+02  0.00000000000E+00 0.  1.
         12    1    3    3    0    0 -0.38019932242E+02 -0.37575969275E+02  0.22429312745E+02  0.57970188759E+02  0.00000000000E+00 0. -1.
        -13    1    4    4    0    0 -0.33091949784E+02 -0.11758658000E+02  0.17672671736E+03  0.18018234044E+03  0.00000000000E+00 0.  1.
         13    1    4    4    0    0  0.16657386491E+02  0.16997364357E+02  0.65450134437E+01  0.24682303798E+02  0.00000000000E+00 0. -1.
         21    1    1    2  502  501  0.27953893503E+02  0.24650862134E+02  0.50776958730E+02  0.62987178884E+02  0.00000000000E+00 0. -1.
<scales pt_clust_5="13000.00000" pt_clust_6="13000.00000" pt_clust_7="13000.00000" pt_clust_8="13000.00000" pt_clust_9="37.27043"></scales>
<clustering>
<clus scale="   37.270">  1  9  2 -1</clus>
<clus scale="   79.293">  5  6 -1 -1</clus>
<clus scale="   83.278">  2  5  1 -1</clus>
<clus scale="   89.908">  7  8 -1 -1</clus>
<clus scale="   37.270">  1  5  2 -1</clus>
</clustering>
</event>
<event>
 9    2  0.2984928E-005  0.2535375E+03  0.7546771E-02  0.1150821E+00
          2   -1    0    0  502    0  0.00000000000E+00  0.00000000000E+00  0.36813466954E+03  0.36813466954E+03  0.00000000000E+00 0. -1.
         -1   -1    0    0    0  501 -0.00000000000E+00 -0.00000000000E+00 -0.44047367897E+03  0.44047367897E+03  0.00000000000E+00 0.  1.
         24    2    1    2    0    0  0.24297635410E+02  0.25109404655E+03 -0.25880289246E+03  0.36989038443E+03  0.78748739983E+02 0.  0.
         23    2    1    2    0    0 -0.20204426516E+02 -0.31028725792E+02  0.19631535415E+03  0.21839422218E+03  0.88234445273E+02 0.  0.
        -11    1    3    3    0    0  0.59113051687E+01  0.23888542083E+03 -0.25080239092E+03  0.34641453073E+03  0.00000000000E+00 0.  1.
         12    1    3    3    0    0  0.18386330242E+02  0.12208625719E+02 -0.80005015370E+01  0.23475853692E+02  0.00000000000E+00 0. -1.
        -11    1    4    4    0    0 -0.44790702889E+02 -0.16406597670E+02  0.17834088572E+03  0.18461000794E+03  0.00000000000E+00 0.  1.
         11    1    4    4    0    0  0.24586276373E+02 -0.14622128122E+02  0.17974468434E+02  0.33784214245E+02  0.00000000000E+00 0. -1.
         21    1    1    2  502  501 -0.40932088942E+01 -0.22006532076E+03 -0.98514711211E+01  0.22032374189E+03  0.00000000000E+00 0. -1.
<scales pt_clust_5="13000.00000" pt_clust_6="13000.00000" pt_clust_7="13000.00000" pt_clust_8="13000.00000" pt_clust_9="240.99774"></scales>
<clustering>
<clus scale="   78.749">  5  6 -1 -1</clus>
<clus scale="   88.234">  7  8 -1 -1</clus>
<clus scale="   95.689">  1  7  2 -1</clus>
<clus scale="  240.998">  1  9  2 -1</clus>
<clus scale="   95.689">  1  5  2 -1</clus>
</clustering>
</event>
<event>
 9    2  0.2984928E-005  0.3256770E+03  0.7546771E-02  0.1073417E+00
         -1   -1    0    0    0  501 -0.00000000000E+00  0.00000000000E+00  0.22359878748E+03  0.22359878748E+03  0.00000000000E+00 0.  1.
          2   -1    0    0  502    0  0.00000000000E+00 -0.00000000000E+00 -0.13660844066E+04  0.13660844066E+04  0.00000000000E+00 0. -1.
         23    2    1    2    0    0  0.19187711454E+03 -0.24692375951E+03  0.64596399299E+02  0.33278547770E+03  0.93729980624E+02 0.  0.
         24    2    1    2    0    0 -0.16217901367E+03  0.26028141744E+03 -0.10798590670E+04  0.11255733714E+04  0.82288280163E+02 0.  0.
        -13    1    4    4    0    0 -0.68174247337E+02  0.18128280274E+03 -0.61544831558E+03  0.64520369785E+03  0.00000000000E+00 0.  1.
         14    1    4    4    0    0 -0.94004766336E+02  0.78998614697E+02 -0.46441075146E+03  0.48036967358E+03  0.00000000000E+00 0. -1.
        -11    1    3    3    0    0  0.10904110782E+03 -0.15224380277E+03  0.84450769054E+02  0.20542655882E+03  0.00000000000E+00 0.  1.
         11    1    3    3    0    0  0.82836006720E+02 -0.94679956744E+02 -0.19854369755E+02  0.12735891887E+03  0.00000000000E+00 0. -1.
         21    1    1    2  502  501 -0.29698100863E+02 -0.13357657928E+02 -0.12722295133E+03  0.13132434491E+03  0.00000000000E+00 0. -1.
<scales pt_clust_5="13000.00000" pt_clust_6="13000.00000" pt_clust_7="13000.00000" pt_clust_8="13000.00000" pt_clust_9="32.56385"></scales>
<clustering>
<clus scale="   32.564">  2  9  1 -1</clus>
<clus scale="   82.288">  5  6 -1 -1</clus>
<clus scale="   93.730">  7  8 -1 -1</clus>
<clus scale="  322.570">  2  5  1 -1</clus>
<clus scale="   32.564">  2  5  1 -1</clus>
</clustering>
</event>
<event>
 9    2  0.2984928E-005  0.1067988E+03  0.7546771E-02  0.1270301E+00
          4   -1    0    0  502    0  0.00000000000E+00  0.00000000000E+00  0.18383000774E+03  0.18383000774E+03  0.00000000000E+00 0. -1.
         -3   -1    0    0    0  501 -0.00000000000E+00 -0.00000000000E+00 -0.29669948743E+03  0.29669948743E+03  0.00000000000E+00 0.  1.
         24    2    1    2    0    0  0.12076448577E+02  0.59641244541E+02 -0.26423862256E+03  0.28259632490E+03  0.79597201822E+02 0.  0.
         23    2    1    2    0    0  0.10766281424E+02 -0.43221427669E+02  0.12253252506E+03  0.15764730144E+03  0.88625319904E+02 0.  0.
        -11    1    3    3    0    0  0.45752605611E+02  0.30558806818E+02 -0.16221904400E+03  0.17129553360E+03  0.00000000000E+00 0.  1.
         12    1    3    3    0    0 -0.33676157034E+02  0.29082437722E+02 -0.10201957855E+03  0.11130079130E+03  0.00000000000E+00 0. -1.
        -13    1    4    4    0    0 -0.82950329955E+01 -0.63561505975E+02  0.10948464729E+03  0.12686906876E+03  0.00000000000E+00 0. -1.
         13    1    4    4    0    0  0.19061314420E+02  0.20340078306E+02  0.13047877767E+02  0.30778232683E+02  0.00000000000E+00 0.  1.
         21    1    1    2  502  501 -0.22842730001E+02 -0.16419816871E+02  0.28836617814E+02  0.40285868825E+02  0.00000000000E+00 0.  1.
<scales pt_clust_5="13000.00000" pt_clust_6="13000.00000" pt_clust_7="13000.00000" pt_clust_8="13000.00000" pt_clust_9="28.13184"></scales>
<clustering>
<clus scale="   28.132">  1  9  2 -1</clus>
<clus scale="   79.597">  5  6 -1 -1</clus>
<clus scale="   88.625">  7  8 -1 -1</clus>
<clus scale="   99.435">  2  5  1 -1</clus>
<clus scale="   28.132">  1  5  2 -1</clus>
</clustering>
</event>
<event>
 9    2  0.2984928E-005  0.2593099E+03  0.7546771E-02  0.1107967E+00
          2   -1    0    0  502    0  0.00000000000E+00  0.00000000000E+00  0.16064866070E+03  0.16064866070E+03  0.00000000000E+00 0. -1.
         -1   -1    0    0    0  501 -0.00000000000E+00 -0.00000000000E+00 -0.12183973660E+04  0.12183973660E+04  0.00000000000E+00 0.  1.
         23    2    1    2    0    0 -0.23737351988E+03  0.85083104587E+02 -0.96565777306E+03  0.10019067157E+04  0.87959136213E+02 0.  0.
         24    2    1    2    0    0  0.20095317230E+03 -0.83792191591E+02 -0.17242432928E+03  0.28892614391E+03  0.79654619937E+02 0.  0.
        -11    1    4    4    0    0  0.16395408281E+03 -0.94660767785E+02 -0.16150316858E+03  0.24884709299E+03  0.00000000000E+00 0.  1.
         12    1    4    4    0    0  0.36999089484E+02  0.10868576194E+02 -0.10921160695E+02  0.40079050912E+02  0.00000000000E+00 0. -1.
        -13    1    3    3    0    0 -0.70363206651E+02  0.21414470564E+02 -0.15213808478E+03  0.16898389640E+03  0.00000000000E+00 0. -1.
         13    1    3    3    0    0 -0.16701031323E+03  0.63668634022E+02 -0.81351968827E+03  0.83292281929E+03  0.00000000000E+00 0.  1.
         21    1    1    2  502  501  0.36420347582E+02 -0.12909129957E+01  0.80333397028E+02  0.88213167115E+02  0.00000000000E+00 0. -1.
<scales pt_clust_5="13000.00000" pt_clust_6="13000.00000" pt_clust_7="13000.00000" pt_clust_8="13000.00000" pt_clust_9="36.44322"></scales>
<clustering>
<clus scale="   36.443">  1  9  2 -1</clus>
<clus scale="   79.655">  5  6 -1 -1</clus>
<clus scale="   87.959">  7  8 -1 -1</clus>
<clus scale="  256.612">  1  5  2 -1</clus>
<clus scale="   36.443">  1  5  2 -1</clus>
</clustering>
</event>
<event>
 9    2  0.2984928E-005  0.2635751E+03  0.7546771E-02  0.1105596E+00
         -1   -1    0    0    0  501 -0.00000000000E+00  0.00000000000E+00  0.44060791876E+03  0.44060791876E+03  0.00000000000E+00 0.  1.
          2   -1    0    0  502    0  0.00000000000E+00 -0.00000000000E+00 -0.93975861314E+03  0.93975861314E+03  0.00000000000E+00 0. -1.
         23    2    1    2    0    0  0.15856610408E+03 -0.21060126112E+03  0.30672403263E+03  0.41471195043E+03  0.91707519268E+02 0.  0.
         24    2    1    2    0    0 -0.50672748710E+02  0.20345854452E+03 -0.90097517212E+02  0.24175610199E+03  0.79783102495E+02 0.  0.
        -13    1    4    4    0    0 -0.13256958899E+02  0.15223930273E+03 -0.91863573873E+02  0.17830162215E+03  0.00000000000E+00 0.  1.
         14    1    4    4    0    0 -0.37415789811E+02  0.51219241785E+02  0.17660566611E+01  0.63454479844E+02  0.00000000000E+00 0. -1.
        -13    1    3    3    0    0  0.41458144698E+02 -0.11556390539E+03  0.17909516955E+03  0.21713791412E+03  0.00000000000E+00 0.  1.
         13    1    3    3    0    0  0.11710795938E+03 -0.95037355724E+02  0.12762886308E+03  0.19757403631E+03  0.00000000000E+00 0. -1.
         21    1    1    2  502  501 -0.10789335537E+03  0.71427166019E+01 -0.71577720979E+03  0.72389847948E+03  0.00000000000E+00 0. -1.
<scales pt_clust_5="13000.00000" pt_clust_6="13000.00000" pt_clust_7="13000.00000" pt_clust_8="13000.00000" pt_clust_9="108.12953"></scales>
<clustering>
<clus scale="   79.783">  5  6 -1 -1</clus>
<clus scale="   91.708">  7  8 -1 -1</clus>
<clus scale="  108.130">  2  9  1 -1</clus>
<clus scale="  259.667">  2  5  1 -1</clus>
<clus scale="  108.130">  2  5  1 -1</clus>
</clustering>
</event>
<event>
 9    2  0.2984928E-005  0.1007694E+03  0.7546771E-02  0.1284013E+00
         -1   -1    0    0    0  501 -0.00000000000E+00  0.00000000000E+00  0.60194607196E+02  0.60194607196E+02  0.00000000000E+00 0.  1.
          2   -1    0    0  502    0  0.00000000000E+00 -0.00000000000E+00 -0.33684804573E+03  0.33684804573E+03  0.00000000000E+00 0. -1.
         23    2    1    2    0    0 -0.14149439096E+02 -0.36061011794E+02 -0.56113752570E+01  0.10002682270E+03  0.92050391244E+02 0.  0.
         24    2    1    2    0    0  0.33940236160E+02  0.25207908430E+02 -0.24954770282E+03  0.26584736809E+03  0.81322745015E+02 0.  0.
        -11    1    4    4    0    0 -0.32897294568E+01  0.47379166003E+02 -0.11254981385E+03  0.12216001100E+03  0.00000000000E+00 0.  1.
         12    1    4    4    0    0  0.37229965616E+02 -0.22171257574E+02 -0.13699788898E+03  0.14368735708E+03  0.00000000000E+00 0. -1.
        -13    1    3    3    0    0  0.23178666382E+02 -0.12911130100E+02  0.32443352564E+02  0.41910845628E+02  0.00000000000E+00 0.  1.
         13    1    3    3    0    0 -0.37328105478E+02 -0.23149881695E+02 -0.38054727821E+02  0.58115977068E+02  0.00000000000E+00 0. -1.
         21    1    1    2  502  501 -0.19790797063E+02  0.10853103364E+02 -0.21494360455E+02  0.31168462143E+02  0.00000000000E+00 0. -1.
<scales pt_clust_5="13000.00000" pt_clust_6="13000.00000" pt_clust_7="13000.00000" pt_clust_8="13000.00000" pt_clust_9="22.57134"></scales>
<clustering>
<clus scale="   22.571">  1  9  2 -1</clus>
<clus scale="   81.323">  5  6 -1 -1</clus>
<clus scale="   91.075">  2  5  1 -1</clus>
<clus scale="   92.050">  7  8 -1 -1</clus>
<clus scale="   91.075">  2  5  1 -1</clus>
</clustering>
</event>
<event>
 9    2  0.2984928E-005  0.9529188E+02  0.7546771E-02  0.1296890E+00
         -1   -1    0    0    0  501 -0.00000000000E+00  0.00000000000E+00  0.93608605551E+01  0.93608605551E+01  0.00000000000E+00 0.  1.
          2   -1    0    0  502    0  0.00000000000E+00 -0.00000000000E+00 -0.12647667622E+04  0.12647667622E+04  0.00000000000E+00 0. -1.
         23    2    1    2    0    0 -0.49040164706E+01 -0.17409318016E+02 -0.38422036752E+03  0.39537396702E+03  0.91477588752E+02 0.  0.
         24    2    1    2    0    0  0.53168981576E+01  0.41793127755E+02 -0.68746611823E+03  0.69342269658E+03  0.80314615593E+02 0.  0.
        -11    1    4    4    0    0  0.18507160961E+02  0.48622436061E+02 -0.23401353420E+03  0.23972690814E+03  0.00000000000E+00 0.  1.
         12    1    4    4    0    0 -0.13190262803E+02 -0.68293083054E+01 -0.45345258403E+03  0.45369578844E+03  0.00000000000E+00 0. -1.
        -13    1    3    3    0    0 -0.31777716885E+02  0.21981947255E+02 -0.10045870734E+03  0.10763355042E+03  0.00000000000E+00 0.  1.
         13    1    3    3    0    0  0.26873700414E+02 -0.39391265271E+02 -0.28376166018E+03  0.28774041660E+03  0.00000000000E+00 0. -1.
         21    1    1    2  502  501 -0.41288168697E+00 -0.24383809740E+02 -0.18371941592E+03  0.18533095919E+03  0.00000000000E+00 0. -1.
<scales pt_clust_5="13000.00000" pt_clust_6="13000.00000" pt_clust_7="13000.00000" pt_clust_8="13000.00000" pt_clust_9="24.38731"></scales>
<clustering>
<clus scale="   24.387">  2  9  1 -1</clus>
<clus scale="   80.315">  5  6 -1 -1</clus>
<clus scale="   84.634">  2  5  1 -1</clus>
<clus scale="   91.478">  7  8 -1 -1</clus>
<clus scale="   24.387">  2  5  1 -1</clus>
</clustering>
</event>
<event>
 9    2  0.2984928E-005  0.2541512E+03  0.7546771E-02  0.1111612E+00
         -3   -1    0    0    0  501 -0.00000000000E+00  0.00000000000E+00  0.30172351241E+03  0.30172351241E+03  0.00000000000E+00 0.  1.
          4   -1    0    0  502    0  0.00000000000E+00 -0.00000000000E+00 -0.42860249507E+03  0.42860249507E+03  0.00000000000E+00 0. -1.
         23    2    1    2    0    0 -0.17218651239E+03  0.16613764540E+03  0.17068076537E+03  0.30688509126E+03  0.88298489815E+02 0.  0.
         24    2    1    2    0    0  0.15016649206E+03 -0.18215490221E+03 -0.18594565930E+03  0.30855341204E+03  0.69993114899E+02 0.  0.
        -11    1    4    4    0    0  0.18563445149E+02 -0.37666075841E+02 -0.51370114629E+01  0.42305125597E+02  0.00000000000E+00 0.  1.
         12    1    4    4    0    0  0.13160304691E+03 -0.14448882637E+03 -0.18080864784E+03  0.26624828644E+03  0.00000000000E+00 0. -1.
        -11    1    3    3    0    0 -0.15172762660E+03  0.16211264521E+03  0.12069175680E+03  0.25272174930E+03  0.00000000000E+00 0. -1.
         11    1    3    3    0    0 -0.20458885790E+02  0.40250001892E+01  0.49989008575E+02  0.54163341963E+02  0.00000000000E+00 0.  1.
         21    1    1    2  502  501  0.22020020334E+02  0.16017256811E+02 -0.11161408874E+03  0.11488750418E+03  0.00000000000E+00 0.  1.
<scales pt_clust_5="13000.00000" pt_clust_6="13000.00000" pt_clust_7="13000.00000" pt_clust_8="13000.00000" pt_clust_9="27.22928"></scales>
<clustering>
<clus scale="   27.229">  2  9  1 -1</clus>
<clus scale="   69.993">  5  6 -1 -1</clus>
<clus scale="   88.298">  7  8 -1 -1</clus>
<clus scale="  248.385">  2  5  1 -1</clus>
<clus scale="   27.229">  2  5  1 -1</clus>
</clustering>
</event>
<event>
 9    2  0.2984928E-005  0.9214139E+02  0.7546771E-02  0.1305585E+00
         -1   -1    0    0    0  501 -0.00000000000E+00  0.00000000000E+00  0.18823947839E+03  0.18823947839E+03  0.00000000000E+00 0.  1.
          2   -1    0    0  502    0  0.00000000000E+00 -0.00000000000E+00 -0.12533198731E+03  0.12533198731E+03  0.00000000000E+00 0. -1.
         24    2    1    2    0    0  0.17454688338E+02 -0.92093301998E+00  0.14321073564E+03  0.16414153087E+03  0.78279071858E+02 0.  0.
         23    2    1    2    0    0 -0.72168174975E+00 -0.19129765150E+02 -0.39308273104E+02  0.10082323065E+03  0.90849957428E+02 0.  0.
        -13    1    3    3    0    0  0.37336448786E+02 -0.27843509525E+02  0.88447419149E+02  0.99961079350E+02  0.00000000000E+00 0.  1.
         14    1    3    3    0    0 -0.19881760448E+02  0.26922576505E+02  0.54763316490E+02  0.64180451518E+02  0.00000000000E+00 0. -1.
        -11    1    4    4    0    0  0.32869736808E+02 -0.10284770474E+02  0.14015131139E+02  0.37183598566E+02  0.00000000000E+00 0.  1.
         11    1    4    4    0    0 -0.33591418557E+02 -0.88449946759E+01 -0.53323404243E+02  0.63639632082E+02  0.00000000000E+00 0. -1.
         21    1    1    2  502  501 -0.16733006588E+02  0.20050698170E+02 -0.40994971459E+02  0.48606704182E+02  0.00000000000E+00 0. -1.
<scales pt_clust_5="13000.00000" pt_clust_6="13000.00000" pt_clust_7="13000.00000" pt_clust_8="13000.00000" pt_clust_9="26.11559"></scales>
<clustering>
<clus scale="   26.116">  2  9  1 -1</clus>
<clus scale="   78.279">  5  6 -1 -1</clus>
<clus scale="   79.774">  1  5  2 -1</clus>
<clus scale="   90.850">  7  8 -1 -1</clus>
<clus scale="   26.116">  2  5  1 -1</clus>
</clustering>
</event>
<event>
 9    2  0.2984928E-005  0.1230617E+03  0.7546771E-02  0.1240243E+00
         -1   -1    0    0    0  501 -0.00000000000E+00  0.00000000000E+00  0.24149140018E+02  0.24149140018E+02  0.00000000000E+00 0.  1.
          2   -1    0    0  502    0  0.00000000000E+00 -0.00000000000E+00 -0.13173339374E+04  0.13173339374E+04  0.00000000000E+00 0. -1.
         24    2    1    2    0    0  0.91669058293E+02  0.74074139092E+02 -0.65413613895E+03  0.66966070123E+03  0.81616004335E+02 0.  0.
         23    2    1    2    0    0 -0.65295428434E+02 -0.10945325293E+02 -0.54112526608E+03  0.55236608186E+03  0.88929419702E+02 0.  0.
        -13    1    3    3    0    0  0.74417690251E+02  0.89231412982E+02 -0.59466611370E+03  0.60591090473E+03  0.00000000000E+00 0.  1.
         14    1    3    3    0    0  0.17251368042E+02 -0.15157273890E+02 -0.59470025246E+02  0.63749796501E+02  0.00000000000E+00 0. -1.
        -11    1    4    4    0    0 -0.22735565136E+01 -0.40949146363E+02 -0.20884209041E+03  0.21283096667E+03  0.00000000000E+00 0. -1.
         11    1    4    4    0    0 -0.63021871920E+02  0.30003821070E+02 -0.33228317567E+03  0.33953511520E+03  0.00000000000E+00 0.  1.
         21    1    1    2  502  501 -0.26373629859E+02 -0.63128813799E+02 -0.97923392388E+02  0.11945629435E+03  0.00000000000E+00 0.  1.
<scales pt_clust_5="13000.00000" pt_clust_6="13000.00000" pt_clust_7="13000.00000" pt_clust_8="13000.00000" pt_clust_9="68.41649"></scales>
<clustering>
<clus scale="   68.416">  1  9  2 -1</clus>
<clus scale="   81.616">  5  6 -1 -1</clus>
<clus scale="   88.929">  7  8 -1 -1</clus>
<clus scale="  117.885">  1  5  2 -1</clus>
<clus scale="  123.062">  2  5  1 -1</clus>
</clustering>
</event>
<event>
 9    2  0.2984928E-005  0.1050226E+03  0.7546771E-02  0.1274407E+00
         -1   -1    0    0    0  501 -0.00000000000E+00  0.00000000000E+00  0.68177548032E+02  0.68177548032E+02  0.00000000000E+00 0.  1.
          2   -1    0    0  502    0  0.00000000000E+00 -0.00000000000E+00 -0.37497170628E+03  0.37497170628E+03  0.00000000000E+00 0. -1.
         23    2    1    2    0    0 -0.94030190233E+01  0.34776938729E+02  0.13912189724E+01  0.10681761906E+03  0.10054956995E+03 0.  0.
         24    2    1    2    0    0  0.20178635583E+02  0.29938807966E+01 -0.23840289905E+03  0.25625452880E+03  0.91729496868E+02 0.  0.
        -13    1    4    4    0    0  0.53955827104E+01  0.29473392246E+02 -0.20625914148E+02  0.36376111635E+02  0.00000000000E+00 0.  1.
         14    1    4    4    0    0  0.14783052873E+02 -0.26479511449E+02 -0.21777698491E+03  0.21987841716E+03  0.00000000000E+00 0. -1.
        -13    1    3    3    0    0  0.27367843390E+02  0.34873212936E+02 -0.33934486140E+02  0.55827315732E+02  0.00000000000E+00 0. -1.
         13    1    3    3    0    0 -0.36770862414E+02 -0.96274206425E-01  0.35325705112E+02  0.50990303324E+02  0.00000000000E+00 0.  1.
         21    1    1    2  502  501 -0.10775616560E+02 -0.37770819526E+02 -0.69782478168E+02  0.80077106461E+02  0.00000000000E+00 0. -1.
<scales pt_clust_5="13000.00000" pt_clust_6="13000.00000" pt_clust_7="13000.00000" pt_clust_8="13000.00000" pt_clust_9="39.27784"></scales>
<clustering>
<clus scale="   39.278">  2  9  1 -1</clus>
<clus scale="   91.729">  5  6 -1 -1</clus>
<clus scale="   96.612">  2  5  1 -1</clus>
<clus scale="  100.550">  7  8 -1 -1</clus>
<clus scale="   39.278">  2  5  1 -1</clus>
</clustering>
</event>
<event>
 9    2  0.2984928E-005  0.1484548E+03  0.7546771E-02  0.1204874E+00
          2   -1    0    0  502    0  0.00000000000E+00  0.00000000000E+00  0.19396497646E+03  0.19396497646E+03  0.00000000000E+00 0. -1.
         -1   -1    0    0    0  501 -0.00000000000E+00 -0.00000000000E+00 -0.36422609804E+03  0.36422609804E+03  0.00000000000E+00 0.  1.
         24    2    1    2    0    0 -0.84711408664E+02 -0.74108509890E+02 -0.16496239707E+03  0.21467456073E+03  0.78768525319E+02 0.  0.
         23    2    1    2    0    0  0.75821965098E+02  0.97258493336E+02 -0.13913288256E+03  0.20740433283E+03  0.91926129865E+02 0.  0.
        -13    1    3    3    0    0 -0.62745587194E+02 -0.38015335036E+02 -0.41732525393E+02  0.84402476775E+02  0.00000000000E+00 0.  1.
         14    1    3    3    0    0 -0.21965821470E+02 -0.36093174854E+02 -0.12322987168E+03  0.13027208395E+03  0.00000000000E+00 0. -1.
        -11    1    4    4    0    0 -0.21359082367E+02  0.23201231952E+02 -0.31536911446E+02  0.44599151867E+02  0.00000000000E+00 0. -1.
         11    1    4    4    0    0  0.97181047465E+02  0.74057261384E+02 -0.10759597111E+03  0.16280518097E+03  0.00000000000E+00 0.  1.
         21    1    1    2  502  501  0.88894435655E+01 -0.23149983446E+02  0.13383415805E+03  0.13611218094E+03  0.00000000000E+00 0.  1.
<scales pt_clust_5="13000.00000" pt_clust_6="13000.00000" pt_clust_7="13000.00000" pt_clust_8="13000.00000" pt_clust_9="24.79806"></scales>
<clustering>
<clus scale="   24.798">  1  9  2 -1</clus>
<clus scale="   78.769">  5  6 -1 -1</clus>
<clus scale="   91.926">  7  8 -1 -1</clus>
<clus scale="  140.687">  2  5  1 -1</clus>
<clus scale="   24.798">  1  5  2 -1</clus>
</clustering>
</event>
<event>
 9    2  0.2984928E-005  0.1658904E+03  0.7546771E-02  0.1183564E+00
          2   -1    0    0  502    0  0.00000000000E+00  0.00000000000E+00  0.12150052640E+03  0.12150052640E+03  0.00000000000E+00 0. -1.
         -1   -1    0    0    0  501 -0.00000000000E+00 -0.00000000000E+00 -0.56748860599E+03  0.56748860599E+03  0.00000000000E+00 0.  1.
         23    2    1    2    0    0  0.13637309920E+03 -0.35249264141E+02 -0.46067095422E+03  0.49000812435E+03  0.89722355368E+02 0.  0.
         24    2    1    2    0    0 -0.13357092756E+03  0.15291557481E+02 -0.21073765071E+02  0.15793591693E+03  0.80153763861E+02 0.  0.
        -13    1    4    4    0    0 -0.12628827454E+02 -0.25226603025E+02  0.21385226291E+01  0.28292084795E+02  0.00000000000E+00 0.  1.
         14    1    4    4    0    0 -0.12094210011E+03  0.40518160506E+02 -0.23212287700E+02  0.12964383213E+03  0.00000000000E+00 0. -1.
        -13    1    3    3    0    0  0.15995897180E+02  0.27059275790E+02 -0.89933859591E+02  0.95268946850E+02  0.00000000000E+00 0. -1.
         13    1    3    3    0    0  0.12037720202E+03 -0.62308539931E+02 -0.37073709463E+03  0.39473917750E+03  0.00000000000E+00 0.  1.
         21    1    1    2  502  501 -0.28021716392E+01  0.19957706660E+02  0.35756639709E+02  0.41045091110E+02  0.00000000000E+00 0. -1.
<scales pt_clust_5="13000.00000" pt_clust_6="13000.00000" pt_clust_7="13000.00000" pt_clust_8="13000.00000" pt_clust_9="20.15347"></scales>
<clustering>
<clus scale="   20.153">  1  9  2 -1</clus>
<clus scale="   80.154">  5  6 -1 -1</clus>
<clus scale="   89.722">  7  8 -1 -1</clus>
<clus scale="  160.917">  1  5  2 -1</clus>
<clus scale="   20.153">  1  5  2 -1</clus>
</clustering>
</event>
<event>
 9    2  0.2984928E-005  0.1276088E+03  0.7546771E-02  0.1237564E+00
          4   -1    0    0  502    0  0.00000000000E+00  0.00000000000E+00  0.16223363572E+03  0.16223363572E+03  0.00000000000E+00 0. -1.
         -3   -1    0    0    0  501 -0.00000000000E+00 -0.00000000000E+00 -0.23629205131E+03  0.23629205131E+03  0.00000000000E+00 0.  1.
         23    2    1    2    0    0 -0.49738840827E+02  0.14974912658E+01 -0.15115405169E+03  0.18857702838E+03  0.10118079622E+03 0.  0.
         24    2    1    2    0    0  0.71826740945E+02 -0.41052635882E+02  0.10574093820E+03  0.15634792983E+03  0.80119470312E+02 0.  0.
        -11    1    4    4    0    0  0.58465068757E+02 -0.56995378071E+02  0.47402958006E+02  0.94412275759E+02  0.00000000000E+00 0.  1.
         12    1    4    4    0    0  0.13361672188E+02  0.15942742189E+02  0.58337980194E+02  0.61935654071E+02  0.00000000000E+00 0. -1.
        -11    1    3    3    0    0  0.26986479809E+02 -0.54022252660E+01 -0.13091491857E+02  0.30476897633E+02  0.00000000000E+00 0. -1.
         11    1    3    3    0    0 -0.76725320636E+02  0.68997165319E+01 -0.13806255983E+03  0.15810013075E+03  0.00000000000E+00 0.  1.
         21    1    1    2  502  501 -0.22087900118E+02  0.39555144617E+02 -0.28645302097E+02  0.53600728815E+02  0.00000000000E+00 0. -1.
<scales pt_clust_5="13000.00000" pt_clust_6="13000.00000" pt_clust_7="13000.00000" pt_clust_8="13000.00000" pt_clust_9="45.30436"></scales>
<clustering>
<clus scale="   45.304">  2  9  1 -1</clus>
<clus scale="   80.119">  5  6 -1 -1</clus>
<clus scale="  101.181">  7  8 -1 -1</clus>
<clus scale="  111.649">  1  5  2 -1</clus>
<clus scale="  111.649">  1  5  2 -1</clus>
</clustering>
</event>
<event>
 9    2  0.2984928E-005  0.2459552E+03  0.7546771E-02  0.1164633E+00
         -1   -1    0    0    0  501 -0.00000000000E+00  0.00000000000E+00  0.15974200973E+03  0.15974200973E+03  0.00000000000E+00 0.  1.
          2   -1    0    0  502    0  0.00000000000E+00 -0.00000000000E+00 -0.12226914918E+04  0.12226914918E+04  0.00000000000E+00 0. -1.
         24    2    1    2    0    0  0.13976506066E+02 -0.51852638578E+00 -0.81674106904E+02  0.11149422138E+03  0.74596850279E+02 0.  0.
         23    2    1    2    0    0 -0.20299241666E+03 -0.12651160265E+03  0.79699970372E+01  0.25581856095E+03  0.90379801104E+02 0.  0.
        -11    1    3    3    0    0 -0.98046600252E+01 -0.31810815861E+02 -0.53963551833E+02  0.63404450083E+02  0.00000000000E+00 0.  1.
         12    1    3    3    0    0  0.23781166091E+02  0.31292289475E+02 -0.27710555072E+02  0.48089771299E+02  0.00000000000E+00 0. -1.
        -11    1    4    4    0    0 -0.18554618777E+03 -0.11325451183E+03 -0.22222750516E+02  0.21851275223E+03  0.00000000000E+00 0.  1.
         11    1    4    4    0    0 -0.17446228884E+02 -0.13257090817E+02  0.30192747553E+02  0.37305808717E+02  0.00000000000E+00 0. -1.
         21    1    1    2  502  501  0.18901591059E+03  0.12703012903E+03 -0.98924537224E+03  0.10151207192E+04  0.00000000000E+00 0. -1.
<scales pt_clust_5="13000.00000" pt_clust_6="13000.00000" pt_clust_7="13000.00000" pt_clust_8="13000.00000" pt_clust_9="228.74754"></scales>
<clustering>
<clus scale="   74.597">  5  6 -1 -1</clus>
<clus scale="   75.897">  1  5  2 -1</clus>
<clus scale="   90.380">  7  8 -1 -1</clus>
<clus scale="  228.748">  2  9  1 -1</clus>
<clus scale="  228.748">  2  5  1 -1</clus>
</clustering>
</event>
<event>
 9    2  0.2984928E-005  0.2100022E+03  0.7546771E-02  0.1176577E+00
         -1   -1    0    0    0  501 -0.00000000000E+00  0.00000000000E+00  0.21485069540E+03  0.21485069540E+03  0.00000000000E+00 0.  1.
          2   -1    0    0  502    0  0.00000000000E+00 -0.00000000000E+00 -0.57935928732E+03  0.57935928732E+03  0.00000000000E+00 0. -1.
         24    2    1    2    0    0 -0.33945130088E+02 -0.38771197870E+02  0.12593813539E+03  0.15644155336E+03  0.77188522667E+02 0.  0.
         23    2    1    2    0    0  0.19451677189E+03  0.97373211599E+02 -0.26635700686E+03  0.35592866820E+03  0.91765161499E+02 0.  0.
        -11    1    3    3    0    0  0.99180217582E+01 -0.41023933365E+02  0.91028025860E+02  0.10033659231E+03  0.00000000000E+00 0.  1.
         12    1    3    3    0    0 -0.43863151846E+02  0.22527354947E+01  0.34910109527E+02  0.56104961049E+02  0.00000000000E+00 0. -1.
        -13    1    4    4    0    0  0.10746329041E+03  0.38699421364E+01 -0.10718857791E+03  0.15183124340E+03  0.00000000000E+00 0.  1.
         13    1    4    4    0    0  0.87053481471E+02  0.93503269462E+02 -0.15916842895E+03  0.20409742480E+03  0.00000000000E+00 0. -1.
         21    1    1    2  502  501 -0.16057164180E+03 -0.58602013729E+02 -0.22408972044E+03  0.28183976116E+03  0.00000000000E+00 0. -1.
<scales pt_clust_5="13000.00000" pt_clust_6="13000.00000" pt_clust_7="13000.00000" pt_clust_8="13000.00000" pt_clust_9="188.89173"></scales>
<clustering>
<clus scale="   77.189">  5  6 -1 -1</clus>
<clus scale="   91.765">  7  8 -1 -1</clus>
<clus scale="   92.809">  1  5  2 -1</clus>
<clus scale="  188.892">  2  9  1 -1</clus>
<clus scale="  188.892">  2  5  1 -1</clus>
</clustering>
</event>
<event>
 9    2  0.2984928E-005  0.9777725E+02  0.7546771E-02  0.1287301E+00
         -1   -1    0    0    0  501 -0.00000000000E+00  0.00000000000E+00  0.18099089500E+03  0.18099089500E+03  0.00000000000E+00 0.  1.
          2   -1    0    0  502    0  0.00000000000E+00 -0.00000000000E+00 -0.88504432566E+02  0.88504432566E+02  0.00000000000E+00 0. -1.
         23    2    1    2    0    0 -0.50365459724E+01  0.53659251624E+02  0.90308037958E+02  0.12830705122E+03  0.73501534629E+02 0.  0.
         24    2    1    2    0    0 -0.23624950598E+02 -0.69596971664E+02  0.77964980553E+01  0.10791583946E+03  0.78633111785E+02 0.  0.
        -11    1    4    4    0    0 -0.45850763251E+02 -0.14636868663E+02  0.69202506524E+01  0.48625304976E+02  0.00000000000E+00 0.  1.
         12    1    4    4    0    0  0.22225812653E+02 -0.54960103000E+02  0.87624740290E+00  0.59290534484E+02  0.00000000000E+00 0. -1.
        -11    1    3    3    0    0 -0.23515922517E+02  0.29576126585E+02  0.90369565145E+02  0.97951029500E+02  0.00000000000E+00 0.  1.
         11    1    3    3    0    0  0.18479376544E+02  0.24083125039E+02 -0.61527186761E-01  0.30356021720E+02  0.00000000000E+00 0. -1.
         21    1    1    2  502  501  0.28661496570E+02  0.15937720040E+02 -0.56180735768E+01  0.33272436887E+02  0.00000000000E+00 0. -1.
<scales pt_clust_5="13000.00000" pt_clust_6="13000.00000" pt_clust_7="13000.00000" pt_clust_8="13000.00000" pt_clust_9="32.79470"></scales>
<clustering>
<clus scale="   32.795">  2  9  1 -1</clus>
<clus scale="   73.502">  7  8 -1 -1</clus>
<clus scale="   78.633">  5  6 -1 -1</clus>
<clus scale="   93.700">  1  7  2 -1</clus>
<clus scale="   32.795">  2  5  1 -1</clus>
</clustering>
</event>
<event>
 9    2  0.2984928E-005  0.1154133E+03  0.7546771E-02  0.1254547E+00
         -1   -1    0    0    0  501 -0.00000000000E+00  0.00000000000E+00  0.31873349496E+03  0.31873349496E+03  0.00000000000E+00 0.  1.
          2   -1    0    0  502    0  0.00000000000E+00 -0.00000000000E+00 -0.73092353114E+02  0.73092353114E+02  0.00000000000E+00 0. -1.
         24    2    1    2    0    0  0.69846518175E+02  0.36137971331E+02  0.20713850134E+03  0.23553696216E+03  0.79917537055E+02 0.  0.
         23    2    1    2    0    0 -0.46893830963E+02 -0.52871533680E+02  0.88421903119E+01  0.11522089030E+03  0.90571732759E+02 0.  0.
        -13    1    3    3    0    0  0.74080628925E+02  0.55322851738E+02  0.17236939325E+03  0.19560103588E+03  0.00000000000E+00 0.  1.
         14    1    3    3    0    0 -0.42341107502E+01 -0.19184880407E+02  0.34769108091E+02  0.39935926276E+02  0.00000000000E+00 0. -1.
        -13    1    4    4    0    0 -0.16972114026E+02 -0.75251359917E+02  0.10305890496E+02  0.77826931090E+02  0.00000000000E+00 0.  1.
         13    1    4    4    0    0 -0.29921716937E+02  0.22379826237E+02 -0.14637001838E+01  0.37393959206E+02  0.00000000000E+00 0. -1.
         21    1    1    2  502  501 -0.22952687212E+02  0.16733562349E+02  0.29660450195E+02  0.41067995628E+02  0.00000000000E+00 0.  1.
<scales pt_clust_5="13000.00000" pt_clust_6="13000.00000" pt_clust_7="13000.00000" pt_clust_8="13000.00000" pt_clust_9="28.40489"></scales>
<clustering>
<clus scale="   28.405">  1  9  2 -1</clus>
<clus scale="   79.918">  5  6 -1 -1</clus>
<clus scale="   90.572">  7  8 -1 -1</clus>
<clus scale="  107.256">  1  5  2 -1</clus>
<clus scale="  115.413">  2  5  1 -1</clus>
</clustering>
</event>
<event>
 9    2  0.2984928E-005  0.1381843E+03  0.7546771E-02  0.1218468E+00
          2   -1    0    0  502    0  0.00000000000E+00  0.00000000000E+00  0.42251292577E+03  0.42251292577E+03  0.00000000000E+00 0. -1.
         -1   -1    0    0    0  501 -0.00000000000E+00 -0.00000000000E+00 -0.22890415729E+03  0.22890415729E+03  0.00000000000E+00 0.  1.
         23    2    1    2    0    0 -0.27763216389E+02  0.10202855393E+03 -0.18933501534E+03  0.23571692230E+03  0.92380178733E+02 0.  0.
         24    2    1    2    0    0  0.27206989702E+02 -0.54555451148E+02  0.32734210019E+03  0.34258687812E+03  0.80600254109E+02 0.  0.
        -11    1    4    4    0    0  0.47257646917E+02 -0.10196712485E+02  0.11523770989E+03  0.12496794756E+03  0.00000000000E+00 0.  1.
         12    1    4    4    0    0 -0.20050657214E+02 -0.44358738663E+02  0.21210439031E+03  0.21761893056E+03  0.00000000000E+00 0. -1.
        -13    1    3    3    0    0  0.26874568163E+02  0.61735829679E+02 -0.62560806490E+02  0.91909790495E+02  0.00000000000E+00 0. -1.
         13    1    3    3    0    0 -0.54637784552E+02  0.40292724256E+02 -0.12677420885E+03  0.14380713180E+03  0.00000000000E+00 0.  1.
         21    1    1    2  502  501  0.55622668635E+00 -0.47473102787E+02  0.55601683626E+02  0.73113282639E+02  0.00000000000E+00 0. -1.
<scales pt_clust_5="13000.00000" pt_clust_6="13000.00000" pt_clust_7="13000.00000" pt_clust_8="13000.00000" pt_clust_9="47.47636"></scales>
<clustering>
<clus scale="   47.476">  1  9  2 -1</clus>
<clus scale="   80.600">  5  6 -1 -1</clus>
<clus scale="   92.380">  7  8 -1 -1</clus>
<clus scale="  130.603">  1  5  2 -1</clus>
<clus scale="   47.476">  1  5  2 -1</clus>
</clustering>
</event>
<event>
 9    2  0.2984928E-005  0.1083003E+03  0.7546771E-02  0.1269608E+00
         -1   -1    0    0    0  501 -0.00000000000E+00  0.00000000000E+00  0.14198795647E+03  0.14198795647E+03  0.00000000000E+00 0.  1.
          2   -1    0    0  502    0  0.00000000000E+00 -0.00000000000E+00 -0.31474650731E+03  0.31474650731E+03  0.00000000000E+00 0. -1.
         23    2    1    2    0    0 -0.37792127701E+02 -0.44320948693E+02  0.10585808684E+03  0.15252377988E+03  0.93085860737E+02 0.  0.
         24    2    1    2    0    0  0.30838397036E+02  0.19241762007E+02 -0.15445170528E+03  0.17734756706E+03  0.79218546693E+02 0.  0.
        -11    1    4    4    0    0  0.39532360660E+02  0.44447212308E+02 -0.11845605481E+03  0.13255262782E+03  0.00000000000E+00 0.  1.
         12    1    4    4    0    0 -0.86939636241E+01 -0.25205450301E+02 -0.35995650474E+02  0.44794939239E+02  0.00000000000E+00 0. -1.
        -11    1    3    3    0    0 -0.41048168675E+02 -0.69698555490E+02  0.62666000161E+02  0.10232237470E+03  0.00000000000E+00 0. -1.
         11    1    3    3    0    0  0.32560409731E+01  0.25377606797E+02  0.43192086682E+02  0.50201405175E+02  0.00000000000E+00 0.  1.
         21    1    1    2  502  501  0.69537306655E+01  0.25079186686E+02 -0.12416493240E+03  0.12686311684E+03  0.00000000000E+00 0. -1.
<scales pt_clust_5="13000.00000" pt_clust_6="13000.00000" pt_clust_7="13000.00000" pt_clust_8="13000.00000" pt_clust_9="26.02537"></scales>
<clustering>
<clus scale="   26.025">  2  9  1 -1</clus>
<clus scale="   79.219">  5  6 -1 -1</clus>
<clus scale="   93.086">  7  8 -1 -1</clus>
<clus scale="   96.641">  2  5  1 -1</clus>
<clus scale="   26.025">  2  5  1 -1</clus>
</clustering>
</event>
<event>
 9    2  0.2984928E-005  0.1002204E+03  0.7546771E-02  0.1286506E+00
         -1   -1    0    0    0  501 -0.00000000000E+00  0.00000000000E+00  0.16339353564E+03  0.16339353564E+03  0.00000000000E+00 0.  1.
          2   -1    0    0  502    0  0.00000000000E+00 -0.00000000000E+00 -0.17868823501E+03  0.17868823501E+03  0.00000000000E+00 0. -1.
         24    2    1    2    0    0  0.29973337668E+02  0.18258236489E+02  0.12215673116E+03  0.15052048408E+03  0.80637367191E+02 0.  0.
         23    2    1    2    0    0 -0.24114779791E+02 -0.44638494159E+02 -0.10858135241E+03  0.15201736029E+03  0.93516041258E+02 0.  0.
        -11    1    3    3    0    0  0.39254751085E+02  0.44948778132E+02  0.83895740343E+02  0.10295544369E+03  0.00000000000E+00 0.  1.
         12    1    3    3    0    0 -0.92814134166E+01 -0.26690541643E+02  0.38260990821E+02  0.47565040385E+02  0.00000000000E+00 0. -1.
        -11    1    4    4    0    0 -0.47629979539E+02  0.65880302383E+01 -0.35724894143E+02  0.59902296741E+02  0.00000000000E+00 0.  1.
         11    1    4    4    0    0  0.23515199748E+02 -0.51226524398E+02 -0.72856458267E+02  0.92115063547E+02  0.00000000000E+00 0. -1.
         21    1    1    2  502  501 -0.58585578766E+01  0.26380257670E+02 -0.28870078123E+02  0.39543926284E+02  0.00000000000E+00 0.  1.
<scales pt_clust_5="13000.00000" pt_clust_6="13000.00000" pt_clust_7="13000.00000" pt_clust_8="13000.00000" pt_clust_9="27.02297"></scales>
<clustering>
<clus scale="   27.023">  2  9  1 -1</clus>
<clus scale="   80.637">  5  6 -1 -1</clus>
<clus scale="   88.325">  1  5  2 -1</clus>
<clus scale="   93.516">  7  8 -1 -1</clus>
<clus scale="   27.023">  2  5  1 -1</clus>
</clustering>
</event>
<event>
 9    2  0.2984928E-005  0.1983057E+03  0.7546771E-02  0.1179931E+00
          2   -1    0    0  502    0  0.00000000000E+00  0.00000000000E+00  0.24537881361E+03  0.24537881361E+03  0.00000000000E+00 0. -1.
         -1   -1    0    0    0  501 -0.00000000000E+00 -0.00000000000E+00 -0.31150014642E+03  0.31150014642E+03  0.00000000000E+00 0.  1.
         23    2    1    2    0    0 -0.36494131891E+02  0.25920469734E+02 -0.12792649801E+03  0.16373228989E+03  0.91866106088E+02 0.  0.
         24    2    1    2    0    0 -0.16234687247E+03 -0.43340351594E+02  0.50213276502E+02  0.19320775651E+03  0.81073861138E+02 0.  0.
        -13    1    4    4    0    0 -0.12767256245E+03 -0.66274477961E+02  0.47730100688E+02  0.15156105088E+03  0.00000000000E+00 0.  1.
         14    1    4    4    0    0 -0.34674310019E+02  0.22934126366E+02  0.24831758147E+01  0.41646705627E+02  0.00000000000E+00 0. -1.
        -11    1    3    3    0    0  0.14973407073E+02  0.25731352204E+02 -0.46351927001E+01  0.30129560518E+02  0.00000000000E+00 0.  1.
         11    1    3    3    0    0 -0.51467538964E+02  0.18911753033E+00 -0.12329130531E+03  0.13360272938E+03  0.00000000000E+00 0. -1.
         21    1    1    2  502  501  0.19884100436E+03  0.17419881860E+02  0.11591888690E+02  0.19993891363E+03  0.00000000000E+00 0.  1.
<scales pt_clust_5="13000.00000" pt_clust_6="13000.00000" pt_clust_7="13000.00000" pt_clust_8="13000.00000" pt_clust_9="180.97568"></scales>
<clustering>
<clus scale="   81.074">  5  6 -1 -1</clus>
<clus scale="   91.866">  7  8 -1 -1</clus>
<clus scale="  102.191">  2  7  1 -1</clus>
<clus scale="  180.976">  2  9  1 -1</clus>
<clus scale="  198.306">  1  5  2 -1</clus>
</clustering>
</event>
<event>
 9    2  0.2984928E-005  0.1134788E+03  0.7546771E-02  0.1258305E+00
         -3   -1    0    0    0  501 -0.00000000000E+00  0.00000000000E+00  0.75587807204E+02  0.75587807204E+02  0.00000000000E+00 0.  1.
          4   -1    0    0  502    0  0.00000000000E+00 -0.00000000000E+00 -0.22801341655E+03  0.22801341655E+03  0.00000000000E+00 0. -1.
         23    2    1    2    0    0 -0.71921144084E+02  0.27021477120E+02 -0.13590084529E+02  0.11936762605E+03  0.90338964789E+02 0.  0.
         24    2    1    2    0    0  0.52299065021E+02 -0.10504899870E+02 -0.11152976585E+03  0.14677124615E+03  0.79103507534E+02 0.  0.
        -13    1    4    4    0    0  0.28300081062E+02 -0.10506476514E+02  0.24553288037E+01  0.30287114032E+02  0.00000000000E+00 0.  1.
         14    1    4    4    0    0  0.23998983958E+02  0.15766438524E-02 -0.11398509465E+03  0.11648413212E+03  0.00000000000E+00 0. -1.
        -13    1    3    3    0    0 -0.16433588471E+02  0.46883283619E+02  0.17578132817E+02  0.52698158092E+02  0.00000000000E+00 0.  1.
         13    1    3    3    0    0 -0.55487555612E+02 -0.19861806499E+02 -0.31168217346E+02  0.66669467958E+02  0.00000000000E+00 0. -1.
         21    1    1    2  502  501  0.19622079063E+02 -0.16516577251E+02 -0.27305758971E+02  0.37462351552E+02  0.00000000000E+00 0. -1.
<scales pt_clust_5="13000.00000" pt_clust_6="13000.00000" pt_clust_7="13000.00000" pt_clust_8="13000.00000" pt_clust_9="25.64807"></scales>
<clustering>
<clus scale="   25.648">  2  9  1 -1</clus>
<clus scale="   79.104">  5  6 -1 -1</clus>
<clus scale="   90.339">  7  8 -1 -1</clus>
<clus scale="  104.755">  2  5  1 -1</clus>
<clus scale="   25.648">  2  5  1 -1</clus>
</clustering>
</event>
<event>
 9    2  0.2984928E-005  0.8594079E+02  0.7546771E-02  0.1313530E+00
          2   -1    0    0  502    0  0.00000000000E+00  0.00000000000E+00  0.64995978849E+02  0.64995978849E+02  0.00000000000E+00 0. -1.
         -1   -1    0    0    0  501 -0.00000000000E+00 -0.00000000000E+00 -0.37863272489E+03  0.37863272489E+03  0.00000000000E+00 0.  1.
         23    2    1    2    0    0  0.67011578874E+01 -0.18838278492E+02 -0.24478805243E+03  0.25886508109E+03  0.81793357563E+02 0.  0.
         24    2    1    2    0    0  0.36982044423E+02  0.54931852927E+02 -0.73650881861E+02  0.12789509628E+03  0.80916766976E+02 0.  0.
        -11    1    4    4    0    0  0.35135462081E+02  0.44233974999E+02 -0.91189102975E+02  0.10726881066E+03  0.00000000000E+00 0.  1.
         12    1    4    4    0    0  0.18465823421E+01  0.10697877927E+02  0.17538221113E+02  0.20626285616E+02  0.00000000000E+00 0. -1.
        -11    1    3    3    0    0 -0.32656194315E+00  0.30022992014E+02 -0.13786917765E+03  0.14110066208E+03  0.00000000000E+00 0. -1.
         11    1    3    3    0    0  0.70277198306E+01 -0.48861270506E+02 -0.10691887477E+03  0.11776441901E+03  0.00000000000E+00 0.  1.
         21    1    1    2  502  501 -0.43683202310E+02 -0.36093574435E+02  0.48021882503E+01  0.56868526370E+02  0.00000000000E+00 0.  1.
<scales pt_clust_5="13000.00000" pt_clust_6="13000.00000" pt_clust_7="13000.00000" pt_clust_8="13000.00000" pt_clust_9="56.66541"></scales>
<clustering>
<clus scale="   56.665">  1  9  2 -1</clus>
<clus scale="   80.917">  5  6 -1 -1</clus>
<clus scale="   81.793">  7  8 -1 -1</clus>
<clus scale="   85.107">  1  5  2 -1</clus>
<clus scale="   56.665">  1  5  2 -1</clus>
</clustering>
</event>
<event>
 9    2  0.2984928E-005  0.9446423E+02  0.7546771E-02  0.1300478E+00
          4   -1    0    0  502    0  0.00000000000E+00  0.00000000000E+00  0.58718097196E+03  0.58718097196E+03  0.00000000000E+00 0. -1.
         -3   -1    0    0    0  501 -0.00000000000E+00 -0.00000000000E+00 -0.29698121260E+02  0.29698121260E+02  0.00000000000E+00 0.  1.
         24    2    1    2    0    0 -0.49250006899E+02  0.52692036115E+01  0.77412925970E+02  0.12313175863E+03  0.81947185362E+02 0.  0.
         23    2    1    2    0    0  0.35214573098E+02 -0.29478697905E+02  0.26936984543E+03  0.28119706658E+03  0.66352218026E+02 0.  0.
        -13    1    3    3    0    0 -0.23562854152E+02 -0.38216291949E+02  0.31189250587E+02  0.54666831062E+02  0.00000000000E+00 0.  1.
         14    1    3    3    0    0 -0.25687152747E+02  0.43485495561E+02  0.46223675383E+02  0.68464927564E+02  0.00000000000E+00 0. -1.
        -11    1    4    4    0    0  0.32547651972E+02  0.83495422837E+01  0.19330013331E+03  0.19619889410E+03  0.00000000000E+00 0. -1.
         11    1    4    4    0    0  0.26669211255E+01 -0.37828240189E+02  0.76069712120E+02  0.84998172487E+02  0.00000000000E+00 0.  1.
         21    1    1    2  502  501  0.14035433801E+02  0.24209494294E+02  0.21070007930E+03  0.21255026801E+03  0.00000000000E+00 0. -1.
<scales pt_clust_5="13000.00000" pt_clust_6="13000.00000" pt_clust_7="13000.00000" pt_clust_8="13000.00000" pt_clust_9="27.98380"></scales>
<clustering>
<clus scale="   27.984">  1  9  2 -1</clus>
<clus scale="   66.352">  7  8 -1 -1</clus>
<clus scale="   81.307">  1  7  2 -1</clus>
<clus scale="   81.947">  5  6 -1 -1</clus>
<clus scale="   27.984">  1  5  2 -1</clus>
</clustering>
</event>
<event>
 9    2  0.2984928E-005  0.1526106E+03  0.7546771E-02  0.1216390E+00
          2   -1    0    0  502    0  0.00000000000E+00  0.00000000000E+00  0.52470018549E+03  0.52470018549E+03  0.00000000000E+00 0. -1.
         -1   -1    0    0    0  501 -0.00000000000E+00 -0.00000000000E+00 -0.12116367790E+03  0.12116367790E+03  0.00000000000E+00 0.  1.
         23    2    1    2    0    0  0.39014825395E+02 -0.21068008330E+02 -0.40004922806E+02  0.10891259463E+03  0.91079865200E+02 0.  0.
         24    2    1    2    0    0 -0.11207689726E+03 -0.79739031686E+02  0.16094161783E+03  0.22814262295E+03  0.85013575287E+02 0.  0.
        -13    1    4    4    0    0 -0.12471473242E+03 -0.79410669517E+02  0.15488625699E+03  0.21412513052E+03  0.00000000000E+00 0.  1.
         14    1    4    4    0    0  0.12637835157E+02 -0.32836216898E+00  0.60553608434E+01  0.14017492434E+02  0.00000000000E+00 0. -1.
        -13    1    3    3    0    0  0.37732976259E+02 -0.43082815366E+02  0.63087254956E+01  0.57616894177E+02  0.00000000000E+00 0. -1.
         13    1    3    3    0    0  0.12818491361E+01  0.22014807036E+02 -0.46313648301E+02  0.51295700453E+02  0.00000000000E+00 0.  1.
         21    1    1    2  502  501  0.73062071869E+02  0.10080704002E+03  0.28259981257E+03  0.30880864581E+03  0.00000000000E+00 0. -1.
<scales pt_clust_5="13000.00000" pt_clust_6="13000.00000" pt_clust_7="13000.00000" pt_clust_8="13000.00000" pt_clust_9="126.73868"></scales>
<clustering>
<clus scale="   85.014">  5  6 -1 -1</clus>
<clus scale="   91.080">  7  8 -1 -1</clus>
<clus scale="  101.299">  2  7  1 -1</clus>
<clus scale="  126.739">  1  9  2 -1</clus>
<clus scale="  126.739">  1  5  2 -1</clus>
</clustering>
</event>
<event>
 9    2  0.2984928E-005  0.1351055E+03  0.7546771E-02  0.1223426E+00
          2   -1    0    0  502    0  0.00000000000E+00  0.00000000000E+00  0.17919384554E+03  0.17919384554E+03  0.00000000000E+00 0. -1.
         -1   -1    0    0    0  501 -0.00000000000E+00 -0.00000000000E+00 -0.48353601092E+03  0.48353601092E+03  0.00000000000E+00 0.  1.
         24    2    1    2    0    0 -0.10559747681E+02  0.97226261396E+02 -0.41038656527E+03  0.42963531858E+03  0.81270657948E+02 0.  0.
         23    2    1    2    0    0  0.50452639788E+02 -0.65419963839E+02  0.12625034701E+03  0.17821864422E+03  0.94855123724E+02 0.  0.
        -11    1    3    3    0    0  0.71951933239E+01  0.10648693913E+03 -0.33214364903E+03  0.34887052413E+03  0.00000000000E+00 0.  1.
         12    1    3    3    0    0 -0.17754941005E+02 -0.92606777320E+01 -0.78242916238E+02  0.80764794457E+02  0.00000000000E+00 0. -1.
        -13    1    4    4    0    0  0.69989565780E+02 -0.74955576888E+02  0.11370021133E+03  0.15311634753E+03  0.00000000000E+00 0. -1.
         13    1    4    4    0    0 -0.19536925991E+02  0.95356130494E+01  0.12550135680E+02  0.25102296688E+02  0.00000000000E+00 0.  1.
         21    1    1    2  502  501 -0.39892892107E+02 -0.31806297557E+02 -0.20205947119E+02  0.54875893650E+02  0.00000000000E+00 0. -1.
<scales pt_clust_5="13000.00000" pt_clust_6="13000.00000" pt_clust_7="13000.00000" pt_clust_8="13000.00000" pt_clust_9="51.02042"></scales>
<clustering>
<clus scale="   51.020">  1  9  2 -1</clus>
<clus scale="   81.271">  5  6 -1 -1</clus>
<clus scale="   94.855">  7  8 -1 -1</clus>
<clus scale="  125.940">  2  5  1 -1</clus>
<clus scale="   51.020">  1  5  2 -1</clus>
</clustering>
</event>
<event>
 9    2  0.2984928E-005  0.1161816E+03  0.7546771E-02  0.1253566E+00
         -1   -1    0    0    0  501 -0.00000000000E+00  0.00000000000E+00  0.13053297925E+03  0.13053297925E+03  0.00000000000E+00 0.  1.
          2   -1    0    0  502    0  0.00000000000E+00 -0.00000000000E+00 -0.16737755230E+03  0.16737755230E+03  0.00000000000E+00 0. -1.
         23    2    1    2    0    0  0.59835599947E+02  0.43549728995E+02  0.40881688566E+02  0.12365020291E+03  0.90228500497E+02 0.  0.
         24    2    1    2    0    0 -0.79862643636E+02 -0.46931653975E+01 -0.51119650550E+02  0.12308585487E+03  0.78337994274E+02 0.  0.
        -13    1    4    4    0    0 -0.66523541722E+02 -0.29913149261E+02 -0.10862425060E+02  0.73743951481E+02  0.00000000000E+00 0.  1.
         14    1    4    4    0    0 -0.13339101914E+02  0.25219983863E+02 -0.40257225490E+02  0.49341903389E+02  0.00000000000E+00 0. -1.
        -11    1    3    3    0    0  0.63627284870E+01 -0.26426533037E+02  0.18186411672E+02  0.32704610251E+02  0.00000000000E+00 0.  1.
         11    1    3    3    0    0  0.53472871460E+02  0.69976262031E+02  0.22695276894E+02  0.90945592654E+02  0.00000000000E+00 0. -1.
         21    1    1    2  502  501  0.20027043689E+02 -0.38856563597E+02 -0.26606611062E+02  0.51174473771E+02  0.00000000000E+00 0.  1.
<scales pt_clust_5="13000.00000" pt_clust_6="13000.00000" pt_clust_7="13000.00000" pt_clust_8="13000.00000" pt_clust_9="43.71401"></scales>
<clustering>
<clus scale="   43.714">  2  9  1 -1</clus>
<clus scale="   78.338">  5  6 -1 -1</clus>
<clus scale="   90.229">  7  8 -1 -1</clus>
<clus scale="  107.209">  2  5  1 -1</clus>
<clus scale="   43.714">  2  5  1 -1</clus>
</clustering>
</event>
<event>
 9    2  0.2984928E-005  0.1084044E+03  0.7546771E-02  0.1270038E+00
         -1   -1    0    0    0  501 -0.00000000000E+00  0.00000000000E+00  0.87352942875E+02  0.87352942875E+02  0.00000000000E+00 0.  1.
          2   -1    0    0  502    0  0.00000000000E+00 -0.00000000000E+00 -0.28856238561E+03  0.28856238561E+03  0.00000000000E+00 0. -1.
         23    2    1    2    0    0 -0.16727094650E+02 -0.63629754025E+02  0.18105743458E+02  0.11558321168E+03  0.93290511749E+02 0.  0.
         24    2    1    2    0    0 -0.11183269027E+02  0.19297777180E+02 -0.17008985791E+03  0.18844717043E+03  0.78001965163E+02 0.  0.
        -11    1    4    4    0    0 -0.29342863344E+02  0.29645162938E+02 -0.43968970321E+02  0.60606185047E+02  0.00000000000E+00 0.  1.
         12    1    4    4    0    0  0.18159594317E+02 -0.10347385758E+02 -0.12612088759E+03  0.12784098538E+03  0.00000000000E+00 0. -1.
        -11    1    3    3    0    0  0.20595416032E+02 -0.41257782987E+02 -0.26568718255E+02  0.53219100032E+02  0.00000000000E+00 0. -1.
         11    1    3    3    0    0 -0.37322510681E+02 -0.22371971038E+02  0.44674461713E+02  0.62364111643E+02  0.00000000000E+00 0.  1.
         21    1    1    2  502  501  0.27910363677E+02  0.44331976845E+02 -0.49225328287E+02  0.71884946383E+02  0.00000000000E+00 0. -1.
<scales pt_clust_5="13000.00000" pt_clust_6="13000.00000" pt_clust_7="13000.00000" pt_clust_8="13000.00000" pt_clust_9="52.38619"></scales>
<clustering>
<clus scale="   52.386">  2  9  1 -1</clus>
<clus scale="   78.002">  5  6 -1 -1</clus>
<clus scale="   93.291">  7  8 -1 -1</clus>
<clus scale="   95.565">  2  5  1 -1</clus>
<clus scale="   52.386">  2  5  1 -1</clus>
</clustering>
</event>
<event>
 9    2  0.2984928E-005  0.1465220E+03  0.7546771E-02  0.1206477E+00
          2   -1    0    0  502    0  0.00000000000E+00  0.00000000000E+00  0.69335071383E+03  0.69335071383E+03  0.00000000000E+00 0. -1.
         -1   -1    0    0    0  501 -0.00000000000E+00 -0.00000000000E+00 -0.46326536087E+02  0.46326536087E+02  0.00000000000E+00 0.  1.
         23    2    1    2    0    0  0.52258077422E+02 -0.12200561154E+03  0.16939440679E+03  0.23316683241E+03  0.89755394158E+02 0.  0.
         24    2    1    2    0    0 -0.24739710553E+02  0.80758593144E+02  0.36833633696E+03  0.38649528614E+03  0.81073703784E+02 0.  0.
        -13    1    4    4    0    0 -0.54534865109E+02  0.50552253252E+02  0.22126536794E+03  0.23342652992E+03  0.00000000000E+00 0.  1.
         14    1    4    4    0    0  0.29795154556E+02  0.30206339892E+02  0.14707096902E+03  0.15306875623E+03  0.00000000000E+00 0. -1.
        -11    1    3    3    0    0  0.52237208297E+02 -0.33050201472E+02  0.11008435963E+03  0.12625216031E+03  0.00000000000E+00 0. -1.
         11    1    3    3    0    0  0.20869124369E-01 -0.88955410067E+02  0.59310047165E+02  0.10691467210E+03  0.00000000000E+00 0.  1.
         21    1    1    2  502  501 -0.27518366868E+02  0.41247018395E+02  0.10929343399E+03  0.12001513136E+03  0.00000000000E+00 0.  1.
<scales pt_clust_5="13000.00000" pt_clust_6="13000.00000" pt_clust_7="13000.00000" pt_clust_8="13000.00000" pt_clust_9="49.58404"></scales>
<clustering>
<clus scale="   49.584">  1  9  2 -1</clus>
<clus scale="   81.074">  5  6 -1 -1</clus>
<clus scale="   89.755">  7  8 -1 -1</clus>
<clus scale="  141.370">  1  5  2 -1</clus>
<clus scale="   49.584">  1  5  2 -1</clus>
</clustering>
</event>
<event>
 9    2  0.2984928E-005  0.1457582E+03  0.7546771E-02  0.1208490E+00
          2   -1    0    0  502    0  0.00000000000E+00  0.00000000000E+00  0.18878503566E+03  0.18878503566E+03  0.00000000000E+00 0. -1.
         -1   -1    0    0    0  501 -0.00000000000E+00 -0.00000000000E+00 -0.24710523704E+03  0.24710523704E+03  0.00000000000E+00 0.  1.
         23    2    1    2    0    0  0.11113839475E+03 -0.22177787502E+02 -0.18138962973E+03  0.23391612841E+03  0.94715153534E+02 0.  0.
         24    2    1    2    0    0 -0.10123326839E+03 -0.46350049056E+01  0.89414013545E+02  0.15781846164E+03  0.81499344270E+02 0.  0.
        -11    1    4    4    0    0 -0.72947335843E+02 -0.39043240796E+02  0.42089331833E+02  0.92828876502E+02  0.00000000000E+00 0.  1.
         12    1    4    4    0    0 -0.28285932545E+02  0.34408235890E+02  0.47324681713E+02  0.64989585136E+02  0.00000000000E+00 0. -1.
        -11    1    3    3    0    0  0.41831215236E+02 -0.56030074144E+02 -0.75408296950E+02  0.10283788711E+03  0.00000000000E+00 0.  1.
         11    1    3    3    0    0  0.69307179513E+02  0.33852286642E+02 -0.10598133278E+03  0.13107824130E+03  0.00000000000E+00 0. -1.
         21    1    1    2  502  501 -0.99051263613E+01  0.26812792407E+02  0.33655414812E+02  0.44155682659E+02  0.00000000000E+00 0. -1.
<scales pt_clust_5="13000.00000" pt_clust_6="13000.00000" pt_clust_7="13000.00000" pt_clust_8="13000.00000" pt_clust_9="28.58387"></scales>
<clustering>
<clus scale="   28.584">  1  9  2 -1</clus>
<clus scale="   81.499">  5  6 -1 -1</clus>
<clus scale="   94.715">  7  8 -1 -1</clus>
<clus scale="  137.538">  1  5  2 -1</clus>
<clus scale="   28.584">  1  5  2 -1</clus>
</clustering>
</event>
<event>
 9    2  0.2984928E-005  0.1140020E+03  0.7546771E-02  0.1257952E+00
         -1   -1    0    0    0  501 -0.00000000000E+00  0.00000000000E+00  0.42235887107E+03  0.42235887107E+03  0.00000000000E+00 0.  1.
          2   -1    0    0  502    0  0.00000000000E+00 -0.00000000000E+00 -0.26548660448E+03  0.26548660448E+03  0.00000000000E+00 0. -1.
         23    2    1    2    0    0 -0.65880608562E+02 -0.28490360776E+02  0.35272968630E+03  0.37050107402E+03  0.87754538407E+02 0.  0.
         24    2    1    2    0    0  0.50406560901E+01 -0.66360961475E+02 -0.16234517168E+02  0.10530039604E+03  0.79971422624E+02 0.  0.
        -13    1    4    4    0    0  0.23703309034E+02 -0.70450578086E+02  0.76395512859E+01  0.74722778024E+02  0.00000000000E+00 0.  1.
         14    1    4    4    0    0 -0.18662652944E+02  0.40896166110E+01 -0.23874068453E+02  0.30577618014E+02  0.00000000000E+00 0. -1.
        -11    1    3    3    0    0 -0.17390257537E+02  0.31323643407E+02  0.95750616489E+02  0.10223390950E+03  0.00000000000E+00 0. -1.
         11    1    3    3    0    0 -0.48490351025E+02 -0.59814004183E+02  0.25697906981E+03  0.26826716452E+03  0.00000000000E+00 0.  1.
         21    1    1    2  502  501  0.60839952472E+02  0.94851322251E+02 -0.17962290253E+03  0.21204400549E+03  0.00000000000E+00 0. -1.
<scales pt_clust_5="13000.00000" pt_clust_6="13000.00000" pt_clust_7="13000.00000" pt_clust_8="13000.00000" pt_clust_9="72.77085"></scales>
<clustering>
<clus scale="   79.971">  5  6 -1 -1</clus>
<clus scale="   87.755">  7  8 -1 -1</clus>
<clus scale="  104.041">  2  5  1 -1</clus>
<clus scale="   72.771">  2  9  1 -1</clus>
<clus scale="  104.041">  2  5  1 -1</clus>
</clustering>
</event>
<event>
 9    2  0.2984928E-005  0.1234816E+03  0.7546771E-02  0.1252001E+00
         -1   -1    0    0    0  501 -0.00000000000E+00  0.00000000000E+00  0.27909946906E+03  0.27909946906E+03  0.00000000000E+00 0.  1.
          2   -1    0    0  502    0  0.00000000000E+00 -0.00000000000E+00 -0.11457585579E+03  0.11457585579E+03  0.00000000000E+00 0. -1.
         24    2    1    2    0    0 -0.90563707515E+02 -0.40144785106E+01  0.16359383620E+03  0.20412331926E+03  0.81764815571E+02 0.  0.
         23    2    1    2    0    0 -0.55124714814E+01 -0.11434438487E+02 -0.29188504585E+01  0.92165594113E+02  0.91240579376E+02 0.  0.
        -13    1    3    3    0    0 -0.48337950183E+02 -0.36744792722E+02  0.12249756474E+03  0.13672011771E+03  0.00000000000E+00 0.  1.
         14    1    3    3    0    0 -0.42225757332E+02  0.32730314211E+02  0.41096271462E+02  0.67403201546E+02  0.00000000000E+00 0. -1.
        -13    1    4    4    0    0 -0.23422527786E+02  0.21879141303E+02 -0.31360853215E+02  0.44842109076E+02  0.00000000000E+00 0.  1.
         13    1    4    4    0    0  0.17910056305E+02 -0.33313579789E+02  0.28442002756E+02  0.47323485037E+02  0.00000000000E+00 0. -1.
         21    1    1    2  502  501  0.96076178996E+02  0.15448916997E+02  0.38486275214E+01  0.97386411479E+02  0.00000000000E+00 0. -1.
<scales pt_clust_5="13000.00000" pt_clust_6="13000.00000" pt_clust_7="13000.00000" pt_clust_8="13000.00000" pt_clust_9="92.53228"></scales>
<clustering>
<clus scale="   81.765">  5  6 -1 -1</clus>
<clus scale="   91.241">  7  8 -1 -1</clus>
<clus scale="   92.119">  2  7  1 -1</clus>
<clus scale="   92.532">  2  9  1 -1</clus>
<clus scale="   92.119">  2  5  1 -1</clus>
</clustering>
</event>
<event>
 9    2  0.2984928E-005  0.1412287E+03  0.7546771E-02  0.1234983E+00
         -1   -1    0    0    0  501 -0.00000000000E+00  0.00000000000E+00  0.95136378872E+03  0.95136378872E+03  0.00000000000E+00 0.  1.
          2   -1    0    0  502    0  0.00000000000E+00 -0.00000000000E+00 -0.59043168363E+02  0.59043168363E+02  0.00000000000E+00 0. -1.
         23    2    1    2    0    0  0.20222045299E+02  0.11183590690E+03  0.72939198906E+03  0.74391537776E+03  0.92093508886E+02 0.  0.
         24    2    1    2    0    0  0.18927742149E+02 -0.23897165031E+02  0.12240434413E+02  0.87682013417E+02  0.81295592272E+02 0.  0.
        -11    1    4    4    0    0  0.25766018101E+02  0.18625915263E+02 -0.16582489331E+02  0.35857933021E+02  0.00000000000E+00 0.  1.
         12    1    4    4    0    0 -0.68382759511E+01 -0.42523080294E+02  0.28822923745E+02  0.51824080396E+02  0.00000000000E+00 0. -1.
        -11    1    3    3    0    0  0.21210519581E+02 -0.30681461294E+01  0.43817786646E+02  0.48778049245E+02  0.00000000000E+00 0. -1.
         11    1    3    3    0    0 -0.98847428182E+00  0.11490405303E+03  0.68557420241E+03  0.69513732852E+03  0.00000000000E+00 0.  1.
         21    1    1    2  502  501 -0.39149787448E+02 -0.87938741865E+02  0.15068819688E+03  0.17880956590E+03  0.00000000000E+00 0. -1.
<scales pt_clust_5="13000.00000" pt_clust_6="13000.00000" pt_clust_7="13000.00000" pt_clust_8="13000.00000" pt_clust_9="107.07160"></scales>
<clustering>
<clus scale="   81.296">  5  6 -1 -1</clus>
<clus scale="   86.823">  2  5  1 -1</clus>
<clus scale="   92.094">  7  8 -1 -1</clus>
<clus scale="  107.072">  2  9  1 -1</clus>
<clus scale="   86.823">  2  5  1 -1</clus>
</clustering>
</event>
<event>
 9    2  0.3024957E-005  0.2911754E+03  0.7546771E-02  0.1090374E+00
          2   -1    0    0  502    0  0.00000000000E+00  0.00000000000E+00  0.46322092363E+03  0.46322092363E+03  0.00000000000E+00 0. -1.
         -1   -1    0    0    0  501 -0.00000000000E+00 -0.00000000000E+00 -0.64931764061E+03  0.64931764061E+03  0.00000000000E+00 0.  1.
         23    2    1    2    0    0  0.22523662945E+03  0.16058931594E+03 -0.56388868081E+03  0.63544298396E+03  0.96420297998E+02 0.  0.
         24    2    1    2    0    0 -0.21256510564E+03 -0.14018504589E+03  0.34059409986E+03  0.43281711107E+03  0.80563884885E+02 0.  0.
        -11    1    4    4    0    0 -0.23749101987E+02  0.20256248986E+01  0.87488244218E+01  0.25390252661E+02  0.00000000000E+00 0.  1.
         12    1    4    4    0    0 -0.18881600365E+03 -0.14221067079E+03  0.33184527544E+03  0.40742685841E+03  0.00000000000E+00 0. -1.
        -11    1    3    3    0    0  0.17189699239E+03  0.13126152283E+03 -0.51069154359E+03  0.55460257487E+03  0.00000000000E+00 0.  1.
         11    1    3    3    0    0  0.53339637065E+02  0.29327793111E+02 -0.53197137228E+02  0.80840409080E+02  0.00000000000E+00 0. -1.
         21    1    1    2  502  501 -0.12671523814E+02 -0.20404270058E+02  0.37197863970E+02  0.44278469218E+02  0.00000000000E+00 0. -1.
<scales pt_clust_5="13000.00000" pt_clust_6="13000.00000" pt_clust_7="13000.00000" pt_clust_8="13000.00000" pt_clust_9="24.01878"></scales>
<clustering>
<clus scale="   24.019">  1  9  2 -1</clus>
<clus scale="   80.564">  5  6 -1 -1</clus>
<clus scale="   96.420">  7  8 -1 -1</clus>
<clus scale="  286.316">  1  5  2 -1</clus>
<clus scale="   24.019">  1  5  2 -1</clus>
</clustering>
</event>
<event>
 9    2  0.2984928E-005  0.1572242E+03  0.7546771E-02  0.1193406E+00
         -1   -1    0    0    0  501 -0.00000000000E+00  0.00000000000E+00  0.24969794881E+03  0.24969794881E+03  0.00000000000E+00 0.  1.
          2   -1    0    0  502    0  0.00000000000E+00 -0.00000000000E+00 -0.31734365118E+03  0.31734365118E+03  0.00000000000E+00 0. -1.
         23    2    1    2    0    0  0.12756663079E+03 -0.61969593663E+02  0.18441916660E+03  0.24969104734E+03  0.90673669181E+02 0.  0.
         24    2    1    2    0    0 -0.70814091857E+02  0.35047029830E+02 -0.93956938786E+02  0.14722179934E+03  0.81261441954E+02 0.  0.
        -11    1    4    4    0    0  0.17057771762E+02  0.11409399801E+02 -0.28540560572E+02  0.35152604158E+02  0.00000000000E+00 0.  1.
         12    1    4    4    0    0 -0.87871863620E+02  0.23637630029E+02 -0.65416378214E+02  0.11206919518E+03  0.00000000000E+00 0. -1.
        -13    1    3    3    0    0  0.52486214465E+02  0.51845176893E+01  0.19085912796E+02  0.56088804585E+02  0.00000000000E+00 0. -1.
         13    1    3    3    0    0  0.75080416330E+02 -0.67154111352E+02  0.16533325380E+03  0.19360224275E+03  0.00000000000E+00 0.  1.
         21    1    1    2  502  501 -0.56752538938E+02  0.26922563833E+02 -0.15810793018E+03  0.17012875331E+03  0.00000000000E+00 0. -1.
<scales pt_clust_5="13000.00000" pt_clust_6="13000.00000" pt_clust_7="13000.00000" pt_clust_8="13000.00000" pt_clust_9="62.81461"></scales>
<clustering>
<clus scale="   62.815">  2  9  1 -1</clus>
<clus scale="   81.261">  5  6 -1 -1</clus>
<clus scale="   90.674">  7  8 -1 -1</clus>
<clus scale="  151.991">  2  5  1 -1</clus>
<clus scale="   62.815">  2  5  1 -1</clus>
</clustering>
</event>
<event>
 9    2  0.2984928E-005  0.1296616E+03  0.7546771E-02  0.1230382E+00
         -1   -1    0    0    0  501 -0.00000000000E+00  0.00000000000E+00  0.12968069453E+03  0.12968069453E+03  0.00000000000E+00 0.  1.
          2   -1    0    0  502    0  0.00000000000E+00 -0.00000000000E+00 -0.40971319241E+03  0.40971319241E+03  0.00000000000E+00 0. -1.
         23    2    1    2    0    0  0.99307563238E+02  0.12491928700E+02  0.68389235172E+02  0.15083541009E+03  0.89756298109E+02 0.  0.
         24    2    1    2    0    0 -0.67220111773E+02  0.30811070333E+02 -0.16887131543E+03  0.20109352883E+03  0.80331940594E+02 0.  0.
        -13    1    4    4    0    0  0.10204856183E+02  0.25634738479E+02 -0.23222872634E+02  0.36063564993E+02  0.00000000000E+00 0.  1.
         14    1    4    4    0    0 -0.77424967957E+02  0.51763318538E+01 -0.14564844280E+03  0.16502996384E+03  0.00000000000E+00 0. -1.
        -13    1    3    3    0    0  0.77390226581E+02  0.47118949628E+02  0.32183154382E+02  0.96151952712E+02  0.00000000000E+00 0.  1.
         13    1    3    3    0    0  0.21917336657E+02 -0.34627020928E+02  0.36206080790E+02  0.54683457376E+02  0.00000000000E+00 0. -1.
         21    1    1    2  502  501 -0.32087451464E+02 -0.43302999033E+02 -0.17955041762E+03  0.18746494802E+03  0.00000000000E+00 0.  1.
<scales pt_clust_5="13000.00000" pt_clust_6="13000.00000" pt_clust_7="13000.00000" pt_clust_8="13000.00000" pt_clust_9="53.89577"></scales>
<clustering>
<clus scale="   53.896">  2  9  1 -1</clus>
<clus scale="   80.332">  5  6 -1 -1</clus>
<clus scale="   89.756">  7  8 -1 -1</clus>
<clus scale="  123.325">  2  5  1 -1</clus>
<clus scale="   53.896">  2  5  1 -1</clus>
</clustering>
</event>
<event>
 9    2  0.2984928E-005  0.1159459E+03  0.7546771E-02  0.1254994E+00
          2   -1    0    0  502    0  0.00000000000E+00  0.00000000000E+00  0.30021392920E+03  0.30021392920E+03  0.00000000000E+00 0. -1.
         -1   -1    0    0    0  501 -0.00000000000E+00 -0.00000000000E+00 -0.26538336420E+03  0.26538336420E+03  0.00000000000E+00 0.  1.
         23    2    1    2    0    0  0.60556075455E+02  0.36081828392E+02 -0.23642741847E+03  0.26417115943E+03  0.94443319803E+02 0.  0.
         24    2    1    2    0    0 -0.24661474142E+02 -0.20092899587E+02  0.14144423228E+03  0.16579546542E+03  0.80434772272E+02 0.  0.
        -13    1    4    4    0    0  0.12697128136E+02  0.23484322546E+02  0.64448107667E+02  0.69758791920E+02  0.00000000000E+00 0.  1.
         14    1    4    4    0    0 -0.37358602278E+02 -0.43577222132E+02  0.76996124609E+02  0.96036673504E+02  0.00000000000E+00 0. -1.
        -11    1    3    3    0    0 -0.20363543006E+02  0.25975177045E+02 -0.99145787356E+02  0.10449531500E+03  0.00000000000E+00 0. -1.
         11    1    3    3    0    0  0.80919618461E+02  0.10106651347E+02 -0.13728163112E+03  0.15967584443E+03  0.00000000000E+00 0.  1.
         21    1    1    2  502  501 -0.35894601313E+02 -0.15988928805E+02  0.12981375120E+03  0.13563066854E+03  0.00000000000E+00 0. -1.
<scales pt_clust_5="13000.00000" pt_clust_6="13000.00000" pt_clust_7="13000.00000" pt_clust_8="13000.00000" pt_clust_9="39.29463"></scales>
<clustering>
<clus scale="   39.295">  1  9  2 -1</clus>
<clus scale="   80.435">  5  6 -1 -1</clus>
<clus scale="   94.443">  7  8 -1 -1</clus>
<clus scale="  104.851">  1  5  2 -1</clus>
<clus scale="   39.295">  1  5  2 -1</clus>
</clustering>
</event>
<event>
 9    2  0.2984928E-005  0.1998420E+03  0.7546771E-02  0.1150143E+00
          2   -1    0    0  502    0  0.00000000000E+00  0.00000000000E+00  0.31765430401E+03  0.31765430401E+03  0.00000000000E+00 0. -1.
         -1   -1    0    0    0  501 -0.00000000000E+00 -0.00000000000E+00 -0.34807893895E+03  0.34807893895E+03  0.00000000000E+00 0.  1.
         24    2    1    2    0    0 -0.15769302868E+03 -0.11327332406E+03 -0.27035826712E+03  0.34233189018E+03  0.79997457449E+02 0.  0.
         23    2    1    2    0    0  0.97976685715E+02  0.80729626418E+02  0.15425929986E+03  0.21401568144E+03  0.76746835658E+02 0.  0.
        -11    1    3    3    0    0 -0.54762999282E+02 -0.88567961937E+02 -0.13571384476E+03  0.17105998256E+03  0.00000000000E+00 0.  1.
         12    1    3    3    0    0 -0.10293002940E+03 -0.24705362118E+02 -0.13464442236E+03  0.17127190763E+03  0.00000000000E+00 0. -1.
        -11    1    4    4    0    0  0.83689700073E+02  0.57318086056E+02  0.64611415604E+02  0.12026622100E+03  0.00000000000E+00 0.  1.
         11    1    4    4    0    0  0.14286985642E+02  0.23411540362E+02  0.89647884260E+02  0.93749460442E+02  0.00000000000E+00 0. -1.
         21    1    1    2  502  501  0.59716342968E+02  0.32543697638E+02  0.85674332322E+02  0.10938567133E+03  0.00000000000E+00 0.  1.
<scales pt_clust_5="13000.00000" pt_clust_6="13000.00000" pt_clust_7="13000.00000" pt_clust_8="13000.00000" pt_clust_9="68.00834"></scales>
<clustering>
<clus scale="   68.008">  1  9  2 -1</clus>
<clus scale="   76.747">  7  8 -1 -1</clus>
<clus scale="   79.997">  5  6 -1 -1</clus>
<clus scale="  198.563">  1  7  2 -1</clus>
<clus scale="   68.008">  1  5  2 -1</clus>
</clustering>
</event>
<event>
 9    2  0.2984928E-005  0.1153260E+03  0.7546771E-02  0.1256042E+00
          2   -1    0    0  502    0  0.00000000000E+00  0.00000000000E+00  0.41755010666E+03  0.41755010666E+03  0.00000000000E+00 0. -1.
         -1   -1    0    0    0  501 -0.00000000000E+00 -0.00000000000E+00 -0.14737797867E+03  0.14737797867E+03  0.00000000000E+00 0.  1.
         23    2    1    2    0    0 -0.52544206946E+02  0.35302012293E+02 -0.81752234378E+02  0.13840610477E+03  0.92009218328E+02 0.  0.
         24    2    1    2    0    0  0.96890776550E+02 -0.21376596771E+02  0.77122799417E+02  0.14781705697E+03  0.77827852802E+02 0.  0.
        -13    1    4    4    0    0  0.54529890282E+02 -0.50674371371E+02  0.41940783860E+02  0.85442554965E+02  0.00000000000E+00 0.  1.
         14    1    4    4    0    0  0.42360886268E+02  0.29297774601E+02  0.35182015556E+02  0.62374502006E+02  0.00000000000E+00 0. -1.
        -11    1    3    3    0    0 -0.49794535441E+02  0.62120808042E+02 -0.41021535322E+02  0.89561470018E+02  0.00000000000E+00 0. -1.
         11    1    3    3    0    0 -0.27496715051E+01 -0.26818795749E+02 -0.40730699056E+02  0.48844634756E+02  0.00000000000E+00 0.  1.
         21    1    1    2  502  501 -0.44346569604E+02 -0.13925415522E+02  0.27480156295E+03  0.27870492359E+03  0.00000000000E+00 0. -1.
<scales pt_clust_5="13000.00000" pt_clust_6="13000.00000" pt_clust_7="13000.00000" pt_clust_8="13000.00000" pt_clust_9="46.48156"></scales>
<clustering>
<clus scale="   46.482">  1  9  2 -1</clus>
<clus scale="   77.828">  5  6 -1 -1</clus>
<clus scale="   92.009">  7  8 -1 -1</clus>
<clus scale="  104.363">  1  5  2 -1</clus>
<clus scale="   46.482">  1  5  2 -1</clus>
</clustering>
</event>
<event>
 9    2  0.2984928E-005  0.1112444E+03  0.7546771E-02  0.1261604E+00
         -1   -1    0    0    0  501 -0.00000000000E+00  0.00000000000E+00  0.75339073038E+02  0.75339073038E+02  0.00000000000E+00 0.  1.
          2   -1    0    0  502    0  0.00000000000E+00 -0.00000000000E+00 -0.93049604889E+03  0.93049604889E+03  0.00000000000E+00 0. -1.
         23    2    1    2    0    0  0.52097720323E+02 -0.39852205575E+02  0.21811294979E+02  0.11436410943E+03  0.91110077293E+02 0.  0.
         24    2    1    2    0    0 -0.48360943445E+02 -0.64611947188E+01 -0.75333780165E+03  0.75939759558E+03  0.82379226061E+02 0.  0.
        -11    1    4    4    0    0 -0.36925404531E+02 -0.12190233944E+02 -0.12453578687E+03  0.13046551083E+03  0.00000000000E+00 0.  1.
         12    1    4    4    0    0 -0.11435538914E+02  0.57290392248E+01 -0.62880201478E+03  0.62893208475E+03  0.00000000000E+00 0. -1.
        -13    1    3    3    0    0  0.21496002079E+02  0.98273226824E+00 -0.33050938709E+02  0.39438666530E+02  0.00000000000E+00 0. -1.
         13    1    3    3    0    0  0.30601718243E+02 -0.40834937843E+02  0.54862233688E+02  0.74925442897E+02  0.00000000000E+00 0.  1.
         21    1    1    2  502  501 -0.37367768777E+01  0.46313400294E+02 -0.12363046918E+03  0.13207341692E+03  0.00000000000E+00 0. -1.
<scales pt_clust_5="13000.00000" pt_clust_6="13000.00000" pt_clust_7="13000.00000" pt_clust_8="13000.00000" pt_clust_9="46.46391"></scales>
<clustering>
<clus scale="   46.464">  2  9  1 -1</clus>
<clus scale="   82.379">  5  6 -1 -1</clus>
<clus scale="   91.110">  7  8 -1 -1</clus>
<clus scale="  104.214">  2  5  1 -1</clus>
<clus scale="   46.464">  2  5  1 -1</clus>
</clustering>
</event>
<event>
 9    2  0.2984928E-005  0.9362554E+02  0.7546771E-02  0.1299284E+00
         -1   -1    0    0    0  501 -0.00000000000E+00  0.00000000000E+00  0.24763978331E+03  0.24763978331E+03  0.00000000000E+00 0.  1.
          2   -1    0    0  502    0  0.00000000000E+00 -0.00000000000E+00 -0.21915553645E+03  0.21915553645E+03  0.00000000000E+00 0. -1.
         24    2    1    2    0    0  0.63972430724E+01 -0.15270732943E+02  0.21533071322E+03  0.23166412037E+03  0.83826180933E+02 0.  0.
         23    2    1    2    0    0  0.22595067363E+02  0.15782608048E+02 -0.18178769114E+03  0.20569640217E+03  0.92220482698E+02 0.  0.
        -13    1    3    3    0    0  0.36605162364E+02  0.16430860938E+02  0.81309755866E+02  0.90670764317E+02  0.00000000000E+00 0.  1.
         14    1    3    3    0    0 -0.30207919291E+02 -0.31701593881E+02  0.13402095735E+03  0.14099335606E+03  0.00000000000E+00 0. -1.
        -11    1    4    4    0    0 -0.69586014210E+01  0.37096883124E+02 -0.26317210677E+02  0.46013003044E+02  0.00000000000E+00 0.  1.
         11    1    4    4    0    0  0.29553668784E+02 -0.21314275076E+02 -0.15547048047E+03  0.15968339913E+03  0.00000000000E+00 0. -1.
         21    1    1    2  502  501 -0.28992310435E+02 -0.51187510512E+00 -0.50587752148E+01  0.29434797216E+02  0.00000000000E+00 0. -1.
<scales pt_clust_5="13000.00000" pt_clust_6="13000.00000" pt_clust_7="13000.00000" pt_clust_8="13000.00000" pt_clust_9="28.99683"></scales>
<clustering>
<clus scale="   28.997">  2  9  1 -1</clus>
<clus scale="   83.826">  5  6 -1 -1</clus>
<clus scale="   85.370">  1  5  2 -1</clus>
<clus scale="   92.220">  7  8 -1 -1</clus>
<clus scale="   28.997">  2  5  1 -1</clus>
</clustering>
</event>
<event>
 9    2  0.2984928E-005  0.1656259E+03  0.7546771E-02  0.1184087E+00
         -1   -1    0    0    0  501 -0.00000000000E+00  0.00000000000E+00  0.81818751248E+03  0.81818751248E+03  0.00000000000E+00 0.  1.
          2   -1    0    0  502    0  0.00000000000E+00 -0.00000000000E+00 -0.40536146714E+02  0.40536146714E+02  0.00000000000E+00 0. -1.
         24    2    1    2    0    0  0.14047955256E+03  0.28092656776E+02  0.41977387441E+03  0.45066339286E+03  0.79772714513E+02 0.  0.
         23    2    1    2    0    0 -0.13412679285E+03  0.52558663895E+01  0.29412959862E+03  0.33583647952E+03  0.90864181598E+02 0.  0.
        -13    1    3    3    0    0  0.70518016252E+02 -0.15738527692E+02  0.27155725059E+03  0.28100503949E+03  0.00000000000E+00 0.  1.
         14    1    3    3    0    0  0.69961536304E+02  0.43831184469E+02  0.14821662382E+03  0.16965835338E+03  0.00000000000E+00 0. -1.
        -13    1    4    4    0    0 -0.85275468318E+02 -0.27609772576E+02  0.23869134470E+03  0.25496619986E+03  0.00000000000E+00 0.  1.
         13    1    4    4    0    0 -0.48851324535E+02  0.32865638966E+02  0.55438253921E+02  0.80870279653E+02  0.00000000000E+00 0. -1.
         21    1    1    2  502  501 -0.63527597037E+01 -0.33348523166E+02  0.63747892737E+02  0.72223786813E+02  0.00000000000E+00 0.  1.
<scales pt_clust_5="13000.00000" pt_clust_6="13000.00000" pt_clust_7="13000.00000" pt_clust_8="13000.00000" pt_clust_9="33.94822"></scales>
<clustering>
<clus scale="   33.948">  2  9  1 -1</clus>
<clus scale="   79.773">  5  6 -1 -1</clus>
<clus scale="   90.864">  7  8 -1 -1</clus>
<clus scale="  159.810">  1  5  2 -1</clus>
<clus scale="   33.948">  2  5  1 -1</clus>
</clustering>
</event>
<event>
 9    2  0.2984928E-005  0.1343410E+03  0.7546771E-02  0.1223507E+00
          2   -1    0    0  502    0  0.00000000000E+00  0.00000000000E+00  0.60357787315E+03  0.60357787315E+03  0.00000000000E+00 0. -1.
         -1   -1    0    0    0  501 -0.00000000000E+00 -0.00000000000E+00 -0.67213142318E+02  0.67213142318E+02  0.00000000000E+00 0.  1.
         23    2    1    2    0    0  0.30271956157E+02 -0.98067652310E+02  0.25282644810E+02  0.13939741025E+03  0.90877775597E+02 0.  0.
         24    2    1    2    0    0 -0.50037355584E+01  0.82512928966E+02  0.39940898725E+03  0.41584572172E+03  0.81035204462E+02 0.  0.
        -11    1    4    4    0    0  0.12179281728E+02  0.54460385238E+02  0.99036404857E+02  0.11367707751E+03  0.00000000000E+00 0.  1.
         12    1    4    4    0    0 -0.17183017286E+02  0.28052543728E+02  0.30037258240E+03  0.30216864422E+03  0.00000000000E+00 0. -1.
        -11    1    3    3    0    0 -0.13177075095E+02 -0.83498809547E+02  0.36723196197E+02  0.92164416358E+02  0.00000000000E+00 0.  1.
         11    1    3    3    0    0  0.43449031252E+02 -0.14568842763E+02 -0.11440551387E+02  0.47232993894E+02  0.00000000000E+00 0. -1.
         21    1    1    2  502  501 -0.25268220598E+02  0.15554723344E+02  0.11167309877E+03  0.11554788349E+03  0.00000000000E+00 0. -1.
<scales pt_clust_5="13000.00000" pt_clust_6="13000.00000" pt_clust_7="13000.00000" pt_clust_8="13000.00000" pt_clust_9="29.67208"></scales>
<clustering>
<clus scale="   29.672">  1  9  2 -1</clus>
<clus scale="   81.035">  5  6 -1 -1</clus>
<clus scale="   90.878">  7  8 -1 -1</clus>
<clus scale="  127.888">  1  5  2 -1</clus>
<clus scale="   29.672">  1  5  2 -1</clus>
</clustering>
</event>
<event>
 9    2  0.2984928E-005  0.1282234E+03  0.7546771E-02  0.1232707E+00
         -1   -1    0    0    0  501 -0.00000000000E+00  0.00000000000E+00  0.47351722135E+02  0.47351722135E+02  0.00000000000E+00 0.  1.
          2   -1    0    0  502    0  0.00000000000E+00 -0.00000000000E+00 -0.69440985327E+03  0.69440985327E+03  0.00000000000E+00 0. -1.
         23    2    1    2    0    0 -0.70152499562E+02 -0.52229236833E+02 -0.71195439562E+02  0.14464362050E+03  0.90574389109E+02 0.  0.
         24    2    1    2    0    0  0.78714080052E+02  0.72916714115E+02 -0.51600134321E+03  0.53320666165E+03  0.80865346373E+02 0.  0.
        -11    1    4    4    0    0  0.37014976687E+02  0.95294093374E+01 -0.61455829489E+02  0.72372212345E+02  0.00000000000E+00 0.  1.
         12    1    4    4    0    0  0.41699103365E+02  0.63387304777E+02 -0.45454551372E+03  0.46083444931E+03  0.00000000000E+00 0. -1.
        -13    1    3    3    0    0 -0.30431202475E+02 -0.31866175059E+02  0.15845083060E+02  0.46824970412E+02  0.00000000000E+00 0.  1.
         13    1    3    3    0    0 -0.39721297088E+02 -0.20363061775E+02 -0.87040522621E+02  0.97818650090E+02  0.00000000000E+00 0. -1.
         21    1    1    2  502  501 -0.85615804895E+01 -0.20687477282E+02 -0.59861348365E+02  0.63911293250E+02  0.00000000000E+00 0.  1.
<scales pt_clust_5="13000.00000" pt_clust_6="13000.00000" pt_clust_7="13000.00000" pt_clust_8="13000.00000" pt_clust_9="22.38911"></scales>
<clustering>
<clus scale="   22.389">  2  9  1 -1</clus>
<clus scale="   80.865">  5  6 -1 -1</clus>
<clus scale="   90.574">  7  8 -1 -1</clus>
<clus scale="  121.560">  2  5  1 -1</clus>
<clus scale="   22.389">  2  5  1 -1</clus>
</clustering>
</event>
<event>
 9    2  0.2984928E-005  0.1175532E+03  0.7546771E-02  0.1251512E+00
         -1   -1    0    0    0  501 -0.00000000000E+00  0.00000000000E+00  0.94809211480E+03  0.94809211480E+03  0.00000000000E+00 0.  1.
          2   -1    0    0  502    0  0.00000000000E+00 -0.00000000000E+00 -0.29014385734E+02  0.29014385734E+02  0.00000000000E+00 0. -1.
         23    2    1    2    0    0  0.62714576595E+02  0.27255990031E+02  0.52329263857E+03  0.53563232067E+03  0.91601256804E+02 0.  0.
         24    2    1    2    0    0 -0.98832298059E+02  0.27078202788E+02  0.23993262002E+03  0.27251653172E+03  0.78718140911E+02 0.  0.
        -11    1    4    4    0    0 -0.57874693180E+02  0.50051202564E+02  0.18529192951E+03  0.20046870611E+03  0.00000000000E+00 0.  1.
         12    1    4    4    0    0 -0.40957604879E+02 -0.22972999777E+02  0.54640690507E+02  0.72047825611E+02  0.00000000000E+00 0. -1.
        -11    1    3    3    0    0  0.72665490030E+02  0.50508243356E+02  0.38432634707E+03  0.39438318568E+03  0.00000000000E+00 0.  1.
         11    1    3    3    0    0 -0.99509134343E+01 -0.23252253325E+02  0.13896629150E+03  0.14124913499E+03  0.00000000000E+00 0. -1.
         21    1    1    2  502  501  0.36117721464E+02 -0.54334192819E+02  0.15585247048E+03  0.16895764815E+03  0.00000000000E+00 0.  1.
<scales pt_clust_5="13000.00000" pt_clust_6="13000.00000" pt_clust_7="13000.00000" pt_clust_8="13000.00000" pt_clust_9="65.24335"></scales>
<clustering>
<clus scale="   65.243">  2  9  1 -1</clus>
<clus scale="   78.718">  5  6 -1 -1</clus>
<clus scale="   91.601">  7  8 -1 -1</clus>
<clus scale="  107.817">  2  5  1 -1</clus>
<clus scale="   65.243">  2  5  1 -1</clus>
</clustering>
</event>
<event>
 9    2  0.2984928E-005  0.1522809E+03  0.7546771E-02  0.1198938E+00
          2   -1    0    0  502    0  0.00000000000E+00  0.00000000000E+00  0.47637021635E+03  0.47637021635E+03  0.00000000000E+00 0. -1.
         -1   -1    0    0    0  501 -0.00000000000E+00 -0.00000000000E+00 -0.12013271990E+03  0.12013271990E+03  0.00000000000E+00 0.  1.
         24    2    1    2    0    0 -0.10961604230E+03  0.49452814585E+02 -0.37505035741E+02  0.15153598673E+03  0.84233425487E+02 0.  0.
         23    2    1    2    0    0  0.10237538812E+03 -0.91354920238E+02  0.31175974775E+03  0.35261225027E+03  0.91185619342E+02 0.  0.
        -11    1    3    3    0    0 -0.11122321156E+03  0.66567260650E+02 -0.33677652117E+02  0.13392530467E+03  0.00000000000E+00 0.  1.
         12    1    3    3    0    0  0.16071692600E+01 -0.17114446065E+02 -0.38273836238E+01  0.17610682058E+02  0.00000000000E+00 0. -1.
        -13    1    4    4    0    0  0.10799247687E+03 -0.56428441655E+02  0.18912581970E+03  0.22497804285E+03  0.00000000000E+00 0. -1.
         13    1    4    4    0    0 -0.56170887536E+01 -0.34926478583E+02  0.12263392806E+03  0.12763420742E+03  0.00000000000E+00 0.  1.
         21    1    1    2  502  501  0.72406541752E+01  0.41902105652E+02  0.81982784438E+02  0.92354699259E+02  0.00000000000E+00 0. -1.
<scales pt_clust_5="13000.00000" pt_clust_6="13000.00000" pt_clust_7="13000.00000" pt_clust_8="13000.00000" pt_clust_9="42.52309"></scales>
<clustering>
<clus scale="   42.523">  1  9  2 -1</clus>
<clus scale="   84.233">  5  6 -1 -1</clus>
<clus scale="   91.186">  7  8 -1 -1</clus>
<clus scale="  148.223">  2  5  1 -1</clus>
<clus scale="   42.523">  1  5  2 -1</clus>
</clustering>
</event>
<event>
 9    2  0.2984928E-005  0.2265050E+03  0.7546771E-02  0.1130084E+00
          2   -1    0    0  502    0  0.00000000000E+00  0.00000000000E+00  0.87792350135E+03  0.87792350135E+03  0.00000000000E+00 0. -1.
         -1   -1    0    0    0  501 -0.00000000000E+00 -0.00000000000E+00 -0.75488792636E+02  0.75488792636E+02  0.00000000000E+00 0.  1.
         23    2    1    2    0    0  0.18646955409E+03  0.72892470595E+02  0.19570693322E+03  0.29533089854E+03  0.93994303281E+02 0.  0.
         24    2    1    2    0    0 -0.20519990728E+03 -0.79941002661E+02  0.56806363460E+03  0.61454493112E+03  0.80446339630E+02 0.  0.
        -13    1    4    4    0    0 -0.39389659507E+02  0.13041559159E+02  0.69183021922E+02  0.80671668283E+02  0.00000000000E+00 0.  1.
         14    1    4    4    0    0 -0.16581024777E+03 -0.92982561819E+02  0.49888061268E+03  0.53387326284E+03  0.00000000000E+00 0. -1.
        -11    1    3    3    0    0  0.60215060543E+02  0.47060296675E+02  0.22935078449E+02  0.79790618890E+02  0.00000000000E+00 0.  1.
         11    1    3    3    0    0  0.12625449355E+03  0.25832173920E+02  0.17277185477E+03  0.21554027965E+03  0.00000000000E+00 0. -1.
         21    1    1    2  502  501  0.18730353183E+02  0.70485320656E+01  0.38664140891E+02  0.43536464320E+02  0.00000000000E+00 0. -1.
<scales pt_clust_5="13000.00000" pt_clust_6="13000.00000" pt_clust_7="13000.00000" pt_clust_8="13000.00000" pt_clust_9="20.01269"></scales>
<clustering>
<clus scale="   20.013">  1  9  2 -1</clus>
<clus scale="   80.446">  5  6 -1 -1</clus>
<clus scale="   93.994">  7  8 -1 -1</clus>
<clus scale="  221.227">  1  5  2 -1</clus>
<clus scale="   20.013">  1  5  2 -1</clus>
</clustering>
</event>
<event>
 9    2  0.2984928E-005  0.9277183E+02  0.7546771E-02  0.1301667E+00
          2   -1    0    0  502    0  0.00000000000E+00  0.00000000000E+00  0.15910292274E+03  0.15910292274E+03  0.00000000000E+00 0. -1.
         -1   -1    0    0    0  501 -0.00000000000E+00 -0.00000000000E+00 -0.12962062661E+03  0.12962062661E+03  0.00000000000E+00 0.  1.
         23    2    1    2    0    0 -0.16187819888E+01 -0.27070658419E+02 -0.79457348795E+02  0.12314434833E+03  0.90086731797E+02 0.  0.
         24    2    1    2    0    0 -0.22755357880E+02 -0.24343003277E+01  0.88714848647E+02  0.12229313317E+03  0.81003419189E+02 0.  0.
        -13    1    4    4    0    0 -0.47807803787E+02 -0.10294687185E+02  0.81528480653E+02  0.95070814895E+02  0.00000000000E+00 0.  1.
         14    1    4    4    0    0  0.25052445907E+02  0.78603868570E+01  0.71863679941E+01  0.27222318277E+02  0.00000000000E+00 0. -1.
        -11    1    3    3    0    0 -0.28823649607E+02 -0.75989657190E+01 -0.84231326501E+02  0.89350228992E+02  0.00000000000E+00 0.  1.
         11    1    3    3    0    0  0.27204867618E+02 -0.19471692700E+02  0.47739777067E+01  0.33794119339E+02  0.00000000000E+00 0. -1.
         21    1    1    2  502  501  0.24374139869E+02  0.29504958747E+02  0.20224796286E+02  0.43286067849E+02  0.00000000000E+00 0. -1.
<scales pt_clust_5="13000.00000" pt_clust_6="13000.00000" pt_clust_7="13000.00000" pt_clust_8="13000.00000" pt_clust_9="38.27063"></scales>
<clustering>
<clus scale="   38.271">  1  9  2 -1</clus>
<clus scale="   81.003">  5  6 -1 -1</clus>
<clus scale="   83.979">  1  5  2 -1</clus>
<clus scale="   90.087">  7  8 -1 -1</clus>
<clus scale="   38.271">  1  5  2 -1</clus>
</clustering>
</event>
<event>
 9    2  0.2984928E-005  0.9101479E+02  0.7546771E-02  0.1304413E+00
          2   -1    0    0  502    0  0.00000000000E+00  0.00000000000E+00  0.42625342876E+03  0.42625342876E+03  0.00000000000E+00 0. -1.
         -1   -1    0    0    0  501 -0.00000000000E+00 -0.00000000000E+00 -0.32762744801E+02  0.32762744801E+02  0.00000000000E+00 0.  1.
         24    2    1    2    0    0 -0.10139493284E+02  0.26208318051E+02  0.55070146702E+02  0.10210485803E+03  0.81258819315E+02 0.  0.
         23    2    1    2    0    0  0.13036565181E+02 -0.33432550269E+01  0.24391016085E+03  0.25963122825E+03  0.87949296365E+02 0.  0.
        -11    1    3    3    0    0  0.70289523144E+01  0.51948177818E+02  0.46312695495E+02  0.69949160919E+02  0.00000000000E+00 0.  1.
         12    1    3    3    0    0 -0.17168445598E+02 -0.25739859766E+02  0.87574512069E+01  0.32155697111E+02  0.00000000000E+00 0. -1.
        -13    1    4    4    0    0  0.30591230309E+02  0.31062879527E+02  0.78731697849E+02  0.89996700509E+02  0.00000000000E+00 0.  1.
         13    1    4    4    0    0 -0.17554665128E+02 -0.34406134554E+02  0.16517846300E+03  0.16963452774E+03  0.00000000000E+00 0. -1.
         21    1    1    2  502  501 -0.28970718973E+01 -0.22865063025E+02  0.94510376408E+02  0.97280087282E+02  0.00000000000E+00 0. -1.
<scales pt_clust_5="13000.00000" pt_clust_6="13000.00000" pt_clust_7="13000.00000" pt_clust_8="13000.00000" pt_clust_9="23.04787"></scales>
<clustering>
<clus scale="   23.048">  1  9  2 -1</clus>
<clus scale="   81.259">  5  6 -1 -1</clus>
<clus scale="   84.567">  2  5  1 -1</clus>
<clus scale="   87.949">  7  8 -1 -1</clus>
<clus scale="   23.048">  1  5  2 -1</clus>
</clustering>
</event>
<event>
 9    2  0.2984928E-005  0.9441261E+02  0.7546771E-02  0.1293474E+00
          2   -1    0    0  502    0  0.00000000000E+00  0.00000000000E+00  0.35106799885E+03  0.35106799885E+03  0.00000000000E+00 0. -1.
         -1   -1    0    0    0  501 -0.00000000000E+00 -0.00000000000E+00 -0.21541320130E+03  0.21541320130E+03  0.00000000000E+00 0.  1.
         23    2    1    2    0    0 -0.78979426645E+00  0.27043225608E+02 -0.19339894625E+03  0.21515230260E+03  0.90307259262E+02 0.  0.
         24    2    1    2    0    0 -0.18167190025E+02 -0.40643735123E+02  0.27972082810E+03  0.29675713118E+03  0.88538653931E+02 0.  0.
        -13    1    4    4    0    0  0.20550828664E+02 -0.42655675074E+02  0.77234758091E+02  0.90592775828E+02  0.00000000000E+00 0.  1.
         14    1    4    4    0    0 -0.38718018689E+02  0.20119399508E+01  0.20248607000E+03  0.20616435536E+03  0.00000000000E+00 0. -1.
        -13    1    3    3    0    0 -0.26848342063E+02 -0.81938356143E+01 -0.15297840260E+03  0.15553251775E+03  0.00000000000E+00 0.  1.
         13    1    3    3    0    0  0.26058547797E+02  0.35237061222E+02 -0.40420543651E+02  0.59619784852E+02  0.00000000000E+00 0. -1.
         21    1    1    2  502  501  0.18956984291E+02  0.13600509516E+02  0.49332915705E+02  0.54571766368E+02  0.00000000000E+00 0.  1.
<scales pt_clust_5="13000.00000" pt_clust_6="13000.00000" pt_clust_7="13000.00000" pt_clust_8="13000.00000" pt_clust_9="23.33112"></scales>
<clustering>
<clus scale="   23.331">  1  9  2 -1</clus>
<clus scale="   88.539">  5  6 -1 -1</clus>
<clus scale="   90.307">  7  8 -1 -1</clus>
<clus scale="   92.722">  1  5  2 -1</clus>
<clus scale="   23.331">  1  5  2 -1</clus>
</clustering>
</event>
<event>
 9    2  0.2984928E-005  0.9394764E+02  0.7546771E-02  0.1297874E+00
          2   -1    0    0  502    0  0.00000000000E+00  0.00000000000E+00  0.40147518829E+03  0.40147518829E+03  0.00000000000E+00 0. -1.
         -1   -1    0    0    0  501 -0.00000000000E+00 -0.00000000000E+00 -0.77743207911E+02  0.77743207911E+02  0.00000000000E+00 0.  1.
         23    2    1    2    0    0  0.31976154561E+02 -0.15418413676E+02 -0.32331488097E+02  0.10052114693E+03  0.88311799414E+02 0.  0.
         24    2    1    2    0    0  0.84758651348E+01  0.22937608754E+02  0.27770922533E+03  0.29019701418E+03  0.80584856043E+02 0.  0.
        -13    1    4    4    0    0  0.23957426691E+02 -0.24134263802E+02  0.95672065959E+02  0.10153602901E+03  0.00000000000E+00 0.  1.
         14    1    4    4    0    0 -0.15481561556E+02  0.47071872556E+02  0.18203715937E+03  0.18866098517E+03  0.00000000000E+00 0. -1.
        -11    1    3    3    0    0 -0.16768719351E+02  0.22462619205E+02  0.48606874149E+01  0.28449701095E+02  0.00000000000E+00 0. -1.
         11    1    3    3    0    0  0.48744873912E+02 -0.37881032881E+02 -0.37192175512E+02  0.72071445831E+02  0.00000000000E+00 0.  1.
         21    1    1    2  502  501 -0.40452019696E+02 -0.75191950780E+01  0.78354243145E+02  0.88500235089E+02  0.00000000000E+00 0. -1.
<scales pt_clust_5="13000.00000" pt_clust_6="13000.00000" pt_clust_7="13000.00000" pt_clust_8="13000.00000" pt_clust_9="41.14492"></scales>
<clustering>
<clus scale="   41.145">  1  9  2 -1</clus>
<clus scale="   80.585">  5  6 -1 -1</clus>
<clus scale="   86.724">  1  5  2 -1</clus>
<clus scale="   88.312">  7  8 -1 -1</clus>
<clus scale="   41.145">  1  5  2 -1</clus>
</clustering>
</event>
<event>
 9    2  0.2984928E-005  0.9560893E+02  0.7546771E-02  0.1296248E+00
          2   -1    0    0  502    0  0.00000000000E+00  0.00000000000E+00  0.26926016257E+03  0.26926016257E+03  0.00000000000E+00 0. -1.
         -1   -1    0    0    0  501 -0.00000000000E+00 -0.00000000000E+00 -0.98229507928E+02  0.98229507928E+02  0.00000000000E+00 0.  1.
         23    2    1    2    0    0  0.30031565105E+02  0.33214698003E+02 -0.12718796461E+02  0.10237031507E+03  0.91174571879E+02 0.  0.
         24    2    1    2    0    0  0.39063145962E+02 -0.24672498965E+01  0.16468703677E+03  0.18712666153E+03  0.79765598352E+02 0.  0.
        -13    1    4    4    0    0  0.44416362950E+02  0.29583747033E+02  0.77642604004E+02  0.94214570756E+02  0.00000000000E+00 0.  1.
         14    1    4    4    0    0 -0.53532169881E+01 -0.32050996929E+02  0.87044432766E+02  0.92912090773E+02  0.00000000000E+00 0. -1.
        -13    1    3    3    0    0  0.11218997294E+02  0.64185222485E+02 -0.11104902749E+02  0.66097863436E+02  0.00000000000E+00 0.  1.
         13    1    3    3    0    0  0.18812567810E+02 -0.30970524483E+02 -0.16138937127E+01  0.36272451630E+02  0.00000000000E+00 0. -1.
         21    1    1    2  502  501 -0.69094711066E+02 -0.30747448106E+02  0.19062414338E+02  0.77992693906E+02  0.00000000000E+00 0.  1.
<scales pt_clust_5="13000.00000" pt_clust_6="13000.00000" pt_clust_7="13000.00000" pt_clust_8="13000.00000" pt_clust_9="75.62727"></scales>
<clustering>
<clus scale="   75.627">  2  9  1 -1</clus>
<clus scale="   79.766">  5  6 -1 -1</clus>
<clus scale="   84.799">  1  5  2 -1</clus>
<clus scale="   91.175">  7  8 -1 -1</clus>
<clus scale="   84.799">  1  5  2 -1</clus>
</clustering>
</event>
<event>
 9    2  0.2984928E-005  0.1093563E+03  0.7546771E-02  0.1265404E+00
          2   -1    0    0  502    0  0.00000000000E+00  0.00000000000E+00  0.95990729543E+03  0.95990729543E+03  0.00000000000E+00 0. -1.
         -1   -1    0    0    0  501 -0.00000000000E+00 -0.00000000000E+00 -0.28175320832E+02  0.28175320832E+02  0.00000000000E+00 0.  1.
         23    2    1    2    0    0  0.83613906225E+02  0.12917734708E+02  0.16120232538E+03  0.20313976646E+03  0.90118931559E+02 0.  0.
         24    2    1    2    0    0 -0.58327294517E+02  0.40535479721E+01  0.71207247704E+03  0.71902867723E+03  0.80848757414E+02 0.  0.
        -13    1    4    4    0    0 -0.37480524536E+02 -0.24972766011E+02  0.17278269581E+03  0.17855612209E+03  0.00000000000E+00 0.  1.
         14    1    4    4    0    0 -0.20846769982E+02  0.29026313983E+02  0.53928978123E+03  0.54047255514E+03  0.00000000000E+00 0. -1.
        -13    1    3    3    0    0  0.67777380782E+02  0.48028319421E+02  0.12625296493E+03  0.15113008954E+03  0.00000000000E+00 0. -1.
         13    1    3    3    0    0  0.15836525443E+02 -0.35110584713E+02  0.34949360451E+02  0.52009676916E+02  0.00000000000E+00 0.  1.
         21    1    1    2  502  501 -0.25286611707E+02 -0.16971282680E+02  0.58457172173E+02  0.65914172573E+02  0.00000000000E+00 0.  1.
<scales pt_clust_5="13000.00000" pt_clust_6="13000.00000" pt_clust_7="13000.00000" pt_clust_8="13000.00000" pt_clust_9="30.45385"></scales>
<clustering>
<clus scale="   30.454">  2  9  1 -1</clus>
<clus scale="   80.849">  5  6 -1 -1</clus>
<clus scale="   90.119">  7  8 -1 -1</clus>
<clus scale="  101.852">  1  5  2 -1</clus>
<clus scale="  101.852">  1  5  2 -1</clus>
</clustering>
</event>
<event>
 9    2  0.2984928E-005  0.1261951E+03  0.7546771E-02  0.1237649E+00
          4   -1    0    0  502    0  0.00000000000E+00  0.00000000000E+00  0.75747998918E+02  0.75747998918E+02  0.00000000000E+00 0. -1.
         -3   -1    0    0    0  501 -0.00000000000E+00 -0.00000000000E+00 -0.52446574168E+03  0.52446574168E+03  0.00000000000E+00 0.  1.
         24    2    1    2    0    0  0.54180098395E+02  0.64641261372E+02 -0.40847710550E+03  0.42425860901E+03  0.77639203154E+02 0.  0.
         23    2    1    2    0    0 -0.33972696595E+02 -0.89925843334E+02 -0.14540306008E+02  0.13462528524E+03  0.93122207420E+02 0.  0.
        -13    1    3    3    0    0 -0.31534415919E+01  0.55865470892E+02 -0.22371598371E+03  0.23060732078E+03  0.00000000000E+00 0.  1.
         14    1    3    3    0    0  0.57333539987E+02  0.87757904806E+01 -0.18476112179E+03  0.19365128823E+03  0.00000000000E+00 0. -1.
        -11    1    4    4    0    0  0.24540651281E+02 -0.64852844305E+02 -0.62597186793E-01  0.69340744863E+02  0.00000000000E+00 0. -1.
         11    1    4    4    0    0 -0.58513347876E+02 -0.25072999029E+02 -0.14477708821E+02  0.65284540380E+02  0.00000000000E+00 0.  1.
         21    1    1    2  502  501 -0.20207401800E+02  0.25284581962E+02 -0.25700331258E+02  0.41329846349E+02  0.00000000000E+00 0. -1.
<scales pt_clust_5="13000.00000" pt_clust_6="13000.00000" pt_clust_7="13000.00000" pt_clust_8="13000.00000" pt_clust_9="32.36741"></scales>
<clustering>
<clus scale="   32.367">  1  9  2 -1</clus>
<clus scale="   77.639">  5  6 -1 -1</clus>
<clus scale="   93.122">  7  8 -1 -1</clus>
<clus scale="  115.245">  2  5  1 -1</clus>
<clus scale="   32.367">  1  5  2 -1</clus>
</clustering>
</event>
<event>
 9    2  0.2984928E-005  0.1245163E+03  0.7546771E-02  0.1238541E+00
          2   -1    0    0  502    0  0.00000000000E+00  0.00000000000E+00  0.13381103604E+03  0.13381103604E+03  0.00000000000E+00 0. -1.
         -1   -1    0    0    0  501 -0.00000000000E+00 -0.00000000000E+00 -0.29880756504E+03  0.29880756504E+03  0.00000000000E+00 0.  1.
         23    2    1    2    0    0  0.61357888538E+02  0.53748474520E+02 -0.22222137797E+03  0.25325482344E+03  0.90010975815E+02 0.  0.
         24    2    1    2    0    0 -0.85307783065E+02 -0.71306512739E+02  0.33315939180E+02  0.14123874490E+03  0.80476050152E+02 0.  0.
        -13    1    4    4    0    0 -0.49942859692E+02 -0.63815419617E+02 -0.13435542268E+02  0.82141407409E+02  0.00000000000E+00 0.  1.
         14    1    4    4    0    0 -0.35364923373E+02 -0.74910931217E+01  0.46751481448E+02  0.59097337494E+02  0.00000000000E+00 0. -1.
        -13    1    3    3    0    0  0.62102525336E+02 -0.28273088029E+01 -0.14275008033E+03  0.15569939872E+03  0.00000000000E+00 0. -1.
         13    1    3    3    0    0 -0.74463679760E+00  0.56575783322E+02 -0.79471297647E+02  0.97555424720E+02  0.00000000000E+00 0.  1.
         21    1    1    2  502  501  0.23949894527E+02  0.17558038219E+02  0.23908909787E+02  0.38125032737E+02  0.00000000000E+00 0. -1.
<scales pt_clust_5="13000.00000" pt_clust_6="13000.00000" pt_clust_7="13000.00000" pt_clust_8="13000.00000" pt_clust_9="29.69650"></scales>
<clustering>
<clus scale="   29.697">  1  9  2 -1</clus>
<clus scale="   80.476">  5  6 -1 -1</clus>
<clus scale="   90.011">  7  8 -1 -1</clus>
<clus scale="  117.808">  1  5  2 -1</clus>
<clus scale="   29.697">  1  5  2 -1</clus>
</clustering>
</event>
<event>
 9    2  0.2984928E-005  0.1700354E+03  0.7546771E-02  0.1211744E+00
          2   -1    0    0  502    0  0.00000000000E+00  0.00000000000E+00  0.85909588718E+03  0.85909588718E+03  0.00000000000E+00 0. -1.
         -1   -1    0    0    0  501 -0.00000000000E+00 -0.00000000000E+00 -0.93305068321E+02  0.93305068321E+02  0.00000000000E+00 0.  1.
         23    2    1    2    0    0 -0.13437137448E+02 -0.14171858091E+03  0.10471803150E+03  0.19945361555E+03  0.92472513723E+02 0.  0.
         24    2    1    2    0    0  0.38727503826E+01 -0.93902212366E+00  0.58583121643E+03  0.59138013041E+03  0.80724002264E+02 0.  0.
        -11    1    4    4    0    0 -0.13854712807E+02 -0.32838565967E+02  0.15680969388E+03  0.16080921794E+03  0.00000000000E+00 0.  1.
         12    1    4    4    0    0  0.17727463189E+02  0.31899543843E+02  0.42902152256E+03  0.43057091247E+03  0.00000000000E+00 0. -1.
        -13    1    3    3    0    0 -0.46291911551E+02 -0.12052150795E+03  0.68478445970E+02  0.14614264441E+03  0.00000000000E+00 0.  1.
         13    1    3    3    0    0  0.32854774104E+02 -0.21197072961E+02  0.36239585531E+02  0.53310971131E+02  0.00000000000E+00 0. -1.
         21    1    1    2  502  501  0.95643870650E+01  0.14265760304E+03  0.75241570920E+02  0.16156720954E+03  0.00000000000E+00 0.  1.
<scales pt_clust_5="13000.00000" pt_clust_6="13000.00000" pt_clust_7="13000.00000" pt_clust_8="13000.00000" pt_clust_9="142.69149"></scales>
<clustering>
<clus scale="   80.724">  5  6 -1 -1</clus>
<clus scale="   80.822">  1  5  2 -1</clus>
<clus scale="   92.473">  7  8 -1 -1</clus>
<clus scale="  142.691">  2  9  1 -1</clus>
<clus scale="   80.822">  1  5  2 -1</clus>
</clustering>
</event>
<event>
 9    2  0.2984928E-005  0.2443188E+03  0.7546771E-02  0.1117528E+00
          2   -1    0    0  502    0  0.00000000000E+00  0.00000000000E+00  0.41889996092E+03  0.41889996092E+03  0.00000000000E+00 0. -1.
         -1   -1    0    0    0  501 -0.00000000000E+00 -0.00000000000E+00 -0.20237461718E+03  0.20237461718E+03  0.00000000000E+00 0.  1.
         23    2    1    2    0    0 -0.74065490529E+02  0.19154425627E+03 -0.49782833164E+02  0.22995421915E+03  0.90695718924E+02 0.  0.
         24    2    1    2    0    0  0.70864489817E+02 -0.22369430098E+03  0.25799656986E+03  0.35795938486E+03  0.80695569520E+02 0.  0.
        -11    1    4    4    0    0  0.70865336525E+01 -0.10635561899E+03  0.16023558798E+03  0.19245046195E+03  0.00000000000E+00 0.  1.
         12    1    4    4    0    0  0.63777956165E+02 -0.11733868199E+03  0.97760981881E+02  0.16550892291E+03  0.00000000000E+00 0. -1.
        -13    1    3    3    0    0 -0.94082350512E+02  0.13896793817E+03 -0.31116193252E+02  0.17068038552E+03  0.00000000000E+00 0. -1.
         13    1    3    3    0    0  0.20016859983E+02  0.52576318096E+02 -0.18666639912E+02  0.59273833634E+02  0.00000000000E+00 0.  1.
         21    1    1    2  502  501  0.32010007114E+01  0.32150044712E+02  0.83116070462E+01  0.33360974090E+02  0.00000000000E+00 0.  1.
<scales pt_clust_5="13000.00000" pt_clust_6="13000.00000" pt_clust_7="13000.00000" pt_clust_8="13000.00000" pt_clust_9="32.30900"></scales>
<clustering>
<clus scale="   32.309">  2  9  1 -1</clus>
<clus scale="   80.696">  5  6 -1 -1</clus>
<clus scale="   90.696">  7  8 -1 -1</clus>
<clus scale="  240.786">  1  5  2 -1</clus>
<clus scale="  240.786">  1  5  2 -1</clus>
</clustering>
</event>
<event>
 9    2  0.2984928E-005  0.9293646E+02  0.7546771E-02  0.1303678E+00
          2   -1    0    0  502    0  0.00000000000E+00  0.00000000000E+00  0.12783699893E+03  0.12783699893E+03  0.00000000000E+00 0. -1.
         -1   -1    0    0    0  501 -0.00000000000E+00 -0.00000000000E+00 -0.17279650260E+03  0.17279650260E+03  0.00000000000E+00 0.  1.
         23    2    1    2    0    0  0.42578480504E+01 -0.77006823995E+01 -0.13150451376E+03  0.16086539013E+03  0.92232352364E+02 0.  0.
         24    2    1    2    0    0 -0.41829511328E+01  0.29912919298E+02  0.79278605735E+02  0.11639740946E+03  0.79693034703E+02 0.  0.
        -11    1    4    4    0    0  0.98131027089E+00  0.56379826720E+02  0.41643413666E+02  0.70098657138E+02  0.00000000000E+00 0.  1.
         12    1    4    4    0    0 -0.51642614037E+01 -0.26466907422E+02  0.37635192069E+02  0.46298752320E+02  0.00000000000E+00 0. -1.
        -13    1    3    3    0    0 -0.94293575417E+01 -0.33261811829E+02 -0.12687755366E+03  0.13150351528E+03  0.00000000000E+00 0. -1.
         13    1    3    3    0    0  0.13687205592E+02  0.25561129430E+02 -0.46269601019E+01  0.29361874845E+02  0.00000000000E+00 0.  1.
         21    1    1    2  502  501 -0.74896917580E-01 -0.22212236899E+02  0.72664043503E+01  0.23370701953E+02  0.00000000000E+00 0. -1.
<scales pt_clust_5="13000.00000" pt_clust_6="13000.00000" pt_clust_7="13000.00000" pt_clust_8="13000.00000" pt_clust_9="22.21236"></scales>
<clustering>
<clus scale="   22.212">  1  9  2 -1</clus>
<clus scale="   79.693">  5  6 -1 -1</clus>
<clus scale="   80.507">  1  5  2 -1</clus>
<clus scale="   92.232">  7  8 -1 -1</clus>
<clus scale="   22.212">  1  5  2 -1</clus>
</clustering>
</event>
<event>
 9    2  0.2984928E-005  0.9803211E+02  0.7546771E-02  0.1292509E+00
          2   -1    0    0  502    0  0.00000000000E+00  0.00000000000E+00  0.33412864675E+03  0.33412864675E+03  0.00000000000E+00 0. -1.
         -1   -1    0    0    0  501 -0.00000000000E+00 -0.00000000000E+00 -0.45112365207E+02  0.45112365207E+02  0.00000000000E+00 0.  1.
         24    2    1    2    0    0  0.11903571787E+02  0.23027982967E+02  0.23855254561E+02  0.88664096459E+02  0.81365015885E+02 0.  0.
         23    2    1    2    0    0 -0.11067114196E+02 -0.99581348183E+00  0.22673007422E+03  0.24627054706E+03  0.95494414156E+02 0.  0.
        -11    1    3    3    0    0  0.42937546565E+02  0.10849142287E+02 -0.50055964511E+01  0.44568966660E+02  0.00000000000E+00 0.  1.
         12    1    3    3    0    0 -0.31033974778E+02  0.12178840680E+02  0.28860851013E+02  0.44095129799E+02  0.00000000000E+00 0. -1.
        -11    1    4    4    0    0 -0.52850802567E+02 -0.83470993961E+01  0.11837292693E+03  0.12990393077E+03  0.00000000000E+00 0. -1.
         11    1    4    4    0    0  0.41783688371E+02  0.73512859143E+01  0.10835714729E+03  0.11636661629E+03  0.00000000000E+00 0.  1.
         21    1    1    2  502  501 -0.83645759125E+00 -0.22032169485E+02  0.38430952759E+02  0.44306368431E+02  0.00000000000E+00 0. -1.
<scales pt_clust_5="13000.00000" pt_clust_6="13000.00000" pt_clust_7="13000.00000" pt_clust_8="13000.00000" pt_clust_9="22.04804"></scales>
<clustering>
<clus scale="   22.048">  1  9  2 -1</clus>
<clus scale="   81.365">  5  6 -1 -1</clus>
<clus scale="   84.329">  2  5  1 -1</clus>
<clus scale="   95.494">  7  8 -1 -1</clus>
<clus scale="   22.048">  1  5  2 -1</clus>
</clustering>
</event>
<event>
 9    2  0.2984928E-005  0.1081497E+03  0.7546771E-02  0.1274488E+00
          2   -1    0    0  502    0  0.00000000000E+00  0.00000000000E+00  0.80012354304E+03  0.80012354304E+03  0.00000000000E+00 0. -1.
         -1   -1    0    0    0  501 -0.00000000000E+00 -0.00000000000E+00 -0.38893231262E+02  0.38893231262E+02  0.00000000000E+00 0.  1.
         23    2    1    2    0    0  0.36467427795E+02 -0.36203031917E+02  0.78781288295E+02  0.13067392994E+03  0.90711916360E+02 0.  0.
         24    2    1    2    0    0  0.28295840457E+02 -0.29145121428E+02  0.22470372548E+03  0.24144304794E+03  0.78440349712E+02 0.  0.
        -11    1    4    4    0    0 -0.12295398872E+02 -0.16853106050E+02  0.11024333115E+02  0.23595337200E+02  0.00000000000E+00 0.  1.
         12    1    4    4    0    0  0.40591239329E+02 -0.12292015378E+02  0.21367939237E+03  0.21784771074E+03  0.00000000000E+00 0. -1.
        -13    1    3    3    0    0  0.51678694816E+02  0.27712415844E+01  0.71410688912E+02  0.88192141196E+02  0.00000000000E+00 0. -1.
         13    1    3    3    0    0 -0.15211267021E+02 -0.38974273502E+02  0.73705993827E+01  0.42481788741E+02  0.00000000000E+00 0.  1.
         21    1    1    2  502  501 -0.64763268252E+02  0.65348153345E+02  0.45774529800E+03  0.46689979642E+03  0.00000000000E+00 0. -1.
<scales pt_clust_5="13000.00000" pt_clust_6="13000.00000" pt_clust_7="13000.00000" pt_clust_8="13000.00000" pt_clust_9="58.88729"></scales>
<clustering>
<clus scale="   78.440">  5  6 -1 -1</clus>
<clus scale="   88.334">  1  5  2 -1</clus>
<clus scale="   58.887">  1  9  2 -1</clus>
<clus scale="   90.712">  7  8 -1 -1</clus>
<clus scale="   88.334">  1  5  2 -1</clus>
</clustering>
</event>
<event>
 9    2  0.2984928E-005  0.1122583E+03  0.7546771E-02  0.1260370E+00
          2   -1    0    0  502    0  0.00000000000E+00  0.00000000000E+00  0.10091725583E+03  0.10091725583E+03  0.00000000000E+00 0. -1.
         -1   -1    0    0    0  501 -0.00000000000E+00 -0.00000000000E+00 -0.51107230713E+03  0.51107230713E+03  0.00000000000E+00 0.  1.
         24    2    1    2    0    0 -0.33151291339E+01  0.65725669466E+02 -0.40950438830E+03  0.42270164401E+03  0.81559684323E+02 0.  0.
         23    2    1    2    0    0 -0.17319746257E+02 -0.57685370981E+02 -0.60491484112E+02  0.12548064387E+03  0.91970629547E+02 0.  0.
        -13    1    3    3    0    0 -0.18262825727E+02  0.70972951900E+02 -0.39318958077E+03  0.39996091951E+03  0.00000000000E+00 0.  1.
         14    1    3    3    0    0  0.14947696593E+02 -0.52472824345E+01 -0.16314807526E+02  0.22740724505E+02  0.00000000000E+00 0. -1.
        -13    1    4    4    0    0  0.20005316396E+01 -0.63861983912E+02 -0.76477165745E+02  0.99654964735E+02  0.00000000000E+00 0.  1.
         13    1    4    4    0    0 -0.19320277896E+02  0.61766129308E+01  0.15985681633E+02  0.25825679130E+02  0.00000000000E+00 0. -1.
         21    1    1    2  502  501  0.20634875391E+02 -0.80402984848E+01  0.59840821107E+02  0.63807275078E+02  0.00000000000E+00 0. -1.
<scales pt_clust_5="13000.00000" pt_clust_6="13000.00000" pt_clust_7="13000.00000" pt_clust_8="13000.00000" pt_clust_9="22.14598"></scales>
<clustering>
<clus scale="   22.146">  1  9  2 -1</clus>
<clus scale="   81.560">  5  6 -1 -1</clus>
<clus scale="   91.971">  7  8 -1 -1</clus>
<clus scale="  103.901">  2  5  1 -1</clus>
<clus scale="   22.146">  1  5  2 -1</clus>
</clustering>
</event>
<event>
 9    2  0.2984928E-005  0.1106520E+03  0.7546771E-02  0.1262487E+00
         -3   -1    0    0    0  501 -0.00000000000E+00  0.00000000000E+00  0.10461628103E+03  0.10461628103E+03  0.00000000000E+00 0.  1.
          4   -1    0    0  502    0  0.00000000000E+00 -0.00000000000E+00 -0.51446230842E+03  0.51446230842E+03  0.00000000000E+00 0. -1.
         23    2    1    2    0    0  0.60592102103E+02  0.44379728532E+02  0.43688423939E+02  0.12484904365E+03  0.89652898296E+02 0.  0.
         24    2    1    2    0    0  0.36355094360E+02 -0.41261034838E+02 -0.25496617705E+03  0.27323668460E+03  0.81402509087E+02 0.  0.
        -13    1    4    4    0    0 -0.26088024664E+02 -0.11884879612E+02 -0.62133037403E+02  0.68427697105E+02  0.00000000000E+00 0.  1.
         14    1    4    4    0    0  0.62443119024E+02 -0.29376155226E+02 -0.19283313965E+03  0.20480898749E+03  0.00000000000E+00 0. -1.
        -13    1    3    3    0    0  0.11682922651E+02  0.41246383426E+02 -0.17628919514E+02  0.46352277513E+02  0.00000000000E+00 0. -1.
         13    1    3    3    0    0  0.48909179451E+02  0.31333451053E+01  0.61317343453E+02  0.78496766139E+02  0.00000000000E+00 0.  1.
         21    1    1    2  502  501 -0.96947196463E+02 -0.31186936934E+01 -0.19856827428E+03  0.22099286120E+03  0.00000000000E+00 0. -1.
<scales pt_clust_5="13000.00000" pt_clust_6="13000.00000" pt_clust_7="13000.00000" pt_clust_8="13000.00000" pt_clust_9="96.99735"></scales>
<clustering>
<clus scale="   81.403">  5  6 -1 -1</clus>
<clus scale="   89.653">  7  8 -1 -1</clus>
<clus scale="   96.997">  2  9  1 -1</clus>
<clus scale="  104.080">  2  5  1 -1</clus>
<clus scale="   96.997">  2  5  1 -1</clus>
</clustering>
</event>
<event>
 9    2  0.2984928E-005  0.4814025E+03  0.7546771E-02  0.1018801E+00
          2   -1    0    0  502    0  0.00000000000E+00  0.00000000000E+00  0.24058918781E+04  0.24058918781E+04  0.00000000000E+00 0. -1.
         -1   -1    0    0    0  501 -0.00000000000E+00 -0.00000000000E+00 -0.16554072434E+03  0.16554072434E+03  0.00000000000E+00 0.  1.
         24    2    1    2    0    0  0.44979623785E+03  0.76195255055E+02  0.42112204901E+03  0.62622548259E+03  0.81805882470E+02 0.  0.
         23    2    1    2    0    0 -0.53070278481E+03  0.46112745976E+02  0.13602849601E+04  0.14634033793E+04  0.86037473411E+02 0.  0.
        -11    1    3    3    0    0  0.44075985434E+03  0.86832448273E+02  0.40436603955E+03  0.60441791602E+03  0.00000000000E+00 0.  1.
         12    1    3    3    0    0  0.90363835109E+01 -0.10637193218E+02  0.16756009459E+02  0.21807566566E+02  0.00000000000E+00 0. -1.
        -11    1    4    4    0    0 -0.45308638172E+03  0.68880395629E+02  0.11346727440E+04  0.12237295511E+04  0.00000000000E+00 0. -1.
         11    1    4    4    0    0 -0.77616403087E+02 -0.22767649653E+02  0.22561221601E+03  0.23967382817E+03  0.00000000000E+00 0.  1.
         21    1    1    2  502  501  0.80906546958E+02 -0.12230800103E+03  0.45894414474E+03  0.48180374059E+03  0.00000000000E+00 0. -1.
<scales pt_clust_5="13000.00000" pt_clust_6="13000.00000" pt_clust_7="13000.00000" pt_clust_8="13000.00000" pt_clust_9="146.64623"></scales>
<clustering>
<clus scale="   81.806">  5  6 -1 -1</clus>
<clus scale="   86.037">  7  8 -1 -1</clus>
<clus scale="  146.646">  1  9  2 -1</clus>
<clus scale="  480.664">  2  5  1 -1</clus>
<clus scale="  146.646">  1  5  2 -1</clus>
</clustering>
</event>
<event>
 9    2  0.2984928E-005  0.1664157E+03  0.7546771E-02  0.1183425E+00
          2   -1    0    0  502    0  0.00000000000E+00  0.00000000000E+00  0.18523433106E+03  0.18523433106E+03  0.00000000000E+00 0. -1.
         -1   -1    0    0    0  501 -0.00000000000E+00 -0.00000000000E+00 -0.18606561927E+03  0.18606561927E+03  0.00000000000E+00 0.  1.
         24    2    1    2    0    0  0.32493072225E+02 -0.14326836626E+03 -0.60257324818E+02  0.17797732378E+03  0.80395012726E+02 0.  0.
         23    2    1    2    0    0 -0.35137392629E+02  0.11898932566E+03  0.34988366959E+02  0.15877318458E+03  0.92691112504E+02 0.  0.
        -11    1    3    3    0    0  0.56900928111E+02 -0.94989421755E+02 -0.25344078116E+02  0.11359149687E+03  0.00000000000E+00 0.  1.
         12    1    3    3    0    0 -0.24407855886E+02 -0.48278944505E+02 -0.34913246701E+02  0.64385826909E+02  0.00000000000E+00 0. -1.
        -13    1    4    4    0    0 -0.25940954899E+02  0.97271837636E+01 -0.21835530855E+02  0.35275227182E+02  0.00000000000E+00 0.  1.
         13    1    4    4    0    0 -0.91964377291E+01  0.10926214189E+03  0.56823897813E+02  0.12349795739E+03  0.00000000000E+00 0. -1.
         21    1    1    2  502  501  0.26443204041E+01  0.24279040604E+02  0.24437669644E+02  0.34549441973E+02  0.00000000000E+00 0. -1.
<scales pt_clust_5="13000.00000" pt_clust_6="13000.00000" pt_clust_7="13000.00000" pt_clust_8="13000.00000" pt_clust_9="24.42262"></scales>
<clustering>
<clus scale="   24.423">  1  9  2 -1</clus>
<clus scale="   80.395">  5  6 -1 -1</clus>
<clus scale="   92.691">  7  8 -1 -1</clus>
<clus scale="  159.893">  2  5  1 -1</clus>
<clus scale="   24.423">  1  5  2 -1</clus>
</clustering>
</event>
<event>
 9    2  0.2984928E-005  0.5720806E+03  0.7546771E-02  0.9966186E-01
         -1   -1    0    0    0  501 -0.00000000000E+00  0.00000000000E+00  0.41246120014E+03  0.41246120014E+03  0.00000000000E+00 0.  1.
          2   -1    0    0  502    0  0.00000000000E+00 -0.00000000000E+00 -0.17241321778E+04  0.17241321778E+04  0.00000000000E+00 0. -1.
         24    2    1    2    0    0  0.67268559360E+03 -0.27204897354E+02 -0.86292222087E+02  0.68333458660E+03  0.79080941914E+02 0.  0.
         23    2    1    2    0    0 -0.42394371831E+03 -0.30678200350E+02 -0.40603118632E+03  0.59503189083E+03  0.92369900783E+02 0.  0.
        -13    1    3    3    0    0  0.35150549117E+03 -0.23342607686E+02 -0.83853186125E+02  0.36212200220E+03  0.00000000000E+00 0.  1.
         14    1    3    3    0    0  0.32118010243E+03 -0.38622896685E+01 -0.24390359619E+01  0.32121258440E+03  0.00000000000E+00 0. -1.
        -13    1    4    4    0    0 -0.20856214705E+03 -0.47542792339E+02 -0.15696408041E+03  0.26532283887E+03  0.00000000000E+00 0.  1.
         13    1    4    4    0    0 -0.21538157126E+03  0.16864591989E+02 -0.24906710590E+03  0.32970905196E+03  0.00000000000E+00 0. -1.
         21    1    1    2  502  501 -0.24874187529E+03  0.57883097704E+02 -0.81934756930E+03  0.85822690056E+03  0.00000000000E+00 0. -1.
<scales pt_clust_5="13000.00000" pt_clust_6="13000.00000" pt_clust_7="13000.00000" pt_clust_8="13000.00000" pt_clust_9="255.38789"></scales>
<clustering>
<clus scale="   79.081">  5  6 -1 -1</clus>
<clus scale="   92.370">  7  8 -1 -1</clus>
<clus scale="  255.388">  2  9  1 -1</clus>
<clus scale="  570.086">  1  5  2 -1</clus>
<clus scale="  255.388">  2  5  1 -1</clus>
</clustering>
</event>
<event>
 9    2  0.2984928E-005  0.1481690E+03  0.7546771E-02  0.1205742E+00
         -3   -1    0    0    0  501 -0.00000000000E+00  0.00000000000E+00  0.84251571144E+02  0.84251571144E+02  0.00000000000E+00 0.  1.
          4   -1    0    0  502    0  0.00000000000E+00 -0.00000000000E+00 -0.35172927912E+03  0.35172927912E+03  0.00000000000E+00 0. -1.
         23    2    1    2    0    0 -0.70491086256E+02  0.75922062777E+02 -0.34577013772E+02  0.14563480257E+03  0.96336768575E+02 0.  0.
         24    2    1    2    0    0  0.63563845885E+02 -0.97387019957E+02 -0.22580841242E+03  0.26670220057E+03  0.81338985182E+02 0.  0.
        -11    1    4    4    0    0  0.45195043411E+02 -0.35944376611E+01 -0.88041144500E+02  0.99029061673E+02  0.00000000000E+00 0.  1.
         12    1    4    4    0    0  0.18368802474E+02 -0.93792582295E+02 -0.13776726792E+03  0.16767313890E+03  0.00000000000E+00 0. -1.
        -11    1    3    3    0    0  0.18314060158E+02  0.42012460413E+02 -0.51171984812E+01  0.46115478418E+02  0.00000000000E+00 0. -1.
         11    1    3    3    0    0 -0.88805146414E+02  0.33909602364E+02 -0.29459815291E+02  0.99519324149E+02  0.00000000000E+00 0.  1.
         21    1    1    2  502  501  0.69272403711E+01  0.21464957180E+02 -0.70922817809E+01  0.23643847123E+02  0.00000000000E+00 0. -1.
<scales pt_clust_5="13000.00000" pt_clust_6="13000.00000" pt_clust_7="13000.00000" pt_clust_8="13000.00000" pt_clust_9="22.55507"></scales>
<clustering>
<clus scale="   22.555">  1  9  2 -1</clus>
<clus scale="   81.339">  5  6 -1 -1</clus>
<clus scale="   96.337">  7  8 -1 -1</clus>
<clus scale="  138.886">  2  5  1 -1</clus>
<clus scale="  138.886">  2  5  1 -1</clus>
</clustering>
</event>
<event>
 9    2  0.2984928E-005  0.1050072E+03  0.7546771E-02  0.1276978E+00
         -1   -1    0    0    0  501 -0.00000000000E+00  0.00000000000E+00  0.43817041199E+02  0.43817041199E+02  0.00000000000E+00 0.  1.
          2   -1    0    0  502    0  0.00000000000E+00 -0.00000000000E+00 -0.98755868477E+03  0.98755868477E+03  0.00000000000E+00 0. -1.
         23    2    1    2    0    0  0.30404394384E+02 -0.42288267865E+02 -0.32760993860E+02  0.11177326376E+03  0.93312673181E+02 0.  0.
         24    2    1    2    0    0  0.87728863342E+01  0.24529896131E+02 -0.60205911889E+03  0.60770066469E+03  0.78397932913E+02 0.  0.
        -11    1    4    4    0    0 -0.17787821080E+02 -0.18286784516E+02 -0.10332245288E+03  0.10642528993E+03  0.00000000000E+00 0.  1.
         12    1    4    4    0    0  0.26560707415E+02  0.42816680647E+02 -0.49873666601E+03  0.50127537476E+03  0.00000000000E+00 0. -1.
        -13    1    3    3    0    0  0.17908312267E+02 -0.71345621939E+02 -0.31772624832E+02  0.80127430427E+02  0.00000000000E+00 0.  1.
         13    1    3    3    0    0  0.12496082117E+02  0.29057354074E+02 -0.98836902785E+00  0.31645833334E+02  0.00000000000E+00 0. -1.
         21    1    1    2  502  501 -0.39177280718E+02  0.17758371735E+02 -0.30892153082E+03  0.31190179752E+03  0.00000000000E+00 0.  1.
<scales pt_clust_5="13000.00000" pt_clust_6="13000.00000" pt_clust_7="13000.00000" pt_clust_8="13000.00000" pt_clust_9="43.01417"></scales>
<clustering>
<clus scale="   43.014">  2  9  1 -1</clus>
<clus scale="   78.398">  5  6 -1 -1</clus>
<clus scale="   92.008">  2  5  1 -1</clus>
<clus scale="   93.313">  7  8 -1 -1</clus>
<clus scale="   43.014">  2  5  1 -1</clus>
</clustering>
</event>
<event>
 9    2  0.2984928E-005  0.9729399E+02  0.7546771E-02  0.1291162E+00
         -1   -1    0    0    0  501 -0.00000000000E+00  0.00000000000E+00  0.33885092355E+02  0.33885092355E+02  0.00000000000E+00 0.  1.
          2   -1    0    0  502    0  0.00000000000E+00 -0.00000000000E+00 -0.44541081834E+03  0.44541081834E+03  0.00000000000E+00 0. -1.
         24    2    1    2    0    0  0.76361499356E+01 -0.31788515228E+02 -0.65601153004E+02  0.10860087278E+03  0.80136245271E+02 0.  0.
         23    2    1    2    0    0  0.28259687975E+01  0.55695629864E+02 -0.29695612825E+03  0.31520706951E+03  0.89791788484E+02 0.  0.
        -11    1    3    3    0    0 -0.41451000158E+01 -0.20321330454E+02  0.15473540423E+02  0.25876027106E+02  0.00000000000E+00 0.  1.
         12    1    3    3    0    0  0.11781249951E+02 -0.11467184774E+02 -0.81074693427E+02  0.82724845671E+02  0.00000000000E+00 0. -1.
        -11    1    4    4    0    0 -0.56952790043E+00  0.79377432290E+02 -0.25302091350E+03  0.26518047400E+03  0.00000000000E+00 0. -1.
         11    1    4    4    0    0  0.33954966980E+01 -0.23681802426E+02 -0.43935214745E+02  0.50026595514E+02  0.00000000000E+00 0.  1.
         21    1    1    2  502  501 -0.10462118733E+02 -0.23907114636E+02 -0.48968444730E+02  0.55487968407E+02  0.00000000000E+00 0.  1.
<scales pt_clust_5="13000.00000" pt_clust_6="13000.00000" pt_clust_7="13000.00000" pt_clust_8="13000.00000" pt_clust_9="26.09609"></scales>
<clustering>
<clus scale="   26.096">  2  9  1 -1</clus>
<clus scale="   80.136">  5  6 -1 -1</clus>
<clus scale="   88.461">  1  5  2 -1</clus>
<clus scale="   89.792">  7  8 -1 -1</clus>
<clus scale="   26.096">  2  5  1 -1</clus>
</clustering>
</event>
<event>
 9    2  0.2984928E-005  0.1097535E+03  0.7546771E-02  0.1266865E+00
         -1   -1    0    0    0  501 -0.00000000000E+00  0.00000000000E+00  0.27628129572E+02  0.27628129572E+02  0.00000000000E+00 0.  1.
          2   -1    0    0  502    0  0.00000000000E+00 -0.00000000000E+00 -0.84617173017E+03  0.84617173017E+03  0.00000000000E+00 0. -1.
         24    2    1    2    0    0  0.53982743738E+02  0.48452587221E+02 -0.15265441634E+03  0.18724019279E+03  0.80583677880E+02 0.  0.
         23    2    1    2    0    0  0.91261831852E+01 -0.24879960095E+02 -0.44021645611E+03  0.45104621587E+03  0.94603704929E+02 0.  0.
        -11    1    3    3    0    0  0.73030363689E+02  0.38281425069E+02 -0.95659002926E+02  0.12629151344E+03  0.00000000000E+00 0.  1.
         12    1    3    3    0    0 -0.19047619951E+02  0.10171162152E+02 -0.56995413409E+02  0.60948679354E+02  0.00000000000E+00 0. -1.
        -11    1    4    4    0    0 -0.25435580273E+02 -0.49606126647E+02 -0.25137850488E+03  0.25748570691E+03  0.00000000000E+00 0.  1.
         11    1    4    4    0    0  0.34561763459E+02  0.24726166552E+02 -0.18883795123E+03  0.19356050896E+03  0.00000000000E+00 0. -1.
         21    1    1    2  502  501 -0.63108926923E+02 -0.23572627126E+02 -0.22567272815E+03  0.23551345108E+03  0.00000000000E+00 0. -1.
<scales pt_clust_5="13000.00000" pt_clust_6="13000.00000" pt_clust_7="13000.00000" pt_clust_8="13000.00000" pt_clust_9="67.36769"></scales>
<clustering>
<clus scale="   67.368">  2  9  1 -1</clus>
<clus scale="   80.584">  5  6 -1 -1</clus>
<clus scale="   94.604">  7  8 -1 -1</clus>
<clus scale="   97.927">  1  5  2 -1</clus>
<clus scale="   67.368">  2  5  1 -1</clus>
</clustering>
</event>
<event>
 9    2  0.2984928E-005  0.4030573E+03  0.7546771E-02  0.1090206E+00
         -1   -1    0    0    0  501 -0.00000000000E+00  0.00000000000E+00  0.48818998386E+03  0.48818998386E+03  0.00000000000E+00 0.  1.
          2   -1    0    0  502    0  0.00000000000E+00 -0.00000000000E+00 -0.47845113045E+03  0.47845113045E+03  0.00000000000E+00 0. -1.
         23    2    1    2    0    0  0.23322577008E+02  0.51652394801E+02  0.11150204201E+03  0.15552847296E+03  0.92436399981E+02 0.  0.
         24    2    1    2    0    0 -0.18546789984E+03  0.33074171286E+03 -0.75193352432E+02  0.39491279093E+03  0.80707184865E+02 0.  0.
        -13    1    4    4    0    0 -0.12017250627E+03  0.13294388284E+03 -0.28719365806E+02  0.18149465342E+03  0.00000000000E+00 0.  1.
         14    1    4    4    0    0 -0.65295393565E+02  0.19779783002E+03 -0.46473986626E+02  0.21341813750E+03  0.00000000000E+00 0. -1.
        -11    1    3    3    0    0 -0.19561463289E+02  0.21995249251E+02  0.97059956833E+02  0.10142522889E+03  0.00000000000E+00 0.  1.
         11    1    3    3    0    0  0.42884040297E+02  0.29657145550E+02  0.14442085182E+02  0.54103244069E+02  0.00000000000E+00 0. -1.
         21    1    1    2  502  501  0.16214532283E+03 -0.38239410766E+03 -0.26569836173E+02  0.41619985042E+03  0.00000000000E+00 0. -1.
<scales pt_clust_5="13000.00000" pt_clust_6="13000.00000" pt_clust_7="13000.00000" pt_clust_8="13000.00000" pt_clust_9="394.89436"></scales>
<clustering>
<clus scale="   80.707">  5  6 -1 -1</clus>
<clus scale="   92.436">  7  8 -1 -1</clus>
<clus scale="  108.427">  1  7  2 -1</clus>
<clus scale="  394.894">  1  9  2 -1</clus>
<clus scale="  403.057">  2  5  1 -1</clus>
</clustering>
</event>
<event>
 9    2  0.2984928E-005  0.1090011E+03  0.7546771E-02  0.1267034E+00
         -1   -1    0    0    0  501 -0.00000000000E+00  0.00000000000E+00  0.32949883636E+02  0.32949883636E+02  0.00000000000E+00 0.  1.
          2   -1    0    0  502    0  0.00000000000E+00 -0.00000000000E+00 -0.64517326300E+03  0.64517326300E+03  0.00000000000E+00 0. -1.
         24    2    1    2    0    0  0.26077027691E+02  0.35653957592E+02 -0.18250119927E+03  0.20442368382E+03  0.80815460818E+02 0.  0.
         23    2    1    2    0    0 -0.85212168412E+02 -0.98948033179E+01 -0.21126456313E+03  0.24591836327E+03  0.92109201406E+02 0.  0.
        -11    1    3    3    0    0  0.19478573164E+02  0.25619044060E+02 -0.13342598481E+02  0.34839276188E+02  0.00000000000E+00 0.  1.
         12    1    3    3    0    0  0.65984545262E+01  0.10034913532E+02 -0.16915860079E+03  0.16958440764E+03  0.00000000000E+00 0. -1.
        -13    1    4    4    0    0 -0.71519513193E+00 -0.35492432180E+02 -0.82274422845E+02  0.89606388727E+02  0.00000000000E+00 0.  1.
         13    1    4    4    0    0 -0.84496973280E+02  0.25597628862E+02 -0.12899014028E+03  0.15631197455E+03  0.00000000000E+00 0. -1.
         21    1    1    2  502  501  0.59135140721E+02 -0.25759154274E+02 -0.21845761696E+03  0.22778109954E+03  0.00000000000E+00 0.  1.
<scales pt_clust_5="13000.00000" pt_clust_6="13000.00000" pt_clust_7="13000.00000" pt_clust_8="13000.00000" pt_clust_9="64.50193"></scales>
<clustering>
<clus scale="   64.502">  2  9  1 -1</clus>
<clus scale="   80.815">  5  6 -1 -1</clus>
<clus scale="   92.109">  7  8 -1 -1</clus>
<clus scale="   99.641">  1  5  2 -1</clus>
<clus scale="   64.502">  2  5  1 -1</clus>
</clustering>
</event>
<event>
 9    2  0.2984928E-005  0.9936871E+02  0.7546771E-02  0.1289435E+00
         -1   -1    0    0    0  501 -0.00000000000E+00  0.00000000000E+00  0.19284690019E+03  0.19284690019E+03  0.00000000000E+00 0.  1.
          2   -1    0    0  502    0  0.00000000000E+00 -0.00000000000E+00 -0.19710244995E+03  0.19710244995E+03  0.00000000000E+00 0. -1.
         24    2    1    2    0    0 -0.24976201866E+02  0.22379849362E+02  0.14083673560E+03  0.16631446585E+03  0.81858702266E+02 0.  0.
         23    2    1    2    0    0 -0.12159919569E+02  0.19056131544E+02 -0.43514760321E+02  0.10781594965E+03  0.96019502392E+02 0.  0.
        -13    1    3    3    0    0 -0.42542116583E+02  0.40000177377E+02  0.69565011974E+02  0.90824758544E+02  0.00000000000E+00 0.  1.
         14    1    3    3    0    0  0.17565914717E+02 -0.17620328016E+02  0.71271723631E+02  0.75489707302E+02  0.00000000000E+00 0. -1.
        -11    1    4    4    0    0 -0.15799215309E+02 -0.35319645495E+02 -0.35913746481E+02  0.52791000640E+02  0.00000000000E+00 0. -1.
         11    1    4    4    0    0  0.36392957398E+01  0.54375777039E+02 -0.76010138403E+01  0.55024949010E+02  0.00000000000E+00 0.  1.
         21    1    1    2  502  501  0.37136121435E+02 -0.41435980906E+02 -0.10157752504E+03  0.11581893465E+03  0.00000000000E+00 0. -1.
<scales pt_clust_5="13000.00000" pt_clust_6="13000.00000" pt_clust_7="13000.00000" pt_clust_8="13000.00000" pt_clust_9="55.64200"></scales>
<clustering>
<clus scale="   55.642">  2  9  1 -1</clus>
<clus scale="   81.859">  5  6 -1 -1</clus>
<clus scale="   85.763">  1  5  2 -1</clus>
<clus scale="   96.020">  7  8 -1 -1</clus>
<clus scale="   55.642">  2  5  1 -1</clus>
</clustering>
</event>
<event>
 9    2  0.2984928E-005  0.1294329E+03  0.7546771E-02  0.1250674E+00
          2   -1    0    0  502    0  0.00000000000E+00  0.00000000000E+00  0.11682329465E+04  0.11682329465E+04  0.00000000000E+00 0. -1.
         -1   -1    0    0    0  501 -0.00000000000E+00 -0.00000000000E+00 -0.13249810207E+03  0.13249810207E+03  0.00000000000E+00 0.  1.
         23    2    1    2    0    0  0.36557271887E+02 -0.85314926050E+02 -0.90639524563E+02  0.15746250153E+03  0.89240378985E+02 0.  0.
         24    2    1    2    0    0  0.12910996518E+02 -0.16561118287E+02  0.43641694680E+03  0.44407824216E+03  0.79402577019E+02 0.  0.
        -11    1    4    4    0    0  0.41884795677E+02 -0.18110152983E+02  0.16764001827E+03  0.17373971761E+03  0.00000000000E+00 0.  1.
         12    1    4    4    0    0 -0.28973799159E+02  0.15490346958E+01  0.26877692853E+03  0.27033852455E+03  0.00000000000E+00 0. -1.
        -11    1    3    3    0    0  0.12179190708E+02 -0.16093042293E+02  0.17539698301E+02  0.26738730580E+02  0.00000000000E+00 0. -1.
         11    1    3    3    0    0  0.24378081179E+02 -0.69221883758E+02 -0.10817922286E+03  0.13072377095E+03  0.00000000000E+00 0.  1.
         21    1    1    2  502  501 -0.49468268405E+02  0.10187604434E+03  0.68995742221E+03  0.69919030489E+03  0.00000000000E+00 0. -1.
<scales pt_clust_5="13000.00000" pt_clust_6="13000.00000" pt_clust_7="13000.00000" pt_clust_8="13000.00000" pt_clust_9="93.74976"></scales>
<clustering>
<clus scale="   79.403">  5  6 -1 -1</clus>
<clus scale="   82.132">  1  5  2 -1</clus>
<clus scale="   89.240">  7  8 -1 -1</clus>
<clus scale="   93.750">  1  9  2 -1</clus>
<clus scale="   82.132">  1  5  2 -1</clus>
</clustering>
</event>
<event>
 9    2  0.2984928E-005  0.1201291E+03  0.7546771E-02  0.1246436E+00
          2   -1    0    0  502    0  0.00000000000E+00  0.00000000000E+00  0.87140203543E+03  0.87140203543E+03  0.00000000000E+00 0. -1.
         -1   -1    0    0    0  501 -0.00000000000E+00 -0.00000000000E+00 -0.91946641622E+02  0.91946641622E+02  0.00000000000E+00 0.  1.
         24    2    1    2    0    0  0.45706105883E+02  0.74860103985E+02 -0.36105409217E+02  0.12531330678E+03  0.81894694563E+02 0.  0.
         23    2    1    2    0    0  0.12514693213E+02 -0.44722387592E+01  0.29653882165E+03  0.31103638530E+03  0.92907167458E+02 0.  0.
        -13    1    3    3    0    0  0.67173200806E+02  0.59341645317E+02 -0.13805883217E+02  0.90687773084E+02  0.00000000000E+00 0.  1.
         14    1    3    3    0    0 -0.21467094923E+02  0.15518458668E+02 -0.22299526000E+02  0.34625533695E+02  0.00000000000E+00 0. -1.
        -13    1    4    4    0    0  0.47458195284E+02  0.70164652004E+01  0.97924353963E+02  0.10904444132E+03  0.00000000000E+00 0. -1.
         13    1    4    4    0    0 -0.34943502072E+02 -0.11488703960E+02  0.19861446769E+03  0.20199194398E+03  0.00000000000E+00 0.  1.
         21    1    1    2  502  501 -0.58220799096E+02 -0.70387865225E+02  0.51902198137E+03  0.52699898498E+03  0.00000000000E+00 0. -1.
<scales pt_clust_5="13000.00000" pt_clust_6="13000.00000" pt_clust_7="13000.00000" pt_clust_8="13000.00000" pt_clust_9="91.34612"></scales>
<clustering>
<clus scale="   81.895">  5  6 -1 -1</clus>
<clus scale="   91.346">  1  9  2 -1</clus>
<clus scale="   92.907">  7  8 -1 -1</clus>
<clus scale="  111.830">  2  5  1 -1</clus>
<clus scale="   91.346">  1  5  2 -1</clus>
</clustering>
</event>
<event>
 9    2  0.2984928E-005  0.1561801E+03  0.7546771E-02  0.1194998E+00
          2   -1    0    0  502    0  0.00000000000E+00  0.00000000000E+00  0.27204074793E+03  0.27204074793E+03  0.00000000000E+00 0. -1.
         -1   -1    0    0    0  501 -0.00000000000E+00 -0.00000000000E+00 -0.16471489682E+03  0.16471489682E+03  0.00000000000E+00 0.  1.
         24    2    1    2    0    0 -0.13854151635E+03  0.46078110518E+01 -0.15817718998E+02  0.16070510436E+03  0.79755543120E+02 0.  0.
         23    2    1    2    0    0  0.10253657687E+03  0.72486566948E+02  0.47891196856E+02  0.16245996654E+03  0.91277719126E+02 0.  0.
        -13    1    3    3    0    0 -0.14176894929E+03 -0.10912249439E+02 -0.65421971584E+01  0.14233872458E+03  0.00000000000E+00 0.  1.
         14    1    3    3    0    0  0.32274329396E+01  0.15520060490E+02 -0.92755218396E+01  0.18366379785E+02  0.00000000000E+00 0. -1.
        -11    1    4    4    0    0  0.45772723206E+02 -0.85654049064E+01  0.43004831296E+02  0.63387095419E+02  0.00000000000E+00 0.  1.
         11    1    4    4    0    0  0.56763853663E+02  0.81051971855E+02  0.48863655597E+01  0.99072871123E+02  0.00000000000E+00 0. -1.
         21    1    1    2  502  501  0.36004939482E+02 -0.77094378000E+02  0.75252373252E+02  0.11359057384E+03  0.00000000000E+00 0.  1.
<scales pt_clust_5="13000.00000" pt_clust_6="13000.00000" pt_clust_7="13000.00000" pt_clust_8="13000.00000" pt_clust_9="85.08759"></scales>
<clustering>
<clus scale="   79.756">  5  6 -1 -1</clus>
<clus scale="   85.088">  1  9  2 -1</clus>
<clus scale="   91.278">  7  8 -1 -1</clus>
<clus scale="  149.738">  2  5  1 -1</clus>
<clus scale="   85.088">  1  5  2 -1</clus>
</clustering>
</event>
<event>
 9    2  0.2984928E-005  0.1027859E+03  0.7546771E-02  0.1278689E+00
         -1   -1    0    0    0  501 -0.00000000000E+00  0.00000000000E+00  0.18601203992E+03  0.18601203992E+03  0.00000000000E+00 0.  1.
          2   -1    0    0  502    0  0.00000000000E+00 -0.00000000000E+00 -0.27772874166E+03  0.27772874166E+03  0.00000000000E+00 0. -1.
         23    2    1    2    0    0  0.23393609735E+02 -0.46377806439E+02  0.15874773975E+03  0.18945880180E+03  0.89418291180E+02 0.  0.
         24    2    1    2    0    0 -0.22046612052E+02  0.24518564454E+02 -0.22202447430E+03  0.23838667931E+03  0.80287785976E+02 0.  0.
        -11    1    4    4    0    0  0.24685785935E+01  0.40846926401E+02 -0.53754930002E+02  0.67558550726E+02  0.00000000000E+00 0.  1.
         12    1    4    4    0    0 -0.24515190646E+02 -0.16328361947E+02 -0.16826954430E+03  0.17082812858E+03  0.00000000000E+00 0. -1.
        -13    1    3    3    0    0  0.57081787525E+02 -0.35424979900E+02  0.11479310517E+03  0.13300645346E+03  0.00000000000E+00 0.  1.
         13    1    3    3    0    0 -0.33688177790E+02 -0.10952826539E+02  0.43954634583E+02  0.56452348342E+02  0.00000000000E+00 0. -1.
         21    1    1    2  502  501 -0.13469976826E+01  0.21859241985E+02 -0.28439967180E+02  0.35895300474E+02  0.00000000000E+00 0.  1.
<scales pt_clust_5="13000.00000" pt_clust_6="13000.00000" pt_clust_7="13000.00000" pt_clust_8="13000.00000" pt_clust_9="21.90070"></scales>
<clustering>
<clus scale="   21.901">  2  9  1 -1</clus>
<clus scale="   80.288">  5  6 -1 -1</clus>
<clus scale="   89.418">  7  8 -1 -1</clus>
<clus scale="   94.950">  2  5  1 -1</clus>
<clus scale="   21.901">  2  5  1 -1</clus>
</clustering>
</event>
<event>
 9    2  0.2984928E-005  0.1204617E+03  0.7546771E-02  0.1253227E+00
          2   -1    0    0  502    0  0.00000000000E+00  0.00000000000E+00  0.41394174379E+03  0.41394174379E+03  0.00000000000E+00 0. -1.
         -1   -1    0    0    0  501 -0.00000000000E+00 -0.00000000000E+00 -0.52053753358E+02  0.52053753358E+02  0.00000000000E+00 0.  1.
         23    2    1    2    0    0 -0.72996602420E+02 -0.62317576066E+01  0.10307600239E+03  0.16943775370E+03  0.11277034780E+03 0.  0.
         24    2    1    2    0    0  0.33775182667E+02 -0.29931430165E+01  0.22612993837E+03  0.24467773834E+03  0.87078842111E+02 0.  0.
        -11    1    4    4    0    0  0.14210612373E+02 -0.40147161872E+02  0.61699296165E+02  0.74970255820E+02  0.00000000000E+00 0.  1.
         12    1    4    4    0    0  0.19564570294E+02  0.37154018856E+02  0.16443064221E+03  0.16970748252E+03  0.00000000000E+00 0. -1.
        -11    1    3    3    0    0 -0.16197750080E+01  0.39025159351E+02  0.40784594770E+01  0.39271116169E+02  0.00000000000E+00 0.  1.
         11    1    3    3    0    0 -0.71376827412E+02 -0.45256916957E+02  0.98997542915E+02  0.13016663753E+03  0.00000000000E+00 0. -1.
         21    1    1    2  502  501  0.39221419753E+02  0.92249006232E+01  0.32682049671E+02  0.51880005105E+02  0.00000000000E+00 0. -1.
<scales pt_clust_5="13000.00000" pt_clust_6="13000.00000" pt_clust_7="13000.00000" pt_clust_8="13000.00000" pt_clust_9="40.29167"></scales>
<clustering>
<clus scale="   40.292">  2  9  1 -1</clus>
<clus scale="   87.079">  5  6 -1 -1</clus>
<clus scale="   96.833">  1  5  2 -1</clus>
<clus scale="  112.770">  7  8 -1 -1</clus>
<clus scale="   96.833">  1  5  2 -1</clus>
</clustering>
</event>
<event>
 9    2  0.2984928E-005  0.9030300E+02  0.7546771E-02  0.1306451E+00
         -1   -1    0    0    0  501 -0.00000000000E+00  0.00000000000E+00  0.34060330836E+02  0.34060330836E+02  0.00000000000E+00 0.  1.
          2   -1    0    0  502    0  0.00000000000E+00 -0.00000000000E+00 -0.64616377867E+03  0.64616377867E+03  0.00000000000E+00 0. -1.
         24    2    1    2    0    0 -0.10132515858E+01  0.11176370279E+02 -0.34090071852E+02  0.89745422279E+02  0.82256731577E+02 0.  0.
         23    2    1    2    0    0 -0.89783085030E+01 -0.33886374117E+02 -0.45684780484E+03  0.46679897516E+03  0.89232673657E+02 0.  0.
        -11    1    3    3    0    0 -0.21418448434E+02  0.41127749428E+02 -0.23515816575E+02  0.51992646937E+02  0.00000000000E+00 0.  1.
         12    1    3    3    0    0  0.20405196848E+02 -0.29951379149E+02 -0.10574255277E+02  0.37752775341E+02  0.00000000000E+00 0. -1.
        -13    1    4    4    0    0 -0.23576011773E+02  0.25487960396E+02 -0.16860381684E+03  0.17214154498E+03  0.00000000000E+00 0.  1.
         13    1    4    4    0    0  0.14597703270E+02 -0.59374334512E+02 -0.28824398801E+03  0.29465743018E+03  0.00000000000E+00 0. -1.
         21    1    1    2  502  501  0.99915600889E+01  0.22710003838E+02 -0.12116557114E+03  0.12367971207E+03  0.00000000000E+00 0.  1.
<scales pt_clust_5="13000.00000" pt_clust_6="13000.00000" pt_clust_7="13000.00000" pt_clust_8="13000.00000" pt_clust_9="24.81079"></scales>
<clustering>
<clus scale="   24.811">  2  9  1 -1</clus>
<clus scale="   82.257">  5  6 -1 -1</clus>
<clus scale="   83.417">  1  5  2 -1</clus>
<clus scale="   89.233">  7  8 -1 -1</clus>
<clus scale="   24.811">  2  5  1 -1</clus>
</clustering>
</event>
<event>
 9    2  0.2984928E-005  0.1042047E+03  0.7546771E-02  0.1274809E+00
          4   -1    0    0  502    0  0.00000000000E+00  0.00000000000E+00  0.13134636152E+04  0.13134636152E+04  0.00000000000E+00 0. -1.
         -3   -1    0    0    0  501 -0.00000000000E+00 -0.00000000000E+00 -0.21795343836E+02  0.21795343836E+02  0.00000000000E+00 0.  1.
         23    2    1    2    0    0 -0.30097791382E+02  0.69483029338E+01  0.13783798190E+03  0.16875879583E+03  0.92336698853E+02 0.  0.
         24    2    1    2    0    0  0.46953756113E+02  0.21783942558E+02  0.10893758312E+04  0.10939464406E+04  0.85439556888E+02 0.  0.
        -11    1    4    4    0    0 -0.15347700838E+01  0.33731168452E+02  0.17620447027E+03  0.17941059775E+03  0.00000000000E+00 0.  1.
         12    1    4    4    0    0  0.48488526196E+02 -0.11947225894E+02  0.91317136091E+03  0.91453584280E+03  0.00000000000E+00 0. -1.
        -11    1    3    3    0    0  0.68733656298E+01  0.39816864646E+02  0.95313321968E+02  0.10352417693E+03  0.00000000000E+00 0. -1.
         11    1    3    3    0    0 -0.36971157012E+02 -0.32868561712E+02  0.42524659936E+02  0.65234618896E+02  0.00000000000E+00 0.  1.
         21    1    1    2  502  501 -0.16855964730E+02 -0.28732245492E+02  0.64454458271E+02  0.72553722640E+02  0.00000000000E+00 0. -1.
<scales pt_clust_5="13000.00000" pt_clust_6="13000.00000" pt_clust_7="13000.00000" pt_clust_8="13000.00000" pt_clust_9="33.31164"></scales>
<clustering>
<clus scale="   33.312">  2  9  1 -1</clus>
<clus scale="   85.440">  5  6 -1 -1</clus>
<clus scale="   92.337">  7  8 -1 -1</clus>
<clus scale="   98.145">  1  5  2 -1</clus>
<clus scale="   98.145">  1  5  2 -1</clus>
</clustering>
</event>
<event>
 9    2  0.2984928E-005  0.9724956E+02  0.7546771E-02  0.1291351E+00
         -1   -1    0    0    0  501 -0.00000000000E+00  0.00000000000E+00  0.30202987764E+02  0.30202987764E+02  0.00000000000E+00 0.  1.
          2   -1    0    0  502    0  0.00000000000E+00 -0.00000000000E+00 -0.60311231806E+03  0.60311231806E+03  0.00000000000E+00 0. -1.
         24    2    1    2    0    0  0.35104289006E+02 -0.97602202929E+01 -0.70823604688E+02  0.11364273252E+03  0.81062412169E+02 0.  0.
         23    2    1    2    0    0 -0.32826055331E+02 -0.15553580835E+02 -0.46184377171E+03  0.47207642084E+03  0.90757996111E+02 0.  0.
        -11    1    3    3    0    0  0.11460355450E+02 -0.44637969529E+02 -0.30108835154E+02  0.55049341732E+02  0.00000000000E+00 0.  1.
         12    1    3    3    0    0  0.23643933555E+02  0.34877749237E+02 -0.40714769534E+02  0.58593390787E+02  0.00000000000E+00 0. -1.
        -11    1    4    4    0    0 -0.23401646944E+02 -0.53519854662E+02 -0.26065660508E+03  0.26712146618E+03  0.00000000000E+00 0.  1.
         11    1    4    4    0    0 -0.94244083870E+01  0.37966273827E+02 -0.20118716663E+03  0.20495495466E+03  0.00000000000E+00 0. -1.
         21    1    1    2  502  501 -0.22782336750E+01  0.25313801128E+02 -0.40241953898E+02  0.47596152467E+02  0.00000000000E+00 0. -1.
<scales pt_clust_5="13000.00000" pt_clust_6="13000.00000" pt_clust_7="13000.00000" pt_clust_8="13000.00000" pt_clust_9="25.41611"></scales>
<clustering>
<clus scale="   25.416">  1  9  2 -1</clus>
<clus scale="   81.062">  5  6 -1 -1</clus>
<clus scale="   88.270">  1  5  2 -1</clus>
<clus scale="   90.758">  7  8 -1 -1</clus>
<clus scale="   97.250">  2  5  1 -1</clus>
</clustering>
</event>
<event>
 9    2  0.2984928E-005  0.1540802E+03  0.7546771E-02  0.1198479E+00
          2   -1    0    0  502    0  0.00000000000E+00  0.00000000000E+00  0.46031470305E+03  0.46031470305E+03  0.00000000000E+00 0. -1.
         -1   -1    0    0    0  501 -0.00000000000E+00 -0.00000000000E+00 -0.71823277813E+02  0.71823277813E+02  0.00000000000E+00 0.  1.
         23    2    1    2    0    0 -0.25110973791E+02  0.12527455333E+03  0.59853414206E+02  0.16889961729E+03  0.92845973588E+02 0.  0.
         24    2    1    2    0    0  0.30279023845E+02 -0.10589924584E+03  0.29754974715E+03  0.32624388516E+03  0.75945711028E+02 0.  0.
        -11    1    4    4    0    0  0.31555562994E+02 -0.89422533848E+02  0.14792889936E+03  0.17571312524E+03  0.00000000000E+00 0.  1.
         12    1    4    4    0    0 -0.12765391484E+01 -0.16476711996E+02  0.14962084779E+03  0.15053075992E+03  0.00000000000E+00 0. -1.
        -11    1    3    3    0    0  0.88472811929E+00  0.11726212544E+03  0.17501717224E+02  0.11856432395E+03  0.00000000000E+00 0.  1.
         11    1    3    3    0    0 -0.25995701911E+02  0.80124278860E+01  0.42351696982E+02  0.50335293341E+02  0.00000000000E+00 0. -1.
         21    1    1    2  502  501 -0.51680500541E+01 -0.19375307486E+02  0.31088263883E+02  0.36994478410E+02  0.00000000000E+00 0. -1.
<scales pt_clust_5="13000.00000" pt_clust_6="13000.00000" pt_clust_7="13000.00000" pt_clust_8="13000.00000" pt_clust_9="20.05271"></scales>
<clustering>
<clus scale="   20.053">  1  9  2 -1</clus>
<clus scale="   75.946">  5  6 -1 -1</clus>
<clus scale="   92.846">  7  8 -1 -1</clus>
<clus scale="  144.527">  1  5  2 -1</clus>
<clus scale="   20.053">  1  5  2 -1</clus>
</clustering>
</event>
<event>
 9    2  0.2984928E-005  0.2914428E+03  0.7546771E-02  0.1090025E+00
         -1   -1    0    0    0  501 -0.00000000000E+00  0.00000000000E+00  0.57243187272E+02  0.57243187272E+02  0.00000000000E+00 0.  1.
          2   -1    0    0  502    0  0.00000000000E+00 -0.00000000000E+00 -0.19810731311E+04  0.19810731311E+04  0.00000000000E+00 0. -1.
         24    2    1    2    0    0  0.49110515052E+02  0.25253789352E+03 -0.57399380017E+03  0.63436467439E+03  0.82233977967E+02 0.  0.
         23    2    1    2    0    0 -0.63946673275E+02 -0.30189315502E+03 -0.10086844494E+04  0.10589291347E+04  0.93048050670E+02 0.  0.
        -13    1    3    3    0    0 -0.16120940907E+02  0.13170635533E+03 -0.29016295870E+03  0.31906267624E+03  0.00000000000E+00 0.  1.
         14    1    3    3    0    0  0.65231455959E+02  0.12083153820E+03 -0.28383084147E+03  0.31530199815E+03  0.00000000000E+00 0. -1.
        -13    1    4    4    0    0 -0.51670271849E+02 -0.64788019434E+02 -0.21205348108E+03  0.22767077831E+03  0.00000000000E+00 0.  1.
         13    1    4    4    0    0 -0.12276401426E+02 -0.23710513559E+03 -0.79663096831E+03  0.83125835636E+03  0.00000000000E+00 0. -1.
         21    1    1    2  502  501  0.14836158223E+02  0.49355261501E+02 -0.34115169423E+03  0.34502250927E+03  0.00000000000E+00 0. -1.
<scales pt_clust_5="13000.00000" pt_clust_6="13000.00000" pt_clust_7="13000.00000" pt_clust_8="13000.00000" pt_clust_9="51.53691"></scales>
<clustering>
<clus scale="   51.537">  2  9  1 -1</clus>
<clus scale="   82.234">  5  6 -1 -1</clus>
<clus scale="   93.048">  7  8 -1 -1</clus>
<clus scale="  288.173">  1  5  2 -1</clus>
<clus scale="   51.537">  2  5  1 -1</clus>
</clustering>
</event>
<event>
 9    2  0.2984928E-005  0.9072220E+02  0.7546771E-02  0.1307129E+00
          2   -1    0    0  502    0  0.00000000000E+00  0.00000000000E+00  0.10336025435E+03  0.10336025435E+03  0.00000000000E+00 0. -1.
         -1   -1    0    0    0  501 -0.00000000000E+00 -0.00000000000E+00 -0.23622848088E+03  0.23622848088E+03  0.00000000000E+00 0.  1.
         23    2    1    2    0    0 -0.20662205972E+02  0.50892533434E+00 -0.15871117066E+03  0.18330903231E+03  0.89363190826E+02 0.  0.
         24    2    1    2    0    0 -0.19907904338E+02 -0.44423272891E+02  0.74023855630E+01  0.93714073606E+02  0.79735691195E+02 0.  0.
        -13    1    4    4    0    0  0.23138395464E+02 -0.18402738881E+02 -0.20705403767E+02  0.36093765225E+02  0.00000000000E+00 0.  1.
         14    1    4    4    0    0 -0.43046299803E+02 -0.26020534010E+02  0.28107789330E+02  0.57620308381E+02  0.00000000000E+00 0. -1.
        -13    1    3    3    0    0 -0.18146713691E+02  0.25847213734E+02 -0.11035000589E+02  0.33453742894E+02  0.00000000000E+00 0.  1.
         13    1    3    3    0    0 -0.25154922808E+01 -0.25338288399E+02 -0.14767617007E+03  0.14985528942E+03  0.00000000000E+00 0. -1.
         21    1    1    2  502  501  0.40570110310E+02  0.43914347557E+02  0.18440558557E+02  0.62565629317E+02  0.00000000000E+00 0.  1.
<scales pt_clust_5="13000.00000" pt_clust_6="13000.00000" pt_clust_7="13000.00000" pt_clust_8="13000.00000" pt_clust_9="59.78632"></scales>
<clustering>
<clus scale="   59.786">  1  9  2 -1</clus>
<clus scale="   79.736">  5  6 -1 -1</clus>
<clus scale="   81.256">  1  5  2 -1</clus>
<clus scale="   89.363">  7  8 -1 -1</clus>
<clus scale="   59.786">  1  5  2 -1</clus>
</clustering>
</event>
<event>
 9    2  0.2984928E-005  0.2178327E+03  0.7546771E-02  0.1136308E+00
          2   -1    0    0  502    0  0.00000000000E+00  0.00000000000E+00  0.41794680009E+03  0.41794680009E+03  0.00000000000E+00 0. -1.
         -1   -1    0    0    0  501 -0.00000000000E+00 -0.00000000000E+00 -0.19878003260E+03  0.19878003260E+03  0.00000000000E+00 0.  1.
         24    2    1    2    0    0  0.95672385290E+02 -0.17991500088E+03 -0.76644650561E+02  0.23222313673E+03  0.80811941721E+02 0.  0.
         23    2    1    2    0    0 -0.73200607790E+02  0.16407438893E+03  0.19657393354E+03  0.28152804785E+03  0.91312629441E+02 0.  0.
        -11    1    3    3    0    0  0.32393527453E+02 -0.46138295580E+01 -0.14185162876E+02  0.35662962438E+02  0.00000000000E+00 0.  1.
         12    1    3    3    0    0  0.63278857838E+02 -0.17530117132E+03 -0.62459487685E+02  0.19656017430E+03  0.00000000000E+00 0. -1.
        -11    1    4    4    0    0 -0.29482031797E+02  0.68882159472E+02  0.22263722296E+02  0.78164028958E+02  0.00000000000E+00 0.  1.
         11    1    4    4    0    0 -0.43718575993E+02  0.95192229458E+02  0.17431021125E+03  0.20336401890E+03  0.00000000000E+00 0. -1.
         21    1    1    2  502  501 -0.22471777501E+02  0.15840611952E+02  0.99237484502E+02  0.10297564810E+03  0.00000000000E+00 0. -1.
<scales pt_clust_5="13000.00000" pt_clust_6="13000.00000" pt_clust_7="13000.00000" pt_clust_8="13000.00000" pt_clust_9="27.49374"></scales>
<clustering>
<clus scale="   27.494">  1  9  2 -1</clus>
<clus scale="   80.812">  5  6 -1 -1</clus>
<clus scale="   91.313">  7  8 -1 -1</clus>
<clus scale="  213.644">  2  5  1 -1</clus>
<clus scale="   27.494">  1  5  2 -1</clus>
</clustering>
</event>
<event>
 9    2  0.2984928E-005  0.1334865E+03  0.7546771E-02  0.1225029E+00
         -1   -1    0    0    0  501 -0.00000000000E+00  0.00000000000E+00  0.21161117351E+03  0.21161117351E+03  0.00000000000E+00 0.  1.
          2   -1    0    0  502    0  0.00000000000E+00 -0.00000000000E+00 -0.32026326171E+03  0.32026326171E+03  0.00000000000E+00 0. -1.
         23    2    1    2    0    0  0.75850035051E+02 -0.44099308620E+02  0.12809532583E+03  0.18014408107E+03  0.91353711507E+02 0.  0.
         24    2    1    2    0    0 -0.12668584765E+03  0.75708693902E+02 -0.84505251567E+02  0.18814212379E+03  0.80468695006E+02 0.  0.
        -11    1    4    4    0    0 -0.92580921107E+02  0.55209651859E+02 -0.16076864565E+02  0.10898531179E+03  0.00000000000E+00 0.  1.
         12    1    4    4    0    0 -0.34104926545E+02  0.20499042043E+02 -0.68428387002E+02  0.79156812006E+02  0.00000000000E+00 0. -1.
        -13    1    3    3    0    0  0.90669857121E+02 -0.27113145337E+02  0.12588983226E+03  0.15749411261E+03  0.00000000000E+00 0.  1.
         13    1    3    3    0    0 -0.14819822070E+02 -0.16986163282E+02  0.22054935707E+01  0.22649968458E+02  0.00000000000E+00 0. -1.
         21    1    1    2  502  501  0.50835812601E+02 -0.31609385282E+02 -0.15224216247E+03  0.16358823036E+03  0.00000000000E+00 0.  1.
<scales pt_clust_5="13000.00000" pt_clust_6="13000.00000" pt_clust_7="13000.00000" pt_clust_8="13000.00000" pt_clust_9="59.86178"></scales>
<clustering>
<clus scale="   59.862">  2  9  1 -1</clus>
<clus scale="   80.469">  5  6 -1 -1</clus>
<clus scale="   91.354">  7  8 -1 -1</clus>
<clus scale="  126.287">  2  5  1 -1</clus>
<clus scale="   59.862">  2  5  1 -1</clus>
</clustering>
</event>
<event>
 9    2  0.2984928E-005  0.1158933E+03  0.7546771E-02  0.1254983E+00
          2   -1    0    0  502    0  0.00000000000E+00  0.00000000000E+00  0.10845666029E+04  0.10845666029E+04  0.00000000000E+00 0. -1.
         -1   -1    0    0    0  501 -0.00000000000E+00 -0.00000000000E+00 -0.41286619716E+02  0.41286619716E+02  0.00000000000E+00 0.  1.
         24    2    1    2    0    0  0.21187743804E+01 -0.74522192391E+02  0.72079701555E+02  0.12647457014E+03  0.72403640463E+02 0.  0.
         23    2    1    2    0    0  0.78445504492E+02  0.84813384724E+02  0.74698228119E+03  0.76090386683E+03  0.87436598351E+02 0.  0.
        -13    1    3    3    0    0 -0.26549601085E+02 -0.37068630062E+02  0.70448756836E+01  0.46136698255E+02  0.00000000000E+00 0.  1.
         14    1    3    3    0    0  0.28668375465E+02 -0.37453562329E+02  0.65034825872E+02  0.80337871886E+02  0.00000000000E+00 0. -1.
        -11    1    4    4    0    0 -0.19227168306E+02  0.10263590620E+02  0.98336181385E+02  0.10072253900E+03  0.00000000000E+00 0.  1.
         11    1    4    4    0    0  0.97672672797E+02  0.74549794105E+02  0.64864609981E+03  0.66018132782E+03  0.00000000000E+00 0. -1.
         21    1    1    2  502  501 -0.80564278872E+02 -0.10291192333E+02  0.22421800039E+03  0.23847478560E+03  0.00000000000E+00 0.  1.
<scales pt_clust_5="13000.00000" pt_clust_6="13000.00000" pt_clust_7="13000.00000" pt_clust_8="13000.00000" pt_clust_9="81.21891"></scales>
<clustering>
<clus scale="   72.404">  5  6 -1 -1</clus>
<clus scale="   81.219">  1  9  2 -1</clus>
<clus scale="   87.437">  7  8 -1 -1</clus>
<clus scale="  105.016">  2  5  1 -1</clus>
<clus scale="   81.219">  1  5  2 -1</clus>
</clustering>
</event>
<event>
 9    2  0.4684640E-005  0.9432811E+02  0.7546771E-02  0.1296429E+00
         -1   -1    0    0    0  501 -0.00000000000E+00  0.00000000000E+00  0.29438155544E+03  0.29438155544E+03  0.00000000000E+00 0.  1.
          2   -1    0    0  502    0  0.00000000000E+00 -0.00000000000E+00 -0.18946446662E+03  0.18946446662E+03  0.00000000000E+00 0. -1.
         24    2    1    2    0    0  0.48200406237E+02 -0.75188798039E+01  0.26128288442E+03  0.27783382218E+03  0.80889272089E+02 0.  0.
         23    2    1    2    0    0 -0.38959361774E+02  0.28915017282E+02 -0.15982623139E+03  0.18245023440E+03  0.73414941926E+02 0.  0.
        -11    1    3    3    0    0  0.67716541469E+02 -0.35021057602E+01  0.23653196814E+03  0.24605927474E+03  0.00000000000E+00 0.  1.
         12    1    3    3    0    0 -0.19516135232E+02 -0.40167740437E+01  0.24750916284E+02  0.31774547440E+02  0.00000000000E+00 0. -1.
        -13    1    4    4    0    0  0.15048793608E+02  0.29267229075E+02 -0.47158816280E+02  0.57506441724E+02  0.00000000000E+00 0. -1.
         13    1    4    4    0    0 -0.54008155381E+02 -0.35221179233E+00 -0.11266741510E+03  0.12494379267E+03  0.00000000000E+00 0.  1.
         21    1    1    2  502  501 -0.92410444632E+01 -0.21396137478E+02  0.34604357904E+01  0.23561965487E+02  0.00000000000E+00 0. -1.
<scales pt_clust_5="13000.00000" pt_clust_6="13000.00000" pt_clust_7="13000.00000" pt_clust_8="13000.00000" pt_clust_9="23.30647"></scales>
<clustering>
<clus scale="   23.306">  2  9  1 -1</clus>
<clus scale="   73.415">  7  8 -1 -1</clus>
<clus scale="   80.889">  5  6 -1 -1</clus>
<clus scale="   88.003">  2  7  1 -1</clus>
<clus scale="   23.306">  2  5  1 -1</clus>
</clustering>
</event>
<event>
 9    2  0.2984928E-005  0.1388567E+03  0.7546771E-02  0.1216670E+00
          2   -1    0    0  502    0  0.00000000000E+00  0.00000000000E+00  0.14298660220E+04  0.14298660220E+04  0.00000000000E+00 0. -1.
         -1   -1    0    0    0  501 -0.00000000000E+00 -0.00000000000E+00 -0.77468106428E+02  0.77468106428E+02  0.00000000000E+00 0.  1.
         23    2    1    2    0    0 -0.34193086879E+02  0.93916378237E+02  0.11766234355E+02  0.13565488564E+03  0.90963456599E+02 0.  0.
         24    2    1    2    0    0 -0.11468212771E+02 -0.17646266748E+03  0.86264950869E+03  0.88447722985E+03  0.82856516722E+02 0.  0.
        -11    1    4    4    0    0 -0.38956150296E+02 -0.80349207738E+02  0.29966542633E+03  0.31268665556E+03  0.00000000000E+00 0.  1.
         12    1    4    4    0    0  0.27487937525E+02 -0.96113459740E+02  0.56298408236E+03  0.57179057428E+03  0.00000000000E+00 0. -1.
        -11    1    3    3    0    0 -0.79836682880E+01  0.28756627954E+02  0.48079625297E+02  0.56589159557E+02  0.00000000000E+00 0. -1.
         11    1    3    3    0    0 -0.26209418591E+02  0.65159750283E+02 -0.36313390942E+02  0.79065726086E+02  0.00000000000E+00 0.  1.
         21    1    1    2  502  501  0.45661299649E+02  0.82546289241E+02  0.47798217249E+03  0.48720201290E+03  0.00000000000E+00 0. -1.
<scales pt_clust_5="13000.00000" pt_clust_6="13000.00000" pt_clust_7="13000.00000" pt_clust_8="13000.00000" pt_clust_9="94.33369"></scales>
<clustering>
<clus scale="   82.857">  5  6 -1 -1</clus>
<clus scale="   90.963">  7  8 -1 -1</clus>
<clus scale="   94.334">  1  9  2 -1</clus>
<clus scale="  133.686">  1  5  2 -1</clus>
<clus scale="   94.334">  1  5  2 -1</clus>
</clustering>
</event>
<event>
 9    2  0.2984928E-005  0.1012790E+03  0.7546771E-02  0.1284330E+00
         -1   -1    0    0    0  501 -0.00000000000E+00  0.00000000000E+00  0.24664159897E+03  0.24664159897E+03  0.00000000000E+00 0.  1.
          2   -1    0    0  502    0  0.00000000000E+00 -0.00000000000E+00 -0.30758134978E+03  0.30758134978E+03  0.00000000000E+00 0. -1.
         23    2    1    2    0    0 -0.40298970916E+02 -0.56593893826E+01  0.22142721870E+03  0.24336916878E+03  0.92425664117E+02 0.  0.
         24    2    1    2    0    0  0.53229526793E+02  0.31387936357E+02 -0.23372952517E+03  0.25433158614E+03  0.78971385322E+02 0.  0.
        -11    1    4    4    0    0  0.52181343643E+02  0.29002319176E+01 -0.65947109978E+02  0.84144668779E+02  0.00000000000E+00 0.  1.
         12    1    4    4    0    0  0.10481831509E+01  0.28487704440E+02 -0.16778241520E+03  0.17018691736E+03  0.00000000000E+00 0. -1.
        -13    1    3    3    0    0  0.24958724904E+02 -0.14462619071E+02  0.11201754116E+03  0.11567210046E+03  0.00000000000E+00 0. -1.
         13    1    3    3    0    0 -0.65257695820E+02  0.88032296886E+01  0.10940967754E+03  0.12769706832E+03  0.00000000000E+00 0.  1.
         21    1    1    2  502  501 -0.12930555877E+02 -0.25728546975E+02 -0.48637444330E+02  0.56522193833E+02  0.00000000000E+00 0.  1.
<scales pt_clust_5="13000.00000" pt_clust_6="13000.00000" pt_clust_7="13000.00000" pt_clust_8="13000.00000" pt_clust_9="28.79509"></scales>
<clustering>
<clus scale="   28.795">  2  9  1 -1</clus>
<clus scale="   78.971">  5  6 -1 -1</clus>
<clus scale="   89.171">  2  5  1 -1</clus>
<clus scale="   92.426">  7  8 -1 -1</clus>
<clus scale="   28.795">  2  5  1 -1</clus>
</clustering>
</event>
<event>
 9    2  0.2984928E-005  0.1208170E+03  0.7546771E-02  0.1256377E+00
         -1   -1    0    0    0  501 -0.00000000000E+00  0.00000000000E+00  0.38135699369E+03  0.38135699369E+03  0.00000000000E+00 0.  1.
          2   -1    0    0  502    0  0.00000000000E+00 -0.00000000000E+00 -0.20609177417E+03  0.20609177417E+03  0.00000000000E+00 0. -1.
         24    2    1    2    0    0  0.45112370355E+02 -0.34291706286E+01  0.26356309481E+03  0.27933012550E+03  0.80702719242E+02 0.  0.
         23    2    1    2    0    0 -0.20935689486E+02 -0.67803599791E+01  0.77968566277E+02  0.13979373035E+03  0.11392503387E+03 0.  0.
        -11    1    3    3    0    0  0.29795453194E+02 -0.37456130296E+02  0.19978234301E+03  0.20543542855E+03  0.00000000000E+00 0.  1.
         12    1    3    3    0    0  0.15316917161E+02  0.34026959667E+02  0.63780751806E+02  0.73894696944E+02  0.00000000000E+00 0. -1.
        -13    1    4    4    0    0  0.27621467433E+02  0.87582772741E+01  0.83620286350E+02  0.88498616787E+02  0.00000000000E+00 0.  1.
         13    1    4    4    0    0 -0.48557156919E+02 -0.15538637253E+02 -0.56517200729E+01  0.51295113564E+02  0.00000000000E+00 0. -1.
         21    1    1    2  502  501 -0.24176680869E+02  0.10209530608E+02 -0.16626644156E+03  0.16832491201E+03  0.00000000000E+00 0. -1.
<scales pt_clust_5="13000.00000" pt_clust_6="13000.00000" pt_clust_7="13000.00000" pt_clust_8="13000.00000" pt_clust_9="26.24398"></scales>
<clustering>
<clus scale="   26.244">  2  9  1 -1</clus>
<clus scale="   80.703">  5  6 -1 -1</clus>
<clus scale="   90.171">  1  5  2 -1</clus>
<clus scale="  113.925">  7  8 -1 -1</clus>
<clus scale="   26.244">  2  5  1 -1</clus>
</clustering>
</event>
<event>
 9    2  0.2984928E-005  0.1625576E+03  0.7546771E-02  0.1187514E+00
          2   -1    0    0  502    0  0.00000000000E+00  0.00000000000E+00  0.20661985031E+03  0.20661985031E+03  0.00000000000E+00 0. -1.
         -1   -1    0    0    0  501 -0.00000000000E+00 -0.00000000000E+00 -0.36108233368E+03  0.36108233368E+03  0.00000000000E+00 0.  1.
         24    2    1    2    0    0 -0.13297890873E+03 -0.13495350339E+02 -0.28316553533E+03  0.32341673791E+03  0.80933005099E+02 0.  0.
         23    2    1    2    0    0  0.13313447205E+03  0.39180192667E+02  0.70685655584E+02  0.18083661939E+03  0.91899651040E+02 0.  0.
        -13    1    3    3    0    0 -0.87998654176E+02 -0.63105056968E+01 -0.25507395374E+03  0.26990055112E+03  0.00000000000E+00 0.  1.
         14    1    3    3    0    0 -0.44980254558E+02 -0.71848446419E+01 -0.28091581594E+02  0.53516186795E+02  0.00000000000E+00 0. -1.
        -13    1    4    4    0    0  0.68333921306E+02 -0.57344864868E+01  0.75314837559E+02  0.10185643766E+03  0.00000000000E+00 0. -1.
         13    1    4    4    0    0  0.64800550745E+02  0.44914679154E+02 -0.46291819745E+01  0.78980181730E+02  0.00000000000E+00 0.  1.
         21    1    1    2  502  501 -0.15556331638E+00 -0.25684842328E+02  0.58017396373E+02  0.63448826681E+02  0.00000000000E+00 0. -1.
<scales pt_clust_5="13000.00000" pt_clust_6="13000.00000" pt_clust_7="13000.00000" pt_clust_8="13000.00000" pt_clust_9="25.68531"></scales>
<clustering>
<clus scale="   25.685">  1  9  2 -1</clus>
<clus scale="   80.933">  5  6 -1 -1</clus>
<clus scale="   91.900">  7  8 -1 -1</clus>
<clus scale="  156.619">  2  5  1 -1</clus>
<clus scale="   25.685">  1  5  2 -1</clus>
</clustering>
</event>
<event>
 9    2  0.2984928E-005  0.9442617E+02  0.7546771E-02  0.1299847E+00
         -1   -1    0    0    0  501 -0.00000000000E+00  0.00000000000E+00  0.77148018971E+02  0.77148018971E+02  0.00000000000E+00 0.  1.
          2   -1    0    0  502    0  0.00000000000E+00 -0.00000000000E+00 -0.29199151107E+03  0.29199151107E+03  0.00000000000E+00 0. -1.
         23    2    1    2    0    0  0.17825903763E+02 -0.18428393311E+02  0.67510126907E+01  0.96831500617E+02  0.93131062564E+02 0.  0.
         24    2    1    2    0    0 -0.10423308653E+02 -0.21075235592E+02 -0.54188153298E+02  0.10014467203E+03  0.80868958561E+02 0.  0.
        -11    1    4    4    0    0 -0.16233514381E+02 -0.50385815151E+02 -0.43133745701E+02  0.68284532478E+02  0.00000000000E+00 0.  1.
         12    1    4    4    0    0  0.58102057279E+01  0.29310579559E+02 -0.11054407597E+02  0.31860139548E+02  0.00000000000E+00 0. -1.
        -13    1    3    3    0    0  0.52951681313E+02 -0.23689682145E+02 -0.76377927489E+01  0.58509977543E+02  0.00000000000E+00 0.  1.
         13    1    3    3    0    0 -0.35125777550E+02  0.52612888337E+01  0.14388805440E+02  0.38321523074E+02  0.00000000000E+00 0. -1.
         21    1    1    2  502  501 -0.74025951103E+01  0.39503628903E+02 -0.16740635150E+03  0.17216335740E+03  0.00000000000E+00 0. -1.
<scales pt_clust_5="13000.00000" pt_clust_6="13000.00000" pt_clust_7="13000.00000" pt_clust_8="13000.00000" pt_clust_9="40.19123"></scales>
<clustering>
<clus scale="   40.191">  2  9  1 -1</clus>
<clus scale="   80.869">  5  6 -1 -1</clus>
<clus scale="   82.357">  2  5  1 -1</clus>
<clus scale="   93.131">  7  8 -1 -1</clus>
<clus scale="   40.191">  2  5  1 -1</clus>
</clustering>
</event>
<event>
 9    2  0.2984928E-005  0.1036438E+03  0.7546771E-02  0.1277513E+00
         -1   -1    0    0    0  501 -0.00000000000E+00  0.00000000000E+00  0.67376525589E+02  0.67376525589E+02  0.00000000000E+00 0.  1.
          2   -1    0    0  502    0  0.00000000000E+00 -0.00000000000E+00 -0.40075663098E+03  0.40075663098E+03  0.00000000000E+00 0. -1.
         24    2    1    2    0    0  0.92226457467E+02  0.40600737079E+02 -0.14518299872E+03  0.19465956443E+03  0.81609457772E+02 0.  0.
         23    2    1    2    0    0 -0.21312903618E+02  0.17678547337E+02 -0.14027523153E+03  0.16992788615E+03  0.91823608157E+02 0.  0.
        -13    1    3    3    0    0  0.76583346052E+02  0.33014241352E+02 -0.15402605261E+03  0.17515414328E+03  0.00000000000E+00 0.  1.
         14    1    3    3    0    0  0.15643111415E+02  0.75864957278E+01  0.88430538899E+01  0.19505421151E+02  0.00000000000E+00 0. -1.
        -13    1    4    4    0    0 -0.49860572809E+00  0.41245589173E+02 -0.13070766261E+03  0.13706181196E+03  0.00000000000E+00 0. -1.
         13    1    4    4    0    0 -0.20814297890E+02 -0.23567041836E+02 -0.95675689202E+01  0.32866074189E+02  0.00000000000E+00 0.  1.
         21    1    1    2  502  501 -0.70913553849E+02 -0.58279284416E+02 -0.47921875139E+02  0.10354570599E+03  0.00000000000E+00 0. -1.
<scales pt_clust_5="13000.00000" pt_clust_6="13000.00000" pt_clust_7="13000.00000" pt_clust_8="13000.00000" pt_clust_9="91.78893"></scales>
<clustering>
<clus scale="   81.609">  5  6 -1 -1</clus>
<clus scale="   91.789">  1  9  2 -1</clus>
<clus scale="   91.824">  7  8 -1 -1</clus>
<clus scale="   94.713">  1  5  2 -1</clus>
<clus scale="  103.644">  2  5  1 -1</clus>
</clustering>
</event>
<event>
 9    2  0.2984928E-005  0.1270910E+03  0.7546771E-02  0.1234131E+00
         -1   -1    0    0    0  501 -0.00000000000E+00  0.00000000000E+00  0.16438188585E+03  0.16438188585E+03  0.00000000000E+00 0.  1.
          2   -1    0    0  502    0  0.00000000000E+00 -0.00000000000E+00 -0.53240292146E+03  0.53240292146E+03  0.00000000000E+00 0. -1.
         23    2    1    2    0    0 -0.84694032669E+02 -0.34160281221E+02  0.12649891705E+03  0.18013066168E+03  0.90028191581E+02 0.  0.
         24    2    1    2    0    0  0.56421424848E+02  0.48747053448E+02 -0.30326036356E+03  0.32276669194E+03  0.81558794234E+02 0.  0.
        -13    1    4    4    0    0  0.19665735361E+02  0.79777651946E+01 -0.83736626672E+01  0.22814559195E+02  0.00000000000E+00 0.  1.
         14    1    4    4    0    0  0.36755689487E+02  0.40769288253E+02 -0.29488670089E+03  0.29995213274E+03  0.00000000000E+00 0. -1.
        -13    1    3    3    0    0 -0.28685375191E+02 -0.56977424429E+02  0.87060667802E+02  0.10792978052E+03  0.00000000000E+00 0.  1.
         13    1    3    3    0    0 -0.56008657478E+02  0.22817143208E+02  0.39438249243E+02  0.72200881158E+02  0.00000000000E+00 0. -1.
         21    1    1    2  502  501  0.28272607821E+02 -0.14586772226E+02 -0.19125958910E+03  0.19388745370E+03  0.00000000000E+00 0.  1.
<scales pt_clust_5="13000.00000" pt_clust_6="13000.00000" pt_clust_7="13000.00000" pt_clust_8="13000.00000" pt_clust_9="31.81374"></scales>
<clustering>
<clus scale="   31.814">  2  9  1 -1</clus>
<clus scale="   81.559">  5  6 -1 -1</clus>
<clus scale="   90.028">  7  8 -1 -1</clus>
<clus scale="  121.239">  2  5  1 -1</clus>
<clus scale="   31.814">  2  5  1 -1</clus>
</clustering>
</event>
<event>
 9    2  0.2984928E-005  0.1161003E+03  0.7546771E-02  0.1253392E+00
          4   -1    0    0  502    0  0.00000000000E+00  0.00000000000E+00  0.41653590050E+03  0.41653590050E+03  0.00000000000E+00 0. -1.
         -3   -1    0    0    0  501 -0.00000000000E+00 -0.00000000000E+00 -0.93874020690E+02  0.93874020690E+02  0.00000000000E+00 0.  1.
         23    2    1    2    0    0  0.54619010364E+02  0.51442408433E+02 -0.33474682242E+02  0.12276083361E+03  0.91214638290E+02 0.  0.
         24    2    1    2    0    0 -0.14126764467E+02 -0.54957717369E+02  0.31420051465E+03  0.32924864712E+03  0.80391492405E+02 0.  0.
        -13    1    4    4    0    0 -0.36870360162E+02 -0.37467409151E+01  0.76112213741E+02  0.84655363720E+02  0.00000000000E+00 0.  1.
         14    1    4    4    0    0  0.22743595696E+02 -0.51210976453E+02  0.23808830091E+03  0.24459328340E+03  0.00000000000E+00 0. -1.
        -13    1    3    3    0    0  0.22751666090E+02 -0.43660440508E+00 -0.53927849438E+02  0.58532400243E+02  0.00000000000E+00 0.  1.
         13    1    3    3    0    0  0.31867344274E+02  0.51879012838E+02  0.20453167196E+02  0.64228433364E+02  0.00000000000E+00 0. -1.
         21    1    1    2  502  501 -0.40492245897E+02  0.35153089357E+01  0.41936047406E+02  0.58400440467E+02  0.00000000000E+00 0.  1.
<scales pt_clust_5="13000.00000" pt_clust_6="13000.00000" pt_clust_7="13000.00000" pt_clust_8="13000.00000" pt_clust_9="40.64455"></scales>
<clustering>
<clus scale="   40.645">  1  9  2 -1</clus>
<clus scale="   80.391">  5  6 -1 -1</clus>
<clus scale="   91.215">  7  8 -1 -1</clus>
<clus scale="  107.805">  1  5  2 -1</clus>
<clus scale="   40.645">  1  5  2 -1</clus>
</clustering>
</event>
<event>
 9    2  0.2984928E-005  0.2767515E+03  0.7546771E-02  0.1097963E+00
         -1   -1    0    0    0  501 -0.00000000000E+00  0.00000000000E+00  0.35148853693E+03  0.35148853693E+03  0.00000000000E+00 0.  1.
          2   -1    0    0  502    0  0.00000000000E+00 -0.00000000000E+00 -0.46476152711E+03  0.46476152711E+03  0.00000000000E+00 0. -1.
         23    2    1    2    0    0  0.24057733473E+03 -0.74981865166E+02  0.19404105634E+03  0.33095335152E+03  0.91533902209E+02 0.  0.
         24    2    1    2    0    0 -0.28811206770E+03  0.83271005372E+02 -0.20467860717E+03  0.37188465808E+03  0.80388076154E+02 0.  0.
        -13    1    4    4    0    0 -0.51681187006E+02  0.46845312426E+02 -0.62144387590E+02  0.93420304514E+02  0.00000000000E+00 0.  1.
         14    1    4    4    0    0 -0.23643088069E+03  0.36425692946E+02 -0.14253421958E+03  0.27846435356E+03  0.00000000000E+00 0. -1.
        -11    1    3    3    0    0  0.21853970889E+02 -0.82599027995E+01 -0.91080435763E+01  0.25075456041E+02  0.00000000000E+00 0. -1.
         11    1    3    3    0    0  0.21872336384E+03 -0.66721962366E+02  0.20314909991E+03  0.30587789548E+03  0.00000000000E+00 0.  1.
         21    1    1    2  502  501  0.47534732973E+02 -0.82891402064E+01 -0.10263543934E+03  0.11341205444E+03  0.00000000000E+00 0. -1.
<scales pt_clust_5="13000.00000" pt_clust_6="13000.00000" pt_clust_7="13000.00000" pt_clust_8="13000.00000" pt_clust_9="48.25205"></scales>
<clustering>
<clus scale="   48.252">  2  9  1 -1</clus>
<clus scale="   80.388">  5  6 -1 -1</clus>
<clus scale="   91.534">  7  8 -1 -1</clus>
<clus scale="  273.268">  2  5  1 -1</clus>
<clus scale="   48.252">  2  5  1 -1</clus>
</clustering>
</event>
<event>
 9    2  0.2984928E-005  0.1868852E+03  0.7546771E-02  0.1184591E+00
          2   -1    0    0  502    0  0.00000000000E+00  0.00000000000E+00  0.42091730136E+03  0.42091730136E+03  0.00000000000E+00 0. -1.
         -1   -1    0    0    0  501 -0.00000000000E+00 -0.00000000000E+00 -0.24758956321E+03  0.24758956321E+03  0.00000000000E+00 0.  1.
         24    2    1    2    0    0 -0.34350985364E+02 -0.70279574466E+02 -0.12013846462E+03  0.16288762846E+03  0.77329942722E+02 0.  0.
         23    2    1    2    0    0 -0.33100300570E+01 -0.10601878650E+03 -0.22783665444E+02  0.14159527632E+03  0.90990040519E+02 0.  0.
        -11    1    3    3    0    0  0.67633832462E+01 -0.24200087453E+02 -0.91366563360E+02  0.94758833287E+02  0.00000000000E+00 0.  1.
         12    1    3    3    0    0 -0.41114368611E+02 -0.46079487013E+02 -0.28771901261E+02  0.68128795173E+02  0.00000000000E+00 0. -1.
        -13    1    4    4    0    0 -0.38074106762E+02 -0.90750682484E+02 -0.30127895680E+02  0.10292236917E+03  0.00000000000E+00 0.  1.
         13    1    4    4    0    0  0.34764076705E+02 -0.15268104017E+02  0.73442302363E+01  0.38672907147E+02  0.00000000000E+00 0. -1.
         21    1    1    2  502  501  0.37661015421E+02  0.17629836097E+03  0.31624986821E+03  0.36402395979E+03  0.00000000000E+00 0. -1.
<scales pt_clust_5="13000.00000" pt_clust_6="13000.00000" pt_clust_7="13000.00000" pt_clust_8="13000.00000" pt_clust_9="163.23881"></scales>
<clustering>
<clus scale="   77.330">  5  6 -1 -1</clus>
<clus scale="   90.990">  7  8 -1 -1</clus>
<clus scale="  109.996">  2  5  1 -1</clus>
<clus scale="  163.239">  1  9  2 -1</clus>
<clus scale="  163.239">  1  5  2 -1</clus>
</clustering>
</event>
<event>
 9    2  0.2984928E-005  0.1105499E+03  0.7546771E-02  0.1261138E+00
         -1   -1    0    0    0  501 -0.00000000000E+00  0.00000000000E+00  0.15345092638E+03  0.15345092638E+03  0.00000000000E+00 0.  1.
          2   -1    0    0  502    0  0.00000000000E+00 -0.00000000000E+00 -0.64637095287E+03  0.64637095287E+03  0.00000000000E+00 0. -1.
         23    2    1    2    0    0  0.61991130288E+02  0.50251815326E+01  0.12182377243E+03  0.16511862814E+03  0.92493119450E+02 0.  0.
         24    2    1    2    0    0 -0.28987752171E+02 -0.44979335170E+02 -0.35022871086E+03  0.36515958273E+03  0.88419118843E+02 0.  0.
        -11    1    4    4    0    0 -0.17120427171E+02 -0.60085335965E+02 -0.13148046916E+03  0.14556946931E+03  0.00000000000E+00 0.  1.
         12    1    4    4    0    0 -0.11867325000E+02  0.15106000795E+02 -0.21874824171E+03  0.21959011342E+03  0.00000000000E+00 0. -1.
        -13    1    3    3    0    0  0.17657339935E+02  0.30881919000E+02  0.10538507642E+03  0.11122719500E+03  0.00000000000E+00 0. -1.
         13    1    3    3    0    0  0.44333790353E+02 -0.25856737467E+02  0.16438696007E+02  0.53891433140E+02  0.00000000000E+00 0.  1.
         21    1    1    2  502  501 -0.33003378116E+02  0.39954153637E+02 -0.26451508805E+03  0.26954366839E+03  0.00000000000E+00 0.  1.
<scales pt_clust_5="13000.00000" pt_clust_6="13000.00000" pt_clust_7="13000.00000" pt_clust_8="13000.00000" pt_clust_9="51.82236"></scales>
<clustering>
<clus scale="   51.822">  2  9  1 -1</clus>
<clus scale="   88.419">  5  6 -1 -1</clus>
<clus scale="   92.493">  7  8 -1 -1</clus>
<clus scale="  107.165">  2  5  1 -1</clus>
<clus scale="   51.822">  2  5  1 -1</clus>
</clustering>
</event>
<event>
 9    2  0.2984928E-005  0.1863279E+03  0.7546771E-02  0.1190989E+00
         -1   -1    0    0    0  501 -0.00000000000E+00  0.00000000000E+00  0.62436977203E+02  0.62436977203E+02  0.00000000000E+00 0.  1.
          2   -1    0    0  502    0  0.00000000000E+00 -0.00000000000E+00 -0.99630395127E+03  0.99630395127E+03  0.00000000000E+00 0. -1.
         23    2    1    2    0    0  0.33119935905E+02 -0.71739035742E+01 -0.66730555037E+02  0.11716441981E+03  0.90145101068E+02 0.  0.
         24    2    1    2    0    0  0.69489652764E+01 -0.16453902963E+03 -0.53805241164E+03  0.56823064731E+03  0.79147270843E+02 0.  0.
        -11    1    4    4    0    0 -0.14879357248E+02 -0.18462564017E+02 -0.25496218940E+02  0.34818367602E+02  0.00000000000E+00 0.  1.
         12    1    4    4    0    0  0.21828322524E+02 -0.14607646561E+03 -0.51255619270E+03  0.53341227971E+03  0.00000000000E+00 0. -1.
        -13    1    3    3    0    0  0.70419553519E+00  0.33269323285E+02 -0.54586547677E+02  0.63929922184E+02  0.00000000000E+00 0.  1.
         13    1    3    3    0    0  0.32415740370E+02 -0.40443226859E+02 -0.12144007361E+02  0.53234497624E+02  0.00000000000E+00 0. -1.
         21    1    1    2  502  501 -0.40068901181E+02  0.17171293320E+03 -0.32908400739E+03  0.37334586136E+03  0.00000000000E+00 0.  1.
<scales pt_clust_5="13000.00000" pt_clust_6="13000.00000" pt_clust_7="13000.00000" pt_clust_8="13000.00000" pt_clust_9="168.68252"></scales>
<clustering>
<clus scale="   79.147">  5  6 -1 -1</clus>
<clus scale="   90.145">  7  8 -1 -1</clus>
<clus scale="   96.304">  1  7  2 -1</clus>
<clus scale="  168.683">  1  9  2 -1</clus>
<clus scale="  186.328">  2  5  1 -1</clus>
</clustering>
</event>
<event>
 9    2  0.2984928E-005  0.1060098E+03  0.7546771E-02  0.1274964E+00
          2   -1    0    0  502    0  0.00000000000E+00  0.00000000000E+00  0.26873116546E+03  0.26873116546E+03  0.00000000000E+00 0. -1.
         -1   -1    0    0    0  501 -0.00000000000E+00 -0.00000000000E+00 -0.61551480687E+03  0.61551480687E+03  0.00000000000E+00 0.  1.
         24    2    1    2    0    0  0.48454066743E+02 -0.51882415488E+02 -0.54475072686E+03  0.55462755071E+03  0.76280954164E+02 0.  0.
         23    2    1    2    0    0  0.23538551641E+02 -0.11201966045E+02  0.21330802370E+03  0.23267554832E+03  0.89207905221E+02 0.  0.
        -11    1    3    3    0    0  0.54667837205E+02 -0.39560859122E+02 -0.23308983120E+03  0.24266129360E+03  0.00000000000E+00 0.  1.
         12    1    3    3    0    0 -0.62137704620E+01 -0.12321556366E+02 -0.31166089566E+03  0.31196625711E+03  0.00000000000E+00 0. -1.
        -13    1    4    4    0    0 -0.10983237638E+02 -0.43156150527E+02  0.83950355612E+02  0.95030242790E+02  0.00000000000E+00 0.  1.
         13    1    4    4    0    0  0.34521789278E+02  0.31954184482E+02  0.12935766809E+03  0.13764530553E+03  0.00000000000E+00 0. -1.
         21    1    1    2  502  501 -0.71992618384E+02  0.63084381534E+02 -0.15340938252E+02  0.96942873290E+02  0.00000000000E+00 0. -1.
<scales pt_clust_5="13000.00000" pt_clust_6="13000.00000" pt_clust_7="13000.00000" pt_clust_8="13000.00000" pt_clust_9="73.61581"></scales>
<clustering>
<clus scale="   76.281">  5  6 -1 -1</clus>
<clus scale="   89.208">  7  8 -1 -1</clus>
<clus scale="   92.939">  1  7  2 -1</clus>
<clus scale="   73.616">  1  9  2 -1</clus>
<clus scale="   92.939">  1  5  2 -1</clus>
</clustering>
</event>
<event>
 9    2  0.2984928E-005  0.1037406E+03  0.7546771E-02  0.1276519E+00
          2   -1    0    0  502    0  0.00000000000E+00  0.00000000000E+00  0.22466981201E+03  0.22466981201E+03  0.00000000000E+00 0. -1.
         -1   -1    0    0    0  501 -0.00000000000E+00 -0.00000000000E+00 -0.11240127975E+03  0.11240127975E+03  0.00000000000E+00 0.  1.
         23    2    1    2    0    0  0.31458432073E+01 -0.52612325621E+02 -0.55287543655E+02  0.11734352358E+03  0.89077701502E+02 0.  0.
         24    2    1    2    0    0  0.34595069600E+02  0.55295784828E+02  0.13313525639E+03  0.16857710123E+03  0.80242132986E+02 0.  0.
        -11    1    4    4    0    0 -0.24882026144E+02  0.27701035960E+02  0.39672048376E+02  0.54408951843E+02  0.00000000000E+00 0.  1.
         12    1    4    4    0    0  0.59477095744E+02  0.27594748868E+02  0.93463208014E+02  0.11416814939E+03  0.00000000000E+00 0. -1.
        -11    1    3    3    0    0 -0.42845262056E+02 -0.28920516785E+02 -0.25393626700E+02  0.57592960062E+02  0.00000000000E+00 0. -1.
         11    1    3    3    0    0  0.45991105263E+02 -0.23691808836E+02 -0.29893916955E+02  0.59750563513E+02  0.00000000000E+00 0.  1.
         21    1    1    2  502  501 -0.37740912807E+02 -0.26834592066E+01  0.34420819529E+02  0.51150466957E+02  0.00000000000E+00 0. -1.
<scales pt_clust_5="13000.00000" pt_clust_6="13000.00000" pt_clust_7="13000.00000" pt_clust_8="13000.00000" pt_clust_9="37.83619"></scales>
<clustering>
<clus scale="   37.836">  1  9  2 -1</clus>
<clus scale="   80.242">  5  6 -1 -1</clus>
<clus scale="   89.078">  7  8 -1 -1</clus>
<clus scale="   96.260">  1  5  2 -1</clus>
<clus scale="   37.836">  1  5  2 -1</clus>
</clustering>
</event>
<event>
 9    2  0.2984928E-005  0.1369450E+03  0.7546771E-02  0.1217537E+00
          2   -1    0    0  502    0  0.00000000000E+00  0.00000000000E+00  0.89075326812E+03  0.89075326812E+03  0.00000000000E+00 0. -1.
         -1   -1    0    0    0  501 -0.00000000000E+00 -0.00000000000E+00 -0.26581165336E+02  0.26581165336E+02  0.00000000000E+00 0.  1.
         23    2    1    2    0    0  0.65618265773E+02 -0.74277652430E+02  0.32047835676E+03  0.34748405947E+03  0.90641425297E+02 0.  0.
         24    2    1    2    0    0 -0.90538208488E+02  0.61208806062E+02  0.43385786317E+03  0.45646730888E+03  0.90476922517E+02 0.  0.
        -13    1    4    4    0    0 -0.66767582316E+02  0.64906281831E+01  0.12462668863E+03  0.14153391756E+03  0.00000000000E+00 0.  1.
         14    1    4    4    0    0 -0.23770626172E+02  0.54718177879E+02  0.30923117454E+03  0.31493339132E+03  0.00000000000E+00 0. -1.
        -11    1    3    3    0    0  0.46666249466E+02 -0.38202393404E+02  0.29101384758E+03  0.29719727654E+03  0.00000000000E+00 0. -1.
         11    1    3    3    0    0  0.18952016306E+02 -0.36075259025E+02  0.29464509179E+02  0.50286782925E+02  0.00000000000E+00 0.  1.
         21    1    1    2  502  501  0.24919942716E+02  0.13068846368E+02  0.10983588285E+03  0.11338306510E+03  0.00000000000E+00 0.  1.
<scales pt_clust_5="13000.00000" pt_clust_6="13000.00000" pt_clust_7="13000.00000" pt_clust_8="13000.00000" pt_clust_9="28.13891"></scales>
<clustering>
<clus scale="   28.139">  1  9  2 -1</clus>
<clus scale="   90.477">  5  6 -1 -1</clus>
<clus scale="   90.641">  7  8 -1 -1</clus>
<clus scale="  136.836">  1  5  2 -1</clus>
<clus scale="   28.139">  1  5  2 -1</clus>
</clustering>
</event>
<event>
 9    2  0.2984928E-005  0.9296881E+02  0.7546771E-02  0.1302250E+00
          2   -1    0    0  502    0  0.00000000000E+00  0.00000000000E+00  0.90136029296E+03  0.90136029296E+03  0.00000000000E+00 0. -1.
         -1   -1    0    0    0  501 -0.00000000000E+00 -0.00000000000E+00 -0.31375945081E+02  0.31375945081E+02  0.00000000000E+00 0.  1.
         23    2    1    2    0    0  0.11386411942E+02 -0.11777741811E+02  0.91850591915E+02  0.13036717962E+03  0.91053306960E+02 0.  0.
         24    2    1    2    0    0  0.61888848938E+02  0.31507482307E+02  0.30009254025E+03  0.31834227152E+03  0.80394763862E+02 0.  0.
        -11    1    4    4    0    0  0.76746348173E+02  0.38570172862E+02  0.27684105258E+03  0.28985967051E+03  0.00000000000E+00 0.  1.
         12    1    4    4    0    0 -0.14857499235E+02 -0.70626905549E+01  0.23251487666E+02  0.28482601006E+02  0.00000000000E+00 0. -1.
        -13    1    3    3    0    0 -0.18559857096E+02 -0.21331350574E+02  0.94675128576E+02  0.98807260784E+02  0.00000000000E+00 0. -1.
         13    1    3    3    0    0  0.29946269038E+02  0.95536087626E+01 -0.28245366613E+01  0.31559918838E+02  0.00000000000E+00 0.  1.
         21    1    1    2  502  501 -0.73275260880E+02 -0.19729740496E+02  0.47804121571E+03  0.48402678690E+03  0.00000000000E+00 0. -1.
<scales pt_clust_5="13000.00000" pt_clust_6="13000.00000" pt_clust_7="13000.00000" pt_clust_8="13000.00000" pt_clust_9="75.88496"></scales>
<clustering>
<clus scale="   75.885">  1  9  2 -1</clus>
<clus scale="   80.395">  5  6 -1 -1</clus>
<clus scale="   82.558">  1  5  2 -1</clus>
<clus scale="   91.053">  7  8 -1 -1</clus>
<clus scale="   75.885">  1  5  2 -1</clus>
</clustering>
</event>
<event>
 9    2  0.2984928E-005  0.3565925E+03  0.7546771E-02  0.1060160E+00
          2   -1    0    0  502    0  0.00000000000E+00  0.00000000000E+00  0.16800746726E+03  0.16800746726E+03  0.00000000000E+00 0. -1.
         -1   -1    0    0    0  501 -0.00000000000E+00 -0.00000000000E+00 -0.12459799857E+04  0.12459799857E+04  0.00000000000E+00 0.  1.
         24    2    1    2    0    0  0.28047180024E+03  0.23300871975E+03 -0.82886871405E+03  0.90913000973E+03  0.80848842003E+02 0.  0.
         23    2    1    2    0    0 -0.17317581543E+03 -0.25937098133E+03 -0.21463835492E+03  0.38911953072E+03  0.89895588230E+02 0.  0.
        -13    1    3    3    0    0  0.16339266024E+03  0.14483632761E+03 -0.58730198059E+03  0.62657668295E+03  0.00000000000E+00 0.  1.
         14    1    3    3    0    0  0.11707914000E+03  0.88172392136E+02 -0.24156673346E+03  0.28255332677E+03  0.00000000000E+00 0. -1.
        -11    1    4    4    0    0 -0.83217149836E+02 -0.18519974800E+03 -0.16805486497E+03  0.26356494138E+03  0.00000000000E+00 0.  1.
         11    1    4    4    0    0 -0.89958665591E+02 -0.74171233326E+02 -0.46583489950E+02  0.12555458934E+03  0.00000000000E+00 0. -1.
         21    1    1    2  502  501 -0.10729598481E+03  0.26362261580E+02 -0.34465449509E+02  0.11573791255E+03  0.00000000000E+00 0. -1.
<scales pt_clust_5="13000.00000" pt_clust_6="13000.00000" pt_clust_7="13000.00000" pt_clust_8="13000.00000" pt_clust_9="110.48709"></scales>
<clustering>
<clus scale="   80.849">  5  6 -1 -1</clus>
<clus scale="   89.896">  7  8 -1 -1</clus>
<clus scale="  110.487">  1  9  2 -1</clus>
<clus scale="  354.420">  2  5  1 -1</clus>
<clus scale="  110.487">  1  5  2 -1</clus>
</clustering>
</event>
<event>
 9    2  0.2984928E-005  0.9367223E+02  0.7546771E-02  0.1300939E+00
         -1   -1    0    0    0  501 -0.00000000000E+00  0.00000000000E+00  0.84015506311E+02  0.84015506311E+02  0.00000000000E+00 0.  1.
          2   -1    0    0  502    0  0.00000000000E+00 -0.00000000000E+00 -0.44959291600E+03  0.44959291600E+03  0.00000000000E+00 0. -1.
         23    2    1    2    0    0  0.14364362169E+02 -0.20530953744E+02  0.46883387819E+02  0.10507118476E+03  0.90631378958E+02 0.  0.
         24    2    1    2    0    0 -0.10808495782E+02 -0.14146865248E+01 -0.38494212683E+03  0.39316023162E+03  0.79219327194E+02 0.  0.
        -13    1    4    4    0    0 -0.12348362160E+02  0.37601890566E+02 -0.22957940199E+03  0.23296584737E+03  0.00000000000E+00 0.  1.
         14    1    4    4    0    0  0.15398663779E+01 -0.39016577091E+02 -0.15536272484E+03  0.16019438425E+03  0.00000000000E+00 0. -1.
        -11    1    3    3    0    0 -0.19579740216E+02 -0.13286165993E+02  0.62635070712E+02  0.66955511474E+02  0.00000000000E+00 0.  1.
         11    1    3    3    0    0  0.33944102385E+02 -0.72447877513E+01 -0.15751682892E+02  0.38115673289E+02  0.00000000000E+00 0. -1.
         21    1    1    2  502  501 -0.35558663870E+01  0.21945640269E+02 -0.27518670681E+02  0.35377005931E+02  0.00000000000E+00 0.  1.
<scales pt_clust_5="13000.00000" pt_clust_6="13000.00000" pt_clust_7="13000.00000" pt_clust_8="13000.00000" pt_clust_9="22.23185"></scales>
<clustering>
<clus scale="   22.232">  2  9  1 -1</clus>
<clus scale="   79.219">  5  6 -1 -1</clus>
<clus scale="   82.681">  2  5  1 -1</clus>
<clus scale="   90.631">  7  8 -1 -1</clus>
<clus scale="   22.232">  2  5  1 -1</clus>
</clustering>
</event>
<event>
 9    2  0.2984928E-005  0.9508153E+02  0.7546771E-02  0.1292062E+00
         -1   -1    0    0    0  501 -0.00000000000E+00  0.00000000000E+00  0.16672637500E+03  0.16672637500E+03  0.00000000000E+00 0.  1.
          2   -1    0    0  502    0  0.00000000000E+00 -0.00000000000E+00 -0.23589469974E+03  0.23589469974E+03  0.00000000000E+00 0. -1.
         23    2    1    2    0    0 -0.29857650874E+02  0.32803054016E+01  0.12991610941E+03  0.16147092471E+03  0.91062749368E+02 0.  0.
         24    2    1    2    0    0  0.89211338969E+01 -0.96751371732E+01 -0.81241696013E+02  0.12129130577E+03  0.89096424026E+02 0.  0.
        -11    1    4    4    0    0 -0.37235535399E+02 -0.20213523089E+02 -0.33048879824E+02  0.53733602798E+02  0.00000000000E+00 0.  1.
         12    1    4    4    0    0  0.46156669295E+02  0.10538385915E+02 -0.48192816189E+02  0.67557702969E+02  0.00000000000E+00 0. -1.
        -11    1    3    3    0    0  0.20884544410E+02 -0.28974862655E+02  0.50835786576E+02  0.62128769969E+02  0.00000000000E+00 0.  1.
         11    1    3    3    0    0 -0.50742195283E+02  0.32255168056E+02  0.79080322832E+02  0.99342154737E+02  0.00000000000E+00 0. -1.
         21    1    1    2  502  501  0.20936516977E+02  0.63948317716E+01 -0.11784273814E+03  0.11985884426E+03  0.00000000000E+00 0. -1.
<scales pt_clust_5="13000.00000" pt_clust_6="13000.00000" pt_clust_7="13000.00000" pt_clust_8="13000.00000" pt_clust_9="21.89136"></scales>
<clustering>
<clus scale="   21.891">  2  9  1 -1</clus>
<clus scale="   89.096">  5  6 -1 -1</clus>
<clus scale="   91.063">  7  8 -1 -1</clus>
<clus scale="   93.200">  2  5  1 -1</clus>
<clus scale="   21.891">  2  5  1 -1</clus>
</clustering>
</event>
<event>
 9    2  0.2984928E-005  0.2313959E+03  0.7546771E-02  0.1125850E+00
         -1   -1    0    0    0  501 -0.00000000000E+00  0.00000000000E+00  0.12096079901E+03  0.12096079901E+03  0.00000000000E+00 0.  1.
          2   -1    0    0  502    0  0.00000000000E+00 -0.00000000000E+00 -0.93650316276E+03  0.93650316276E+03  0.00000000000E+00 0. -1.
         24    2    1    2    0    0  0.15736224952E+03  0.15381252362E+03 -0.16623494634E+03  0.28958921323E+03  0.88355447145E+02 0.  0.
         23    2    1    2    0    0 -0.22318826006E+03 -0.23273904559E+02 -0.51605266681E+03  0.57006114111E+03  0.91129992974E+02 0.  0.
        -11    1    3    3    0    0  0.61504755974E+02  0.59152947891E+02 -0.14290820914E+02  0.86522446880E+02  0.00000000000E+00 0.  1.
         12    1    3    3    0    0  0.95857493541E+02  0.94659575725E+02 -0.15194412542E+03  0.20306676635E+03  0.00000000000E+00 0. -1.
        -11    1    4    4    0    0 -0.74498263443E+02 -0.19686844271E+02 -0.88330944030E+02  0.11721739959E+03  0.00000000000E+00 0.  1.
         11    1    4    4    0    0 -0.14868999662E+03 -0.35870602884E+01 -0.42772172279E+03  0.45284374152E+03  0.00000000000E+00 0. -1.
         21    1    1    2  502  501  0.65826010544E+02 -0.13053861906E+03 -0.13325475059E+03  0.19781360743E+03  0.00000000000E+00 0. -1.
<scales pt_clust_5="13000.00000" pt_clust_6="13000.00000" pt_clust_7="13000.00000" pt_clust_8="13000.00000" pt_clust_9="146.19643"></scales>
<clustering>
<clus scale="   88.355">  5  6 -1 -1</clus>
<clus scale="   91.130">  7  8 -1 -1</clus>
<clus scale="  146.196">  1  9  2 -1</clus>
<clus scale="  230.317">  1  5  2 -1</clus>
<clus scale="  231.396">  2  5  1 -1</clus>
</clustering>
</event>
<event>
 9    2  0.2984928E-005  0.1274003E+03  0.7546771E-02  0.1236211E+00
         -1   -1    0    0    0  501 -0.00000000000E+00  0.00000000000E+00  0.28565686078E+03  0.28565686078E+03  0.00000000000E+00 0.  1.
          2   -1    0    0  502    0  0.00000000000E+00 -0.00000000000E+00 -0.40812418670E+03  0.40812418670E+03  0.00000000000E+00 0. -1.
         24    2    1    2    0    0  0.22891946433E+02 -0.74596003096E+02  0.20276206767E+03  0.23168901484E+03  0.80490612038E+02 0.  0.
         23    2    1    2    0    0  0.46220110092E+02  0.13813595871E+03 -0.67099209349E+02  0.18741951066E+03  0.96984160637E+02 0.  0.
        -11    1    3    3    0    0  0.58747537415E+01 -0.87437009160E+02  0.18165852112E+03  0.20169174896E+03  0.00000000000E+00 0.  1.
         12    1    3    3    0    0  0.17017192691E+02  0.12841006064E+02  0.21103546542E+02  0.29997265883E+02  0.00000000000E+00 0. -1.
        -13    1    4    4    0    0 -0.20028066581E+02  0.67172645143E+02 -0.12364340864E+01  0.70105752087E+02  0.00000000000E+00 0.  1.
         13    1    4    4    0    0  0.66248176672E+02  0.70963313569E+02 -0.65862775263E+02  0.11731375857E+03  0.00000000000E+00 0. -1.
         21    1    1    2  502  501 -0.69112056525E+02 -0.63539955617E+02 -0.25813018424E+03  0.27467252198E+03  0.00000000000E+00 0. -1.
<scales pt_clust_5="13000.00000" pt_clust_6="13000.00000" pt_clust_7="13000.00000" pt_clust_8="13000.00000" pt_clust_9="93.88185"></scales>
<clustering>
<clus scale="   80.491">  5  6 -1 -1</clus>
<clus scale="   93.882">  2  9  1 -1</clus>
<clus scale="   96.984">  7  8 -1 -1</clus>
<clus scale="  115.341">  1  5  2 -1</clus>
<clus scale="   93.882">  2  5  1 -1</clus>
</clustering>
</event>
<event>
 9    2  0.2984928E-005  0.2730194E+03  0.7546771E-02  0.1147996E+00
         -1   -1    0    0    0  501 -0.00000000000E+00  0.00000000000E+00  0.62435578434E+03  0.62435578434E+03  0.00000000000E+00 0.  1.
          2   -1    0    0  502    0  0.00000000000E+00 -0.00000000000E+00 -0.16748911957E+03  0.16748911957E+03  0.00000000000E+00 0. -1.
         23    2    1    2    0    0 -0.17314258279E+03  0.19043150341E+03  0.11384693098E+03  0.29537522757E+03  0.89682160455E+02 0.  0.
         24    2    1    2    0    0 -0.88051582927E+01 -0.72303736628E+01  0.22673828030E+02  0.85022068775E+02  0.81147030663E+02 0.  0.
        -13    1    4    4    0    0 -0.24932715798E+02 -0.36929747688E+02  0.25096151183E+02  0.51139645927E+02  0.00000000000E+00 0.  1.
         14    1    4    4    0    0  0.16127557506E+02  0.29699374025E+02 -0.24223231528E+01  0.33882422848E+02  0.00000000000E+00 0. -1.
        -11    1    3    3    0    0 -0.13394332309E+03  0.19044332838E+03  0.10373343282E+03  0.25489233062E+03  0.00000000000E+00 0.  1.
         11    1    3    3    0    0 -0.39199259696E+02 -0.11824967760E-01  0.10113498162E+02  0.40482896952E+02  0.00000000000E+00 0. -1.
         21    1    1    2  502  501  0.18194774108E+03 -0.18320112975E+03  0.32034590576E+03  0.41144760756E+03  0.00000000000E+00 0.  1.
<scales pt_clust_5="13000.00000" pt_clust_6="13000.00000" pt_clust_7="13000.00000" pt_clust_8="13000.00000" pt_clust_9="257.86953"></scales>
<clustering>
<clus scale="   81.147">  5  6 -1 -1</clus>
<clus scale="   81.943">  2  5  1 -1</clus>
<clus scale="   89.682">  7  8 -1 -1</clus>
<clus scale="  257.870">  1  9  2 -1</clus>
<clus scale="   81.943">  2  5  1 -1</clus>
</clustering>
</event>
<event>
 9    2  0.2984928E-005  0.3578251E+03  0.7546771E-02  0.1059789E+00
         -1   -1    0    0    0  501 -0.00000000000E+00  0.00000000000E+00  0.20875240752E+03  0.20875240752E+03  0.00000000000E+00 0.  1.
          2   -1    0    0  502    0  0.00000000000E+00 -0.00000000000E+00 -0.10275197082E+04  0.10275197082E+04  0.00000000000E+00 0. -1.
         24    2    1    2    0    0 -0.13060988179E+03 -0.33372389179E+03 -0.45887489225E+02  0.37002975505E+03  0.79911080453E+02 0.  0.
         23    2    1    2    0    0  0.14493379618E+03  0.31003511984E+03 -0.75213497385E+03  0.83164928729E+03  0.93839956071E+02 0.  0.
        -13    1    3    3    0    0 -0.91262365671E+02 -0.15860924573E+03  0.63515169144E+01  0.18310121241E+03  0.00000000000E+00 0.  1.
         14    1    3    3    0    0 -0.39347516120E+02 -0.17511464606E+03 -0.52239006139E+02  0.18692854264E+03  0.00000000000E+00 0. -1.
        -11    1    4    4    0    0  0.65954376153E+00  0.71344034331E+02 -0.10473740488E+03  0.12672935813E+03  0.00000000000E+00 0.  1.
         11    1    4    4    0    0  0.14427425242E+03  0.23869108551E+03 -0.64739756897E+03  0.70491992916E+03  0.00000000000E+00 0. -1.
         21    1    1    2  502  501 -0.14323914388E+02  0.23688771945E+02 -0.20744837645E+02  0.34593073419E+02  0.00000000000E+00 0. -1.
<scales pt_clust_5="13000.00000" pt_clust_6="13000.00000" pt_clust_7="13000.00000" pt_clust_8="13000.00000" pt_clust_9="27.68271"></scales>
<clustering>
<clus scale="   27.683">  1  9  2 -1</clus>
<clus scale="   79.911">  5  6 -1 -1</clus>
<clus scale="   93.840">  7  8 -1 -1</clus>
<clus scale="  354.427">  1  5  2 -1</clus>
<clus scale="  357.825">  2  5  1 -1</clus>
</clustering>
</event>
<event>
 9    2  0.2984928E-005  0.9960190E+02  0.7546771E-02  0.1288884E+00
         -1   -1    0    0    0  501 -0.00000000000E+00  0.00000000000E+00  0.10839627883E+03  0.10839627883E+03  0.00000000000E+00 0.  1.
          2   -1    0    0  502    0  0.00000000000E+00 -0.00000000000E+00 -0.23266807525E+03  0.23266807525E+03  0.00000000000E+00 0. -1.
         24    2    1    2    0    0  0.25128728068E+02  0.26270851301E+02  0.65589466000E+02  0.10809732316E+03  0.77855267137E+02 0.  0.
         23    2    1    2    0    0 -0.38305261029E+01 -0.48140575479E+02 -0.14883965225E+03  0.18183317968E+03  0.92616819276E+02 0.  0.
        -13    1    3    3    0    0 -0.82377772194E+01  0.36707560705E+02  0.62566787652E+02  0.73006225101E+02  0.00000000000E+00 0.  1.
         14    1    3    3    0    0  0.33366505288E+02 -0.10436709404E+02  0.30226783478E+01  0.35091098055E+02  0.00000000000E+00 0. -1.
        -11    1    4    4    0    0  0.20976202888E+02  0.14155406841E+01 -0.11498732185E+03  0.11689349439E+03  0.00000000000E+00 0.  1.
         11    1    4    4    0    0 -0.24806728991E+02 -0.49556116163E+02 -0.33852330393E+02  0.64939685289E+02  0.00000000000E+00 0. -1.
         21    1    1    2  502  501 -0.21298201965E+02  0.21869724179E+02 -0.41021610176E+02  0.51133851254E+02  0.00000000000E+00 0. -1.
<scales pt_clust_5="13000.00000" pt_clust_6="13000.00000" pt_clust_7="13000.00000" pt_clust_8="13000.00000" pt_clust_9="30.52701"></scales>
<clustering>
<clus scale="   30.527">  2  9  1 -1</clus>
<clus scale="   77.855">  5  6 -1 -1</clus>
<clus scale="   86.047">  1  5  2 -1</clus>
<clus scale="   92.617">  7  8 -1 -1</clus>
<clus scale="   30.527">  2  5  1 -1</clus>
</clustering>
</event>
<event>
 9    2  0.2984928E-005  0.1543667E+03  0.7546771E-02  0.1197082E+00
          2   -1    0    0  502    0  0.00000000000E+00  0.00000000000E+00  0.61129349134E+02  0.61129349134E+02  0.00000000000E+00 0. -1.
         -1   -1    0    0    0  501 -0.00000000000E+00 -0.00000000000E+00 -0.61342962015E+03  0.61342962015E+03  0.00000000000E+00 0.  1.
         23    2    1    2    0    0  0.11990838125E+03  0.47191810326E+02 -0.42380598542E+03  0.45228850005E+03  0.91368961603E+02 0.  0.
         24    2    1    2    0    0 -0.90919401792E+02 -0.71675883659E+02 -0.85327536430E+02  0.16479700570E+03  0.80458030638E+02 0.  0.
        -13    1    4    4    0    0 -0.29982974374E+02 -0.30956646749E+02 -0.80547599943E+02  0.91352113204E+02  0.00000000000E+00 0.  1.
         14    1    4    4    0    0 -0.60936427418E+02 -0.40719236910E+02 -0.47799364866E+01  0.73444892497E+02  0.00000000000E+00 0. -1.
        -11    1    3    3    0    0  0.86583450735E+02  0.28197001375E+02 -0.39206474825E+03  0.40250034988E+03  0.00000000000E+00 0.  1.
         11    1    3    3    0    0  0.33324930513E+02  0.18994808951E+02 -0.31741237164E+02  0.49788150171E+02  0.00000000000E+00 0. -1.
         21    1    1    2  502  501 -0.28988979455E+02  0.24484073332E+02 -0.43166749166E+02  0.57473463532E+02  0.00000000000E+00 0. -1.
<scales pt_clust_5="13000.00000" pt_clust_6="13000.00000" pt_clust_7="13000.00000" pt_clust_8="13000.00000" pt_clust_9="37.94510"></scales>
<clustering>
<clus scale="   37.945">  1  9  2 -1</clus>
<clus scale="   80.458">  5  6 -1 -1</clus>
<clus scale="   91.369">  7  8 -1 -1</clus>
<clus scale="  148.170">  1  5  2 -1</clus>
<clus scale="   37.945">  1  5  2 -1</clus>
</clustering>
</event>
<event>
 9    2  0.2984928E-005  0.1769769E+03  0.7546771E-02  0.1196914E+00
         -1   -1    0    0    0  501 -0.00000000000E+00  0.00000000000E+00  0.41458289683E+03  0.41458289683E+03  0.00000000000E+00 0.  1.
          2   -1    0    0  502    0  0.00000000000E+00 -0.00000000000E+00 -0.78509357546E+03  0.78509357546E+03  0.00000000000E+00 0. -1.
         24    2    1    2    0    0 -0.15743248988E+03 -0.42938166727E+01  0.35694844801E+03  0.39849004778E+03  0.81109172806E+02 0.  0.
         23    2    1    2    0    0  0.76699449869E+01 -0.36521288276E+02 -0.59079863976E+02  0.11501914796E+03  0.91358313886E+02 0.  0.
        -13    1    3    3    0    0 -0.13234979259E+03 -0.20514570782E+02  0.33681934472E+03  0.36247011765E+03  0.00000000000E+00 0.  1.
         14    1    3    3    0    0 -0.25082697295E+02  0.16220754109E+02  0.20129103290E+02  0.36019930132E+02  0.00000000000E+00 0. -1.
        -11    1    4    4    0    0 -0.30977168894E+02 -0.23754318858E+02 -0.63016624748E+02  0.74127914120E+02  0.00000000000E+00 0.  1.
         11    1    4    4    0    0  0.38647113881E+02 -0.12766969419E+02  0.39367607722E+01  0.40891233839E+02  0.00000000000E+00 0. -1.
         21    1    1    2  502  501  0.14976254489E+03  0.40815104949E+02 -0.66837926267E+03  0.68616727655E+03  0.00000000000E+00 0. -1.
<scales pt_clust_5="13000.00000" pt_clust_6="13000.00000" pt_clust_7="13000.00000" pt_clust_8="13000.00000" pt_clust_9="157.29632"></scales>
<clustering>
<clus scale="   81.109">  5  6 -1 -1</clus>
<clus scale="   91.358">  7  8 -1 -1</clus>
<clus scale="   98.686">  2  7  1 -1</clus>
<clus scale="  157.296">  2  9  1 -1</clus>
<clus scale="   98.686">  2  5  1 -1</clus>
</clustering>
</event>
<event>
 9    2  0.2984928E-005  0.1324884E+03  0.7546771E-02  0.1226180E+00
          2   -1    0    0  502    0  0.00000000000E+00  0.00000000000E+00  0.20047273589E+03  0.20047273589E+03  0.00000000000E+00 0. -1.
         -1   -1    0    0    0  501 -0.00000000000E+00 -0.00000000000E+00 -0.28241267638E+03  0.28241267638E+03  0.00000000000E+00 0.  1.
         24    2    1    2    0    0 -0.81545143044E+02  0.43762953706E+02 -0.20914933739E+03  0.24272249602E+03  0.81277046386E+02 0.  0.
         23    2    1    2    0    0  0.11093067993E+03 -0.72676336097E+02  0.11322531721E+03  0.19663076785E+03  0.90863748722E+02 0.  0.
        -13    1    3    3    0    0 -0.77488788609E+02 -0.17047810337E+01 -0.12986614531E+03  0.15123701377E+03  0.00000000000E+00 0.  1.
         14    1    3    3    0    0 -0.40563544347E+01  0.45467734740E+02 -0.79283192086E+02  0.91485482242E+02  0.00000000000E+00 0. -1.
        -11    1    4    4    0    0  0.59199653182E+02 -0.77047790706E+02  0.36087277567E+02  0.10364966277E+03  0.00000000000E+00 0.  1.
         11    1    4    4    0    0  0.51731026751E+02  0.43714546084E+01  0.77138039638E+02  0.92981105087E+02  0.00000000000E+00 0. -1.
         21    1    1    2  502  501 -0.29385536889E+02  0.28913382391E+02  0.13984079702E+02  0.43532148404E+02  0.00000000000E+00 0. -1.
<scales pt_clust_5="13000.00000" pt_clust_6="13000.00000" pt_clust_7="13000.00000" pt_clust_8="13000.00000" pt_clust_9="41.22491"></scales>
<clustering>
<clus scale="   41.225">  1  9  2 -1</clus>
<clus scale="   81.277">  5  6 -1 -1</clus>
<clus scale="   90.864">  7  8 -1 -1</clus>
<clus scale="  126.107">  2  5  1 -1</clus>
<clus scale="   41.225">  1  5  2 -1</clus>
</clustering>
</event>
<event>
 9    2  0.2984928E-005  0.1018037E+03  0.7546771E-02  0.1282283E+00
         -1   -1    0    0    0  501 -0.00000000000E+00  0.00000000000E+00  0.89496133222E+02  0.89496133222E+02  0.00000000000E+00 0.  1.
          2   -1    0    0  502    0  0.00000000000E+00 -0.00000000000E+00 -0.22268621846E+03  0.22268621846E+03  0.00000000000E+00 0. -1.
         24    2    1    2    0    0  0.30771323395E+02 -0.19704285130E+02  0.11271759472E+02  0.88959192642E+02  0.80321555002E+02 0.  0.
         23    2    1    2    0    0 -0.64180369210E+02  0.15726765333E+01 -0.52969535443E+02  0.12414863039E+03  0.92116869460E+02 0.  0.
        -13    1    3    3    0    0  0.20495639600E+02  0.30391276593E+02  0.91267822341E+01  0.37775641484E+02  0.00000000000E+00 0.  1.
         14    1    3    3    0    0  0.10275683795E+02 -0.50095561723E+02  0.21449772374E+01  0.51183551158E+02  0.00000000000E+00 0. -1.
        -13    1    4    4    0    0 -0.77985730790E+02 -0.14134643918E+02 -0.14800484733E+02  0.80626402089E+02  0.00000000000E+00 0.  1.
         13    1    4    4    0    0  0.13805361579E+02  0.15707320452E+02 -0.38169050711E+02  0.43522228301E+02  0.00000000000E+00 0. -1.
         21    1    1    2  502  501  0.33409045815E+02  0.18131608597E+02 -0.91492309269E+02  0.99074528654E+02  0.00000000000E+00 0. -1.
<scales pt_clust_5="13000.00000" pt_clust_6="13000.00000" pt_clust_7="13000.00000" pt_clust_8="13000.00000" pt_clust_9="38.01210"></scales>
<clustering>
<clus scale="   38.012">  2  9  1 -1</clus>
<clus scale="   80.322">  5  6 -1 -1</clus>
<clus scale="   91.269">  1  5  2 -1</clus>
<clus scale="   92.117">  7  8 -1 -1</clus>
<clus scale="   38.012">  2  5  1 -1</clus>
</clustering>
</event>
<event>
 9    2  0.2984928E-005  0.1466554E+03  0.7546771E-02  0.1219017E+00
         -1   -1    0    0    0  501 -0.00000000000E+00  0.00000000000E+00  0.76617270965E+02  0.76617270965E+02  0.00000000000E+00 0.  1.
          2   -1    0    0  502    0  0.00000000000E+00 -0.00000000000E+00 -0.50540759083E+03  0.50540759083E+03  0.00000000000E+00 0. -1.
         24    2    1    2    0    0  0.33278452002E+01  0.70906058135E+02 -0.89000947626E+02  0.13994580689E+03  0.81393590379E+02 0.  0.
         23    2    1    2    0    0  0.98659418657E+02  0.35359554425E+01 -0.89753598202E+02  0.16197031946E+03  0.91828601886E+02 0.  0.
        -13    1    3    3    0    0  0.15598025536E+02  0.80614922688E+02 -0.92732461625E+02  0.12386029872E+03  0.00000000000E+00 0.  1.
         14    1    3    3    0    0 -0.12270180336E+02 -0.97088645530E+01  0.37315139991E+01  0.16085508171E+02  0.00000000000E+00 0. -1.
        -11    1    4    4    0    0  0.48321492702E+02 -0.22236735683E+02  0.30650110512E+01  0.53280703482E+02  0.00000000000E+00 0.  1.
         11    1    4    4    0    0  0.50337925955E+02  0.25772691125E+02 -0.92818609253E+02  0.10868961598E+03  0.00000000000E+00 0. -1.
         21    1    1    2  502  501 -0.10198726386E+03 -0.74442013577E+02 -0.25003577404E+03  0.28010873545E+03  0.00000000000E+00 0. -1.
<scales pt_clust_5="13000.00000" pt_clust_6="13000.00000" pt_clust_7="13000.00000" pt_clust_8="13000.00000" pt_clust_9="114.34729"></scales>
<clustering>
<clus scale="   81.394">  5  6 -1 -1</clus>
<clus scale="   91.829">  7  8 -1 -1</clus>
<clus scale="  107.998">  1  5  2 -1</clus>
<clus scale="  114.347">  2  9  1 -1</clus>
<clus scale="  114.347">  2  5  1 -1</clus>
</clustering>
</event>
<event>
 9    2  0.2984928E-005  0.1393661E+03  0.7546771E-02  0.1216739E+00
          2   -1    0    0  502    0  0.00000000000E+00  0.00000000000E+00  0.67051736043E+03  0.67051736043E+03  0.00000000000E+00 0. -1.
         -1   -1    0    0    0  501 -0.00000000000E+00 -0.00000000000E+00 -0.89095436394E+02  0.89095436394E+02  0.00000000000E+00 0.  1.
         24    2    1    2    0    0  0.67056569634E+02  0.50064491661E+02  0.44264388431E+02  0.12293198057E+03  0.78421291155E+02 0.  0.
         23    2    1    2    0    0 -0.12159440195E+03 -0.87876699670E+02  0.11526949750E+03  0.20960511463E+03  0.90220474907E+02 0.  0.
        -11    1    3    3    0    0  0.32737621776E+02 -0.18793410018E+02  0.14862708180E+02  0.40569005831E+02  0.00000000000E+00 0.  1.
         12    1    3    3    0    0  0.34318947857E+02  0.68857901679E+02  0.29401680251E+02  0.82362974735E+02  0.00000000000E+00 0. -1.
        -11    1    4    4    0    0 -0.69771037875E+02 -0.78766088524E+01  0.83575043021E+02  0.10915505718E+03  0.00000000000E+00 0. -1.
         11    1    4    4    0    0 -0.51823364077E+02 -0.80000090818E+02  0.31694454479E+02  0.10045005744E+03  0.00000000000E+00 0.  1.
         21    1    1    2  502  501  0.54537832318E+02  0.37812208009E+02  0.42188803811E+03  0.42707570163E+03  0.00000000000E+00 0. -1.
<scales pt_clust_5="13000.00000" pt_clust_6="13000.00000" pt_clust_7="13000.00000" pt_clust_8="13000.00000" pt_clust_9="66.36368"></scales>
<clustering>
<clus scale="   66.364">  1  9  2 -1</clus>
<clus scale="   78.421">  5  6 -1 -1</clus>
<clus scale="   90.220">  7  8 -1 -1</clus>
<clus scale="  132.034">  2  5  1 -1</clus>
<clus scale="   66.364">  1  5  2 -1</clus>
</clustering>
</event>
<event>
 9    2  0.2984928E-005  0.1187027E+03  0.7546771E-02  0.1248359E+00
         -1   -1    0    0    0  501 -0.00000000000E+00  0.00000000000E+00  0.13465179256E+03  0.13465179256E+03  0.00000000000E+00 0.  1.
          2   -1    0    0  502    0  0.00000000000E+00 -0.00000000000E+00 -0.52069475318E+03  0.52069475318E+03  0.00000000000E+00 0. -1.
         24    2    1    2    0    0  0.82308201055E+02 -0.11380053206E+02  0.94333653099E+02  0.14894286870E+03  0.79881127039E+02 0.  0.
         23    2    1    2    0    0 -0.35473505459E+02 -0.14105734240E+02 -0.21972427006E+03  0.24035357213E+03  0.89631152251E+02 0.  0.
        -13    1    3    3    0    0  0.87520603932E+02 -0.31337676156E+02  0.86178672124E+02  0.12676225617E+03  0.00000000000E+00 0.  1.
         14    1    3    3    0    0 -0.52124028762E+01  0.19957622950E+02  0.81549809747E+01  0.22180612531E+02  0.00000000000E+00 0. -1.
        -13    1    4    4    0    0  0.25526357798E+02 -0.13061385496E+00 -0.11950067319E+03  0.12219665665E+03  0.00000000000E+00 0.  1.
         13    1    4    4    0    0 -0.60999863256E+02 -0.13975120385E+02 -0.10022359687E+03  0.11815691548E+03  0.00000000000E+00 0. -1.
         21    1    1    2  502  501 -0.46834695597E+02  0.25485787446E+02 -0.26065234366E+03  0.26605010492E+03  0.00000000000E+00 0. -1.
<scales pt_clust_5="13000.00000" pt_clust_6="13000.00000" pt_clust_7="13000.00000" pt_clust_8="13000.00000" pt_clust_9="53.31992"></scales>
<clustering>
<clus scale="   53.320">  2  9  1 -1</clus>
<clus scale="   79.881">  5  6 -1 -1</clus>
<clus scale="   89.631">  7  8 -1 -1</clus>
<clus scale="  111.524">  1  5  2 -1</clus>
<clus scale="   53.320">  2  5  1 -1</clus>
</clustering>
</event>
<event>
 9    2  0.2984928E-005  0.1030287E+03  0.7546771E-02  0.1277908E+00
         -1   -1    0    0    0  501 -0.00000000000E+00  0.00000000000E+00  0.38521516497E+02  0.38521516497E+02  0.00000000000E+00 0.  1.
          2   -1    0    0  502    0  0.00000000000E+00 -0.00000000000E+00 -0.88200704402E+03  0.88200704402E+03  0.00000000000E+00 0. -1.
         23    2    1    2    0    0 -0.49029114276E+02  0.64195142904E+01 -0.44814838839E+02  0.11294446866E+03  0.91120903257E+02 0.  0.
         24    2    1    2    0    0  0.39056683081E+02  0.17922734393E+02 -0.63717737836E+03  0.64396232150E+03  0.82739416954E+02 0.  0.
        -13    1    4    4    0    0  0.10590446509E+02 -0.27334432478E+02 -0.10223335320E+03  0.10635312531E+03  0.00000000000E+00 0.  1.
         14    1    4    4    0    0  0.28466236572E+02  0.45257166871E+02 -0.53494402516E+03  0.53760919619E+03  0.00000000000E+00 0. -1.
        -11    1    3    3    0    0  0.23391378693E+02 -0.14315140798E+02 -0.54928635178E+01  0.27968757621E+02  0.00000000000E+00 0. -1.
         11    1    3    3    0    0 -0.72420492969E+02  0.20734655089E+02 -0.39321975322E+02  0.84975711039E+02  0.00000000000E+00 0.  1.
         21    1    1    2  502  501  0.99724311950E+01 -0.24342248684E+02 -0.16149331032E+03  0.16362177035E+03  0.00000000000E+00 0. -1.
<scales pt_clust_5="13000.00000" pt_clust_6="13000.00000" pt_clust_7="13000.00000" pt_clust_8="13000.00000" pt_clust_9="26.30579"></scales>
<clustering>
<clus scale="   26.306">  2  9  1 -1</clus>
<clus scale="   82.739">  5  6 -1 -1</clus>
<clus scale="   91.121">  7  8 -1 -1</clus>
<clus scale="   95.696">  2  5  1 -1</clus>
<clus scale="   26.306">  2  5  1 -1</clus>
</clustering>
</event>
<event>
 9    2  0.2984928E-005  0.1044831E+03  0.7546771E-02  0.1277125E+00
          2   -1    0    0  502    0  0.00000000000E+00  0.00000000000E+00  0.98976350394E+02  0.98976350394E+02  0.00000000000E+00 0. -1.
         -1   -1    0    0    0  501 -0.00000000000E+00 -0.00000000000E+00 -0.23992057983E+03  0.23992057983E+03  0.00000000000E+00 0.  1.
         23    2    1    2    0    0 -0.17865144806E+02 -0.52347695115E+02 -0.17923760797E+03  0.20918285993E+03  0.92584578586E+02 0.  0.
         24    2    1    2    0    0  0.23962128494E+02  0.18797288306E+02  0.10721542307E+02  0.85861941960E+02  0.79560039958E+02 0.  0.
        -13    1    4    4    0    0  0.44275491185E+02  0.28049579073E+02  0.26300790703E+02  0.58641534747E+02  0.00000000000E+00 0.  1.
         14    1    4    4    0    0 -0.20313362691E+02 -0.92522907668E+01 -0.15579248396E+02  0.27220407213E+02  0.00000000000E+00 0. -1.
        -11    1    3    3    0    0 -0.24418641293E+02  0.13828439055E+01 -0.27864439401E+01  0.24615981997E+02  0.00000000000E+00 0. -1.
         11    1    3    3    0    0  0.65534964867E+01 -0.53730539020E+02 -0.17645116403E+03  0.18456687793E+03  0.00000000000E+00 0.  1.
         21    1    1    2  502  501 -0.60969836877E+01  0.33550406809E+02  0.27571836228E+02  0.43852128341E+02  0.00000000000E+00 0.  1.
<scales pt_clust_5="13000.00000" pt_clust_6="13000.00000" pt_clust_7="13000.00000" pt_clust_8="13000.00000" pt_clust_9="34.09990"></scales>
<clustering>
<clus scale="   34.100">  1  9  2 -1</clus>
<clus scale="   79.560">  5  6 -1 -1</clus>
<clus scale="   92.585">  7  8 -1 -1</clus>
<clus scale="   93.138">  1  5  2 -1</clus>
<clus scale="   34.100">  1  5  2 -1</clus>
</clustering>
</event>
<event>
 9    2  0.2984928E-005  0.9310699E+02  0.7546771E-02  0.1309728E+00
          2   -1    0    0  502    0  0.00000000000E+00  0.00000000000E+00  0.31731675698E+03  0.31731675698E+03  0.00000000000E+00 0. -1.
         -1   -1    0    0    0  501 -0.00000000000E+00 -0.00000000000E+00 -0.80726568294E+02  0.80726568294E+02  0.00000000000E+00 0.  1.
         23    2    1    2    0    0 -0.18744986316E+02 -0.11393020653E+02 -0.36556238042E+02  0.10114824645E+03  0.91724771944E+02 0.  0.
         24    2    1    2    0    0 -0.57582796199E+00 -0.12526209389E+02  0.11036883922E+03  0.13123890953E+03  0.69893727936E+02 0.  0.
        -11    1    4    4    0    0 -0.19486518739E+02 -0.25577132327E+02  0.10173148556E+03  0.10669212372E+03  0.00000000000E+00 0.  1.
         12    1    4    4    0    0  0.18910690777E+02  0.13050922938E+02  0.86373536601E+01  0.24546785807E+02  0.00000000000E+00 0. -1.
        -13    1    3    3    0    0 -0.53948067101E+02 -0.15904387643E+02 -0.10737061570E+02  0.57259304758E+02  0.00000000000E+00 0. -1.
         13    1    3    3    0    0  0.35203080786E+02  0.45113669900E+01 -0.25819176472E+02  0.43888941689E+02  0.00000000000E+00 0.  1.
         21    1    1    2  502  501  0.19320814278E+02  0.23919230042E+02  0.16277758751E+03  0.16565616929E+03  0.00000000000E+00 0. -1.
<scales pt_clust_5="13000.00000" pt_clust_6="13000.00000" pt_clust_7="13000.00000" pt_clust_8="13000.00000" pt_clust_9="30.74774"></scales>
<clustering>
<clus scale="   30.748">  1  9  2 -1</clus>
<clus scale="   69.894">  5  6 -1 -1</clus>
<clus scale="   71.698">  1  5  2 -1</clus>
<clus scale="   91.725">  7  8 -1 -1</clus>
<clus scale="   30.748">  1  5  2 -1</clus>
</clustering>
</event>
<event>
 9    2  0.2984928E-005  0.3554629E+03  0.7546771E-02  0.1099968E+00
         -1   -1    0    0    0  501 -0.00000000000E+00  0.00000000000E+00  0.21755200991E+03  0.21755200991E+03  0.00000000000E+00 0.  1.
          2   -1    0    0  502    0  0.00000000000E+00 -0.00000000000E+00 -0.95733991392E+03  0.95733991392E+03  0.00000000000E+00 0. -1.
         23    2    1    2    0    0 -0.27016771416E+03  0.14331822159E+03 -0.17252540755E+03  0.37231075696E+03  0.12377227914E+03 0.  0.
         24    2    1    2    0    0 -0.14559209898E+02  0.90793053511E+02 -0.35878886109E+03  0.37909708564E+03  0.80807204762E+02 0.  0.
        -11    1    4    4    0    0  0.24195098483E+02  0.14095684427E+01 -0.55958768886E+02  0.60981747180E+02  0.00000000000E+00 0.  1.
         12    1    4    4    0    0 -0.38754308382E+02  0.89383485069E+02 -0.30283009221E+03  0.31811533846E+03  0.00000000000E+00 0. -1.
        -11    1    3    3    0    0 -0.25339846850E+03  0.91071483345E+02 -0.16771756757E+03  0.31722859485E+03  0.00000000000E+00 0.  1.
         11    1    3    3    0    0 -0.16769245655E+02  0.52246738249E+02 -0.48078399828E+01  0.55082162111E+02  0.00000000000E+00 0. -1.
         21    1    1    2  502  501  0.28472692405E+03 -0.23411127511E+03 -0.20847363536E+03  0.42348408123E+03  0.00000000000E+00 0. -1.
<scales pt_clust_5="13000.00000" pt_clust_6="13000.00000" pt_clust_7="13000.00000" pt_clust_8="13000.00000" pt_clust_9="333.21814"></scales>
<clustering>
<clus scale="   80.807">  5  6 -1 -1</clus>
<clus scale="  122.414">  2  5  1 -1</clus>
<clus scale="  123.772">  7  8 -1 -1</clus>
<clus scale="  333.218">  2  9  1 -1</clus>
<clus scale="  122.414">  2  5  1 -1</clus>
</clustering>
</event>
<event>
 9    2  0.2984928E-005  0.8364587E+02  0.7546771E-02  0.1320562E+00
         -3   -1    0    0    0  501 -0.00000000000E+00  0.00000000000E+00  0.15217345947E+03  0.15217345947E+03  0.00000000000E+00 0.  1.
          4   -1    0    0  502    0  0.00000000000E+00 -0.00000000000E+00 -0.14468652541E+03  0.14468652541E+03  0.00000000000E+00 0. -1.
         23    2    1    2    0    0  0.57572903906E+01 -0.16610179746E+02  0.99868166079E+02  0.12818153428E+03  0.78407975811E+02 0.  0.
         24    2    1    2    0    0 -0.22343029787E+02  0.49337511552E+02 -0.89003584653E+02  0.13183318631E+03  0.80777162035E+02 0.  0.
        -11    1    4    4    0    0 -0.38517853008E+02  0.13111829985E+01 -0.13373807856E+02  0.40794643494E+02  0.00000000000E+00 0.  1.
         12    1    4    4    0    0  0.16174823221E+02  0.48026328553E+02 -0.75629776797E+02  0.91038542820E+02  0.00000000000E+00 0. -1.
        -11    1    3    3    0    0  0.42077876708E+02 -0.96695612432E+01  0.49245586235E+02  0.65491800148E+02  0.00000000000E+00 0.  1.
         11    1    3    3    0    0 -0.36320586318E+02 -0.69406185029E+01  0.50622579843E+02  0.62689734133E+02  0.00000000000E+00 0. -1.
         21    1    1    2  502  501  0.16585739397E+02 -0.32727331806E+02 -0.33776473634E+01  0.36845264284E+02  0.00000000000E+00 0. -1.
<scales pt_clust_5="13000.00000" pt_clust_6="13000.00000" pt_clust_7="13000.00000" pt_clust_8="13000.00000" pt_clust_9="36.69012"></scales>
<clustering>
<clus scale="   36.690">  2  9  1 -1</clus>
<clus scale="   78.408">  7  8 -1 -1</clus>
<clus scale="   80.777">  5  6 -1 -1</clus>
<clus scale="   81.360">  1  7  2 -1</clus>
<clus scale="   36.690">  2  5  1 -1</clus>
</clustering>
</event>
<event>
 9    2  0.2984928E-005  0.2119877E+03  0.7546771E-02  0.1166229E+00
          2   -1    0    0  502    0  0.00000000000E+00  0.00000000000E+00  0.82979608642E+03  0.82979608642E+03  0.00000000000E+00 0. -1.
         -1   -1    0    0    0  501 -0.00000000000E+00 -0.00000000000E+00 -0.95162034739E+02  0.95162034739E+02  0.00000000000E+00 0.  1.
         24    2    1    2    0    0  0.18906687832E+02 -0.78932197187E+02  0.58233841467E+02  0.12823989603E+03  0.80414775045E+02 0.  0.
         23    2    1    2    0    0  0.70687906642E+02  0.20338144235E+03  0.54795488509E+03  0.59668570895E+03  0.97048894573E+02 0.  0.
        -11    1    3    3    0    0 -0.27208264140E+02 -0.52691187579E+02  0.42296070856E+02  0.72839608015E+02  0.00000000000E+00 0.  1.
         12    1    3    3    0    0  0.46114951972E+02 -0.26241009608E+02  0.15937770611E+02  0.55400288019E+02  0.00000000000E+00 0. -1.
        -13    1    4    4    0    0 -0.21938791983E+02  0.64831110040E+02  0.18638722894E+03  0.19855624527E+03  0.00000000000E+00 0. -1.
         13    1    4    4    0    0  0.92626698625E+02  0.13855033231E+03  0.36156765615E+03  0.39812946368E+03  0.00000000000E+00 0.  1.
         21    1    1    2  502  501 -0.89594594474E+02 -0.12444924516E+03  0.12844532512E+03  0.20003251617E+03  0.00000000000E+00 0.  1.
<scales pt_clust_5="13000.00000" pt_clust_6="13000.00000" pt_clust_7="13000.00000" pt_clust_8="13000.00000" pt_clust_9="188.46824"></scales>
<clustering>
<clus scale="   80.415">  5  6 -1 -1</clus>
<clus scale="   97.049">  7  8 -1 -1</clus>
<clus scale="  114.255">  2  5  1 -1</clus>
<clus scale="  188.468">  2  9  1 -1</clus>
<clus scale="  211.988">  1  5  2 -1</clus>
</clustering>
</event>
<event>
 9    2  0.2984928E-005  0.9171061E+02  0.7546771E-02  0.1303533E+00
         -3   -1    0    0    0  501 -0.00000000000E+00  0.00000000000E+00  0.35613221791E+02  0.35613221791E+02  0.00000000000E+00 0.  1.
          4   -1    0    0  502    0  0.00000000000E+00 -0.00000000000E+00 -0.45133040959E+03  0.45133040959E+03  0.00000000000E+00 0. -1.
         24    2    1    2    0    0 -0.33627570015E+02 -0.97687872017E+01 -0.68734107208E+02  0.11157120307E+03  0.80607153487E+02 0.  0.
         23    2    1    2    0    0 -0.15904045429E+02  0.20930514371E+02 -0.22400734930E+03  0.24232733983E+03  0.88612764291E+02 0.  0.
        -13    1    3    3    0    0 -0.57977035716E+02 -0.69282051637E+00 -0.61661080628E+02  0.84639857838E+02  0.00000000000E+00 0.  1.
         14    1    3    3    0    0  0.24349465701E+02 -0.90759666854E+01 -0.70730265803E+01  0.26931345236E+02  0.00000000000E+00 0. -1.
        -13    1    4    4    0    0  0.32238186694E+02  0.90184636359E+00 -0.13825332566E+03  0.14196512270E+03  0.00000000000E+00 0. -1.
         13    1    4    4    0    0 -0.48142232123E+02  0.20028668008E+02 -0.85754023643E+02  0.10036221713E+03  0.00000000000E+00 0.  1.
         21    1    1    2  502  501  0.49531615444E+02 -0.11161727169E+02 -0.12297573130E+03  0.13304508848E+03  0.00000000000E+00 0. -1.
<scales pt_clust_5="13000.00000" pt_clust_6="13000.00000" pt_clust_7="13000.00000" pt_clust_8="13000.00000" pt_clust_9="50.77367"></scales>
<clustering>
<clus scale="   50.774">  2  9  1 -1</clus>
<clus scale="   80.607">  5  6 -1 -1</clus>
<clus scale="   84.001">  1  5  2 -1</clus>
<clus scale="   88.613">  7  8 -1 -1</clus>
<clus scale="   50.774">  2  5  1 -1</clus>
</clustering>
</event>
<event>
 9    2  0.2984928E-005  0.9595272E+02  0.7546771E-02  0.1294911E+00
          2   -1    0    0  502    0  0.00000000000E+00  0.00000000000E+00  0.74408308465E+03  0.74408308465E+03  0.00000000000E+00 0. -1.
         -1   -1    0    0    0  501 -0.00000000000E+00 -0.00000000000E+00 -0.40350626418E+02  0.40350626418E+02  0.00000000000E+00 0.  1.
         23    2    1    2    0    0 -0.30884742967E+02  0.14205975002E+02  0.29707273223E+02  0.10073771275E+03  0.90054914431E+02 0.  0.
         24    2    1    2    0    0  0.30737865819E+02  0.85448487831E+01  0.60502807367E+03  0.61104461892E+03  0.79364510625E+02 0.  0.
        -11    1    4    4    0    0  0.42076656789E+02  0.26847637761E+02  0.22786180877E+03  0.23326432346E+03  0.00000000000E+00 0.  1.
         12    1    4    4    0    0 -0.11338790970E+02 -0.18302788978E+02  0.37716626490E+03  0.37778029546E+03  0.00000000000E+00 0. -1.
        -11    1    3    3    0    0 -0.31067439033E+02 -0.30804427977E+02 -0.48120201978E+01  0.44014248709E+02  0.00000000000E+00 0.  1.
         11    1    3    3    0    0  0.18269606630E+00  0.45010402979E+02  0.34519293421E+02  0.56723464038E+02  0.00000000000E+00 0. -1.
         21    1    1    2  502  501  0.14687714732E+00 -0.22750823785E+02  0.68997111337E+02  0.72651379400E+02  0.00000000000E+00 0. -1.
<scales pt_clust_5="13000.00000" pt_clust_6="13000.00000" pt_clust_7="13000.00000" pt_clust_8="13000.00000" pt_clust_9="22.75130"></scales>
<clustering>
<clus scale="   22.751">  1  9  2 -1</clus>
<clus scale="   79.365">  5  6 -1 -1</clus>
<clus scale="   85.999">  1  5  2 -1</clus>
<clus scale="   90.055">  7  8 -1 -1</clus>
<clus scale="   22.751">  1  5  2 -1</clus>
</clustering>
</event>
<event>
 9    2  0.2984928E-005  0.9740687E+02  0.7546771E-02  0.1292061E+00
          2   -1    0    0  502    0  0.00000000000E+00  0.00000000000E+00  0.13012164351E+04  0.13012164351E+04  0.00000000000E+00 0. -1.
         -1   -1    0    0    0  501 -0.00000000000E+00 -0.00000000000E+00 -0.16675930869E+02  0.16675930869E+02  0.00000000000E+00 0.  1.
         23    2    1    2    0    0 -0.41984425054E+02 -0.21254524150E+02  0.19558466694E+03  0.22046556996E+03  0.90206756140E+02 0.  0.
         24    2    1    2    0    0 -0.11274162044E+02  0.23128662848E+02  0.68940730512E+03  0.69433993309E+03  0.78507761110E+02 0.  0.
        -11    1    4    4    0    0  0.26002116411E+02 -0.61763350342E+01  0.11894878071E+03  0.12191418951E+03  0.00000000000E+00 0.  1.
         12    1    4    4    0    0 -0.37276278454E+02  0.29304997882E+02  0.57045852441E+03  0.57242574358E+03  0.00000000000E+00 0. -1.
        -13    1    3    3    0    0  0.27075050736E+02 -0.17641703538E+02  0.70015391676E+02  0.77113184007E+02  0.00000000000E+00 0.  1.
         13    1    3    3    0    0 -0.69059475790E+02 -0.36128206122E+01  0.12556927526E+03  0.14335238596E+03  0.00000000000E+00 0. -1.
         21    1    1    2  502  501  0.53258587097E+02 -0.18741386980E+01  0.39954853214E+03  0.40308686288E+03  0.00000000000E+00 0.  1.
<scales pt_clust_5="13000.00000" pt_clust_6="13000.00000" pt_clust_7="13000.00000" pt_clust_8="13000.00000" pt_clust_9="53.29155"></scales>
<clustering>
<clus scale="   53.292">  1  9  2 -1</clus>
<clus scale="   78.508">  5  6 -1 -1</clus>
<clus scale="   86.685">  1  5  2 -1</clus>
<clus scale="   90.207">  7  8 -1 -1</clus>
<clus scale="   53.292">  1  5  2 -1</clus>
</clustering>
</event>
<event>
 9    2  0.2984928E-005  0.2033968E+03  0.7546771E-02  0.1146973E+00
         -1   -1    0    0    0  501 -0.00000000000E+00  0.00000000000E+00  0.39679295945E+02  0.39679295945E+02  0.00000000000E+00 0.  1.
          2   -1    0    0  502    0  0.00000000000E+00 -0.00000000000E+00 -0.18780953093E+04  0.18780953093E+04  0.00000000000E+00 0. -1.
         23    2    1    2    0    0 -0.15754142538E+03  0.72827148787E+02 -0.31699242127E+03  0.37271444508E+03  0.91152444402E+02 0.  0.
         24    2    1    2    0    0  0.18633570072E+03 -0.98494242777E+02 -0.12601639263E+04  0.12809682765E+04  0.91893934723E+02 0.  0.
        -11    1    4    4    0    0  0.11217122546E+03 -0.77036377670E+01 -0.58650313472E+03  0.59718310164E+03  0.00000000000E+00 0.  1.
         12    1    4    4    0    0  0.74164475253E+02 -0.90790605010E+02 -0.67366079154E+03  0.68378517490E+03  0.00000000000E+00 0. -1.
        -11    1    3    3    0    0 -0.12942923004E+03  0.32361259823E+02 -0.16082825910E+03  0.20896149323E+03  0.00000000000E+00 0.  1.
         11    1    3    3    0    0 -0.28112195343E+02  0.40465888964E+02 -0.15616416216E+03  0.16375295186E+03  0.00000000000E+00 0. -1.
         21    1    1    2  502  501 -0.28794275334E+02  0.25667093990E+02 -0.26125966586E+03  0.26409188365E+03  0.00000000000E+00 0.  1.
<scales pt_clust_5="13000.00000" pt_clust_6="13000.00000" pt_clust_7="13000.00000" pt_clust_8="13000.00000" pt_clust_9="38.57344"></scales>
<clustering>
<clus scale="   38.573">  2  9  1 -1</clus>
<clus scale="   91.152">  7  8 -1 -1</clus>
<clus scale="   91.894">  5  6 -1 -1</clus>
<clus scale="  203.063">  1  7  2 -1</clus>
<clus scale="   38.573">  2  5  1 -1</clus>
</clustering>
</event>
<event>
 9    2  0.2984928E-005  0.3425863E+03  0.7546771E-02  0.1104603E+00
          2   -1    0    0  502    0  0.00000000000E+00  0.00000000000E+00  0.13679561613E+04  0.13679561613E+04  0.00000000000E+00 0. -1.
         -1   -1    0    0    0  501 -0.00000000000E+00 -0.00000000000E+00 -0.30021911973E+03  0.30021911973E+03  0.00000000000E+00 0.  1.
         23    2    1    2    0    0  0.76625600377E+02 -0.46892803176E+01 -0.19389392898E+03  0.22871557215E+03  0.93928085607E+02 0.  0.
         24    2    1    2    0    0  0.27482246032E+03 -0.13037464333E+03  0.63668654620E+03  0.70986150689E+03  0.77515601848E+02 0.  0.
        -13    1    4    4    0    0  0.13363818426E+02 -0.19924007001E+02  0.20928393404E+02  0.31836384034E+02  0.00000000000E+00 0.  1.
         14    1    4    4    0    0  0.26145864189E+03 -0.11045063633E+03  0.61575815280E+03  0.67802512285E+03  0.00000000000E+00 0. -1.
        -11    1    3    3    0    0  0.11821696875E+02 -0.34668481735E+02 -0.22360168090E+02  0.42914254739E+02  0.00000000000E+00 0. -1.
         11    1    3    3    0    0  0.64803903502E+02  0.29979201417E+02 -0.17153376089E+03  0.18580131741E+03  0.00000000000E+00 0.  1.
         21    1    1    2  502  501 -0.35144806069E+03  0.13506392365E+03  0.62494442437E+03  0.72959820201E+03  0.00000000000E+00 0.  1.
<scales pt_clust_5="13000.00000" pt_clust_6="13000.00000" pt_clust_7="13000.00000" pt_clust_8="13000.00000" pt_clust_9="333.70153"></scales>
<clustering>
<clus scale="   77.516">  5  6 -1 -1</clus>
<clus scale="   93.928">  7  8 -1 -1</clus>
<clus scale="  121.309">  2  7  1 -1</clus>
<clus scale="  333.702">  2  9  1 -1</clus>
<clus scale="  342.586">  1  5  2 -1</clus>
</clustering>
</event>
<event>
 9    2  0.2984928E-005  0.8764106E+02  0.7546771E-02  0.1315421E+00
          2   -1    0    0  502    0  0.00000000000E+00  0.00000000000E+00  0.28077739894E+03  0.28077739894E+03  0.00000000000E+00 0. -1.
         -1   -1    0    0    0  501 -0.00000000000E+00 -0.00000000000E+00 -0.10533997787E+03  0.10533997787E+03  0.00000000000E+00 0.  1.
         23    2    1    2    0    0  0.53970318206E+01 -0.42619769127E+02  0.87442595425E+01  0.97850269103E+02  0.87479371372E+02 0.  0.
         24    2    1    2    0    0  0.69823210639E+01 -0.74979187193E+01  0.20799258944E+03  0.22215603633E+03  0.77378392467E+02 0.  0.
        -13    1    4    4    0    0  0.28603847214E+02  0.15615223585E+02  0.41933618347E+02  0.53107849049E+02  0.00000000000E+00 0.  1.
         14    1    4    4    0    0 -0.21621526150E+02 -0.23113142304E+02  0.16605897110E+03  0.16904818728E+03  0.00000000000E+00 0. -1.
        -11    1    3    3    0    0  0.11612042394E+02  0.26039870321E+02  0.20339111534E+01  0.28584106938E+02  0.00000000000E+00 0.  1.
         11    1    3    3    0    0 -0.62150105730E+01 -0.68659639448E+02  0.67103483892E+01  0.69266162165E+02  0.00000000000E+00 0. -1.
         21    1    1    2  502  501 -0.12379352884E+02  0.50117687847E+02 -0.41299427918E+02  0.66111071382E+02  0.00000000000E+00 0.  1.
<scales pt_clust_5="13000.00000" pt_clust_6="13000.00000" pt_clust_7="13000.00000" pt_clust_8="13000.00000" pt_clust_9="51.62394"></scales>
<clustering>
<clus scale="   51.624">  2  9  1 -1</clus>
<clus scale="   77.378">  5  6 -1 -1</clus>
<clus scale="   77.561">  1  5  2 -1</clus>
<clus scale="   87.479">  7  8 -1 -1</clus>
<clus scale="   77.561">  1  5  2 -1</clus>
</clustering>
</event>
<event>
 9    2  0.2984928E-005  0.9449896E+02  0.7546771E-02  0.1298852E+00
          2   -1    0    0  502    0  0.00000000000E+00  0.00000000000E+00  0.31930379431E+03  0.31930379431E+03  0.00000000000E+00 0. -1.
         -1   -1    0    0    0  501 -0.00000000000E+00 -0.00000000000E+00 -0.38848802288E+02  0.38848802288E+02  0.00000000000E+00 0.  1.
         23    2    1    2    0    0  0.24539439029E+01 -0.40023828745E+02  0.11000876615E+03  0.14817194197E+03  0.90802351564E+02 0.  0.
         24    2    1    2    0    0  0.19767261876E+02  0.13869244715E+02  0.14551605748E+03  0.16756181980E+03  0.79491759822E+02 0.  0.
        -11    1    4    4    0    0 -0.26097792857E+02  0.39559362535E+01  0.18716289954E+02  0.32358055153E+02  0.00000000000E+00 0.  1.
         12    1    4    4    0    0  0.45865054733E+02  0.99133084616E+01  0.12679976752E+03  0.13520376465E+03  0.00000000000E+00 0. -1.
        -13    1    3    3    0    0 -0.31934282889E+02 -0.52589430944E+02  0.79416204578E+02  0.10046083924E+03  0.00000000000E+00 0.  1.
         13    1    3    3    0    0  0.34388226792E+02  0.12565602199E+02  0.30592561568E+02  0.47711102731E+02  0.00000000000E+00 0. -1.
         21    1    1    2  502  501 -0.22221205779E+02  0.26154584030E+02  0.24930168398E+02  0.42418834831E+02  0.00000000000E+00 0.  1.
<scales pt_clust_5="13000.00000" pt_clust_6="13000.00000" pt_clust_7="13000.00000" pt_clust_8="13000.00000" pt_clust_9="34.31974"></scales>
<clustering>
<clus scale="   34.320">  2  9  1 -1</clus>
<clus scale="   79.492">  5  6 -1 -1</clus>
<clus scale="   83.689">  1  5  2 -1</clus>
<clus scale="   90.802">  7  8 -1 -1</clus>
<clus scale="   83.689">  1  5  2 -1</clus>
</clustering>
</event>
<event>
 9    2  0.2984928E-005  0.9334059E+02  0.7546771E-02  0.1299812E+00
         -1   -1    0    0    0  501 -0.00000000000E+00  0.00000000000E+00  0.16469146975E+03  0.16469146975E+03  0.00000000000E+00 0.  1.
          2   -1    0    0  502    0  0.00000000000E+00 -0.00000000000E+00 -0.27136421921E+03  0.27136421921E+03  0.00000000000E+00 0. -1.
         24    2    1    2    0    0  0.26091938531E+01  0.31300822333E+02  0.12371185640E+03  0.15093357927E+03  0.80559124664E+02 0.  0.
         23    2    1    2    0    0  0.50088169253E+01 -0.10096381716E+02 -0.48779700186E+02  0.10212483059E+03  0.89011216718E+02 0.  0.
        -13    1    3    3    0    0  0.36785886256E+02  0.74337557068E+01  0.89348030361E+02  0.96909920446E+02  0.00000000000E+00 0.  1.
         14    1    3    3    0    0 -0.34176692403E+02  0.23867066626E+02  0.34363826042E+02  0.54023658828E+02  0.00000000000E+00 0. -1.
        -13    1    4    4    0    0  0.49770037523E+01  0.30771368798E+02  0.79862689887E+01  0.32178070116E+02  0.00000000000E+00 0.  1.
         13    1    4    4    0    0  0.31813173050E-01 -0.40867750514E+02 -0.56765969175E+02  0.69946760472E+02  0.00000000000E+00 0. -1.
         21    1    1    2  502  501 -0.76180107784E+01 -0.21204440616E+02 -0.18160490568E+03  0.18299727910E+03  0.00000000000E+00 0. -1.
<scales pt_clust_5="13000.00000" pt_clust_6="13000.00000" pt_clust_7="13000.00000" pt_clust_8="13000.00000" pt_clust_9="22.53136"></scales>
<clustering>
<clus scale="   22.531">  2  9  1 -1</clus>
<clus scale="   80.559">  5  6 -1 -1</clus>
<clus scale="   85.318">  1  5  2 -1</clus>
<clus scale="   89.011">  7  8 -1 -1</clus>
<clus scale="   22.531">  2  5  1 -1</clus>
</clustering>
</event>
<event>
 9    2  0.2984928E-005  0.1044341E+03  0.7546771E-02  0.1283310E+00
          2   -1    0    0  502    0  0.00000000000E+00  0.00000000000E+00  0.24093478265E+03  0.24093478265E+03  0.00000000000E+00 0. -1.
         -1   -1    0    0    0  501 -0.00000000000E+00 -0.00000000000E+00 -0.24876366743E+03  0.24876366743E+03  0.00000000000E+00 0.  1.
         23    2    1    2    0    0 -0.27513686516E+02 -0.64848099134E+01 -0.21800519819E+03  0.24213794538E+03  0.10151582365E+03 0.  0.
         24    2    1    2    0    0 -0.21071281208E+02  0.15458065086E+01  0.13174536124E+03  0.15516836703E+03  0.79208544431E+02 0.  0.
        -13    1    4    4    0    0 -0.15642645224E+02  0.34626383592E+02  0.31144210197E+02  0.49128816585E+02  0.00000000000E+00 0.  1.
         14    1    4    4    0    0 -0.54286359842E+01 -0.33080577083E+02  0.10060115104E+03  0.10603955045E+03  0.00000000000E+00 0. -1.
        -13    1    3    3    0    0 -0.34802077237E+02  0.40317515333E+02 -0.15071131046E+03  0.15984550579E+03  0.00000000000E+00 0.  1.
         13    1    3    3    0    0  0.72883907209E+01 -0.46802325246E+02 -0.67293887729E+02  0.82292439589E+02  0.00000000000E+00 0. -1.
         21    1    1    2  502  501  0.48584967724E+02  0.49390034048E+01  0.78430952173E+02  0.92392137664E+02  0.00000000000E+00 0. -1.
<scales pt_clust_5="13000.00000" pt_clust_6="13000.00000" pt_clust_7="13000.00000" pt_clust_8="13000.00000" pt_clust_9="48.83536"></scales>
<clustering>
<clus scale="   48.835">  1  9  2 -1</clus>
<clus scale="   79.209">  5  6 -1 -1</clus>
<clus scale="   82.916">  1  5  2 -1</clus>
<clus scale="  101.516">  7  8 -1 -1</clus>
<clus scale="   48.835">  1  5  2 -1</clus>
</clustering>
</event>
<event>
 9    2  0.2984928E-005  0.1159348E+03  0.7546771E-02  0.1253771E+00
          2   -1    0    0  502    0  0.00000000000E+00  0.00000000000E+00  0.30703859253E+03  0.30703859253E+03  0.00000000000E+00 0. -1.
         -1   -1    0    0    0  501 -0.00000000000E+00 -0.00000000000E+00 -0.45734401597E+03  0.45734401597E+03  0.00000000000E+00 0.  1.
         23    2    1    2    0    0  0.31804110345E+02 -0.62249035067E+02 -0.43539327466E+03  0.45058259227E+03  0.92579290518E+02 0.  0.
         24    2    1    2    0    0 -0.48664290524E+02  0.49496090177E+02  0.20990524944E+03  0.23570182874E+03  0.81713292767E+02 0.  0.
        -13    1    4    4    0    0 -0.51626524172E+02  0.10795525857E+02  0.55792704998E+02  0.76776736760E+02  0.00000000000E+00 0.  1.
         14    1    4    4    0    0  0.29622336483E+01  0.38700564320E+02  0.15411254444E+03  0.15892509198E+03  0.00000000000E+00 0. -1.
        -13    1    3    3    0    0 -0.25600528396E+02  0.52532620834E+01 -0.73811682308E+02  0.78301649164E+02  0.00000000000E+00 0. -1.
         13    1    3    3    0    0  0.57404638741E+02 -0.67502297151E+02 -0.36158159236E+03  0.37228094311E+03  0.00000000000E+00 0.  1.
         21    1    1    2  502  501  0.16860180178E+02  0.12752944891E+02  0.75182601778E+02  0.78098187489E+02  0.00000000000E+00 0. -1.
<scales pt_clust_5="13000.00000" pt_clust_6="13000.00000" pt_clust_7="13000.00000" pt_clust_8="13000.00000" pt_clust_9="21.14009"></scales>
<clustering>
<clus scale="   21.140">  1  9  2 -1</clus>
<clus scale="   81.713">  5  6 -1 -1</clus>
<clus scale="   92.579">  7  8 -1 -1</clus>
<clus scale="  107.457">  1  5  2 -1</clus>
<clus scale="   21.140">  1  5  2 -1</clus>
</clustering>
</event>
<event>
 9    2  0.2984928E-005  0.1490056E+03  0.7546771E-02  0.1208915E+00
          2   -1    0    0  502    0  0.00000000000E+00  0.00000000000E+00  0.29768947312E+03  0.29768947312E+03  0.00000000000E+00 0. -1.
         -1   -1    0    0    0  501 -0.00000000000E+00 -0.00000000000E+00 -0.95693363453E+02  0.95693363453E+02  0.00000000000E+00 0.  1.
         23    2    1    2    0    0 -0.64028804402E+02 -0.99729410649E+02  0.45031417310E+02  0.16956171694E+03  0.11259531148E+03 0.  0.
         24    2    1    2    0    0  0.58861868074E+02  0.68641280979E+02  0.14617984184E+03  0.19051223135E+03  0.82158500275E+02 0.  0.
        -11    1    4    4    0    0  0.13656011699E+02  0.54752071103E+02  0.27533733559E+02  0.62788394066E+02  0.00000000000E+00 0.  1.
         12    1    4    4    0    0  0.45205856375E+02  0.13889209875E+02  0.11864610828E+03  0.12772383729E+03  0.00000000000E+00 0. -1.
        -13    1    3    3    0    0 -0.31657915434E+02  0.21002074450E+01 -0.26197655691E+02  0.41145493613E+02  0.00000000000E+00 0.  1.
         13    1    3    3    0    0 -0.32370888968E+02 -0.10182961809E+03  0.71229073001E+02  0.12841622333E+03  0.00000000000E+00 0. -1.
         21    1    1    2  502  501  0.51669363275E+01  0.31088129671E+02  0.10784850515E+02  0.33308888274E+02  0.00000000000E+00 0.  1.
<scales pt_clust_5="13000.00000" pt_clust_6="13000.00000" pt_clust_7="13000.00000" pt_clust_8="13000.00000" pt_clust_9="31.51458"></scales>
<clustering>
<clus scale="   31.515">  2  9  1 -1</clus>
<clus scale="   82.159">  5  6 -1 -1</clus>
<clus scale="  112.595">  7  8 -1 -1</clus>
<clus scale="  127.573">  1  5  2 -1</clus>
<clus scale="  127.573">  1  5  2 -1</clus>
</clustering>
</event>
<event>
 9    2  0.2984928E-005  0.1714913E+03  0.7546771E-02  0.1177067E+00
         -1   -1    0    0    0  501 -0.00000000000E+00  0.00000000000E+00  0.63259408134E+02  0.63259408134E+02  0.00000000000E+00 0.  1.
          2   -1    0    0  502    0  0.00000000000E+00 -0.00000000000E+00 -0.68289070871E+03  0.68289070871E+03  0.00000000000E+00 0. -1.
         23    2    1    2    0    0 -0.15802355127E+03 -0.89287775615E+01 -0.14451483277E+03  0.23292054835E+03  0.91193635335E+02 0.  0.
         24    2    1    2    0    0  0.11537871756E+03  0.24592694073E+02 -0.39652933007E+03  0.42245579288E+03  0.85535596448E+02 0.  0.
        -11    1    4    4    0    0  0.12672742168E+03  0.32144390390E+02 -0.33909865503E+03  0.36342949672E+03  0.00000000000E+00 0.  1.
         12    1    4    4    0    0 -0.11348704124E+02 -0.75516963167E+01 -0.57430675044E+02  0.59026296161E+02  0.00000000000E+00 0. -1.
        -13    1    3    3    0    0 -0.14722363437E+03  0.17193964491E+02 -0.95458922296E+02  0.17630325231E+03  0.00000000000E+00 0. -1.
         13    1    3    3    0    0 -0.10799916908E+02 -0.26122742052E+02 -0.49055910474E+02  0.56617296032E+02  0.00000000000E+00 0.  1.
         21    1    1    2  502  501  0.42644833716E+02 -0.15663916512E+02 -0.78587137729E+02  0.90773775616E+02  0.00000000000E+00 0.  1.
<scales pt_clust_5="13000.00000" pt_clust_6="13000.00000" pt_clust_7="13000.00000" pt_clust_8="13000.00000" pt_clust_9="45.43061"></scales>
<clustering>
<clus scale="   45.431">  2  9  1 -1</clus>
<clus scale="   85.536">  5  6 -1 -1</clus>
<clus scale="   91.194">  7  8 -1 -1</clus>
<clus scale="  168.551">  2  5  1 -1</clus>
<clus scale="   45.431">  2  5  1 -1</clus>
</clustering>
</event>
<event>
 9    2  0.2984928E-005  0.2829504E+03  0.7546771E-02  0.1094088E+00
          2   -1    0    0  502    0  0.00000000000E+00  0.00000000000E+00  0.24537636640E+04  0.24537636640E+04  0.00000000000E+00 0. -1.
         -1   -1    0    0    0  501 -0.00000000000E+00 -0.00000000000E+00 -0.29516405390E+02  0.29516405390E+02  0.00000000000E+00 0.  1.
         24    2    1    2    0    0 -0.79380357059E+02  0.12685648042E+03  0.46697121822E+03  0.49692324375E+03  0.80478468110E+02 0.  0.
         23    2    1    2    0    0 -0.33446701296E+02  0.52506838766E+02  0.40810939449E+03  0.42276530541E+03  0.91112982810E+02 0.  0.
        -11    1    3    3    0    0 -0.78029362450E+02  0.11699837788E+03  0.46619299183E+03  0.48694261209E+03  0.00000000000E+00 0.  1.
         12    1    3    3    0    0 -0.13509946091E+01  0.98581025439E+01  0.77822638262E+00  0.99806316685E+01  0.00000000000E+00 0. -1.
        -13    1    4    4    0    0 -0.57311608243E+02  0.26421247721E+02  0.34221353167E+03  0.34798391346E+03  0.00000000000E+00 0. -1.
         13    1    4    4    0    0  0.23864906948E+02  0.26085591045E+02  0.65895862825E+02  0.74781391945E+02  0.00000000000E+00 0.  1.
         21    1    1    2  502  501  0.11282705835E+03 -0.17936331919E+03  0.15491666459E+04  0.15635915203E+04  0.00000000000E+00 0. -1.
<scales pt_clust_5="13000.00000" pt_clust_6="13000.00000" pt_clust_7="13000.00000" pt_clust_8="13000.00000" pt_clust_9="211.89890"></scales>
<clustering>
<clus scale="   80.478">  5  6 -1 -1</clus>
<clus scale="   91.113">  7  8 -1 -1</clus>
<clus scale="   91.951">  5  7 -1 -1</clus>
<clus scale="  211.899">  1  9  2 -1</clus>
<clus scale="  211.899">  1  5  2 -1</clus>
</clustering>
</event>
<event>
 9    2  0.2984928E-005  0.9616731E+02  0.7546771E-02  0.1294178E+00
          2   -1    0    0  502    0  0.00000000000E+00  0.00000000000E+00  0.16575242123E+03  0.16575242123E+03  0.00000000000E+00 0. -1.
         -1   -1    0    0    0  501 -0.00000000000E+00 -0.00000000000E+00 -0.97719798363E+02  0.97719798363E+02  0.00000000000E+00 0.  1.
         24    2    1    2    0    0  0.25868959642E+02 -0.85252628727E+00 -0.40969246658E+02  0.94559214665E+02  0.81197512475E+02 0.  0.
         23    2    1    2    0    0 -0.45268185678E+02 -0.10112927692E+02  0.70256041407E+02  0.12421613313E+03  0.91335953684E+02 0.  0.
        -11    1    3    3    0    0  0.36770786353E+02 -0.32310113582E+02 -0.11932495132E+02  0.50382721331E+02  0.00000000000E+00 0.  1.
         12    1    3    3    0    0 -0.10901826711E+02  0.31457587294E+02 -0.29036751526E+02  0.44176493333E+02  0.00000000000E+00 0. -1.
        -11    1    4    4    0    0 -0.70958624583E+02 -0.14634466334E+02  0.35283370580E+02  0.80586662960E+02  0.00000000000E+00 0. -1.
         11    1    4    4    0    0  0.25690438905E+02  0.45215386420E+01  0.34972670828E+02  0.43629470174E+02  0.00000000000E+00 0.  1.
         21    1    1    2  502  501  0.19399226036E+02  0.10965453979E+02  0.38745828118E+02  0.44696871796E+02  0.00000000000E+00 0. -1.
<scales pt_clust_5="13000.00000" pt_clust_6="13000.00000" pt_clust_7="13000.00000" pt_clust_8="13000.00000" pt_clust_9="22.28388"></scales>
<clustering>
<clus scale="   22.284">  1  9  2 -1</clus>
<clus scale="   81.198">  5  6 -1 -1</clus>
<clus scale="   86.596">  2  5  1 -1</clus>
<clus scale="   91.336">  7  8 -1 -1</clus>
<clus scale="   22.284">  1  5  2 -1</clus>
</clustering>
</event>
<event>
 9    2  0.2984928E-005  0.1126240E+03  0.7546771E-02  0.1259990E+00
          2   -1    0    0  502    0  0.00000000000E+00  0.00000000000E+00  0.22051214825E+02  0.22051214825E+02  0.00000000000E+00 0. -1.
         -1   -1    0    0    0  501 -0.00000000000E+00 -0.00000000000E+00 -0.92024458424E+03  0.92024458424E+03  0.00000000000E+00 0.  1.
         24    2    1    2    0    0  0.44882953000E+02 -0.50354914666E+02 -0.62382752345E+03  0.63264879350E+03  0.80830810986E+02 0.  0.
         23    2    1    2    0    0 -0.15895236147E+02  0.59328391920E+02 -0.18852171846E+03  0.21859742978E+03  0.92042823496E+02 0.  0.
        -11    1    3    3    0    0 -0.12981335117E+02 -0.41477873652E+02 -0.19113640456E+03  0.19601544381E+03  0.00000000000E+00 0.  1.
         12    1    3    3    0    0  0.57864288117E+02 -0.88770410142E+01 -0.43269111889E+03  0.43663334970E+03  0.00000000000E+00 0. -1.
        -11    1    4    4    0    0 -0.46170147684E+02  0.50220774775E+01 -0.60443428666E+02  0.76225401726E+02  0.00000000000E+00 0.  1.
         11    1    4    4    0    0  0.30274911537E+02  0.54306314442E+02 -0.12807828979E+03  0.14237202806E+03  0.00000000000E+00 0. -1.
         21    1    1    2  502  501 -0.28987716853E+02 -0.89734772535E+01 -0.85844127505E+02  0.91049575779E+02  0.00000000000E+00 0.  1.
<scales pt_clust_5="13000.00000" pt_clust_6="13000.00000" pt_clust_7="13000.00000" pt_clust_8="13000.00000" pt_clust_9="30.34487"></scales>
<clustering>
<clus scale="   30.345">  1  9  2 -1</clus>
<clus scale="   80.831">  5  6 -1 -1</clus>
<clus scale="   92.043">  7  8 -1 -1</clus>
<clus scale="  103.662">  2  5  1 -1</clus>
<clus scale="   30.345">  1  5  2 -1</clus>
</clustering>
</event>
<event>
 9    2  0.2984928E-005  0.1405517E+03  0.7546771E-02  0.1213764E+00
         -1   -1    0    0    0  501 -0.00000000000E+00  0.00000000000E+00  0.12568613403E+03  0.12568613403E+03  0.00000000000E+00 0.  1.
          2   -1    0    0  502    0  0.00000000000E+00 -0.00000000000E+00 -0.49118191738E+03  0.49118191738E+03  0.00000000000E+00 0. -1.
         24    2    1    2    0    0  0.84283420877E+02  0.61834285554E+02  0.58377265003E+02  0.14770242318E+03  0.86492351331E+02 0.  0.
         23    2    1    2    0    0 -0.77963239918E+02 -0.99818183822E+02 -0.37902695493E+03  0.41005646389E+03  0.91885441798E+02 0.  0.
        -11    1    3    3    0    0  0.77446778777E+02  0.72141101651E+02  0.72982176497E+02  0.12856414810E+03  0.00000000000E+00 0.  1.
         12    1    3    3    0    0  0.68366420998E+01 -0.10306816096E+02 -0.14604911494E+02  0.19138275079E+02  0.00000000000E+00 0. -1.
        -11    1    4    4    0    0 -0.42160587506E+01 -0.20458437673E+02 -0.61713852814E+01  0.21780927889E+02  0.00000000000E+00 0.  1.
         11    1    4    4    0    0 -0.73747181168E+02 -0.79359746149E+02 -0.37285556964E+03  0.38827553600E+03  0.00000000000E+00 0. -1.
         21    1    1    2  502  501 -0.63201809584E+01  0.37983898267E+02 -0.44846093421E+02  0.59109164349E+02  0.00000000000E+00 0.  1.
<scales pt_clust_5="13000.00000" pt_clust_6="13000.00000" pt_clust_7="13000.00000" pt_clust_8="13000.00000" pt_clust_9="38.50612"></scales>
<clustering>
<clus scale="   38.506">  2  9  1 -1</clus>
<clus scale="   86.492">  5  6 -1 -1</clus>
<clus scale="   91.885">  7  8 -1 -1</clus>
<clus scale="  137.087">  1  5  2 -1</clus>
<clus scale="   38.506">  2  5  1 -1</clus>
</clustering>
</event>
<event>
 9    2  0.2984928E-005  0.1353577E+03  0.7546771E-02  0.1222668E+00
         -1   -1    0    0    0  501 -0.00000000000E+00  0.00000000000E+00  0.16073147788E+03  0.16073147788E+03  0.00000000000E+00 0.  1.
          2   -1    0    0  502    0  0.00000000000E+00 -0.00000000000E+00 -0.13734645529E+03  0.13734645529E+03  0.00000000000E+00 0. -1.
         24    2    1    2    0    0  0.61543932015E+02 -0.83188961820E+02  0.39241565412E+02  0.13626535827E+03  0.79500241953E+02 0.  0.
         23    2    1    2    0    0 -0.35549835484E+02  0.88542480677E+02 -0.35221811619E+01  0.13254672969E+03  0.91938392984E+02 0.  0.
        -11    1    3    3    0    0 -0.10529580978E+01 -0.46667425595E+02  0.43313534626E+02  0.63679035908E+02  0.00000000000E+00 0.  1.
         12    1    3    3    0    0  0.62596890113E+02 -0.36521536225E+02 -0.40719692145E+01  0.72586322357E+02  0.00000000000E+00 0. -1.
        -13    1    4    4    0    0 -0.59302651128E+02  0.37449411510E+02  0.17702870771E+02  0.72337089289E+02  0.00000000000E+00 0.  1.
         13    1    4    4    0    0  0.23752815644E+02  0.51093069167E+02 -0.21225051933E+02  0.60209640403E+02  0.00000000000E+00 0. -1.
         21    1    1    2  502  501 -0.25994096531E+02 -0.53535188572E+01 -0.12334361652E+02  0.29265845212E+02  0.00000000000E+00 0.  1.
<scales pt_clust_5="13000.00000" pt_clust_6="13000.00000" pt_clust_7="13000.00000" pt_clust_8="13000.00000" pt_clust_9="26.53965"></scales>
<clustering>
<clus scale="   26.540">  2  9  1 -1</clus>
<clus scale="   79.500">  5  6 -1 -1</clus>
<clus scale="   91.938">  7  8 -1 -1</clus>
<clus scale="  127.237">  1  5  2 -1</clus>
<clus scale="   26.540">  2  5  1 -1</clus>
</clustering>
</event>
<event>
 9    2  0.2984928E-005  0.1194168E+03  0.7546771E-02  0.1245854E+00
          2   -1    0    0  502    0  0.00000000000E+00  0.00000000000E+00  0.89697236416E+02  0.89697236416E+02  0.00000000000E+00 0. -1.
         -1   -1    0    0    0  501 -0.00000000000E+00 -0.00000000000E+00 -0.33967506805E+03  0.33967506805E+03  0.00000000000E+00 0.  1.
         23    2    1    2    0    0 -0.84493560610E+02  0.72361592942E+02 -0.20834822458E+03  0.25140726407E+03  0.86146780699E+02 0.  0.
         24    2    1    2    0    0  0.42652239494E+02 -0.24558101772E+02 -0.60308774450E+02  0.11174735986E+03  0.80174873024E+02 0.  0.
        -13    1    4    4    0    0 -0.22415786071E+02 -0.16336079137E+02 -0.24582544365E+02  0.37062601557E+02  0.00000000000E+00 0.  1.
         14    1    4    4    0    0  0.65068025566E+02 -0.82220226348E+01 -0.35726230085E+02  0.74684758307E+02  0.00000000000E+00 0. -1.
        -11    1    3    3    0    0 -0.82975962096E+02  0.16368864492E+02 -0.13021653587E+03  0.15527168520E+03  0.00000000000E+00 0.  1.
         11    1    3    3    0    0 -0.15175985139E+01  0.55992728450E+02 -0.78131688709E+02  0.96135578872E+02  0.00000000000E+00 0. -1.
         21    1    1    2  502  501  0.41841321116E+02 -0.47803491171E+02  0.18679167392E+02  0.66217680534E+02  0.00000000000E+00 0. -1.
<scales pt_clust_5="13000.00000" pt_clust_6="13000.00000" pt_clust_7="13000.00000" pt_clust_8="13000.00000" pt_clust_9="63.52850"></scales>
<clustering>
<clus scale="   63.528">  1  9  2 -1</clus>
<clus scale="   80.175">  5  6 -1 -1</clus>
<clus scale="   86.147">  7  8 -1 -1</clus>
<clus scale="  115.183">  1  5  2 -1</clus>
<clus scale="   63.528">  1  5  2 -1</clus>
</clustering>
</event>
<event>
 9    2  0.2984928E-005  0.1148889E+03  0.7546771E-02  0.1254735E+00
         -1   -1    0    0    0  501 -0.00000000000E+00  0.00000000000E+00  0.24066649139E+03  0.24066649139E+03  0.00000000000E+00 0.  1.
          2   -1    0    0  502    0  0.00000000000E+00 -0.00000000000E+00 -0.68180283203E+02  0.68180283203E+02  0.00000000000E+00 0. -1.
         24    2    1    2    0    0 -0.21305103128E+02  0.56881808381E+02  0.91069688518E+02  0.13802932679E+03  0.84077103556E+02 0.  0.
         23    2    1    2    0    0  0.43576926162E+02 -0.66938730508E+02  0.80688749568E+02  0.14636943289E+03  0.92377456356E+02 0.  0.
        -13    1    3    3    0    0  0.22223351932E+02  0.52459373825E+02  0.34832765700E+02  0.66777128116E+02  0.00000000000E+00 0.  1.
         14    1    3    3    0    0 -0.43528455060E+02  0.44224345569E+01  0.56236922818E+02  0.71252198670E+02  0.00000000000E+00 0. -1.
        -13    1    4    4    0    0  0.24330450620E+02 -0.88255119655E+02  0.71676816274E+02  0.11626909720E+03  0.00000000000E+00 0. -1.
         13    1    4    4    0    0  0.19246475542E+02  0.21316389147E+02  0.90119332939E+01  0.30100335692E+02  0.00000000000E+00 0.  1.
         21    1    1    2  502  501 -0.22271823034E+02  0.10056922126E+02  0.72777010226E+00  0.24448014914E+02  0.00000000000E+00 0. -1.
<scales pt_clust_5="13000.00000" pt_clust_6="13000.00000" pt_clust_7="13000.00000" pt_clust_8="13000.00000" pt_clust_9="24.43718"></scales>
<clustering>
<clus scale="   24.437">  2  9  1 -1</clus>
<clus scale="   84.077">  5  6 -1 -1</clus>
<clus scale="   92.377">  7  8 -1 -1</clus>
<clus scale="  108.327">  1  5  2 -1</clus>
<clus scale="   24.437">  2  5  1 -1</clus>
</clustering>
</event>
<event>
 9    2  0.2984928E-005  0.1208579E+03  0.7546771E-02  0.1253927E+00
          2   -1    0    0  502    0  0.00000000000E+00  0.00000000000E+00  0.13152021957E+04  0.13152021957E+04  0.00000000000E+00 0. -1.
         -1   -1    0    0    0  501 -0.00000000000E+00 -0.00000000000E+00 -0.24202484614E+02  0.24202484614E+02  0.00000000000E+00 0.  1.
         23    2    1    2    0    0 -0.21486075805E+02  0.18942668736E+02  0.14576590113E+03  0.17374978538E+03  0.90115558243E+02 0.  0.
         24    2    1    2    0    0 -0.70485674899E+02 -0.45102334943E+02  0.48898777507E+03  0.50247920978E+03  0.79836464805E+02 0.  0.
        -11    1    4    4    0    0 -0.70095203350E+02 -0.15591164929E+02  0.21006659040E+03  0.22200088819E+03  0.00000000000E+00 0.  1.
         12    1    4    4    0    0 -0.39047154935E+00 -0.29511170014E+02  0.27892118467E+03  0.28047832159E+03  0.00000000000E+00 0. -1.
        -13    1    3    3    0    0 -0.39833826001E+02 -0.24701373502E+02  0.79918064754E+02  0.92648737826E+02  0.00000000000E+00 0. -1.
         13    1    3    3    0    0  0.18347750196E+02  0.43644042238E+02  0.65847836372E+02  0.81101047558E+02  0.00000000000E+00 0.  1.
         21    1    1    2  502  501  0.91971750704E+02  0.26159666207E+02  0.65624603494E+03  0.66317568520E+03  0.00000000000E+00 0. -1.
<scales pt_clust_5="13000.00000" pt_clust_6="13000.00000" pt_clust_7="13000.00000" pt_clust_8="13000.00000" pt_clust_9="90.73465"></scales>
<clustering>
<clus scale="   79.836">  5  6 -1 -1</clus>
<clus scale="   90.116">  7  8 -1 -1</clus>
<clus scale="   94.558">  2  7  1 -1</clus>
<clus scale="   90.735">  1  9  2 -1</clus>
<clus scale="   90.735">  1  5  2 -1</clus>
</clustering>
</event>
<event>
 9    2  0.2984928E-005  0.1166233E+03  0.7546771E-02  0.1251886E+00
         -1   -1    0    0    0  501 -0.00000000000E+00  0.00000000000E+00  0.22364361193E+02  0.22364361193E+02  0.00000000000E+00 0.  1.
          2   -1    0    0  502    0  0.00000000000E+00 -0.00000000000E+00 -0.75143667931E+03  0.75143667931E+03  0.00000000000E+00 0. -1.
         24    2    1    2    0    0 -0.77346792074E+02 -0.29782012054E+02 -0.26656327625E+03  0.29135833454E+03  0.83451808689E+02 0.  0.
         23    2    1    2    0    0  0.48733196739E+02  0.28070479868E+02 -0.35121337139E+03  0.36751493105E+03  0.92485220422E+02 0.  0.
        -11    1    3    3    0    0 -0.70039365717E+02 -0.48307455174E+01 -0.96594187309E+02  0.11941225178E+03  0.00000000000E+00 0.  1.
         12    1    3    3    0    0 -0.73074263569E+01 -0.24951266537E+02 -0.16996908894E+03  0.17194608276E+03  0.00000000000E+00 0. -1.
        -11    1    4    4    0    0 -0.25245207798E+02 -0.72480296536E+01 -0.85634998450E+02  0.89572358516E+02  0.00000000000E+00 0.  1.
         11    1    4    4    0    0  0.73978404537E+02  0.35318509521E+02 -0.26557837294E+03  0.27794257253E+03  0.00000000000E+00 0. -1.
         21    1    1    2  502  501  0.28613595335E+02  0.17115321861E+01 -0.11129567048E+03  0.11492777492E+03  0.00000000000E+00 0.  1.
<scales pt_clust_5="13000.00000" pt_clust_6="13000.00000" pt_clust_7="13000.00000" pt_clust_8="13000.00000" pt_clust_9="28.66474"></scales>
<clustering>
<clus scale="   28.665">  2  9  1 -1</clus>
<clus scale="   83.452">  5  6 -1 -1</clus>
<clus scale="   92.485">  7  8 -1 -1</clus>
<clus scale="  109.598">  1  5  2 -1</clus>
<clus scale="   28.665">  2  5  1 -1</clus>
</clustering>
</event>
<event>
 9    2  0.2984928E-005  0.3790430E+03  0.7546771E-02  0.1099991E+00
          2   -1    0    0  502    0  0.00000000000E+00  0.00000000000E+00  0.42971437417E+03  0.42971437417E+03  0.00000000000E+00 0. -1.
         -1   -1    0    0    0  501 -0.00000000000E+00 -0.00000000000E+00 -0.58158580829E+03  0.58158580829E+03  0.00000000000E+00 0.  1.
         24    2    1    2    0    0  0.52979329697E+02 -0.39849528355E+02 -0.17035255385E+03  0.19799240205E+03  0.76067104459E+02 0.  0.
         23    2    1    2    0    0  0.27882818762E+03 -0.14337033164E+03 -0.18557550623E+03  0.38283727940E+03  0.11758360338E+03 0.  0.
        -13    1    3    3    0    0  0.68379846278E+02 -0.32099119941E+02 -0.16218725488E+03  0.17891579730E+03  0.00000000000E+00 0.  1.
         14    1    3    3    0    0 -0.15400516581E+02 -0.77504084142E+01 -0.81652989739E+01  0.19076604753E+02  0.00000000000E+00 0. -1.
        -11    1    4    4    0    0  0.25771180269E+03 -0.14319273170E+03 -0.12781024756E+03  0.32133314650E+03  0.00000000000E+00 0.  1.
         11    1    4    4    0    0  0.21116384924E+02 -0.17759993209E+00 -0.57765258675E+02  0.61504132901E+02  0.00000000000E+00 0. -1.
         21    1    1    2  502  501 -0.33180751732E+03  0.18321985999E+03  0.20405662596E+03  0.43047050101E+03  0.00000000000E+00 0. -1.
<scales pt_clust_5="13000.00000" pt_clust_6="13000.00000" pt_clust_7="13000.00000" pt_clust_8="13000.00000" pt_clust_9="360.34381"></scales>
<clustering>
<clus scale="   76.067">  5  6 -1 -1</clus>
<clus scale="  100.901">  2  5  1 -1</clus>
<clus scale="  117.584">  7  8 -1 -1</clus>
<clus scale="  360.344">  1  9  2 -1</clus>
<clus scale="  360.344">  1  5  2 -1</clus>
</clustering>
</event>
<event>
 9    2  0.2984928E-005  0.9953249E+02  0.7546771E-02  0.1286711E+00
          2   -1    0    0  502    0  0.00000000000E+00  0.00000000000E+00  0.10918630837E+03  0.10918630837E+03  0.00000000000E+00 0. -1.
         -1   -1    0    0    0  501 -0.00000000000E+00 -0.00000000000E+00 -0.18264654991E+03  0.18264654991E+03  0.00000000000E+00 0.  1.
         23    2    1    2    0    0 -0.68730994072E+02  0.10226186648E+02 -0.69738443204E+02  0.13430378460E+03  0.91353881460E+02 0.  0.
         24    2    1    2    0    0  0.26631377379E+02  0.23001759505E+02  0.31378021261E+02  0.93431714401E+02  0.80663460353E+02 0.  0.
        -13    1    4    4    0    0  0.22764245621E+02 -0.67083869578E+01 -0.21909365999E+02  0.32299127739E+02  0.00000000000E+00 0.  1.
         14    1    4    4    0    0  0.38671317581E+01  0.29710146462E+02  0.53287387260E+02  0.61132586661E+02  0.00000000000E+00 0. -1.
        -13    1    3    3    0    0 -0.56104770603E+02  0.28550026010E+02 -0.19772265058E+01  0.62982209347E+02  0.00000000000E+00 0. -1.
         13    1    3    3    0    0 -0.12626223469E+02 -0.18323839362E+02 -0.67761216698E+02  0.71321575252E+02  0.00000000000E+00 0.  1.
         21    1    1    2  502  501  0.42099616693E+02 -0.33227946153E+02 -0.35099819597E+02  0.64097359283E+02  0.00000000000E+00 0.  1.
<scales pt_clust_5="13000.00000" pt_clust_6="13000.00000" pt_clust_7="13000.00000" pt_clust_8="13000.00000" pt_clust_9="53.63277"></scales>
<clustering>
<clus scale="   53.633">  2  9  1 -1</clus>
<clus scale="   80.663">  5  6 -1 -1</clus>
<clus scale="   89.821">  1  5  2 -1</clus>
<clus scale="   91.354">  7  8 -1 -1</clus>
<clus scale="   89.821">  1  5  2 -1</clus>
</clustering>
</event>
<event>
 9    2  0.2984928E-005  0.1210577E+03  0.7546771E-02  0.1244083E+00
         -1   -1    0    0    0  501 -0.00000000000E+00  0.00000000000E+00  0.39553585227E+02  0.39553585227E+02  0.00000000000E+00 0.  1.
          2   -1    0    0  502    0  0.00000000000E+00 -0.00000000000E+00 -0.76851675216E+03  0.76851675216E+03  0.00000000000E+00 0. -1.
         24    2    1    2    0    0 -0.64562800643E+02 -0.62614490878E+02 -0.10994846975E+03  0.16415171821E+03  0.82269015414E+02 0.  0.
         23    2    1    2    0    0  0.65033060154E+02  0.11263379930E+02 -0.29232000658E+03  0.31321243748E+03  0.91076243371E+02 0.  0.
        -13    1    3    3    0    0 -0.61095399233E+02 -0.22024033626E+01 -0.50072887248E+02  0.79023999047E+02  0.00000000000E+00 0.  1.
         14    1    3    3    0    0 -0.34674014098E+01 -0.60412087516E+02 -0.59875582499E+02  0.85127719164E+02  0.00000000000E+00 0. -1.
        -13    1    4    4    0    0 -0.58795742576E+01  0.25594676597E+02 -0.24936751369E+02  0.36214616281E+02  0.00000000000E+00 0.  1.
         13    1    4    4    0    0  0.70912634411E+02 -0.14331296667E+02 -0.26738325521E+03  0.27699782120E+03  0.00000000000E+00 0. -1.
         21    1    1    2  502  501 -0.47025951121E+00  0.51351110948E+02 -0.32669469061E+03  0.33070618169E+03  0.00000000000E+00 0. -1.
<scales pt_clust_5="13000.00000" pt_clust_6="13000.00000" pt_clust_7="13000.00000" pt_clust_8="13000.00000" pt_clust_9="51.35326"></scales>
<clustering>
<clus scale="   51.353">  2  9  1 -1</clus>
<clus scale="   82.269">  5  6 -1 -1</clus>
<clus scale="   91.076">  7  8 -1 -1</clus>
<clus scale="  114.579">  1  5  2 -1</clus>
<clus scale="   51.353">  2  5  1 -1</clus>
</clustering>
</event>
<event>
 9    2  0.2984928E-005  0.9976708E+02  0.7546771E-02  0.1287805E+00
          2   -1    0    0  502    0  0.00000000000E+00  0.00000000000E+00  0.57474063468E+03  0.57474063468E+03  0.00000000000E+00 0. -1.
         -1   -1    0    0    0  501 -0.00000000000E+00 -0.00000000000E+00 -0.46305957358E+02  0.46305957358E+02  0.00000000000E+00 0.  1.
         23    2    1    2    0    0  0.42358525470E+02 -0.82218194129E+00  0.28631983976E+02  0.10543997066E+03  0.92211041868E+02 0.  0.
         24    2    1    2    0    0 -0.10133981860E+02 -0.11376084748E+02  0.43399273395E+03  0.44132223758E+03  0.78635306125E+02 0.  0.
        -11    1    4    4    0    0 -0.22027297280E+02  0.28551855548E+02  0.14907110387E+03  0.15337080651E+03  0.00000000000E+00 0.  1.
         12    1    4    4    0    0  0.11893315420E+02 -0.39927940296E+02  0.28492163008E+03  0.28795143107E+03  0.00000000000E+00 0. -1.
        -11    1    3    3    0    0  0.35264531245E+02 -0.41258381877E+02 -0.18500872053E+01  0.54307127172E+02  0.00000000000E+00 0. -1.
         11    1    3    3    0    0  0.70939942256E+01  0.40436199936E+02  0.30482071181E+02  0.51132843484E+02  0.00000000000E+00 0.  1.
         21    1    1    2  502  501 -0.32224543610E+02  0.12198266689E+02  0.65809959405E+02  0.74284383810E+02  0.00000000000E+00 0.  1.
<scales pt_clust_5="13000.00000" pt_clust_6="13000.00000" pt_clust_7="13000.00000" pt_clust_8="13000.00000" pt_clust_9="34.45604"></scales>
<clustering>
<clus scale="   34.456">  1  9  2 -1</clus>
<clus scale="   78.635">  5  6 -1 -1</clus>
<clus scale="   87.373">  1  5  2 -1</clus>
<clus scale="   92.211">  7  8 -1 -1</clus>
<clus scale="   34.456">  1  5  2 -1</clus>
</clustering>
</event>
<event>
 9    2  0.2984928E-005  0.1461610E+03  0.7546771E-02  0.1208261E+00
         -1   -1    0    0    0  501 -0.00000000000E+00  0.00000000000E+00  0.66682186529E+02  0.66682186529E+02  0.00000000000E+00 0.  1.
          2   -1    0    0  502    0  0.00000000000E+00 -0.00000000000E+00 -0.75583550293E+03  0.75583550293E+03  0.00000000000E+00 0. -1.
         23    2    1    2    0    0 -0.52294615997E+02  0.99097990219E+02 -0.36277518360E+02  0.15174067938E+03  0.95676731296E+02 0.  0.
         24    2    1    2    0    0  0.61793719308E+02 -0.80747258036E+02 -0.60146582929E+03  0.61536972516E+03  0.81118255752E+02 0.  0.
        -11    1    4    4    0    0  0.44394822275E+02  0.29758135841E+01 -0.21523522523E+03  0.21978616401E+03  0.00000000000E+00 0.  1.
         12    1    4    4    0    0  0.17398897033E+02 -0.83723071620E+02 -0.38623060406E+03  0.39558356115E+03  0.00000000000E+00 0. -1.
        -11    1    3    3    0    0 -0.31606559400E+02  0.11617357463E+03 -0.27291960791E+02  0.12345090183E+03  0.00000000000E+00 0.  1.
         11    1    3    3    0    0 -0.20688056597E+02 -0.17075584410E+02 -0.89855575683E+01  0.28289777545E+02  0.00000000000E+00 0. -1.
         21    1    1    2  502  501 -0.94991033108E+01 -0.18350732183E+02 -0.51409968758E+02  0.55407284928E+02  0.00000000000E+00 0. -1.
<scales pt_clust_5="13000.00000" pt_clust_6="13000.00000" pt_clust_7="13000.00000" pt_clust_8="13000.00000" pt_clust_9="20.66355"></scales>
<clustering>
<clus scale="   20.664">  2  9  1 -1</clus>
<clus scale="   81.118">  5  6 -1 -1</clus>
<clus scale="   95.677">  7  8 -1 -1</clus>
<clus scale="  137.074">  2  5  1 -1</clus>
<clus scale="   20.664">  2  5  1 -1</clus>
</clustering>
</event>
<event>
 9    2  0.2984928E-005  0.1321043E+03  0.7546771E-02  0.1242832E+00
         -1   -1    0    0    0  501 -0.00000000000E+00  0.00000000000E+00  0.92398291010E+02  0.92398291010E+02  0.00000000000E+00 0.  1.
          2   -1    0    0  502    0  0.00000000000E+00 -0.00000000000E+00 -0.59137655490E+03  0.59137655490E+03  0.00000000000E+00 0. -1.
         24    2    1    2    0    0  0.68529004822E+02 -0.77190436834E+02  0.17328623208E+01  0.12949736221E+03  0.78179127432E+02 0.  0.
         23    2    1    2    0    0  0.10064396147E+02 -0.23114893375E+02 -0.10508570642E+03  0.13863634675E+03  0.86841468096E+02 0.  0.
        -11    1    3    3    0    0  0.35081688915E+02 -0.89060344462E+01  0.31362671481E+02  0.47892165425E+02  0.00000000000E+00 0.  1.
         12    1    3    3    0    0  0.33447315907E+02 -0.68284402388E+02 -0.29629809160E+02  0.81605196781E+02  0.00000000000E+00 0. -1.
        -11    1    4    4    0    0  0.98344978387E+01 -0.54349801556E+02 -0.46317467039E+02  0.72082772073E+02  0.00000000000E+00 0.  1.
         11    1    4    4    0    0  0.22989830858E+00  0.31234908181E+02 -0.58768239386E+02  0.66553574681E+02  0.00000000000E+00 0. -1.
         21    1    1    2  502  501 -0.78593400969E+02  0.10030533021E+03 -0.39562541978E+03  0.41564113695E+03  0.00000000000E+00 0. -1.
<scales pt_clust_5="13000.00000" pt_clust_6="13000.00000" pt_clust_7="13000.00000" pt_clust_8="13000.00000" pt_clust_9="106.48740"></scales>
<clustering>
<clus scale="   78.179">  5  6 -1 -1</clus>
<clus scale="   86.841">  7  8 -1 -1</clus>
<clus scale="   90.427">  2  7  1 -1</clus>
<clus scale="  106.487">  2  9  1 -1</clus>
<clus scale="   90.427">  2  5  1 -1</clus>
</clustering>
</event>
<event>
 9    2  0.2984928E-005  0.9383617E+02  0.7546771E-02  0.1299300E+00
          2   -1    0    0  502    0  0.00000000000E+00  0.00000000000E+00  0.36049941102E+03  0.36049941102E+03  0.00000000000E+00 0. -1.
         -1   -1    0    0    0  501 -0.00000000000E+00 -0.00000000000E+00 -0.60632887525E+02  0.60632887525E+02  0.00000000000E+00 0.  1.
         23    2    1    2    0    0 -0.14744974097E+02  0.22617348488E+02 -0.57738530865E+01  0.95190756088E+02  0.91098759330E+02 0.  0.
         24    2    1    2    0    0  0.24273239756E+01  0.48427483007E+01  0.24326615085E+03  0.25668603397E+03  0.81730996407E+02 0.  0.
        -13    1    4    4    0    0  0.40368297079E+02  0.11256093783E+02  0.15124222121E+03  0.15694109893E+03  0.00000000000E+00 0.  1.
         14    1    4    4    0    0 -0.37940973103E+02 -0.64133454824E+01  0.92023929639E+02  0.99744935042E+02  0.00000000000E+00 0. -1.
        -11    1    3    3    0    0 -0.39601352099E+02  0.35719285887E+02  0.20101913681E+02  0.56993169819E+02  0.00000000000E+00 0. -1.
         11    1    3    3    0    0  0.24856378002E+02 -0.13101937399E+02 -0.25875766768E+02  0.38197586269E+02  0.00000000000E+00 0.  1.
         21    1    1    2  502  501  0.12317650121E+02 -0.27460096789E+02  0.62374225735E+02  0.69255508490E+02  0.00000000000E+00 0. -1.
<scales pt_clust_5="13000.00000" pt_clust_6="13000.00000" pt_clust_7="13000.00000" pt_clust_8="13000.00000" pt_clust_9="30.09620"></scales>
<clustering>
<clus scale="   30.096">  1  9  2 -1</clus>
<clus scale="   81.731">  5  6 -1 -1</clus>
<clus scale="   84.771">  1  5  2 -1</clus>
<clus scale="   91.099">  7  8 -1 -1</clus>
<clus scale="   30.096">  1  5  2 -1</clus>
</clustering>
</event>
<event>
 9    2  0.2984928E-005  0.1214366E+03  0.7546771E-02  0.1244345E+00
          2   -1    0    0  502    0  0.00000000000E+00  0.00000000000E+00  0.49183488063E+03  0.49183488063E+03  0.00000000000E+00 0. -1.
         -1   -1    0    0    0  501 -0.00000000000E+00 -0.00000000000E+00 -0.66140632970E+02  0.66140632970E+02  0.00000000000E+00 0.  1.
         23    2    1    2    0    0 -0.74070425130E+02 -0.21568036048E+02  0.18916370315E+02  0.12071043626E+03  0.90893191705E+02 0.  0.
         24    2    1    2    0    0  0.87143285471E+02  0.49583773333E+02  0.35057191423E+03  0.37311765726E+03  0.79143011901E+02 0.  0.
        -11    1    4    4    0    0  0.43852817938E+02  0.40279758920E+02  0.84414459418E+02  0.10330212766E+03  0.00000000000E+00 0.  1.
         12    1    4    4    0    0  0.43290467533E+02  0.93040144129E+01  0.26615745481E+03  0.26981552960E+03  0.00000000000E+00 0. -1.
        -13    1    3    3    0    0 -0.42649906954E+02  0.33656474098E+02 -0.29894727246E+00  0.54331042520E+02  0.00000000000E+00 0.  1.
         13    1    3    3    0    0 -0.31420518177E+02 -0.55224510146E+02  0.19215317588E+02  0.66379393741E+02  0.00000000000E+00 0. -1.
         21    1    1    2  502  501 -0.13072860340E+02 -0.28015737285E+02  0.56205963115E+02  0.64147420079E+02  0.00000000000E+00 0. -1.
<scales pt_clust_5="13000.00000" pt_clust_6="13000.00000" pt_clust_7="13000.00000" pt_clust_8="13000.00000" pt_clust_9="30.91571"></scales>
<clustering>
<clus scale="   30.916">  1  9  2 -1</clus>
<clus scale="   79.143">  5  6 -1 -1</clus>
<clus scale="   90.893">  7  8 -1 -1</clus>
<clus scale="  112.911">  1  5  2 -1</clus>
<clus scale="   30.916">  1  5  2 -1</clus>
</clustering>
</event>
<event>
 9    2  0.2984928E-005  0.1786341E+03  0.7546771E-02  0.1184600E+00
          2   -1    0    0  502    0  0.00000000000E+00  0.00000000000E+00  0.10499400940E+04  0.10499400940E+04  0.00000000000E+00 0. -1.
         -1   -1    0    0    0  501 -0.00000000000E+00 -0.00000000000E+00 -0.52635416226E+02  0.52635416226E+02  0.00000000000E+00 0.  1.
         24    2    1    2    0    0 -0.46293705530E+02  0.82637016806E+02  0.22796668959E+03  0.26043628231E+03  0.82983503564E+02 0.  0.
         23    2    1    2    0    0 -0.93912905754E+02  0.11994396415E+02  0.18915692022E+03  0.23780234352E+03  0.10865594647E+03 0.  0.
        -13    1    3    3    0    0  0.10965037380E+02  0.23253316801E+02  0.10359170098E+02  0.27717525000E+02  0.00000000000E+00 0.  1.
         14    1    3    3    0    0 -0.57258742910E+02  0.59383700005E+02  0.21760751949E+03  0.23271875731E+03  0.00000000000E+00 0. -1.
        -13    1    4    4    0    0 -0.60841525477E+00  0.29982796697E+02  0.47633845084E+01  0.30364915591E+02  0.00000000000E+00 0. -1.
         13    1    4    4    0    0 -0.93304490499E+02 -0.17988400282E+02  0.18439353571E+03  0.20743742793E+03  0.00000000000E+00 0.  1.
         21    1    1    2  502  501  0.14020661128E+03 -0.94631413221E+02  0.58018106792E+03  0.60433688435E+03  0.00000000000E+00 0. -1.
<scales pt_clust_5="13000.00000" pt_clust_6="13000.00000" pt_clust_7="13000.00000" pt_clust_8="13000.00000" pt_clust_9="141.78862"></scales>
<clustering>
<clus scale="   82.984">  5  6 -1 -1</clus>
<clus scale="  108.656">  7  8 -1 -1</clus>
<clus scale="  125.930">  2  5  1 -1</clus>
<clus scale="  141.789">  1  9  2 -1</clus>
<clus scale="  141.789">  1  5  2 -1</clus>
</clustering>
</event>
<event>
 9    2  0.2984928E-005  0.1558885E+03  0.7546771E-02  0.1198094E+00
          2   -1    0    0  502    0  0.00000000000E+00  0.00000000000E+00  0.52724560990E+02  0.52724560990E+02  0.00000000000E+00 0. -1.
         -1   -1    0    0    0  501 -0.00000000000E+00 -0.00000000000E+00 -0.89377078438E+03  0.89377078438E+03  0.00000000000E+00 0.  1.
         24    2    1    2    0    0 -0.11484658915E+03 -0.15780351419E+02 -0.45213159351E+03  0.47353200315E+03  0.79817426846E+02 0.  0.
         23    2    1    2    0    0  0.11679798024E+03 -0.47089601424E+02 -0.37421783769E+03  0.40836895703E+03  0.10424498197E+03 0.  0.
        -13    1    3    3    0    0 -0.11438629937E+03 -0.20046214307E+02 -0.45416992270E+03  0.46878182013E+03  0.00000000000E+00 0.  1.
         14    1    3    3    0    0 -0.46028977988E+00  0.42658628881E+01  0.20383291947E+01  0.47501830246E+01  0.00000000000E+00 0. -1.
        -11    1    4    4    0    0  0.98226643653E+02  0.98735570668E+01 -0.27814342776E+03  0.29514357025E+03  0.00000000000E+00 0. -1.
         11    1    4    4    0    0  0.18571336586E+02 -0.56963158491E+02 -0.96074409937E+02  0.11322538678E+03  0.00000000000E+00 0.  1.
         21    1    1    2  502  501 -0.19513910891E+01  0.62869952843E+02 -0.14696792188E+02  0.64594385192E+02  0.00000000000E+00 0. -1.
<scales pt_clust_5="13000.00000" pt_clust_6="13000.00000" pt_clust_7="13000.00000" pt_clust_8="13000.00000" pt_clust_9="62.90023"></scales>
<clustering>
<clus scale="   62.900">  1  9  2 -1</clus>
<clus scale="   79.817">  5  6 -1 -1</clus>
<clus scale="  104.245">  7  8 -1 -1</clus>
<clus scale="  140.730">  2  5  1 -1</clus>
<clus scale="   62.900">  1  5  2 -1</clus>
</clustering>
</event>
<event>
 9    2  0.2984928E-005  0.1071393E+03  0.7546771E-02  0.1268563E+00
         -1   -1    0    0    0  501 -0.00000000000E+00  0.00000000000E+00  0.20616968692E+02  0.20616968692E+02  0.00000000000E+00 0.  1.
          2   -1    0    0  502    0  0.00000000000E+00 -0.00000000000E+00 -0.14597760004E+04  0.14597760004E+04  0.00000000000E+00 0. -1.
         23    2    1    2    0    0  0.30390243913E+02  0.11571162614E+02 -0.26916778838E+03  0.28482454090E+03  0.87271198406E+02 0.  0.
         24    2    1    2    0    0 -0.11520362943E+03 -0.10893281590E+02 -0.47758075029E+03  0.49798254763E+03  0.80701331316E+02 0.  0.
        -13    1    4    4    0    0 -0.78281609824E+02 -0.20181340299E+02 -0.42748242572E+03  0.43505921578E+03  0.00000000000E+00 0.  1.
         14    1    4    4    0    0 -0.36922019608E+02  0.92880587089E+01 -0.50098324570E+02  0.62923331851E+02  0.00000000000E+00 0. -1.
        -13    1    3    3    0    0  0.33804279662E+02 -0.27298896613E+02 -0.20634566902E+03  0.21087079979E+03  0.00000000000E+00 0. -1.
         13    1    3    3    0    0 -0.34140357492E+01  0.38870059227E+02 -0.62822119356E+02  0.73953741114E+02  0.00000000000E+00 0.  1.
         21    1    1    2  502  501  0.84813385520E+02 -0.67788102345E+00 -0.69241049300E+03  0.69758588052E+03  0.00000000000E+00 0. -1.
<scales pt_clust_5="13000.00000" pt_clust_6="13000.00000" pt_clust_7="13000.00000" pt_clust_8="13000.00000" pt_clust_9="84.81609"></scales>
<clustering>
<clus scale="   80.701">  5  6 -1 -1</clus>
<clus scale="   84.816">  2  9  1 -1</clus>
<clus scale="   87.271">  7  8 -1 -1</clus>
<clus scale="  101.859">  2  5  1 -1</clus>
<clus scale="   84.816">  2  5  1 -1</clus>
</clustering>
</event>
<event>
 9    2  0.2984928E-005  0.1387763E+03  0.7546771E-02  0.1225453E+00
         -1   -1    0    0    0  501 -0.00000000000E+00  0.00000000000E+00  0.47142511671E+03  0.47142511671E+03  0.00000000000E+00 0.  1.
          2   -1    0    0  502    0  0.00000000000E+00 -0.00000000000E+00 -0.66629330116E+02  0.66629330116E+02  0.00000000000E+00 0. -1.
         24    2    1    2    0    0  0.81302515002E+02 -0.14371234352E+01  0.34389247338E+03  0.36237633251E+03  0.80264617621E+02 0.  0.
         23    2    1    2    0    0 -0.55775910076E+02 -0.20084352354E+02  0.37650648097E+02  0.13499067259E+03  0.11528476496E+03 0.  0.
        -11    1    3    3    0    0  0.69139461554E+02  0.15662769026E+01  0.34290475835E+03  0.34980907888E+03  0.00000000000E+00 0.  1.
         12    1    3    3    0    0  0.12163053448E+02 -0.30034003378E+01  0.98771503404E+00  0.12567253628E+02  0.00000000000E+00 0. -1.
        -13    1    4    4    0    0  0.93200114145E+01  0.34279297107E+02  0.35398871908E+02  0.50149904838E+02  0.00000000000E+00 0.  1.
         13    1    4    4    0    0 -0.65095921490E+02 -0.54363649460E+02  0.22517761884E+01  0.84840767755E+02  0.00000000000E+00 0. -1.
         21    1    1    2  502  501 -0.25526604926E+02  0.21521475789E+02  0.23252665111E+02  0.40687441723E+02  0.00000000000E+00 0. -1.
<scales pt_clust_5="13000.00000" pt_clust_6="13000.00000" pt_clust_7="13000.00000" pt_clust_8="13000.00000" pt_clust_9="33.38834"></scales>
<clustering>
<clus scale="   33.388">  2  9  1 -1</clus>
<clus scale="   80.265">  5  6 -1 -1</clus>
<clus scale="  111.403">  1  5  2 -1</clus>
<clus scale="  115.285">  7  8 -1 -1</clus>
<clus scale="   33.388">  2  5  1 -1</clus>
</clustering>
</event>
<event>
 9    2  0.2984928E-005  0.9434060E+02  0.7546771E-02  0.1299767E+00
          2   -1    0    0  502    0  0.00000000000E+00  0.00000000000E+00  0.60468003158E+03  0.60468003158E+03  0.00000000000E+00 0. -1.
         -1   -1    0    0    0  501 -0.00000000000E+00 -0.00000000000E+00 -0.52055315942E+02  0.52055315942E+02  0.00000000000E+00 0.  1.
         23    2    1    2    0    0 -0.11128229602E+02 -0.15345009077E+02  0.67524204819E+01  0.94119694408E+02  0.91943541891E+02 0.  0.
         24    2    1    2    0    0  0.51019327114E+02  0.48255089952E+01  0.38336216506E+03  0.39495080311E+03  0.79958301646E+02 0.  0.
        -11    1    4    4    0    0  0.47814891794E+02  0.30228001190E+02  0.15215611248E+03  0.16233138482E+03  0.00000000000E+00 0.  1.
         12    1    4    4    0    0  0.32044353203E+01 -0.25402492194E+02  0.23120605258E+03  0.23261941829E+03  0.00000000000E+00 0. -1.
        -13    1    3    3    0    0  0.27753109596E+02  0.24300376370E+02 -0.53851314199E+01  0.37279257294E+02  0.00000000000E+00 0. -1.
         13    1    3    3    0    0 -0.38881339198E+02 -0.39645385448E+02  0.12137551902E+02  0.56840437114E+02  0.00000000000E+00 0.  1.
         21    1    1    2  502  501 -0.39891097512E+02  0.10519500082E+02  0.16251013010E+03  0.16766485001E+03  0.00000000000E+00 0. -1.
<scales pt_clust_5="13000.00000" pt_clust_6="13000.00000" pt_clust_7="13000.00000" pt_clust_8="13000.00000" pt_clust_9="41.25481"></scales>
<clustering>
<clus scale="   41.255">  1  9  2 -1</clus>
<clus scale="   79.958">  5  6 -1 -1</clus>
<clus scale="   82.703">  1  5  2 -1</clus>
<clus scale="   91.944">  7  8 -1 -1</clus>
<clus scale="   41.255">  1  5  2 -1</clus>
</clustering>
</event>
<event>
 9    2  0.3084510E-005  0.1519628E+03  0.7546771E-02  0.1200361E+00
         -1   -1    0    0    0  501 -0.00000000000E+00  0.00000000000E+00  0.72699824931E+03  0.72699824931E+03  0.00000000000E+00 0.  1.
          2   -1    0    0  502    0  0.00000000000E+00 -0.00000000000E+00 -0.42566873942E+03  0.42566873942E+03  0.00000000000E+00 0. -1.
         24    2    1    2    0    0  0.54476707830E+02 -0.87982120638E+02  0.59402474946E+03  0.60858134369E+03  0.82445640655E+02 0.  0.
         23    2    1    2    0    0  0.54060561903E+02  0.10758581769E+03 -0.37590180639E+03  0.40592640134E+03  0.94746096149E+02 0.  0.
        -11    1    3    3    0    0  0.41476347605E+02 -0.10301064120E+03  0.46764139170E+03  0.48064534830E+03  0.00000000000E+00 0.  1.
         12    1    3    3    0    0  0.13000360225E+02  0.15028520566E+02  0.12638335777E+03  0.12793599539E+03  0.00000000000E+00 0. -1.
        -11    1    4    4    0    0  0.38243121672E+02 -0.52069574258E+01 -0.78894217814E+02  0.87829074715E+02  0.00000000000E+00 0.  1.
         11    1    4    4    0    0  0.15817440231E+02  0.11279277511E+03 -0.29700758858E+03  0.31809732662E+03  0.00000000000E+00 0. -1.
         21    1    1    2  502  501 -0.10853726973E+03 -0.19603697048E+02  0.83206566815E+02  0.13815924370E+03  0.00000000000E+00 0.  1.
<scales pt_clust_5="13000.00000" pt_clust_6="13000.00000" pt_clust_7="13000.00000" pt_clust_8="13000.00000" pt_clust_9="110.29344"></scales>
<clustering>
<clus scale="   82.446">  5  6 -1 -1</clus>
<clus scale="   94.746">  7  8 -1 -1</clus>
<clus scale="  110.293">  1  9  2 -1</clus>
<clus scale="  144.614">  1  5  2 -1</clus>
<clus scale="  151.963">  2  5  1 -1</clus>
</clustering>
</event>
<event>
 9    2  0.2984928E-005  0.1433408E+03  0.7546771E-02  0.1212740E+00
          2   -1    0    0  502    0  0.00000000000E+00  0.00000000000E+00  0.65518879905E+03  0.65518879905E+03  0.00000000000E+00 0. -1.
         -1   -1    0    0    0  501 -0.00000000000E+00 -0.00000000000E+00 -0.38432512970E+02  0.38432512970E+02  0.00000000000E+00 0.  1.
         23    2    1    2    0    0  0.59141952333E+02 -0.74077410452E+02  0.20026368891E+03  0.24246914354E+03  0.98491152933E+02 0.  0.
         24    2    1    2    0    0 -0.74712307621E+02  0.90543745815E+02  0.29697331109E+03  0.32950334642E+03  0.81235515552E+02 0.  0.
        -13    1    4    4    0    0 -0.22279105679E+02  0.46664817947E+02  0.45424367468E+02  0.68828314986E+02  0.00000000000E+00 0.  1.
         14    1    4    4    0    0 -0.52433201941E+02  0.43878927868E+02  0.25154894362E+03  0.26067503144E+03  0.00000000000E+00 0. -1.
        -11    1    3    3    0    0  0.50673723109E+02 -0.26096013312E-01  0.36221392506E+02  0.62288170384E+02  0.00000000000E+00 0.  1.
         11    1    3    3    0    0  0.84682292238E+01 -0.74051314439E+02  0.16404229641E+03  0.18018097315E+03  0.00000000000E+00 0. -1.
         21    1    1    2  502  501  0.15570355288E+02 -0.16466335363E+02  0.11951928608E+03  0.12164882206E+03  0.00000000000E+00 0. -1.
<scales pt_clust_5="13000.00000" pt_clust_6="13000.00000" pt_clust_7="13000.00000" pt_clust_8="13000.00000" pt_clust_9="22.66222"></scales>
<clustering>
<clus scale="   22.662">  1  9  2 -1</clus>
<clus scale="   81.236">  5  6 -1 -1</clus>
<clus scale="   98.491">  7  8 -1 -1</clus>
<clus scale="  132.081">  1  5  2 -1</clus>
<clus scale="   22.662">  1  5  2 -1</clus>
</clustering>
</event>
<event>
 9    2  0.2984928E-005  0.2482523E+03  0.7546771E-02  0.1129378E+00
          2   -1    0    0  502    0  0.00000000000E+00  0.00000000000E+00  0.66333920163E+03  0.66333920163E+03  0.00000000000E+00 0. -1.
         -1   -1    0    0    0  501 -0.00000000000E+00 -0.00000000000E+00 -0.22364228158E+03  0.22364228158E+03  0.00000000000E+00 0.  1.
         23    2    1    2    0    0  0.19066074337E+03  0.17225880972E+03 -0.13633260265E+02  0.27299872354E+03  0.91202087042E+02 0.  0.
         24    2    1    2    0    0 -0.14581032305E+03  0.40696574184E+02  0.30806645534E+03  0.35232820586E+03  0.79456669226E+02 0.  0.
        -11    1    4    4    0    0 -0.74678413887E+02  0.34742236626E+02  0.86034321156E+02  0.11910412639E+03  0.00000000000E+00 0.  1.
         12    1    4    4    0    0 -0.71131909164E+02  0.59543375582E+01  0.22203213418E+03  0.23322407947E+03  0.00000000000E+00 0. -1.
        -13    1    3    3    0    0  0.11787637355E+03  0.48165509131E+02 -0.20474116699E+02  0.12897265279E+03  0.00000000000E+00 0.  1.
         13    1    3    3    0    0  0.72784369819E+02  0.12409330059E+03  0.68408564340E+01  0.14402607076E+03  0.00000000000E+00 0. -1.
         21    1    1    2  502  501 -0.44850420321E+02 -0.21295538390E+03  0.14526372498E+03  0.26165455381E+03  0.00000000000E+00 0. -1.
<scales pt_clust_5="13000.00000" pt_clust_6="13000.00000" pt_clust_7="13000.00000" pt_clust_8="13000.00000" pt_clust_9="230.89256"></scales>
<clustering>
<clus scale="   79.457">  5  6 -1 -1</clus>
<clus scale="   91.202">  7  8 -1 -1</clus>
<clus scale="  170.968">  1  5  2 -1</clus>
<clus scale="  230.893">  1  9  2 -1</clus>
<clus scale="  170.968">  1  5  2 -1</clus>
</clustering>
</event>
<event>
 9    2  0.2984928E-005  0.9991843E+02  0.7546771E-02  0.1283895E+00
         -1   -1    0    0    0  501 -0.00000000000E+00  0.00000000000E+00  0.65862242361E+02  0.65862242361E+02  0.00000000000E+00 0.  1.
          2   -1    0    0  502    0  0.00000000000E+00 -0.00000000000E+00 -0.89834910751E+03  0.89834910751E+03  0.00000000000E+00 0. -1.
         23    2    1    2    0    0  0.72473809146E+02 -0.18783817396E+02 -0.50887116141E+01  0.11753710407E+03  0.90464308101E+02 0.  0.
         24    2    1    2    0    0 -0.32261815837E+02  0.25473761960E+02 -0.77360642477E+03  0.77918121025E+03  0.83466883548E+02 0.  0.
        -11    1    4    4    0    0 -0.29773159109E+02  0.10586951358E+02 -0.89610346807E+02  0.95018623423E+02  0.00000000000E+00 0.  1.
         12    1    4    4    0    0 -0.24886567276E+01  0.14886810602E+02 -0.68399607796E+03  0.68416258682E+03  0.00000000000E+00 0. -1.
        -13    1    3    3    0    0  0.53290189098E+02 -0.35469711576E+02  0.32783911862E+02  0.71921690542E+02  0.00000000000E+00 0. -1.
         13    1    3    3    0    0  0.19183620048E+02  0.16685894180E+02 -0.37872623476E+02  0.45615413532E+02  0.00000000000E+00 0.  1.
         21    1    1    2  502  501 -0.40211993309E+02 -0.66899445638E+01 -0.53791728767E+02  0.67493035551E+02  0.00000000000E+00 0. -1.
<scales pt_clust_5="13000.00000" pt_clust_6="13000.00000" pt_clust_7="13000.00000" pt_clust_8="13000.00000" pt_clust_9="40.76469"></scales>
<clustering>
<clus scale="   40.765">  1  9  2 -1</clus>
<clus scale="   83.467">  5  6 -1 -1</clus>
<clus scale="   90.464">  7  8 -1 -1</clus>
<clus scale="   93.630">  2  5  1 -1</clus>
<clus scale="   93.630">  2  5  1 -1</clus>
</clustering>
</event>
<event>
 9    2  0.2984928E-005  0.1473150E+03  0.7546771E-02  0.1204164E+00
          2   -1    0    0  502    0  0.00000000000E+00  0.00000000000E+00  0.10165084749E+04  0.10165084749E+04  0.00000000000E+00 0. -1.
         -1   -1    0    0    0  501 -0.00000000000E+00 -0.00000000000E+00 -0.69033317022E+02  0.69033317022E+02  0.00000000000E+00 0.  1.
         24    2    1    2    0    0 -0.55262097971E+02 -0.10034010471E+03  0.31385740131E+02  0.14800640033E+03  0.88310779466E+02 0.  0.
         23    2    1    2    0    0  0.85153822466E+02  0.10690643420E+03  0.83417094420E+03  0.85008673131E+03  0.90145035682E+02 0.  0.
        -13    1    3    3    0    0 -0.66423853572E+02 -0.49058236657E+02 -0.71652686309E+01  0.82886548860E+02  0.00000000000E+00 0.  1.
         14    1    3    3    0    0  0.11161755601E+02 -0.51281868051E+02  0.38551008762E+02  0.65119851470E+02  0.00000000000E+00 0. -1.
        -11    1    4    4    0    0  0.24299241129E+01  0.74293512974E+02  0.34789017105E+03  0.35574288708E+03  0.00000000000E+00 0.  1.
         11    1    4    4    0    0  0.82723898353E+02  0.32612921223E+02  0.48628077315E+03  0.49434384423E+03  0.00000000000E+00 0. -1.
         21    1    1    2  502  501 -0.29891724495E+02 -0.65663294884E+01  0.81918473583E+02  0.87448660312E+02  0.00000000000E+00 0. -1.
<scales pt_clust_5="13000.00000" pt_clust_6="13000.00000" pt_clust_7="13000.00000" pt_clust_8="13000.00000" pt_clust_9="30.60444"></scales>
<clustering>
<clus scale="   30.604">  1  9  2 -1</clus>
<clus scale="   88.311">  5  6 -1 -1</clus>
<clus scale="   90.145">  7  8 -1 -1</clus>
<clus scale="  146.200">  2  5  1 -1</clus>
<clus scale="   30.604">  1  5  2 -1</clus>
</clustering>
</event>
<event>
 9    2  0.2984928E-005  0.9980721E+02  0.7546771E-02  0.1285125E+00
         -3   -1    0    0    0  501 -0.00000000000E+00  0.00000000000E+00  0.32900695269E+02  0.32900695269E+02  0.00000000000E+00 0.  1.
          4   -1    0    0  502    0  0.00000000000E+00 -0.00000000000E+00 -0.43660506255E+03  0.43660506255E+03  0.00000000000E+00 0. -1.
         23    2    1    2    0    0 -0.39697293599E+02 -0.39291546648E+02 -0.92000854260E+02  0.13885257145E+03  0.87727867053E+02 0.  0.
         24    2    1    2    0    0  0.24529432548E+02  0.19456520725E+02 -0.22189265458E+03  0.23743579230E+03  0.78480290833E+02 0.  0.
        -11    1    4    4    0    0  0.41106508341E+02  0.20359958358E+02 -0.64381805888E+02  0.79052450068E+02  0.00000000000E+00 0.  1.
         12    1    4    4    0    0 -0.16577075793E+02 -0.90343763205E+00 -0.15751084869E+03  0.15838334223E+03  0.00000000000E+00 0. -1.
        -13    1    3    3    0    0 -0.11028381789E+02  0.24876742241E+02 -0.61413244805E+01  0.27896117575E+02  0.00000000000E+00 0. -1.
         13    1    3    3    0    0 -0.28668911810E+02 -0.64168288888E+02 -0.85859529779E+02  0.11095645388E+03  0.00000000000E+00 0.  1.
         21    1    1    2  502  501  0.15167861050E+02  0.19835025922E+02 -0.89810858442E+02  0.93217394065E+02  0.00000000000E+00 0. -1.
<scales pt_clust_5="13000.00000" pt_clust_6="13000.00000" pt_clust_7="13000.00000" pt_clust_8="13000.00000" pt_clust_9="24.96983"></scales>
<clustering>
<clus scale="   24.970">  2  9  1 -1</clus>
<clus scale="   78.480">  5  6 -1 -1</clus>
<clus scale="   87.728">  7  8 -1 -1</clus>
<clus scale="   91.785">  2  5  1 -1</clus>
<clus scale="   24.970">  2  5  1 -1</clus>
</clustering>
</event>
<event>
 9    2  0.2984928E-005  0.1259333E+03  0.7546771E-02  0.1235113E+00
         -3   -1    0    0    0  501 -0.00000000000E+00  0.00000000000E+00  0.40140601721E+03  0.40140601721E+03  0.00000000000E+00 0.  1.
          4   -1    0    0  502    0  0.00000000000E+00 -0.00000000000E+00 -0.20743996929E+03  0.20743996929E+03  0.00000000000E+00 0. -1.
         23    2    1    2    0    0  0.47719128613E+02 -0.74137094635E+02  0.35652863336E+03  0.37780107351E+03  0.88586458910E+02 0.  0.
         24    2    1    2    0    0 -0.69372979593E+02  0.87034627787E+02 -0.14012970966E+03  0.19730369875E+03  0.83094989488E+02 0.  0.
        -13    1    4    4    0    0 -0.57203535903E+02  0.91550926222E+01 -0.42629819354E+02  0.71926085247E+02  0.00000000000E+00 0.  1.
         14    1    4    4    0    0 -0.12169443690E+02  0.77879535165E+02 -0.97499890307E+02  0.12537761350E+03  0.00000000000E+00 0. -1.
        -11    1    3    3    0    0  0.17897187262E+02 -0.77432207254E+02  0.32375965492E+03  0.33337121980E+03  0.00000000000E+00 0.  1.
         11    1    3    3    0    0  0.29821941351E+02  0.32951126187E+01  0.32768978433E+02  0.44429853709E+02  0.00000000000E+00 0. -1.
         21    1    1    2  502  501  0.21653850980E+02 -0.12897533152E+02 -0.22432875766E+02  0.33741214246E+02  0.00000000000E+00 0.  1.
<scales pt_clust_5="13000.00000" pt_clust_6="13000.00000" pt_clust_7="13000.00000" pt_clust_8="13000.00000" pt_clust_9="25.20388"></scales>
<clustering>
<clus scale="   25.204">  2  9  1 -1</clus>
<clus scale="   83.095">  5  6 -1 -1</clus>
<clus scale="   88.586">  7  8 -1 -1</clus>
<clus scale="  122.133">  2  5  1 -1</clus>
<clus scale="   25.204">  2  5  1 -1</clus>
</clustering>
</event>
<event>
 9    2  0.2984928E-005  0.1104468E+03  0.7546771E-02  0.1261321E+00
         -1   -1    0    0    0  501 -0.00000000000E+00  0.00000000000E+00  0.35484589058E+03  0.35484589058E+03  0.00000000000E+00 0.  1.
          2   -1    0    0  502    0  0.00000000000E+00 -0.00000000000E+00 -0.30826550051E+03  0.30826550051E+03  0.00000000000E+00 0. -1.
         23    2    1    2    0    0 -0.19214511073E+02 -0.67923545795E+02  0.32346549030E+03  0.34229947927E+03  0.86926432012E+02 0.  0.
         24    2    1    2    0    0 -0.12018622007E+02  0.12556019958E+02 -0.21949933478E+03  0.23517198192E+03  0.82606308459E+02 0.  0.
        -11    1    4    4    0    0  0.15260694616E+02 -0.25645300258E+02 -0.13737112650E+03  0.14057523474E+03  0.00000000000E+00 0.  1.
         12    1    4    4    0    0 -0.27279316623E+02  0.38201320215E+02 -0.82128208283E+02  0.94596747182E+02  0.00000000000E+00 0. -1.
        -11    1    3    3    0    0  0.23301473680E+02 -0.63505802967E+02  0.16919368648E+03  0.18221539241E+03  0.00000000000E+00 0. -1.
         11    1    3    3    0    0 -0.42515984753E+02 -0.44177428272E+01  0.15427180381E+03  0.16008408685E+03  0.00000000000E+00 0.  1.
         21    1    1    2  502  501  0.31233133080E+02  0.55367525837E+02 -0.57385765444E+02  0.85639929909E+02  0.00000000000E+00 0. -1.
<scales pt_clust_5="13000.00000" pt_clust_6="13000.00000" pt_clust_7="13000.00000" pt_clust_8="13000.00000" pt_clust_9="63.56942"></scales>
<clustering>
<clus scale="   63.569">  2  9  1 -1</clus>
<clus scale="   82.606">  5  6 -1 -1</clus>
<clus scale="   86.926">  7  8 -1 -1</clus>
<clus scale="  107.080">  2  5  1 -1</clus>
<clus scale="   63.569">  2  5  1 -1</clus>
</clustering>
</event>
<event>
 9    2  0.2984928E-005  0.1200977E+03  0.7546771E-02  0.1246780E+00
         -1   -1    0    0    0  501 -0.00000000000E+00  0.00000000000E+00  0.71530891586E+02  0.71530891586E+02  0.00000000000E+00 0.  1.
          2   -1    0    0  502    0  0.00000000000E+00 -0.00000000000E+00 -0.51396506597E+03  0.51396506597E+03  0.00000000000E+00 0. -1.
         23    2    1    2    0    0 -0.80188845489E+01 -0.61061691011E+02 -0.36635003518E+02  0.11662887267E+03  0.92018138641E+02 0.  0.
         24    2    1    2    0    0 -0.24642762262E+02  0.11693175451E+03 -0.16195657922E+03  0.21658260921E+03  0.79986199525E+02 0.  0.
        -11    1    4    4    0    0 -0.51508685301E+02  0.61799089098E+02 -0.10951335000E+03  0.13588762233E+03  0.00000000000E+00 0.  1.
         12    1    4    4    0    0  0.26865923039E+02  0.55132665410E+02 -0.52443229220E+02  0.80694986876E+02  0.00000000000E+00 0. -1.
        -13    1    3    3    0    0 -0.23223153765E+02 -0.19794688123E+02 -0.59642572416E+02  0.66995380386E+02  0.00000000000E+00 0. -1.
         13    1    3    3    0    0  0.15204269216E+02 -0.41267002889E+02  0.23007568898E+02  0.49633492285E+02  0.00000000000E+00 0.  1.
         21    1    1    2  502  501  0.32661646811E+02 -0.55870063497E+02 -0.24384259165E+03  0.25228447568E+03  0.00000000000E+00 0. -1.
<scales pt_clust_5="13000.00000" pt_clust_6="13000.00000" pt_clust_7="13000.00000" pt_clust_8="13000.00000" pt_clust_9="64.71667"></scales>
<clustering>
<clus scale="   64.717">  2  9  1 -1</clus>
<clus scale="   79.986">  5  6 -1 -1</clus>
<clus scale="   92.018">  7  8 -1 -1</clus>
<clus scale="  111.148">  2  5  1 -1</clus>
<clus scale="   64.717">  2  5  1 -1</clus>
</clustering>
</event>
<event>
 9    2  0.2984928E-005  0.9798343E+02  0.7546771E-02  0.1293258E+00
         -3   -1    0    0    0  501 -0.00000000000E+00  0.00000000000E+00  0.26210385638E+03  0.26210385638E+03  0.00000000000E+00 0.  1.
          4   -1    0    0  502    0  0.00000000000E+00 -0.00000000000E+00 -0.45991636971E+02  0.45991636971E+02  0.00000000000E+00 0. -1.
         23    2    1    2    0    0  0.78829585784E+01 -0.10525049059E+01  0.16073595447E+03  0.18812551123E+03  0.97426444646E+02 0.  0.
         24    2    1    2    0    0 -0.47070870374E+01  0.21398506102E+02  0.40669862148E+02  0.94665353926E+02  0.82628317271E+02 0.  0.
        -13    1    4    4    0    0 -0.28164678064E+01  0.32846413880E+02 -0.16123685272E+02  0.36698673306E+02  0.00000000000E+00 0.  1.
         14    1    4    4    0    0 -0.18906192310E+01 -0.11447907778E+02  0.56793547420E+02  0.57966680620E+02  0.00000000000E+00 0. -1.
        -13    1    3    3    0    0  0.43622920997E+02  0.12609802000E+02  0.36894210605E+02  0.58507684273E+02  0.00000000000E+00 0. -1.
         13    1    3    3    0    0 -0.35739962419E+02 -0.13662306906E+02  0.12384174386E+03  0.12961782696E+03  0.00000000000E+00 0.  1.
         21    1    1    2  502  501 -0.31758715410E+01 -0.20346001196E+02  0.14706402795E+02  0.25304628191E+02  0.00000000000E+00 0. -1.
<scales pt_clust_5="13000.00000" pt_clust_6="13000.00000" pt_clust_7="13000.00000" pt_clust_8="13000.00000" pt_clust_9="20.59238"></scales>
<clustering>
<clus scale="   20.592">  2  9  1 -1</clus>
<clus scale="   82.628">  5  6 -1 -1</clus>
<clus scale="   83.284">  2  5  1 -1</clus>
<clus scale="   97.426">  7  8 -1 -1</clus>
<clus scale="   20.592">  2  5  1 -1</clus>
</clustering>
</event>
<event>
 9    2  0.2984928E-005  0.1537344E+03  0.7546771E-02  0.1196953E+00
          2   -1    0    0  502    0  0.00000000000E+00  0.00000000000E+00  0.37400840085E+03  0.37400840085E+03  0.00000000000E+00 0. -1.
         -1   -1    0    0    0  501 -0.00000000000E+00 -0.00000000000E+00 -0.18447697870E+03  0.18447697870E+03  0.00000000000E+00 0.  1.
         24    2    1    2    0    0 -0.10447550283E+03 -0.75420404797E+02 -0.12618715316E+03  0.19918160927E+03  0.84538439171E+02 0.  0.
         23    2    1    2    0    0  0.84451589753E+02  0.39637893575E+02  0.25306535958E+03  0.28442539793E+03  0.90291179797E+02 0.  0.
        -11    1    3    3    0    0 -0.20356481411E+02 -0.91744351812E+01 -0.79138588992E+02  0.82228175609E+02  0.00000000000E+00 0.  1.
         12    1    3    3    0    0 -0.84119021417E+02 -0.66245969616E+02 -0.47048564167E+02  0.11695343366E+03  0.00000000000E+00 0. -1.
        -11    1    4    4    0    0  0.21641061524E+02  0.55985573657E+02  0.16064502510E+03  0.17149211087E+03  0.00000000000E+00 0.  1.
         11    1    4    4    0    0  0.62810528228E+02 -0.16347680082E+02  0.92420334476E+02  0.11293328706E+03  0.00000000000E+00 0. -1.
         21    1    1    2  502  501  0.20023913075E+02  0.35782511222E+02  0.62653215734E+02  0.74878372351E+02  0.00000000000E+00 0. -1.
<scales pt_clust_5="13000.00000" pt_clust_6="13000.00000" pt_clust_7="13000.00000" pt_clust_8="13000.00000" pt_clust_9="41.00421"></scales>
<clustering>
<clus scale="   41.004">  1  9  2 -1</clus>
<clus scale="   84.538">  5  6 -1 -1</clus>
<clus scale="   90.291">  7  8 -1 -1</clus>
<clus scale="  150.428">  2  5  1 -1</clus>
<clus scale="   41.004">  1  5  2 -1</clus>
</clustering>
</event>
<event>
 9    2  0.2984928E-005  0.2769826E+03  0.7546771E-02  0.1097779E+00
          2   -1    0    0  502    0  0.00000000000E+00  0.00000000000E+00  0.11765223158E+04  0.11765223158E+04  0.00000000000E+00 0. -1.
         -1   -1    0    0    0  501 -0.00000000000E+00 -0.00000000000E+00 -0.85230399349E+02  0.85230399349E+02  0.00000000000E+00 0.  1.
         23    2    1    2    0    0  0.32752564401E+02 -0.26595801130E+03  0.31507008778E+03  0.42319122254E+03  0.89527964197E+02 0.  0.
         24    2    1    2    0    0  0.15965974460E+02  0.25397432557E+03  0.63496371446E+03  0.68865832526E+03  0.79457535008E+02 0.  0.
        -13    1    4    4    0    0  0.24747402003E+02  0.20367518978E+03  0.41632130706E+03  0.46413300631E+03  0.00000000000E+00 0.  1.
         14    1    4    4    0    0 -0.87814275428E+01  0.50299135793E+02  0.21864240741E+03  0.22452531895E+03  0.00000000000E+00 0. -1.
        -13    1    3    3    0    0  0.44552853802E+02 -0.61426348078E+02  0.65005691489E+02  0.99919432275E+02  0.00000000000E+00 0. -1.
         13    1    3    3    0    0 -0.11800289401E+02 -0.20453166322E+03  0.25006439629E+03  0.32327179027E+03  0.00000000000E+00 0.  1.
         21    1    1    2  502  501 -0.48718538861E+02  0.11983685729E+02  0.14125811419E+03  0.14990316733E+03  0.00000000000E+00 0.  1.
<scales pt_clust_5="13000.00000" pt_clust_6="13000.00000" pt_clust_7="13000.00000" pt_clust_8="13000.00000" pt_clust_9="50.17076"></scales>
<clustering>
<clus scale="   50.171">  1  9  2 -1</clus>
<clus scale="   79.458">  5  6 -1 -1</clus>
<clus scale="   89.528">  7  8 -1 -1</clus>
<clus scale="  273.893">  1  5  2 -1</clus>
<clus scale="   50.171">  1  5  2 -1</clus>
</clustering>
</event>
<event>
 9    2  0.2984928E-005  0.1365324E+03  0.7546771E-02  0.1220391E+00
          2   -1    0    0  502    0  0.00000000000E+00  0.00000000000E+00  0.33249964042E+03  0.33249964042E+03  0.00000000000E+00 0. -1.
         -1   -1    0    0    0  501 -0.00000000000E+00 -0.00000000000E+00 -0.12243852214E+03  0.12243852214E+03  0.00000000000E+00 0.  1.
         24    2    1    2    0    0 -0.10379202105E+03  0.27757029440E+02 -0.55000092430E+02  0.14500845504E+03  0.80369182832E+02 0.  0.
         23    2    1    2    0    0  0.81206694298E+02 -0.10213443882E+02  0.16103161331E+03  0.20204072979E+03  0.90501018651E+02 0.  0.
        -13    1    3    3    0    0 -0.75896727094E+02  0.40032138468E+02 -0.70280735280E+02  0.11091558522E+03  0.00000000000E+00 0.  1.
         14    1    3    3    0    0 -0.27895293952E+02 -0.12275109028E+02  0.15280642850E+02  0.34092869815E+02  0.00000000000E+00 0. -1.
        -11    1    4    4    0    0  0.50570905142E+02  0.23404507056E+02  0.29887451987E+02  0.63233275921E+02  0.00000000000E+00 0.  1.
         11    1    4    4    0    0  0.30635789156E+02 -0.33617950938E+02  0.13114416132E+03  0.13880745387E+03  0.00000000000E+00 0. -1.
         21    1    1    2  502  501  0.22585326749E+02 -0.17543585558E+02  0.10402959741E+03  0.10788897773E+03  0.00000000000E+00 0. -1.
<scales pt_clust_5="13000.00000" pt_clust_6="13000.00000" pt_clust_7="13000.00000" pt_clust_8="13000.00000" pt_clust_9="28.59850"></scales>
<clustering>
<clus scale="   28.599">  1  9  2 -1</clus>
<clus scale="   80.369">  5  6 -1 -1</clus>
<clus scale="   90.501">  7  8 -1 -1</clus>
<clus scale="  130.038">  2  5  1 -1</clus>
<clus scale="   28.599">  1  5  2 -1</clus>
</clustering>
</event>
<event>
 9    2  0.2984928E-005  0.1998882E+03  0.7546771E-02  0.1150789E+00
          2   -1    0    0  502    0  0.00000000000E+00  0.00000000000E+00  0.18687728797E+04  0.18687728797E+04  0.00000000000E+00 0. -1.
         -1   -1    0    0    0  501 -0.00000000000E+00 -0.00000000000E+00 -0.10968122644E+03  0.10968122644E+03  0.00000000000E+00 0.  1.
         23    2    1    2    0    0 -0.10894225228E+01  0.18491450847E+03  0.14117153006E+03  0.24945448465E+03  0.90019868524E+02 0.  0.
         24    2    1    2    0    0  0.17743701010E+03 -0.13048721513E+03  0.22789411693E+03  0.32677528137E+03  0.79596168985E+02 0.  0.
        -11    1    4    4    0    0  0.22836002793E+02 -0.58401333573E+02  0.48927838046E+02  0.79536985877E+02  0.00000000000E+00 0.  1.
         12    1    4    4    0    0  0.15460100730E+03 -0.72085881557E+02  0.17896627889E+03  0.24723829549E+03  0.00000000000E+00 0. -1.
        -11    1    3    3    0    0 -0.28226093687E+02  0.14482536173E+02  0.12123054990E+02  0.33962106548E+02  0.00000000000E+00 0. -1.
         11    1    3    3    0    0  0.27136671165E+02  0.17043197230E+03  0.12904847507E+03  0.21549237810E+03  0.00000000000E+00 0.  1.
         21    1    1    2  502  501 -0.17634758757E+03 -0.54427293344E+02  0.13900260062E+04  0.14022243401E+04  0.00000000000E+00 0. -1.
<scales pt_clust_5="13000.00000" pt_clust_6="13000.00000" pt_clust_7="13000.00000" pt_clust_8="13000.00000" pt_clust_9="184.55569"></scales>
<clustering>
<clus scale="   79.596">  5  6 -1 -1</clus>
<clus scale="   90.020">  7  8 -1 -1</clus>
<clus scale="  184.556">  1  9  2 -1</clus>
<clus scale="  195.416">  1  5  2 -1</clus>
<clus scale="  184.556">  1  5  2 -1</clus>
</clustering>
</event>
<event>
 9    2  0.2984928E-005  0.1182369E+03  0.7546771E-02  0.1249057E+00
         -1   -1    0    0    0  501 -0.00000000000E+00  0.00000000000E+00  0.15499496730E+03  0.15499496730E+03  0.00000000000E+00 0.  1.
          2   -1    0    0  502    0  0.00000000000E+00 -0.00000000000E+00 -0.33311445599E+03  0.33311445599E+03  0.00000000000E+00 0. -1.
         23    2    1    2    0    0  0.27323147362E+02  0.66067576604E+02  0.78463985151E+02  0.13888783599E+03  0.89564250456E+02 0.  0.
         24    2    1    2    0    0 -0.10455080143E+03 -0.63520016620E+02 -0.10821427852E+03  0.18193734198E+03  0.80157368588E+02 0.  0.
        -13    1    4    4    0    0 -0.10075507052E+03 -0.79326279273E+02 -0.10409834813E+03  0.16516872858E+03  0.00000000000E+00 0.  1.
         14    1    4    4    0    0 -0.37957309153E+01  0.15806262653E+02 -0.41159303896E+01  0.16768613395E+02  0.00000000000E+00 0. -1.
        -11    1    3    3    0    0 -0.20961118991E+02  0.81338909441E+01 -0.82648913111E+01  0.23954897613E+02  0.00000000000E+00 0.  1.
         11    1    3    3    0    0  0.48284266353E+02  0.57933685660E+02  0.86728876462E+02  0.11493293838E+03  0.00000000000E+00 0. -1.
         21    1    1    2  502  501  0.77227654069E+02 -0.25475599842E+01 -0.14836919532E+03  0.16728424533E+03  0.00000000000E+00 0. -1.
<scales pt_clust_5="13000.00000" pt_clust_6="13000.00000" pt_clust_7="13000.00000" pt_clust_8="13000.00000" pt_clust_9="77.26966"></scales>
<clustering>
<clus scale="   77.270">  2  9  1 -1</clus>
<clus scale="   80.157">  5  6 -1 -1</clus>
<clus scale="   89.564">  7  8 -1 -1</clus>
<clus scale="  111.281">  2  5  1 -1</clus>
<clus scale="   77.270">  2  5  1 -1</clus>
</clustering>
</event>
<event>
 9    2  0.2984928E-005  0.1054351E+03  0.7546771E-02  0.1277311E+00
          4   -1    0    0  502    0  0.00000000000E+00  0.00000000000E+00  0.10368642497E+03  0.10368642497E+03  0.00000000000E+00 0. -1.
         -3   -1    0    0    0  501 -0.00000000000E+00 -0.00000000000E+00 -0.33966560935E+03  0.33966560935E+03  0.00000000000E+00 0.  1.
         24    2    1    2    0    0 -0.60795932277E+02 -0.17805218198E+02 -0.23591013037E+03  0.25687606243E+03  0.79489311601E+02 0.  0.
         23    2    1    2    0    0  0.35478363068E+02 -0.23845285511E+02  0.49962961649E+02  0.11662651692E+03  0.96323076281E+02 0.  0.
        -13    1    3    3    0    0 -0.34170039541E+02  0.12816716140E+02 -0.19802899835E+03  0.20136371074E+03  0.00000000000E+00 0.  1.
         14    1    3    3    0    0 -0.26625892736E+02 -0.30621934338E+02 -0.37881132022E+02  0.55512351688E+02  0.00000000000E+00 0. -1.
        -11    1    4    4    0    0  0.59228554720E+02 -0.44155204302E+02  0.38777290019E+02  0.83434896670E+02  0.00000000000E+00 0. -1.
         11    1    4    4    0    0 -0.23750191652E+02  0.20309918791E+02  0.11185671630E+02  0.33191620247E+02  0.00000000000E+00 0.  1.
         21    1    1    2  502  501  0.25317569209E+02  0.41650503709E+02 -0.50032015662E+02  0.69849454981E+02  0.00000000000E+00 0.  1.
<scales pt_clust_5="13000.00000" pt_clust_6="13000.00000" pt_clust_7="13000.00000" pt_clust_8="13000.00000" pt_clust_9="48.74160"></scales>
<clustering>
<clus scale="   48.742">  2  9  1 -1</clus>
<clus scale="   79.489">  5  6 -1 -1</clus>
<clus scale="   90.316">  2  5  1 -1</clus>
<clus scale="   96.323">  7  8 -1 -1</clus>
<clus scale="  105.435">  1  5  2 -1</clus>
</clustering>
</event>
<event>
 9    2  0.2984928E-005  0.9509835E+02  0.7546771E-02  0.1297417E+00
         -1   -1    0    0    0  501 -0.00000000000E+00  0.00000000000E+00  0.11518218274E+03  0.11518218274E+03  0.00000000000E+00 0.  1.
          2   -1    0    0  502    0  0.00000000000E+00 -0.00000000000E+00 -0.22236657023E+03  0.22236657023E+03  0.00000000000E+00 0. -1.
         23    2    1    2    0    0  0.22152606901E+02  0.22969737476E+01  0.74761304334E+02  0.12073314888E+03  0.92147851478E+02 0.  0.
         24    2    1    2    0    0 -0.26511284498E+02 -0.29526506290E+02 -0.13443054033E+03  0.16187804740E+03  0.80983141940E+02 0.  0.
        -11    1    4    4    0    0 -0.44580972197E+01  0.26075947932E+02 -0.65336823694E+02  0.70489220607E+02  0.00000000000E+00 0.  1.
         12    1    4    4    0    0 -0.22053187278E+02 -0.55602454223E+02 -0.69093716635E+02  0.91388826796E+02  0.00000000000E+00 0. -1.
        -13    1    3    3    0    0  0.14338470289E+02 -0.29548400094E+02 -0.61641022491E+01  0.33416999190E+02  0.00000000000E+00 0. -1.
         13    1    3    3    0    0  0.78141366121E+01  0.31845373842E+02  0.80925406583E+02  0.87316149690E+02  0.00000000000E+00 0.  1.
         21    1    1    2  502  501  0.43586775970E+01  0.27229532543E+02 -0.47515151497E+02  0.54937556686E+02  0.00000000000E+00 0.  1.
<scales pt_clust_5="13000.00000" pt_clust_6="13000.00000" pt_clust_7="13000.00000" pt_clust_8="13000.00000" pt_clust_9="27.57618"></scales>
<clustering>
<clus scale="   27.576">  2  9  1 -1</clus>
<clus scale="   80.983">  5  6 -1 -1</clus>
<clus scale="   84.325">  2  5  1 -1</clus>
<clus scale="   92.148">  7  8 -1 -1</clus>
<clus scale="   27.576">  2  5  1 -1</clus>
</clustering>
</event>
<event>
 9    2  0.2984928E-005  0.1008927E+03  0.7546771E-02  0.1283711E+00
         -1   -1    0    0    0  501 -0.00000000000E+00  0.00000000000E+00  0.15890776726E+03  0.15890776726E+03  0.00000000000E+00 0.  1.
          2   -1    0    0  502    0  0.00000000000E+00 -0.00000000000E+00 -0.41765593999E+03  0.41765593999E+03  0.00000000000E+00 0. -1.
         23    2    1    2    0    0 -0.27927233740E+02  0.35954966103E+02  0.12690262896E+03  0.16260146893E+03  0.90897032345E+02 0.  0.
         24    2    1    2    0    0  0.39298994468E+02 -0.48168662101E+01 -0.13989814991E+03  0.16598388430E+03  0.80072119574E+02 0.  0.
        -11    1    4    4    0    0  0.52720209177E+02  0.15781108250E+02 -0.55822750941E+02  0.78387775551E+02  0.00000000000E+00 0.  1.
         12    1    4    4    0    0 -0.13421214709E+02 -0.20597974460E+02 -0.84075398972E+02  0.87596108752E+02  0.00000000000E+00 0. -1.
        -13    1    3    3    0    0 -0.31926273481E+01  0.56697322396E+02  0.38814381204E+02  0.68784703419E+02  0.00000000000E+00 0. -1.
         13    1    3    3    0    0 -0.24734606392E+02 -0.20742356293E+02  0.88088247758E+02  0.93816765512E+02  0.00000000000E+00 0.  1.
         21    1    1    2  502  501 -0.11371760727E+02 -0.31138099893E+02 -0.24575265178E+03  0.24797835402E+03  0.00000000000E+00 0. -1.
<scales pt_clust_5="13000.00000" pt_clust_6="13000.00000" pt_clust_7="13000.00000" pt_clust_8="13000.00000" pt_clust_9="33.14963"></scales>
<clustering>
<clus scale="   33.150">  2  9  1 -1</clus>
<clus scale="   80.072">  5  6 -1 -1</clus>
<clus scale="   90.897">  7  8 -1 -1</clus>
<clus scale="   91.261">  2  5  1 -1</clus>
<clus scale="   33.150">  2  5  1 -1</clus>
</clustering>
</event>
<event>
 9    2  0.2984928E-005  0.1092842E+03  0.7546771E-02  0.1266022E+00
         -1   -1    0    0    0  501 -0.00000000000E+00  0.00000000000E+00  0.72278642852E+03  0.72278642852E+03  0.00000000000E+00 0.  1.
          2   -1    0    0  502    0  0.00000000000E+00 -0.00000000000E+00 -0.34757503818E+02  0.34757503818E+02  0.00000000000E+00 0. -1.
         23    2    1    2    0    0  0.62586930136E+02  0.10873135489E+01  0.59343689602E+03  0.60358579776E+03  0.90720227204E+02 0.  0.
         24    2    1    2    0    0 -0.51508027998E+02 -0.19261366586E+02  0.63350382314E+02  0.11615497672E+03  0.80340714998E+02 0.  0.
        -11    1    4    4    0    0 -0.41432618468E+02  0.63864294979E+01  0.75250072511E+02  0.86139548221E+02  0.00000000000E+00 0.  1.
         12    1    4    4    0    0 -0.10075409530E+02 -0.25647796084E+02 -0.11899690197E+02  0.30015428498E+02  0.00000000000E+00 0. -1.
        -11    1    3    3    0    0 -0.21495173670E+02  0.13213806739E+02  0.12950493521E+03  0.13194004480E+03  0.00000000000E+00 0. -1.
         11    1    3    3    0    0  0.84082103807E+02 -0.12126493190E+02  0.46393196081E+03  0.47164575295E+03  0.00000000000E+00 0.  1.
         21    1    1    2  502  501 -0.11078902138E+02  0.18174053037E+02  0.31241646371E+02  0.37803157862E+02  0.00000000000E+00 0. -1.
<scales pt_clust_5="13000.00000" pt_clust_6="13000.00000" pt_clust_7="13000.00000" pt_clust_8="13000.00000" pt_clust_9="21.28470"></scales>
<clustering>
<clus scale="   21.285">  2  9  1 -1</clus>
<clus scale="   80.341">  5  6 -1 -1</clus>
<clus scale="   90.720">  7  8 -1 -1</clus>
<clus scale="  100.834">  2  5  1 -1</clus>
<clus scale="   21.285">  2  5  1 -1</clus>
</clustering>
</event>
<event>
 9    2  0.2984928E-005  0.1052960E+03  0.7546771E-02  0.1274151E+00
          4   -1    0    0  502    0  0.00000000000E+00  0.00000000000E+00  0.26992753678E+03  0.26992753678E+03  0.00000000000E+00 0. -1.
         -3   -1    0    0    0  501 -0.00000000000E+00 -0.00000000000E+00 -0.19780310666E+03  0.19780310666E+03  0.00000000000E+00 0.  1.
         23    2    1    2    0    0  0.71429106829E+01 -0.45165459972E+02 -0.12381153494E+03  0.15998264095E+03  0.90411333771E+02 0.  0.
         24    2    1    2    0    0 -0.70826464806E+02  0.84449433032E+02  0.52270823879E+02  0.14576498364E+03  0.79794088566E+02 0.  0.
        -11    1    4    4    0    0 -0.37258806814E+02  0.73693528114E+02 -0.17177575251E+00  0.82577141377E+02  0.00000000000E+00 0.  1.
         12    1    4    4    0    0 -0.33567657992E+02  0.10755904918E+02  0.52442599631E+02  0.63187842262E+02  0.00000000000E+00 0. -1.
        -11    1    3    3    0    0  0.40308016999E+02 -0.15982837460E+02 -0.21201088759E+02  0.48266691333E+02  0.00000000000E+00 0. -1.
         11    1    3    3    0    0 -0.33165106316E+02 -0.29182622511E+02 -0.10261044618E+03  0.11171594962E+03  0.00000000000E+00 0.  1.
         21    1    1    2  502  501  0.63683554123E+02 -0.39283973061E+02  0.14366514118E+03  0.16198301885E+03  0.00000000000E+00 0. -1.
<scales pt_clust_5="13000.00000" pt_clust_6="13000.00000" pt_clust_7="13000.00000" pt_clust_8="13000.00000" pt_clust_9="74.82530"></scales>
<clustering>
<clus scale="   74.825">  1  9  2 -1</clus>
<clus scale="   79.794">  5  6 -1 -1</clus>
<clus scale="   90.411">  7  8 -1 -1</clus>
<clus scale="   96.333">  1  5  2 -1</clus>
<clus scale="   74.825">  1  5  2 -1</clus>
</clustering>
</event>
<event>
 9    2  0.2984928E-005  0.1127497E+03  0.7546771E-02  0.1257043E+00
         -1   -1    0    0    0  501 -0.00000000000E+00  0.00000000000E+00  0.25149783600E+02  0.25149783600E+02  0.00000000000E+00 0.  1.
          2   -1    0    0  502    0  0.00000000000E+00 -0.00000000000E+00 -0.10884238161E+04  0.10884238161E+04  0.00000000000E+00 0. -1.
         23    2    1    2    0    0 -0.41902992189E+02 -0.68136183291E+02 -0.19621079053E+03  0.22807422771E+03  0.84384707108E+02 0.  0.
         24    2    1    2    0    0  0.79101790077E+02  0.14427903821E+02 -0.59394126500E+03  0.60467212234E+03  0.79980570525E+02 0.  0.
        -13    1    4    4    0    0  0.69768793582E+02 -0.21407595211E+02 -0.31858064871E+03  0.32683267803E+03  0.00000000000E+00 0.  1.
         14    1    4    4    0    0  0.93329964950E+01  0.35835499032E+02 -0.27536061629E+03  0.27783944431E+03  0.00000000000E+00 0. -1.
        -11    1    3    3    0    0  0.42345402453E+01 -0.66925198399E+02 -0.89715802605E+02  0.11200820840E+03  0.00000000000E+00 0.  1.
         11    1    3    3    0    0 -0.46137532435E+02 -0.12109848919E+01 -0.10649498793E+03  0.11606601931E+03  0.00000000000E+00 0. -1.
         21    1    1    2  502  501 -0.37198797888E+02  0.53708279470E+02 -0.27312197695E+03  0.28082724965E+03  0.00000000000E+00 0. -1.
<scales pt_clust_5="13000.00000" pt_clust_6="13000.00000" pt_clust_7="13000.00000" pt_clust_8="13000.00000" pt_clust_9="65.33246"></scales>
<clustering>
<clus scale="   65.332">  2  9  1 -1</clus>
<clus scale="   79.981">  5  6 -1 -1</clus>
<clus scale="   84.385">  7  8 -1 -1</clus>
<clus scale="  109.493">  2  5  1 -1</clus>
<clus scale="   65.332">  2  5  1 -1</clus>
</clustering>
</event>
<event>
 9    2  0.2984928E-005  0.1052369E+03  0.7546771E-02  0.1273134E+00
         -1   -1    0    0    0  501 -0.00000000000E+00  0.00000000000E+00  0.28124961210E+02  0.28124961210E+02  0.00000000000E+00 0.  1.
          2   -1    0    0  502    0  0.00000000000E+00 -0.00000000000E+00 -0.69033150774E+03  0.69033150774E+03  0.00000000000E+00 0. -1.
         23    2    1    2    0    0  0.30622447884E+02  0.10600665887E+02 -0.95267748949E+02  0.13477335062E+03  0.89653798669E+02 0.  0.
         24    2    1    2    0    0 -0.54989857364E+02 -0.26347211682E+02 -0.50665141286E+03  0.51677801310E+03  0.81521780493E+02 0.  0.
        -13    1    4    4    0    0  0.21471191106E+02 -0.76298176682E+01 -0.98049720403E+02  0.10066267350E+03  0.00000000000E+00 0.  1.
         14    1    4    4    0    0 -0.76461048469E+02 -0.18717394014E+02 -0.40860169246E+03  0.41611533960E+03  0.00000000000E+00 0. -1.
        -13    1    3    3    0    0  0.13772789828E+02  0.31706611096E+02 -0.10135582614E+03  0.10708875953E+03  0.00000000000E+00 0. -1.
         13    1    3    3    0    0  0.16849658056E+02 -0.21105945209E+02  0.60880771873E+01  0.27684591086E+02  0.00000000000E+00 0.  1.
         21    1    1    2  502  501  0.24367409479E+02  0.15746545795E+02 -0.60287384724E+02  0.66905105231E+02  0.00000000000E+00 0. -1.
<scales pt_clust_5="13000.00000" pt_clust_6="13000.00000" pt_clust_7="13000.00000" pt_clust_8="13000.00000" pt_clust_9="29.01249"></scales>
<clustering>
<clus scale="   29.012">  1  9  2 -1</clus>
<clus scale="   81.522">  5  6 -1 -1</clus>
<clus scale="   89.654">  7  8 -1 -1</clus>
<clus scale="   98.401">  2  5  1 -1</clus>
<clus scale="   98.401">  2  5  1 -1</clus>
</clustering>
</event>
<event>
 9    2  0.2984928E-005  0.8827217E+02  0.7546771E-02  0.1313646E+00
         -1   -1    0    0    0  501 -0.00000000000E+00  0.00000000000E+00  0.14146088760E+03  0.14146088760E+03  0.00000000000E+00 0.  1.
          2   -1    0    0  502    0  0.00000000000E+00 -0.00000000000E+00 -0.51834199428E+03  0.51834199428E+03  0.00000000000E+00 0. -1.
         23    2    1    2    0    0  0.10134634317E+02 -0.16319778500E+02  0.86014938644E+02  0.12458336237E+03  0.88053384526E+02 0.  0.
         24    2    1    2    0    0  0.32719921534E+02 -0.23581198087E+02 -0.22245994126E+02  0.90696102220E+02  0.78129588089E+02 0.  0.
        -13    1    4    4    0    0 -0.11444998989E+02 -0.37713114135E+02 -0.20184309266E+02  0.44279490965E+02  0.00000000000E+00 0.  1.
         14    1    4    4    0    0  0.44164920523E+02  0.14131916047E+02 -0.20616848606E+01  0.46416611255E+02  0.00000000000E+00 0. -1.
        -13    1    3    3    0    0 -0.19935320517E+02 -0.21665639725E+01  0.88985193361E+02  0.91216641250E+02  0.00000000000E+00 0.  1.
         13    1    3    3    0    0  0.30069954834E+02 -0.14153214528E+02 -0.29702547169E+01  0.33366721120E+02  0.00000000000E+00 0. -1.
         21    1    1    2  502  501 -0.42854555851E+02  0.39900976588E+02 -0.44065005121E+03  0.44452341729E+03  0.00000000000E+00 0. -1.
<scales pt_clust_5="13000.00000" pt_clust_6="13000.00000" pt_clust_7="13000.00000" pt_clust_8="13000.00000" pt_clust_9="58.55426"></scales>
<clustering>
<clus scale="   58.554">  2  9  1 -1</clus>
<clus scale="   78.130">  5  6 -1 -1</clus>
<clus scale="   78.376">  2  5  1 -1</clus>
<clus scale="   88.053">  7  8 -1 -1</clus>
<clus scale="   58.554">  2  5  1 -1</clus>
</clustering>
</event>
<event>
 9    2  0.2984928E-005  0.1026231E+03  0.7546771E-02  0.1281017E+00
          2   -1    0    0  502    0  0.00000000000E+00  0.00000000000E+00  0.42900585037E+03  0.42900585037E+03  0.00000000000E+00 0. -1.
         -1   -1    0    0    0  501 -0.00000000000E+00 -0.00000000000E+00 -0.13199321201E+03  0.13199321201E+03  0.00000000000E+00 0.  1.
         23    2    1    2    0    0  0.42320014837E+02  0.12962650485E+02 -0.98350502871E+02  0.14208408743E+03  0.92498932555E+02 0.  0.
         24    2    1    2    0    0 -0.54722102875E+02  0.19896634116E+02  0.33320880275E+03  0.34752375584E+03  0.79713675448E+02 0.  0.
        -11    1    4    4    0    0  0.13826162653E+02 -0.16033875209E+02  0.79701741619E+02  0.82465844717E+02  0.00000000000E+00 0.  1.
         12    1    4    4    0    0 -0.68548265528E+02  0.35930509324E+02  0.25350706113E+03  0.26505791113E+03  0.00000000000E+00 0. -1.
        -11    1    3    3    0    0  0.38621489197E+02  0.50824702971E+02 -0.69291913348E+02  0.94213264009E+02  0.00000000000E+00 0.  1.
         11    1    3    3    0    0  0.36985256403E+01 -0.37862052486E+02 -0.29058589522E+02  0.47870823425E+02  0.00000000000E+00 0. -1.
         21    1    1    2  502  501  0.12402088038E+02 -0.32859284600E+02  0.62154338486E+02  0.71391219101E+02  0.00000000000E+00 0.  1.
<scales pt_clust_5="13000.00000" pt_clust_6="13000.00000" pt_clust_7="13000.00000" pt_clust_8="13000.00000" pt_clust_9="35.12185"></scales>
<clustering>
<clus scale="   35.122">  1  9  2 -1</clus>
<clus scale="   79.714">  5  6 -1 -1</clus>
<clus scale="   91.267">  1  5  2 -1</clus>
<clus scale="   92.499">  7  8 -1 -1</clus>
<clus scale="   35.122">  1  5  2 -1</clus>
</clustering>
</event>
<event>
 9    2  0.2984928E-005  0.1003762E+03  0.7546771E-02  0.1285143E+00
          2   -1    0    0  502    0  0.00000000000E+00  0.00000000000E+00  0.98340174648E+02  0.98340174648E+02  0.00000000000E+00 0. -1.
         -1   -1    0    0    0  501 -0.00000000000E+00 -0.00000000000E+00 -0.14973702519E+03  0.14973702519E+03  0.00000000000E+00 0.  1.
         24    2    1    2    0    0  0.30986675032E+02  0.14733637133E+02 -0.69850211722E+02  0.11231716437E+03  0.80986660888E+02 0.  0.
         23    2    1    2    0    0 -0.56138434528E+02 -0.80127095252E+01  0.11661732241E+02  0.10885449520E+03  0.92182307308E+02 0.  0.
        -13    1    3    3    0    0  0.21511472995E+02 -0.55748440417E+01  0.13503670874E+02  0.26003297552E+02  0.00000000000E+00 0.  1.
         14    1    3    3    0    0  0.94752020371E+01  0.20308481175E+02 -0.83353882597E+02  0.86313866819E+02  0.00000000000E+00 0. -1.
        -11    1    4    4    0    0 -0.21354852403E+02 -0.24418696005E+02  0.46677949511E+02  0.56843059439E+02  0.00000000000E+00 0. -1.
         11    1    4    4    0    0 -0.34783582125E+02  0.16405986480E+02 -0.35016217270E+02  0.52011435759E+02  0.00000000000E+00 0.  1.
         21    1    1    2  502  501  0.25151759496E+02 -0.67209276076E+01  0.67916289377E+01  0.26905540271E+02  0.00000000000E+00 0.  1.
<scales pt_clust_5="13000.00000" pt_clust_6="13000.00000" pt_clust_7="13000.00000" pt_clust_8="13000.00000" pt_clust_9="26.03424"></scales>
<clustering>
<clus scale="   26.034">  1  9  2 -1</clus>
<clus scale="   80.987">  5  6 -1 -1</clus>
<clus scale="   90.203">  2  5  1 -1</clus>
<clus scale="   92.182">  7  8 -1 -1</clus>
<clus scale="   26.034">  1  5  2 -1</clus>
</clustering>
</event>
<event>
 9    2  0.2984928E-005  0.9350967E+02  0.7546771E-02  0.1300559E+00
          2   -1    0    0  502    0  0.00000000000E+00  0.00000000000E+00  0.63409250680E+03  0.63409250680E+03  0.00000000000E+00 0. -1.
         -1   -1    0    0    0  501 -0.00000000000E+00 -0.00000000000E+00 -0.38758399065E+02  0.38758399065E+02  0.00000000000E+00 0.  1.
         23    2    1    2    0    0  0.89895237076E+01  0.22066519625E+02  0.38509397845E+02  0.10152168821E+03  0.90862184817E+02 0.  0.
         24    2    1    2    0    0  0.20439916109E+02 -0.16813185092E+02  0.49954668865E+03  0.50671914747E+03  0.80727485480E+02 0.  0.
        -13    1    4    4    0    0  0.34788975992E+02 -0.36131992474E+02  0.19948771063E+03  0.20569671952E+03  0.00000000000E+00 0.  1.
         14    1    4    4    0    0 -0.14349059882E+02  0.19318807382E+02  0.30005897802E+03  0.30102242795E+03  0.00000000000E+00 0. -1.
        -11    1    3    3    0    0 -0.40449545878E+02  0.16285406180E+02  0.23488653851E+02  0.49528749994E+02  0.00000000000E+00 0. -1.
         11    1    3    3    0    0  0.49439069586E+02  0.57811134452E+01  0.15020743994E+02  0.51992938216E+02  0.00000000000E+00 0.  1.
         21    1    1    2  502  501 -0.29429439817E+02 -0.52533345333E+01  0.57278021245E+02  0.64610070186E+02  0.00000000000E+00 0. -1.
<scales pt_clust_5="13000.00000" pt_clust_6="13000.00000" pt_clust_7="13000.00000" pt_clust_8="13000.00000" pt_clust_9="29.89464"></scales>
<clustering>
<clus scale="   29.895">  1  9  2 -1</clus>
<clus scale="   80.727">  5  6 -1 -1</clus>
<clus scale="   83.696">  1  5  2 -1</clus>
<clus scale="   90.862">  7  8 -1 -1</clus>
<clus scale="   29.895">  1  5  2 -1</clus>
</clustering>
</event>
<event>
 9    2  0.2984928E-005  0.1314385E+03  0.7546771E-02  0.1228710E+00
          2   -1    0    0  502    0  0.00000000000E+00  0.00000000000E+00  0.45920382521E+03  0.45920382521E+03  0.00000000000E+00 0. -1.
         -1   -1    0    0    0  501 -0.00000000000E+00 -0.00000000000E+00 -0.27929484916E+03  0.27929484916E+03  0.00000000000E+00 0.  1.
         24    2    1    2    0    0  0.88661127273E+02  0.28222792337E+02 -0.24652607477E+03  0.27506341410E+03  0.78914223947E+02 0.  0.
         23    2    1    2    0    0 -0.11424611297E+03 -0.65535383030E+01  0.32647146613E+03  0.35799870909E+03  0.92110446293E+02 0.  0.
        -11    1    3    3    0    0  0.70851906325E+02  0.21524732775E+02 -0.24503331862E+03  0.25597779979E+03  0.00000000000E+00 0.  1.
         12    1    3    3    0    0  0.17809220948E+02  0.66980595623E+01 -0.14927561426E+01  0.19085614310E+02  0.00000000000E+00 0. -1.
        -11    1    4    4    0    0 -0.11117045551E+03 -0.27527899009E+02  0.31193385741E+03  0.33229412694E+03  0.00000000000E+00 0. -1.
         11    1    4    4    0    0 -0.30756574636E+01  0.20974360706E+02  0.14537608721E+02  0.25704582144E+02  0.00000000000E+00 0.  1.
         21    1    1    2  502  501  0.25584985698E+02 -0.21669254034E+02  0.99963584680E+02  0.10543655118E+03  0.00000000000E+00 0. -1.
<scales pt_clust_5="13000.00000" pt_clust_6="13000.00000" pt_clust_7="13000.00000" pt_clust_8="13000.00000" pt_clust_9="33.52832"></scales>
<clustering>
<clus scale="   33.528">  1  9  2 -1</clus>
<clus scale="   78.914">  5  6 -1 -1</clus>
<clus scale="   92.110">  7  8 -1 -1</clus>
<clus scale="  122.553">  2  5  1 -1</clus>
<clus scale="   33.528">  1  5  2 -1</clus>
</clustering>
</event>
<event>
 9    2  0.2984928E-005  0.1260404E+03  0.7546771E-02  0.1236568E+00
         -1   -1    0    0    0  501 -0.00000000000E+00  0.00000000000E+00  0.14620956249E+03  0.14620956249E+03  0.00000000000E+00 0.  1.
          2   -1    0    0  502    0  0.00000000000E+00 -0.00000000000E+00 -0.22757470816E+03  0.22757470816E+03  0.00000000000E+00 0. -1.
         24    2    1    2    0    0  0.88337469532E+01 -0.91462517697E+02  0.90450427135E+02  0.15182843015E+03  0.80169602748E+02 0.  0.
         23    2    1    2    0    0 -0.43406199896E+01  0.62871187990E+02 -0.12709330426E+03  0.16868545822E+03  0.91271291028E+02 0.  0.
        -11    1    3    3    0    0 -0.23363966957E+02 -0.74639444018E+02  0.35346142588E+02  0.85826984982E+02  0.00000000000E+00 0.  1.
         12    1    3    3    0    0  0.32197713911E+02 -0.16823073679E+02  0.55104284546E+02  0.66001445169E+02  0.00000000000E+00 0. -1.
        -13    1    4    4    0    0  0.23951019985E+02 -0.79411736062E+01 -0.67011720836E+02  0.71605057963E+02  0.00000000000E+00 0. -1.
         13    1    4    4    0    0 -0.28291639974E+02  0.70812361596E+02 -0.60081583428E+02  0.97080400259E+02  0.00000000000E+00 0.  1.
         21    1    1    2  502  501 -0.44931269635E+01  0.28591329707E+02 -0.44722268537E+02  0.53270382272E+02  0.00000000000E+00 0. -1.
<scales pt_clust_5="13000.00000" pt_clust_6="13000.00000" pt_clust_7="13000.00000" pt_clust_8="13000.00000" pt_clust_9="28.94222"></scales>
<clustering>
<clus scale="   28.942">  2  9  1 -1</clus>
<clus scale="   80.170">  5  6 -1 -1</clus>
<clus scale="   91.271">  7  8 -1 -1</clus>
<clus scale="  118.249">  1  5  2 -1</clus>
<clus scale="   28.942">  2  5  1 -1</clus>
</clustering>
</event>
<event>
 9    2  0.2984928E-005  0.9204500E+02  0.7546771E-02  0.1300642E+00
          2   -1    0    0  502    0  0.00000000000E+00  0.00000000000E+00  0.37206222431E+03  0.37206222431E+03  0.00000000000E+00 0. -1.
         -1   -1    0    0    0  501 -0.00000000000E+00 -0.00000000000E+00 -0.97490180337E+02  0.97490180337E+02  0.00000000000E+00 0.  1.
         23    2    1    2    0    0  0.12618973546E+01  0.79768687638E+01 -0.51597007456E+02  0.10521202005E+03  0.91335070829E+02 0.  0.
         24    2    1    2    0    0  0.45848858820E+02 -0.22112767972E+02  0.14443778445E+03  0.17607063028E+03  0.86876354139E+02 0.  0.
        -13    1    4    4    0    0 -0.20953660480E+02 -0.25134815218E+02  0.35805202220E+02  0.48505951486E+02  0.00000000000E+00 0.  1.
         14    1    4    4    0    0  0.66802519299E+02  0.30220472455E+01  0.10863258223E+03  0.12756467880E+03  0.00000000000E+00 0. -1.
        -11    1    3    3    0    0 -0.27236552299E+01  0.47908509980E+02 -0.13428930142E+02  0.49829507233E+02  0.00000000000E+00 0.  1.
         11    1    3    3    0    0  0.39855525845E+01 -0.39931641216E+02 -0.38168077314E+02  0.55382512812E+02  0.00000000000E+00 0. -1.
         21    1    1    2  502  501 -0.47110756175E+02  0.14135899209E+02  0.18173126698E+03  0.18826975432E+03  0.00000000000E+00 0. -1.
<scales pt_clust_5="13000.00000" pt_clust_6="13000.00000" pt_clust_7="13000.00000" pt_clust_8="13000.00000" pt_clust_9="49.18584"></scales>
<clustering>
<clus scale="   49.186">  1  9  2 -1</clus>
<clus scale="   86.876">  5  6 -1 -1</clus>
<clus scale="   87.622">  1  5  2 -1</clus>
<clus scale="   91.335">  7  8 -1 -1</clus>
<clus scale="   49.186">  1  5  2 -1</clus>
</clustering>
</event>
<event>
 9    2  0.2984928E-005  0.1175469E+03  0.7546771E-02  0.1250418E+00
          2   -1    0    0  502    0  0.00000000000E+00  0.00000000000E+00  0.10616588115E+03  0.10616588115E+03  0.00000000000E+00 0. -1.
         -1   -1    0    0    0  501 -0.00000000000E+00 -0.00000000000E+00 -0.35434422558E+03  0.35434422558E+03  0.00000000000E+00 0.  1.
         23    2    1    2    0    0 -0.70195926423E+00  0.74568799841E+02 -0.28658944321E+03  0.30954905221E+03  0.90144928336E+02 0.  0.
         24    2    1    2    0    0 -0.19063898895E+02 -0.79922739302E+02  0.92032876792E+01  0.11528963676E+03  0.80348760671E+02 0.  0.
        -13    1    4    4    0    0 -0.58573376606E+01 -0.61853837178E+02 -0.30879974381E+02  0.69381398054E+02  0.00000000000E+00 0.  1.
         14    1    4    4    0    0 -0.13206561235E+02 -0.18068902124E+02  0.40083262060E+02  0.45908238705E+02  0.00000000000E+00 0. -1.
        -11    1    3    3    0    0 -0.44986033166E+02  0.43608846184E+02 -0.16496386346E+03  0.17646118807E+03  0.00000000000E+00 0.  1.
         11    1    3    3    0    0  0.44284073902E+02  0.30959953657E+02 -0.12162557975E+03  0.13308786414E+03  0.00000000000E+00 0. -1.
         21    1    1    2  502  501  0.19765858160E+02  0.53539394606E+01  0.29207811103E+02  0.35671417774E+02  0.00000000000E+00 0. -1.
<scales pt_clust_5="13000.00000" pt_clust_6="13000.00000" pt_clust_7="13000.00000" pt_clust_8="13000.00000" pt_clust_9="20.47813"></scales>
<clustering>
<clus scale="   20.478">  1  9  2 -1</clus>
<clus scale="   80.349">  5  6 -1 -1</clus>
<clus scale="   90.145">  7  8 -1 -1</clus>
<clus scale="  110.214">  1  5  2 -1</clus>
<clus scale="   20.478">  1  5  2 -1</clus>
</clustering>
</event>
<event>
 9    2  0.2984928E-005  0.2573640E+03  0.7546771E-02  0.1109340E+00
          2   -1    0    0  502    0  0.00000000000E+00  0.00000000000E+00  0.13748331921E+04  0.13748331921E+04  0.00000000000E+00 0. -1.
         -1   -1    0    0    0  501 -0.00000000000E+00 -0.00000000000E+00 -0.10910107461E+03  0.10910107461E+03  0.00000000000E+00 0.  1.
         23    2    1    2    0    0 -0.18181518201E+03  0.17589579909E+03  0.10500274291E+03  0.28903903501E+03  0.92314111576E+02 0.  0.
         24    2    1    2    0    0  0.14001955107E+03 -0.13327798504E+03  0.71091894470E+03  0.74114136044E+03  0.80723443021E+02 0.  0.
        -13    1    4    4    0    0  0.12635549287E+02 -0.51820168945E+02  0.12254403973E+03  0.13364890082E+03  0.00000000000E+00 0.  1.
         14    1    4    4    0    0  0.12738400178E+03 -0.81457816095E+02  0.58837490496E+03  0.60749245963E+03  0.00000000000E+00 0. -1.
        -11    1    3    3    0    0 -0.10968723643E+03  0.14820445121E+03  0.10417405799E+03  0.21177366114E+03  0.00000000000E+00 0. -1.
         11    1    3    3    0    0 -0.72127945582E+02  0.27691347880E+02  0.82868491768E+00  0.77265373874E+02  0.00000000000E+00 0.  1.
         21    1    1    2  502  501  0.41795630941E+02 -0.42617814046E+02  0.44981042988E+03  0.45375387124E+03  0.00000000000E+00 0.  1.
<scales pt_clust_5="13000.00000" pt_clust_6="13000.00000" pt_clust_7="13000.00000" pt_clust_8="13000.00000" pt_clust_9="59.69215"></scales>
<clustering>
<clus scale="   59.692">  1  9  2 -1</clus>
<clus scale="   80.723">  5  6 -1 -1</clus>
<clus scale="   92.314">  7  8 -1 -1</clus>
<clus scale="  253.438">  1  5  2 -1</clus>
<clus scale="   59.692">  1  5  2 -1</clus>
</clustering>
</event>
<event>
 9    2  0.2984928E-005  0.1407644E+03  0.7546771E-02  0.1216397E+00
         -1   -1    0    0    0  501 -0.00000000000E+00  0.00000000000E+00  0.93889412753E+02  0.93889412753E+02  0.00000000000E+00 0.  1.
          2   -1    0    0  502    0  0.00000000000E+00 -0.00000000000E+00 -0.25427552291E+03  0.25427552291E+03  0.00000000000E+00 0. -1.
         23    2    1    2    0    0  0.12530147018E+02 -0.10164361641E+03 -0.54377220111E+02  0.15234963229E+03  0.98818515732E+02 0.  0.
         24    2    1    2    0    0 -0.32760692726E+02  0.93778288428E+02 -0.53624852618E+02  0.13911234277E+03  0.81295686998E+02 0.  0.
        -11    1    4    4    0    0 -0.49356228122E+02  0.50808744985E+02 -0.33322978588E+01  0.70913116067E+02  0.00000000000E+00 0.  1.
         12    1    4    4    0    0  0.16595535395E+02  0.42969543443E+02 -0.50292554760E+02  0.68199226704E+02  0.00000000000E+00 0. -1.
        -11    1    3    3    0    0  0.18333155380E+02  0.83791988782E+01  0.12256599751E+02  0.23591095724E+02  0.00000000000E+00 0.  1.
         11    1    3    3    0    0 -0.58030083615E+01 -0.11002281528E+03 -0.66633819862E+02  0.12875853657E+03  0.00000000000E+00 0. -1.
         21    1    1    2  502  501  0.20230545708E+02  0.78653279770E+01 -0.52384037422E+02  0.56702960597E+02  0.00000000000E+00 0. -1.
<scales pt_clust_5="13000.00000" pt_clust_6="13000.00000" pt_clust_7="13000.00000" pt_clust_8="13000.00000" pt_clust_9="21.70572"></scales>
<clustering>
<clus scale="   21.706">  2  9  1 -1</clus>
<clus scale="   81.296">  5  6 -1 -1</clus>
<clus scale="   98.819">  7  8 -1 -1</clus>
<clus scale="  129.068">  2  5  1 -1</clus>
<clus scale="   21.706">  2  5  1 -1</clus>
</clustering>
</event>
<event>
 9    2  0.2984928E-005  0.1161582E+03  0.7546771E-02  0.1254389E+00
         -1   -1    0    0    0  501 -0.00000000000E+00  0.00000000000E+00  0.74511470933E+02  0.74511470933E+02  0.00000000000E+00 0.  1.
          2   -1    0    0  502    0  0.00000000000E+00 -0.00000000000E+00 -0.97545510364E+03  0.97545510364E+03  0.00000000000E+00 0. -1.
         23    2    1    2    0    0  0.29195058767E+02  0.54833825274E+02  0.14584427391E+02  0.11346879323E+03  0.93826231220E+02 0.  0.
         24    2    1    2    0    0 -0.60947151541E+02 -0.32977913715E+02 -0.87170317772E+03  0.87813258125E+03  0.80301320895E+02 0.  0.
        -13    1    4    4    0    0  0.75909142679E+01 -0.21990259968E+02 -0.77878047489E+02  0.81278433754E+02  0.00000000000E+00 0.  1.
         14    1    4    4    0    0 -0.68538065809E+02 -0.10987653747E+02 -0.79382513023E+03  0.79685414750E+03  0.00000000000E+00 0. -1.
        -13    1    3    3    0    0  0.28664348492E+02 -0.16062086466E+02 -0.15648560826E+02  0.36393858713E+02  0.00000000000E+00 0. -1.
         13    1    3    3    0    0  0.53071027490E+00  0.70895911740E+02  0.30232988217E+02  0.77074934521E+02  0.00000000000E+00 0.  1.
         21    1    1    2  502  501  0.31752092775E+02 -0.21855911559E+02 -0.43824882375E+02  0.58365200084E+02  0.00000000000E+00 0. -1.
<scales pt_clust_5="13000.00000" pt_clust_6="13000.00000" pt_clust_7="13000.00000" pt_clust_8="13000.00000" pt_clust_9="38.54707"></scales>
<clustering>
<clus scale="   38.547">  1  9  2 -1</clus>
<clus scale="   80.301">  5  6 -1 -1</clus>
<clus scale="   93.826">  7  8 -1 -1</clus>
<clus scale="  105.535">  2  5  1 -1</clus>
<clus scale="  105.535">  2  5  1 -1</clus>
</clustering>
</event>
<event>
 9    2  0.2984928E-005  0.2394454E+03  0.7546771E-02  0.1121045E+00
          2   -1    0    0  502    0  0.00000000000E+00  0.00000000000E+00  0.25120837088E+03  0.25120837088E+03  0.00000000000E+00 0. -1.
         -1   -1    0    0    0  501 -0.00000000000E+00 -0.00000000000E+00 -0.39304330984E+03  0.39304330984E+03  0.00000000000E+00 0.  1.
         23    2    1    2    0    0 -0.21392806080E+03 -0.30793601230E+02 -0.24524585543E+03  0.34009622695E+03  0.93842703023E+02 0.  0.
         24    2    1    2    0    0  0.23088803508E+03  0.57117803144E+02  0.10690650788E+03  0.27264635201E+03  0.79594620769E+02 0.  0.
        -13    1    4    4    0    0  0.97090097300E+02  0.34510417687E+02  0.53920975101E+01  0.10318202672E+03  0.00000000000E+00 0.  1.
         14    1    4    4    0    0  0.13379793778E+03  0.22607385457E+02  0.10151441037E+03  0.16946432529E+03  0.00000000000E+00 0. -1.
        -13    1    3    3    0    0 -0.78679812964E+02  0.32395814638E+02 -0.72517268200E+02  0.11179783523E+03  0.00000000000E+00 0. -1.
         13    1    3    3    0    0 -0.13524824783E+03 -0.63189415868E+02 -0.17272858723E+03  0.22829839173E+03  0.00000000000E+00 0.  1.
         21    1    1    2  502  501 -0.16959974289E+02 -0.26324201914E+02 -0.34955914067E+01  0.31509101758E+02  0.00000000000E+00 0.  1.
<scales pt_clust_5="13000.00000" pt_clust_6="13000.00000" pt_clust_7="13000.00000" pt_clust_8="13000.00000" pt_clust_9="31.31460"></scales>
<clustering>
<clus scale="   31.315">  1  9  2 -1</clus>
<clus scale="   79.595">  5  6 -1 -1</clus>
<clus scale="   93.843">  7  8 -1 -1</clus>
<clus scale="  234.228">  1  5  2 -1</clus>
<clus scale="   31.315">  1  5  2 -1</clus>
</clustering>
</event>
<event>
 9    2  0.2984928E-005  0.4765391E+03  0.7546771E-02  0.1020249E+00
          2   -1    0    0  502    0  0.00000000000E+00  0.00000000000E+00  0.63906923273E+03  0.63906923273E+03  0.00000000000E+00 0. -1.
         -1   -1    0    0    0  501 -0.00000000000E+00 -0.00000000000E+00 -0.75510160073E+03  0.75510160073E+03  0.00000000000E+00 0.  1.
         24    2    1    2    0    0 -0.45946398251E+03  0.59072998310E+02 -0.53167988310E+03  0.70986805092E+03  0.81439433120E+02 0.  0.
         23    2    1    2    0    0  0.48125856251E+03 -0.85822563630E+02  0.34488681694E+03  0.60557782229E+03  0.93820391889E+02 0.  0.
        -13    1    3    3    0    0 -0.44324240172E+03  0.68186546648E+02 -0.52409666855E+03  0.68977572428E+03  0.00000000000E+00 0.  1.
         14    1    3    3    0    0 -0.16221580797E+02 -0.91135483382E+01 -0.75832145530E+01  0.20092326640E+02  0.00000000000E+00 0. -1.
        -13    1    4    4    0    0  0.18043962799E+02  0.15248166273E+02  0.17935397693E+02  0.29660911291E+02  0.00000000000E+00 0.  1.
         13    1    4    4    0    0  0.46321459971E+03 -0.10107072990E+03  0.32695141925E+03  0.57591691100E+03  0.00000000000E+00 0. -1.
         21    1    1    2  502  501 -0.21794579991E+02  0.26749565320E+02  0.70760698166E+02  0.78724960253E+02  0.00000000000E+00 0.  1.
<scales pt_clust_5="13000.00000" pt_clust_6="13000.00000" pt_clust_7="13000.00000" pt_clust_8="13000.00000" pt_clust_9="34.50425"></scales>
<clustering>
<clus scale="   34.504">  1  9  2 -1</clus>
<clus scale="   81.439">  5  6 -1 -1</clus>
<clus scale="   93.820">  7  8 -1 -1</clus>
<clus scale="  474.257">  2  5  1 -1</clus>
<clus scale="   34.504">  1  5  2 -1</clus>
</clustering>
</event>
<event>
 9    2  0.2984928E-005  0.1402453E+03  0.7546771E-02  0.1215210E+00
          2   -1    0    0  502    0  0.00000000000E+00  0.00000000000E+00  0.10217561365E+04  0.10217561365E+04  0.00000000000E+00 0. -1.
         -1   -1    0    0    0  501 -0.00000000000E+00 -0.00000000000E+00 -0.40405039136E+02  0.40405039136E+02  0.00000000000E+00 0.  1.
         24    2    1    2    0    0 -0.98425043343E+02 -0.52495573030E+02  0.11578419883E+03  0.17975054318E+03  0.80380362850E+02 0.  0.
         23    2    1    2    0    0  0.91985787866E+02  0.12474606003E+02  0.61000351324E+03  0.62365247178E+03  0.90670383376E+02 0.  0.
        -13    1    3    3    0    0 -0.61427289185E+02 -0.29303011699E+02  0.14685775749E+02  0.69625069914E+02  0.00000000000E+00 0.  1.
         14    1    3    3    0    0 -0.36997754158E+02 -0.23192561331E+02  0.10109842308E+03  0.11012547327E+03  0.00000000000E+00 0. -1.
        -11    1    4    4    0    0 -0.40554690246E+01  0.28345598328E+02  0.84797767434E+02  0.89501849900E+02  0.00000000000E+00 0.  1.
         11    1    4    4    0    0  0.96041256891E+02 -0.15870992325E+02  0.52520574581E+03  0.53415062188E+03  0.00000000000E+00 0. -1.
         21    1    1    2  502  501  0.64392554765E+01  0.40020967026E+02  0.25556338527E+03  0.25875816065E+03  0.00000000000E+00 0. -1.
<scales pt_clust_5="13000.00000" pt_clust_6="13000.00000" pt_clust_7="13000.00000" pt_clust_8="13000.00000" pt_clust_9="40.53569"></scales>
<clustering>
<clus scale="   40.536">  1  9  2 -1</clus>
<clus scale="   80.380">  5  6 -1 -1</clus>
<clus scale="   90.670">  7  8 -1 -1</clus>
<clus scale="  133.823">  2  5  1 -1</clus>
<clus scale="   40.536">  1  5  2 -1</clus>
</clustering>
</event>
<event>
 9    2  0.2984928E-005  0.1435377E+03  0.7546771E-02  0.1211102E+00
         -1   -1    0    0    0  501 -0.00000000000E+00  0.00000000000E+00  0.16773246444E+03  0.16773246444E+03  0.00000000000E+00 0.  1.
          2   -1    0    0  502    0  0.00000000000E+00 -0.00000000000E+00 -0.26406334097E+03  0.26406334097E+03  0.00000000000E+00 0. -1.
         24    2    1    2    0    0  0.10129161528E+03 -0.54231308278E+02  0.81338105865E+02  0.16153277101E+03  0.79220720273E+02 0.  0.
         23    2    1    2    0    0 -0.10217366421E+03  0.17255992998E+02 -0.66795404179E+02  0.15338317173E+03  0.91255380108E+02 0.  0.
        -13    1    3    3    0    0  0.72883669630E+02  0.91385865799E+00  0.64314276906E+02  0.97206947541E+02  0.00000000000E+00 0.  1.
         14    1    3    3    0    0  0.28407945655E+02 -0.55145166936E+02  0.17023828960E+02  0.64325823471E+02  0.00000000000E+00 0. -1.
        -11    1    4    4    0    0 -0.13829169597E+01  0.22667993552E+02  0.11672761852E+02  0.25534364301E+02  0.00000000000E+00 0.  1.
         11    1    4    4    0    0 -0.10079074726E+03 -0.54120005541E+01 -0.78468166030E+02  0.12784880743E+03  0.00000000000E+00 0. -1.
         21    1    1    2  502  501  0.88204892989E+00  0.36975315281E+02 -0.11087357822E+03  0.11687986267E+03  0.00000000000E+00 0.  1.
<scales pt_clust_5="13000.00000" pt_clust_6="13000.00000" pt_clust_7="13000.00000" pt_clust_8="13000.00000" pt_clust_9="36.98583"></scales>
<clustering>
<clus scale="   36.986">  2  9  1 -1</clus>
<clus scale="   79.221">  5  6 -1 -1</clus>
<clus scale="   91.255">  7  8 -1 -1</clus>
<clus scale="  136.204">  1  5  2 -1</clus>
<clus scale="   36.986">  2  5  1 -1</clus>
</clustering>
</event>
<event>
 9    2  0.2984928E-005  0.1339329E+03  0.7546771E-02  0.1224943E+00
         -1   -1    0    0    0  501 -0.00000000000E+00  0.00000000000E+00  0.12528277482E+03  0.12528277482E+03  0.00000000000E+00 0.  1.
          2   -1    0    0  502    0  0.00000000000E+00 -0.00000000000E+00 -0.19852585992E+03  0.19852585992E+03  0.00000000000E+00 0. -1.
         24    2    1    2    0    0 -0.34272497368E+02  0.87044224343E+02  0.35107323781E+02  0.12836656259E+03  0.80586283828E+02 0.  0.
         23    2    1    2    0    0  0.17623154840E+02 -0.10253945941E+03 -0.94377605278E+02  0.16874858686E+03  0.93509554941E+02 0.  0.
        -13    1    3    3    0    0 -0.36224844437E+02  0.10129256764E+03  0.37217058002E+02  0.11383116014E+03  0.00000000000E+00 0.  1.
         14    1    3    3    0    0  0.19523470685E+01 -0.14248343297E+02 -0.21097342216E+01  0.14535402446E+02  0.00000000000E+00 0. -1.
        -13    1    4    4    0    0  0.24223458219E+02  0.95621681866E+01 -0.28279281743E+02  0.38443839095E+02  0.00000000000E+00 0.  1.
         13    1    4    4    0    0 -0.66003033786E+01 -0.11210162760E+03 -0.66098323535E+02  0.13030474776E+03  0.00000000000E+00 0. -1.
         21    1    1    2  502  501  0.16649342528E+02  0.15495235071E+02 -0.13972803608E+02  0.26693485295E+02  0.00000000000E+00 0.  1.
<scales pt_clust_5="13000.00000" pt_clust_6="13000.00000" pt_clust_7="13000.00000" pt_clust_8="13000.00000" pt_clust_9="22.74429"></scales>
<clustering>
<clus scale="   22.744">  2  9  1 -1</clus>
<clus scale="   80.586">  5  6 -1 -1</clus>
<clus scale="   93.510">  7  8 -1 -1</clus>
<clus scale="  125.252">  1  5  2 -1</clus>
<clus scale="   22.744">  2  5  1 -1</clus>
</clustering>
</event>
<event>
 9    2  0.2984928E-005  0.9986116E+02  0.7546771E-02  0.1286528E+00
          2   -1    0    0  502    0  0.00000000000E+00  0.00000000000E+00  0.53383311585E+02  0.53383311585E+02  0.00000000000E+00 0. -1.
         -1   -1    0    0    0  501 -0.00000000000E+00 -0.00000000000E+00 -0.28188809691E+03  0.28188809691E+03  0.00000000000E+00 0.  1.
         23    2    1    2    0    0 -0.29755591241E+02 -0.40348219205E+02 -0.18073514491E+03  0.20857934739E+03  0.91251178341E+02 0.  0.
         24    2    1    2    0    0  0.43074509773E+01  0.26056800830E+02 -0.49772653424E+02  0.97436898432E+02  0.79492899959E+02 0.  0.
        -11    1    4    4    0    0 -0.28188215439E+02 -0.13308206029E+02 -0.28149939224E+02  0.42001225169E+02  0.00000000000E+00 0.  1.
         12    1    4    4    0    0  0.32495666416E+02  0.39365006859E+02 -0.21622714200E+02  0.55435673264E+02  0.00000000000E+00 0. -1.
        -11    1    3    3    0    0  0.24153678131E+02 -0.42661093447E+02 -0.10145761230E+03  0.11268103725E+03  0.00000000000E+00 0.  1.
         11    1    3    3    0    0 -0.53909269373E+02  0.23128742416E+01 -0.79277532610E+02  0.95898310143E+02  0.00000000000E+00 0. -1.
         21    1    1    2  502  501  0.25448140264E+02  0.14291418375E+02  0.20030130052E+01  0.29255162676E+02  0.00000000000E+00 0. -1.
<scales pt_clust_5="13000.00000" pt_clust_6="13000.00000" pt_clust_7="13000.00000" pt_clust_8="13000.00000" pt_clust_9="29.18651"></scales>
<clustering>
<clus scale="   29.187">  1  9  2 -1</clus>
<clus scale="   79.493">  5  6 -1 -1</clus>
<clus scale="   89.245">  1  5  2 -1</clus>
<clus scale="   91.251">  7  8 -1 -1</clus>
<clus scale="   29.187">  1  5  2 -1</clus>
</clustering>
</event>
<event>
 9    2  0.2984928E-005  0.1137964E+03  0.7546771E-02  0.1256643E+00
         -1   -1    0    0    0  501 -0.00000000000E+00  0.00000000000E+00  0.87161868802E+02  0.87161868802E+02  0.00000000000E+00 0.  1.
          2   -1    0    0  502    0  0.00000000000E+00 -0.00000000000E+00 -0.36360918696E+03  0.36360918696E+03  0.00000000000E+00 0. -1.
         24    2    1    2    0    0 -0.22350607438E+02 -0.67376774877E+02  0.31483936062E+02  0.11196677504E+03  0.80660653583E+02 0.  0.
         23    2    1    2    0    0  0.45555155762E+02  0.57766965463E+02 -0.26463380259E+03  0.28874962242E+03  0.89067392816E+02 0.  0.
        -13    1    3    3    0    0 -0.45829904913E+00 -0.78341030780E+02  0.92373524411E+01  0.78885079843E+02  0.00000000000E+00 0.  1.
         14    1    3    3    0    0 -0.21892308389E+02  0.10964255903E+02  0.22246583621E+02  0.33081695194E+02  0.00000000000E+00 0. -1.
        -11    1    4    4    0    0  0.93384300946E+01  0.40851667101E+02 -0.32051881832E+02  0.52757825112E+02  0.00000000000E+00 0.  1.
         11    1    4    4    0    0  0.36216725667E+02  0.16915298363E+02 -0.23258192075E+03  0.23599179731E+03  0.00000000000E+00 0. -1.
         21    1    1    2  502  501 -0.23204548324E+02  0.96098094135E+01 -0.43297451638E+02  0.50054658307E+02  0.00000000000E+00 0. -1.
<scales pt_clust_5="13000.00000" pt_clust_6="13000.00000" pt_clust_7="13000.00000" pt_clust_8="13000.00000" pt_clust_9="25.11572"></scales>
<clustering>
<clus scale="   25.116">  2  9  1 -1</clus>
<clus scale="   80.661">  5  6 -1 -1</clus>
<clus scale="   89.067">  7  8 -1 -1</clus>
<clus scale="  107.344">  1  5  2 -1</clus>
<clus scale="   25.116">  2  5  1 -1</clus>
</clustering>
</event>
<event>
 9    2  0.2984928E-005  0.3854615E+03  0.7546771E-02  0.1104020E+00
          2   -1    0    0  502    0  0.00000000000E+00  0.00000000000E+00  0.12718160540E+04  0.12718160540E+04  0.00000000000E+00 0. -1.
         -1   -1    0    0    0  501 -0.00000000000E+00 -0.00000000000E+00 -0.21766115991E+03  0.21766115991E+03  0.00000000000E+00 0.  1.
         24    2    1    2    0    0  0.11490962930E+01 -0.23904562228E+02 -0.83753865300E+02  0.12036988961E+03  0.83074977305E+02 0.  0.
         23    2    1    2    0    0  0.16735479617E+03 -0.32316827306E+03  0.57796236689E+03  0.68911241459E+03  0.91597280966E+02 0.  0.
        -11    1    3    3    0    0  0.33576071463E+02 -0.16220189866E+02 -0.87582470016E+01  0.38303446642E+02  0.00000000000E+00 0.  1.
         12    1    3    3    0    0 -0.32426975170E+02 -0.76843723616E+01 -0.74995618299E+02  0.82066442967E+02  0.00000000000E+00 0. -1.
        -11    1    4    4    0    0  0.10610853359E+03 -0.27996183047E+03  0.48083485172E+03  0.56642722573E+03  0.00000000000E+00 0. -1.
         11    1    4    4    0    0  0.61246262576E+02 -0.43206442590E+02  0.97127515175E+02  0.12268518886E+03  0.00000000000E+00 0.  1.
         21    1    1    2  502  501 -0.16850389246E+03  0.34707283529E+03  0.55994639251E+03  0.67999490973E+03  0.00000000000E+00 0.  1.
<scales pt_clust_5="13000.00000" pt_clust_6="13000.00000" pt_clust_7="13000.00000" pt_clust_8="13000.00000" pt_clust_9="374.42023"></scales>
<clustering>
<clus scale="   83.075">  5  6 -1 -1</clus>
<clus scale="   86.453">  2  5  1 -1</clus>
<clus scale="   91.597">  7  8 -1 -1</clus>
<clus scale="  374.420">  2  9  1 -1</clus>
<clus scale="  385.462">  1  5  2 -1</clus>
</clustering>
</event>
<event>
 9    2  0.2984928E-005  0.1015654E+03  0.7546771E-02  0.1283342E+00
         -1   -1    0    0    0  501 -0.00000000000E+00  0.00000000000E+00  0.99540497610E+02  0.99540497610E+02  0.00000000000E+00 0.  1.
          2   -1    0    0  502    0  0.00000000000E+00 -0.00000000000E+00 -0.19626120498E+03  0.19626120498E+03  0.00000000000E+00 0. -1.
         23    2    1    2    0    0 -0.13814594986E+02 -0.40565996771E+02 -0.49918180310E+01  0.10180544753E+03  0.92211646614E+02 0.  0.
         24    2    1    2    0    0 -0.52912373672E+02  0.40917825839E+02 -0.49318232012E+02  0.11493124393E+03  0.79390900380E+02 0.  0.
        -11    1    4    4    0    0 -0.30971146427E+02 -0.22157937113E+01 -0.57978014405E+02  0.65769079416E+02  0.00000000000E+00 0.  1.
         12    1    4    4    0    0 -0.21941227245E+02  0.43133619550E+02  0.86597823930E+01  0.49162164513E+02  0.00000000000E+00 0. -1.
        -13    1    3    3    0    0  0.85653474996E+01 -0.21889047892E+02  0.41055086497E+02  0.47307670865E+02  0.00000000000E+00 0.  1.
         13    1    3    3    0    0 -0.22379942485E+02 -0.18676948879E+02 -0.46046904528E+02  0.54497776667E+02  0.00000000000E+00 0. -1.
         21    1    1    2  502  501  0.66726968658E+02 -0.35182906736E+00 -0.42410657327E+02  0.79065011129E+02  0.00000000000E+00 0. -1.
<scales pt_clust_5="13000.00000" pt_clust_6="13000.00000" pt_clust_7="13000.00000" pt_clust_8="13000.00000" pt_clust_9="66.72790"></scales>
<clustering>
<clus scale="   66.728">  2  9  1 -1</clus>
<clus scale="   79.391">  5  6 -1 -1</clus>
<clus scale="   90.086">  2  5  1 -1</clus>
<clus scale="   92.212">  7  8 -1 -1</clus>
<clus scale="   66.728">  2  5  1 -1</clus>
</clustering>
</event>
<event>
 9    2  0.2984928E-005  0.9538861E+02  0.7546771E-02  0.1292149E+00
         -1   -1    0    0    0  501 -0.00000000000E+00  0.00000000000E+00  0.21330605186E+02  0.21330605186E+02  0.00000000000E+00 0.  1.
          2   -1    0    0  502    0  0.00000000000E+00 -0.00000000000E+00 -0.80910109893E+03  0.80910109893E+03  0.00000000000E+00 0. -1.
         23    2    1    2    0    0 -0.53036323837E+02 -0.35512284723E+02 -0.26482010931E+03  0.28659183818E+03  0.89057382666E+02 0.  0.
         24    2    1    2    0    0 -0.40780314454E+01  0.89002089052E+01 -0.29078187345E+03  0.30327289053E+03  0.85583316988E+02 0.  0.
        -13    1    4    4    0    0  0.84116198855E+01  0.25596451916E+02 -0.25256149689E+02  0.36929754899E+02  0.00000000000E+00 0.  1.
         14    1    4    4    0    0 -0.12489651331E+02 -0.16696243011E+02 -0.26552572376E+03  0.26634313563E+03  0.00000000000E+00 0. -1.
        -11    1    3    3    0    0 -0.56884684949E+02 -0.61189627723E+02 -0.20590797836E+03  0.22221191119E+03  0.00000000000E+00 0.  1.
         11    1    3    3    0    0  0.38483611123E+01  0.25677343000E+02 -0.58912130942E+02  0.64379926988E+02  0.00000000000E+00 0. -1.
         21    1    1    2  502  501  0.57114355282E+02  0.26612075818E+02 -0.23216851099E+03  0.24056697540E+03  0.00000000000E+00 0.  1.
<scales pt_clust_5="13000.00000" pt_clust_6="13000.00000" pt_clust_7="13000.00000" pt_clust_8="13000.00000" pt_clust_9="63.00994"></scales>
<clustering>
<clus scale="   63.010">  2  9  1 -1</clus>
<clus scale="   85.583">  5  6 -1 -1</clus>
<clus scale="   89.057">  7  8 -1 -1</clus>
<clus scale="   92.154">  2  5  1 -1</clus>
<clus scale="   63.010">  2  5  1 -1</clus>
</clustering>
</event>
<event>
 9    2  0.2984928E-005  0.1138696E+03  0.7546771E-02  0.1258458E+00
          4   -1    0    0  502    0  0.00000000000E+00  0.00000000000E+00  0.49326972412E+03  0.49326972412E+03  0.00000000000E+00 0. -1.
         -3   -1    0    0    0  501 -0.00000000000E+00 -0.00000000000E+00 -0.76952458885E+02  0.76952458885E+02  0.00000000000E+00 0.  1.
         23    2    1    2    0    0 -0.59357786449E+02 -0.20087146318E+02 -0.91567542662E+01  0.11256867336E+03  0.93064600223E+02 0.  0.
         24    2    1    2    0    0  0.92222639476E+02 -0.84103303499E+01  0.34715414452E+03  0.36806440563E+03  0.79872759717E+02 0.  0.
        -13    1    4    4    0    0  0.18174124679E+02 -0.38318813063E+02  0.12371867557E+03  0.13078585905E+03  0.00000000000E+00 0.  1.
         14    1    4    4    0    0  0.74048514798E+02  0.29908482714E+02  0.22343546895E+03  0.23727854658E+03  0.00000000000E+00 0. -1.
        -13    1    3    3    0    0 -0.53623759878E+02 -0.46484790800E+02  0.19084184793E+02  0.73488431119E+02  0.00000000000E+00 0. -1.
         13    1    3    3    0    0 -0.57340265715E+01  0.26397644481E+02 -0.28240939059E+02  0.39080242244E+02  0.00000000000E+00 0.  1.
         21    1    1    2  502  501 -0.32864853027E+02  0.28497476668E+02  0.78319874985E+02  0.89589104017E+02  0.00000000000E+00 0. -1.
<scales pt_clust_5="13000.00000" pt_clust_6="13000.00000" pt_clust_7="13000.00000" pt_clust_8="13000.00000" pt_clust_9="43.49948"></scales>
<clustering>
<clus scale="   43.499">  1  9  2 -1</clus>
<clus scale="   79.873">  5  6 -1 -1</clus>
<clus scale="   93.065">  7  8 -1 -1</clus>
<clus scale="  103.368">  1  5  2 -1</clus>
<clus scale="   43.499">  1  5  2 -1</clus>
</clustering>
</event>
<event>
 9    2  0.2984928E-005  0.9765636E+02  0.7546771E-02  0.1287676E+00
          2   -1    0    0  502    0  0.00000000000E+00  0.00000000000E+00  0.20754420667E+03  0.20754420667E+03  0.00000000000E+00 0. -1.
         -1   -1    0    0    0  501 -0.00000000000E+00 -0.00000000000E+00 -0.23049437087E+03  0.23049437087E+03  0.00000000000E+00 0.  1.
         24    2    1    2    0    0 -0.30110219492E+02 -0.37832940783E+02 -0.20090301237E+03  0.22190780616E+03  0.80889414202E+02 0.  0.
         23    2    1    2    0    0  0.23667248724E+02  0.75607524288E+01  0.14919268348E+03  0.17388074970E+03  0.85783184077E+02 0.  0.
        -11    1    3    3    0    0 -0.53092601820E+02 -0.34613312765E+02 -0.10017364033E+03  0.11853971488E+03  0.00000000000E+00 0.  1.
         12    1    3    3    0    0  0.22982382328E+02 -0.32196280185E+01 -0.10072937204E+03  0.10336809128E+03  0.00000000000E+00 0. -1.
        -11    1    4    4    0    0 -0.23868860354E+02  0.97250148407E+01  0.11548043774E+02  0.28242799494E+02  0.00000000000E+00 0.  1.
         11    1    4    4    0    0  0.47536109079E+02 -0.21642624120E+01  0.13764463971E+03  0.14563795020E+03  0.00000000000E+00 0. -1.
         21    1    1    2  502  501  0.64429707682E+01  0.30272188355E+02  0.28760164684E+02  0.42250021689E+02  0.00000000000E+00 0. -1.
<scales pt_clust_5="13000.00000" pt_clust_6="13000.00000" pt_clust_7="13000.00000" pt_clust_8="13000.00000" pt_clust_9="30.95024"></scales>
<clustering>
<clus scale="   30.950">  1  9  2 -1</clus>
<clus scale="   80.889">  5  6 -1 -1</clus>
<clus scale="   85.783">  7  8 -1 -1</clus>
<clus scale="   93.387">  2  5  1 -1</clus>
<clus scale="   30.950">  1  5  2 -1</clus>
</clustering>
</event>
<event>
 9    2  0.2984928E-005  0.9284888E+02  0.7546771E-02  0.1302099E+00
         -1   -1    0    0    0  501 -0.00000000000E+00  0.00000000000E+00  0.84016952955E+03  0.84016952955E+03  0.00000000000E+00 0.  1.
          2   -1    0    0  502    0  0.00000000000E+00 -0.00000000000E+00 -0.14700241428E+02  0.14700241428E+02  0.00000000000E+00 0. -1.
         23    2    1    2    0    0 -0.43031492174E+01 -0.21943701201E+00  0.49341040233E+03  0.50202621747E+03  0.92509094989E+02 0.  0.
         24    2    1    2    0    0 -0.24469370861E+02 -0.11423723618E+02  0.26560741777E+03  0.27950039634E+03  0.82727985640E+02 0.  0.
        -13    1    4    4    0    0 -0.53968852025E+02 -0.11371646053E+02  0.13993073507E+03  0.15040798496E+03  0.00000000000E+00 0.  1.
         14    1    4    4    0    0  0.29499481164E+02 -0.52077564384E-01  0.12567668270E+03  0.12909241138E+03  0.00000000000E+00 0. -1.
        -11    1    3    3    0    0  0.42232004374E+02 -0.12874688155E+02  0.25366540005E+03  0.25747899908E+03  0.00000000000E+00 0. -1.
         11    1    3    3    0    0 -0.46535153592E+02  0.12655251143E+02  0.23974500228E+03  0.24454721838E+03  0.00000000000E+00 0.  1.
         21    1    1    2  502  501  0.28772520079E+02  0.11643160630E+02  0.66451468032E+02  0.73343157178E+02  0.00000000000E+00 0.  1.
<scales pt_clust_5="13000.00000" pt_clust_6="13000.00000" pt_clust_7="13000.00000" pt_clust_8="13000.00000" pt_clust_9="31.03903"></scales>
<clustering>
<clus scale="   31.039">  2  9  1 -1</clus>
<clus scale="   82.728">  5  6 -1 -1</clus>
<clus scale="   83.108">  2  5  1 -1</clus>
<clus scale="   92.509">  7  8 -1 -1</clus>
<clus scale="   31.039">  2  5  1 -1</clus>
</clustering>
</event>
<event>
 9    2  0.2984928E-005  0.1521186E+03  0.7546771E-02  0.1200282E+00
          2   -1    0    0  502    0  0.00000000000E+00  0.00000000000E+00  0.91298273403E+03  0.91298273403E+03  0.00000000000E+00 0. -1.
         -1   -1    0    0    0  501 -0.00000000000E+00 -0.00000000000E+00 -0.63848528927E+02  0.63848528927E+02  0.00000000000E+00 0.  1.
         24    2    1    2    0    0 -0.94875339671E+02  0.71525407525E+02  0.50341745568E+02  0.15120397945E+03  0.78810773731E+02 0.  0.
         23    2    1    2    0    0  0.12691382766E+03 -0.52141094279E+02  0.55888815538E+03  0.58281811674E+03  0.92169266093E+02 0.  0.
        -11    1    3    3    0    0 -0.28836544740E+02  0.69240166621E+02  0.37625535920E+02  0.83913216716E+02  0.00000000000E+00 0.  1.
         12    1    3    3    0    0 -0.66038794931E+02  0.22852409040E+01  0.12716209648E+02  0.67290762737E+02  0.00000000000E+00 0. -1.
        -11    1    4    4    0    0 -0.38849830669E+01 -0.32845268182E+02  0.11296833053E+03  0.11771044320E+03  0.00000000000E+00 0.  1.
         11    1    4    4    0    0  0.13079881072E+03 -0.19295826098E+02  0.44591982485E+03  0.46510767354E+03  0.00000000000E+00 0. -1.
         21    1    1    2  502  501 -0.32038487986E+02 -0.19384313246E+02  0.23990430416E+03  0.24280916677E+03  0.00000000000E+00 0. -1.
<scales pt_clust_5="13000.00000" pt_clust_6="13000.00000" pt_clust_7="13000.00000" pt_clust_8="13000.00000" pt_clust_9="37.44618"></scales>
<clustering>
<clus scale="   37.446">  1  9  2 -1</clus>
<clus scale="   78.811">  5  6 -1 -1</clus>
<clus scale="   92.169">  7  8 -1 -1</clus>
<clus scale="  144.416">  2  5  1 -1</clus>
<clus scale="   37.446">  1  5  2 -1</clus>
</clustering>
</event>
<event>
 9    2  0.2984928E-005  0.1589302E+03  0.7546771E-02  0.1198657E+00
          2   -1    0    0  502    0  0.00000000000E+00  0.00000000000E+00  0.59748670206E+03  0.59748670206E+03  0.00000000000E+00 0. -1.
         -1   -1    0    0    0  501 -0.00000000000E+00 -0.00000000000E+00 -0.19932459371E+03  0.19932459371E+03  0.00000000000E+00 0.  1.
         24    2    1    2    0    0 -0.63096634684E+02 -0.99286841854E+02 -0.55512048226E+02  0.15114443584E+03  0.76967465297E+02 0.  0.
         23    2    1    2    0    0  0.20796189726E+02 -0.91755617986E+02  0.42880491830E+03  0.44842328432E+03  0.91423241141E+02 0.  0.
        -13    1    3    3    0    0 -0.31347960244E+02  0.38402613718E+01 -0.20711508101E+02  0.37767827402E+02  0.00000000000E+00 0.  1.
         14    1    3    3    0    0 -0.31748674440E+02 -0.10312710323E+03 -0.34800540125E+02  0.11337660844E+03  0.00000000000E+00 0. -1.
        -11    1    4    4    0    0 -0.21507632965E+02 -0.84848891699E+02  0.31006409857E+03  0.32218264683E+03  0.00000000000E+00 0. -1.
         11    1    4    4    0    0  0.42303822691E+02 -0.69067262862E+01  0.11874081973E+03  0.12624063749E+03  0.00000000000E+00 0.  1.
         21    1    1    2  502  501  0.42300444958E+02  0.19104245984E+03  0.24869238274E+02  0.19724357561E+03  0.00000000000E+00 0.  1.
<scales pt_clust_5="13000.00000" pt_clust_6="13000.00000" pt_clust_7="13000.00000" pt_clust_8="13000.00000" pt_clust_9="139.04965"></scales>
<clustering>
<clus scale="   76.967">  5  6 -1 -1</clus>
<clus scale="   91.423">  7  8 -1 -1</clus>
<clus scale="  131.186">  1  7  2 -1</clus>
<clus scale="  139.050">  1  9  2 -1</clus>
<clus scale="  131.186">  1  5  2 -1</clus>
</clustering>
</event>
<event>
 9    2  0.2984928E-005  0.9440966E+02  0.7546771E-02  0.1297607E+00
          2   -1    0    0  502    0  0.00000000000E+00  0.00000000000E+00  0.89130739779E+03  0.89130739779E+03  0.00000000000E+00 0. -1.
         -1   -1    0    0    0  501 -0.00000000000E+00 -0.00000000000E+00 -0.11667388299E+03  0.11667388299E+03  0.00000000000E+00 0.  1.
         23    2    1    2    0    0 -0.71700303393E+01  0.29383838907E+02 -0.91511844358E+02  0.13170917718E+03  0.89766755375E+02 0.  0.
         24    2    1    2    0    0 -0.32811711267E+02 -0.96958212294E+01  0.53475317109E+03  0.54189665592E+03  0.80749082700E+02 0.  0.
        -11    1    4    4    0    0 -0.72420027558E+01  0.33238781574E+02  0.14414096627E+03  0.14810091614E+03  0.00000000000E+00 0.  1.
         12    1    4    4    0    0 -0.25569708511E+02 -0.42934602803E+02  0.39061220483E+03  0.39379573978E+03  0.00000000000E+00 0. -1.
        -11    1    3    3    0    0 -0.45080723215E+02  0.26835902401E+02 -0.71739462012E+02  0.88876249207E+02  0.00000000000E+00 0.  1.
         11    1    3    3    0    0  0.37910692876E+02  0.25479365059E+01 -0.19772382346E+02  0.42832927969E+02  0.00000000000E+00 0. -1.
         21    1    1    2  502  501  0.39981741606E+02 -0.19688017677E+02  0.33139218807E+03  0.33437544768E+03  0.00000000000E+00 0. -1.
<scales pt_clust_5="13000.00000" pt_clust_6="13000.00000" pt_clust_7="13000.00000" pt_clust_8="13000.00000" pt_clust_9="44.56633"></scales>
<clustering>
<clus scale="   44.566">  1  9  2 -1</clus>
<clus scale="   80.749">  5  6 -1 -1</clus>
<clus scale="   85.881">  1  5  2 -1</clus>
<clus scale="   89.767">  7  8 -1 -1</clus>
<clus scale="   44.566">  1  5  2 -1</clus>
</clustering>
</event>
<event>
 9    2  0.2984928E-005  0.1618529E+03  0.7546771E-02  0.1187862E+00
          2   -1    0    0  502    0  0.00000000000E+00  0.00000000000E+00  0.44647446305E+03  0.44647446305E+03  0.00000000000E+00 0. -1.
         -1   -1    0    0    0  501 -0.00000000000E+00 -0.00000000000E+00 -0.29953603744E+03  0.29953603744E+03  0.00000000000E+00 0.  1.
         24    2    1    2    0    0 -0.13591777767E+03 -0.42661428291E+00 -0.25638514794E+03  0.30117192794E+03  0.80606214462E+02 0.  0.
         23    2    1    2    0    0  0.12569871650E+03 -0.24602184519E+02  0.30072820244E+03  0.33874106950E+03  0.88896713139E+02 0.  0.
        -13    1    3    3    0    0 -0.43186371150E+02 -0.19101697534E+02 -0.30330355931E+02  0.56123684775E+02  0.00000000000E+00 0.  1.
         14    1    3    3    0    0 -0.92731406523E+02  0.18675083251E+02 -0.22605479201E+03  0.24504824317E+03  0.00000000000E+00 0. -1.
        -13    1    4    4    0    0  0.10162611599E+03 -0.23033692754E+02  0.29646321405E+03  0.31424330659E+03  0.00000000000E+00 0. -1.
         13    1    4    4    0    0  0.24072600505E+02 -0.15684917653E+01  0.42649883984E+01  0.24497762909E+02  0.00000000000E+00 0.  1.
         21    1    1    2  502  501  0.10219061176E+02  0.25028798802E+02  0.10259537110E+03  0.10609750305E+03  0.00000000000E+00 0.  1.
<scales pt_clust_5="13000.00000" pt_clust_6="13000.00000" pt_clust_7="13000.00000" pt_clust_8="13000.00000" pt_clust_9="27.03461"></scales>
<clustering>
<clus scale="   27.035">  1  9  2 -1</clus>
<clus scale="   80.606">  5  6 -1 -1</clus>
<clus scale="   88.897">  7  8 -1 -1</clus>
<clus scale="  157.452">  2  5  1 -1</clus>
<clus scale="   27.035">  1  5  2 -1</clus>
</clustering>
</event>
<event>
 9    2  0.2984928E-005  0.9168476E+02  0.7546771E-02  0.1305769E+00
          2   -1    0    0  502    0  0.00000000000E+00  0.00000000000E+00  0.69538723821E+02  0.69538723821E+02  0.00000000000E+00 0. -1.
         -1   -1    0    0    0  501 -0.00000000000E+00 -0.00000000000E+00 -0.21386190227E+03  0.21386190227E+03  0.00000000000E+00 0.  1.
         23    2    1    2    0    0 -0.12291405049E+02  0.87618531277E+01 -0.14543259186E+03  0.17230023897E+03  0.91153084783E+02 0.  0.
         24    2    1    2    0    0 -0.15081121489E+02 -0.43476760726E+01  0.94049579363E+01  0.82159823428E+02  0.80096447108E+02 0.  0.
        -13    1    4    4    0    0  0.31172275315E+02  0.10153118478E+02  0.74475996392E-02  0.32784090937E+02  0.00000000000E+00 0.  1.
         14    1    4    4    0    0 -0.46253396804E+02 -0.14500794550E+02  0.93975103367E+01  0.49375732491E+02  0.00000000000E+00 0. -1.
        -13    1    3    3    0    0 -0.25943119049E+02 -0.35466948541E+02 -0.52383190019E+02  0.68373594767E+02  0.00000000000E+00 0. -1.
         13    1    3    3    0    0  0.13651713999E+02  0.44228801669E+02 -0.93049401839E+02  0.10392664420E+03  0.00000000000E+00 0.  1.
         21    1    1    2  502  501  0.27372526538E+02 -0.44141770551E+01 -0.82955445301E+01  0.28940563699E+02  0.00000000000E+00 0.  1.
<scales pt_clust_5="13000.00000" pt_clust_6="13000.00000" pt_clust_7="13000.00000" pt_clust_8="13000.00000" pt_clust_9="27.72616"></scales>
<clustering>
<clus scale="   27.726">  1  9  2 -1</clus>
<clus scale="   80.096">  5  6 -1 -1</clus>
<clus scale="   80.701">  1  5  2 -1</clus>
<clus scale="   91.153">  7  8 -1 -1</clus>
<clus scale="   27.726">  1  5  2 -1</clus>
</clustering>
</event>
<event>
 9    2  0.2984928E-005  0.9427005E+02  0.7546771E-02  0.1299440E+00
         -1   -1    0    0    0  501 -0.00000000000E+00  0.00000000000E+00  0.47112980231E+02  0.47112980231E+02  0.00000000000E+00 0.  1.
          2   -1    0    0  502    0  0.00000000000E+00 -0.00000000000E+00 -0.29587881604E+03  0.29587881604E+03  0.00000000000E+00 0. -1.
         24    2    1    2    0    0  0.16660503817E+02 -0.85396865096E+01 -0.33748908858E+02  0.88720042578E+02  0.79885909101E+02 0.  0.
         23    2    1    2    0    0 -0.44052535533E+02 -0.11275596256E+02 -0.16355246790E+03  0.19269611420E+03  0.91184525640E+02 0.  0.
        -13    1    3    3    0    0 -0.27250828159E+02 -0.23111567474E+02 -0.13133729942E+02  0.38068977510E+02  0.00000000000E+00 0.  1.
         14    1    3    3    0    0  0.43911331976E+02  0.14571880965E+02 -0.20615178917E+02  0.50651065068E+02  0.00000000000E+00 0. -1.
        -11    1    4    4    0    0  0.22349142343E+02 -0.67871797601E+01 -0.92244223368E+02  0.95155381967E+02  0.00000000000E+00 0.  1.
         11    1    4    4    0    0 -0.66401677876E+02 -0.44884164959E+01 -0.71308244528E+02  0.97540732235E+02  0.00000000000E+00 0. -1.
         21    1    1    2  502  501  0.27392031716E+02  0.19815282766E+02 -0.51464459052E+02  0.61575639486E+02  0.00000000000E+00 0.  1.
<scales pt_clust_5="13000.00000" pt_clust_6="13000.00000" pt_clust_7="13000.00000" pt_clust_8="13000.00000" pt_clust_9="33.80782"></scales>
<clustering>
<clus scale="   33.808">  2  9  1 -1</clus>
<clus scale="   79.886">  5  6 -1 -1</clus>
<clus scale="   83.391">  1  5  2 -1</clus>
<clus scale="   91.185">  7  8 -1 -1</clus>
<clus scale="   33.808">  2  5  1 -1</clus>
</clustering>
</event>
<event>
 9    2  0.2984928E-005  0.1021518E+03  0.7546771E-02  0.1283536E+00
          2   -1    0    0  502    0  0.00000000000E+00  0.00000000000E+00  0.23832068977E+03  0.23832068977E+03  0.00000000000E+00 0. -1.
         -1   -1    0    0    0  501 -0.00000000000E+00 -0.00000000000E+00 -0.72123181652E+02  0.72123181652E+02  0.00000000000E+00 0.  1.
         23    2    1    2    0    0 -0.25112193445E+02 -0.31497301826E+02 -0.82573297988E+01  0.10104044365E+03  0.92294558216E+02 0.  0.
         24    2    1    2    0    0  0.22941505037E+02  0.51528499135E+02  0.13558774928E+03  0.16562430794E+03  0.76588998882E+02 0.  0.
        -11    1    4    4    0    0  0.31577073410E+02 -0.11137814580E+01  0.17672108541E+02  0.36202976322E+02  0.00000000000E+00 0.  1.
         12    1    4    4    0    0 -0.86355683736E+01  0.52642280593E+02  0.11791564074E+03  0.12942133162E+03  0.00000000000E+00 0. -1.
        -13    1    3    3    0    0 -0.49588448136E+02 -0.48677563629E+02 -0.13201566673E+02  0.70730479654E+02  0.00000000000E+00 0.  1.
         13    1    3    3    0    0  0.24476254691E+02  0.17180261804E+02  0.49442368746E+01  0.30309963999E+02  0.00000000000E+00 0. -1.
         21    1    1    2  502  501  0.21706884084E+01 -0.20031197310E+02  0.38867088632E+02  0.43779119823E+02  0.00000000000E+00 0. -1.
<scales pt_clust_5="13000.00000" pt_clust_6="13000.00000" pt_clust_7="13000.00000" pt_clust_8="13000.00000" pt_clust_9="20.14847"></scales>
<clustering>
<clus scale="   20.148">  1  9  2 -1</clus>
<clus scale="   76.589">  5  6 -1 -1</clus>
<clus scale="   88.219">  1  5  2 -1</clus>
<clus scale="   92.295">  7  8 -1 -1</clus>
<clus scale="   20.148">  1  5  2 -1</clus>
</clustering>
</event>
<event>
 9    2  0.2984928E-005  0.1021437E+03  0.7546771E-02  0.1282079E+00
          2   -1    0    0  502    0  0.00000000000E+00  0.00000000000E+00  0.59519948672E+02  0.59519948672E+02  0.00000000000E+00 0. -1.
         -1   -1    0    0    0  501 -0.00000000000E+00 -0.00000000000E+00 -0.33407172578E+03  0.33407172578E+03  0.00000000000E+00 0.  1.
         24    2    1    2    0    0 -0.38128565533E+02  0.13104628735E+02 -0.22349623241E+03  0.24102958274E+03  0.80741408521E+02 0.  0.
         23    2    1    2    0    0  0.48550223216E+02  0.83699698618E+01 -0.65878557784E+02  0.12446420832E+03  0.93403287991E+02 0.  0.
        -11    1    3    3    0    0 -0.17192576816E+02  0.30626223124E+02 -0.20515582894E+03  0.20814049195E+03  0.00000000000E+00 0.  1.
         12    1    3    3    0    0 -0.20935988718E+02 -0.17521594389E+02 -0.18340403468E+02  0.32889090789E+02  0.00000000000E+00 0. -1.
        -13    1    4    4    0    0  0.37364230829E+02 -0.34201933012E+02 -0.62311337541E+02  0.80302931163E+02  0.00000000000E+00 0.  1.
         13    1    4    4    0    0  0.11185992386E+02  0.42571902874E+02 -0.35672202431E+01  0.44161277158E+02  0.00000000000E+00 0. -1.
         21    1    1    2  502  501 -0.10421657682E+02 -0.21474598596E+02  0.14823013091E+02  0.28097883387E+02  0.00000000000E+00 0.  1.
<scales pt_clust_5="13000.00000" pt_clust_6="13000.00000" pt_clust_7="13000.00000" pt_clust_8="13000.00000" pt_clust_9="23.86984"></scales>
<clustering>
<clus scale="   23.870">  1  9  2 -1</clus>
<clus scale="   80.741">  5  6 -1 -1</clus>
<clus scale="   90.710">  2  5  1 -1</clus>
<clus scale="   93.403">  7  8 -1 -1</clus>
<clus scale="   23.870">  1  5  2 -1</clus>
</clustering>
</event>
<event>
 9    2  0.5987274E-005  0.1573004E+03  0.7546771E-02  0.1193906E+00
          2   -1    0    0  502    0  0.00000000000E+00  0.00000000000E+00  0.18759754107E+04  0.18759754107E+04  0.00000000000E+00 0. -1.
         -1   -1    0    0    0  501 -0.00000000000E+00 -0.00000000000E+00 -0.16647660997E+03  0.16647660997E+03  0.00000000000E+00 0.  1.
         23    2    1    2    0    0  0.16590505585E+02  0.12541323954E+03 -0.12350342493E+03  0.20058214636E+03  0.94743738271E+02 0.  0.
         24    2    1    2    0    0 -0.30258082206E+02 -0.83075647424E+02  0.16069547381E+04  0.16114859752E+04  0.82258149460E+02 0.  0.
        -11    1    4    4    0    0 -0.23545454643E+02 -0.80576416751E+01  0.11644858944E+03  0.11907807526E+03  0.00000000000E+00 0.  1.
         12    1    4    4    0    0 -0.67126275630E+01 -0.75018005749E+02  0.14905061487E+04  0.14924078999E+04  0.00000000000E+00 0. -1.
        -13    1    3    3    0    0 -0.20198894645E+02  0.32710490414E+02  0.40589029340E+01  0.38658067994E+02  0.00000000000E+00 0. -1.
         13    1    3    3    0    0  0.36789400230E+02  0.92702749122E+02 -0.12756232786E+03  0.16192407836E+03  0.00000000000E+00 0.  1.
         21    1    1    2  502  501  0.13667576620E+02 -0.42337592111E+02  0.22604748754E+03  0.23038389914E+03  0.00000000000E+00 0. -1.
<scales pt_clust_5="13000.00000" pt_clust_6="13000.00000" pt_clust_7="13000.00000" pt_clust_8="13000.00000" pt_clust_9="44.48904"></scales>
<clustering>
<clus scale="   44.489">  1  9  2 -1</clus>
<clus scale="   82.258">  5  6 -1 -1</clus>
<clus scale="   94.744">  7  8 -1 -1</clus>
<clus scale="  150.111">  1  5  2 -1</clus>
<clus scale="   44.489">  1  5  2 -1</clus>
</clustering>
</event>
<event>
 9    2  0.2984928E-005  0.1162036E+03  0.7546771E-02  0.1253116E+00
          2   -1    0    0  502    0  0.00000000000E+00  0.00000000000E+00  0.25981664364E+03  0.25981664364E+03  0.00000000000E+00 0. -1.
         -1   -1    0    0    0  501 -0.00000000000E+00 -0.00000000000E+00 -0.12920035392E+03  0.12920035392E+03  0.00000000000E+00 0.  1.
         24    2    1    2    0    0  0.79189202496E+02  0.46330622073E+02  0.30449544723E+02  0.12563999929E+03  0.80254459773E+02 0.  0.
         23    2    1    2    0    0 -0.64433782063E+01 -0.75340990997E+02  0.13345302572E+03  0.17827980125E+03  0.90863608845E+02 0.  0.
        -13    1    3    3    0    0  0.15830723015E+02  0.45911237337E+02 -0.11171725686E+02  0.49832328460E+02  0.00000000000E+00 0.  1.
         14    1    3    3    0    0  0.63358479481E+02  0.41938473570E+00  0.41621270408E+02  0.75807670827E+02  0.00000000000E+00 0. -1.
        -11    1    4    4    0    0 -0.27049900241E+02 -0.31047116640E+02  0.57826580167E+01  0.41581963499E+02  0.00000000000E+00 0.  1.
         11    1    4    4    0    0  0.20606522034E+02 -0.44293874357E+02  0.12767036770E+03  0.13669783775E+03  0.00000000000E+00 0. -1.
         21    1    1    2  502  501 -0.72745824290E+02  0.29010368924E+02 -0.33286280718E+02  0.85097197020E+02  0.00000000000E+00 0.  1.
<scales pt_clust_5="13000.00000" pt_clust_6="13000.00000" pt_clust_7="13000.00000" pt_clust_8="13000.00000" pt_clust_9="78.31703"></scales>
<clustering>
<clus scale="   78.317">  2  9  1 -1</clus>
<clus scale="   80.254">  5  6 -1 -1</clus>
<clus scale="   90.864">  7  8 -1 -1</clus>
<clus scale="  108.110">  2  5  1 -1</clus>
<clus scale="  116.204">  1  5  2 -1</clus>
</clustering>
</event>
<event>
 9    2  0.2984928E-005  0.1129586E+03  0.7546771E-02  0.1264650E+00
         -1   -1    0    0    0  501 -0.00000000000E+00  0.00000000000E+00  0.44342128929E+02  0.44342128929E+02  0.00000000000E+00 0.  1.
          2   -1    0    0  502    0  0.00000000000E+00 -0.00000000000E+00 -0.62909042793E+03  0.62909042793E+03  0.00000000000E+00 0. -1.
         23    2    1    2    0    0  0.26477905343E+02 -0.31107121158E+02 -0.53347348719E+02  0.12286220915E+03  0.10286131617E+03 0.  0.
         24    2    1    2    0    0 -0.45549152498E+02  0.58905538765E+02 -0.41153636657E+03  0.42605535697E+03  0.81341246627E+02 0.  0.
        -13    1    4    4    0    0  0.11689826755E+02  0.42446249038E+02 -0.25089593664E+03  0.25472947833E+03  0.00000000000E+00 0.  1.
         14    1    4    4    0    0 -0.57238979253E+02  0.16459289727E+02 -0.16064042993E+03  0.17132587864E+03  0.00000000000E+00 0. -1.
        -11    1    3    3    0    0  0.10030594407E+02  0.23817756884E+02 -0.59819546940E+02  0.65163460338E+02  0.00000000000E+00 0. -1.
         11    1    3    3    0    0  0.16447310936E+02 -0.54924878042E+02  0.64721982213E+01  0.57698748815E+02  0.00000000000E+00 0.  1.
         21    1    1    2  502  501  0.19071247155E+02 -0.27798417607E+02 -0.11986458371E+03  0.12451499074E+03  0.00000000000E+00 0.  1.
<scales pt_clust_5="13000.00000" pt_clust_6="13000.00000" pt_clust_7="13000.00000" pt_clust_8="13000.00000" pt_clust_9="33.71149"></scales>
<clustering>
<clus scale="   33.711">  2  9  1 -1</clus>
<clus scale="   81.341">  5  6 -1 -1</clus>
<clus scale="   93.785">  2  5  1 -1</clus>
<clus scale="  102.861">  7  8 -1 -1</clus>
<clus scale="   33.711">  2  5  1 -1</clus>
</clustering>
</event>
<event>
 9    2  0.2984928E-005  0.1073785E+03  0.7546771E-02  0.1279394E+00
         -1   -1    0    0    0  501 -0.00000000000E+00  0.00000000000E+00  0.68739690859E+03  0.68739690859E+03  0.00000000000E+00 0.  1.
          2   -1    0    0  502    0  0.00000000000E+00 -0.00000000000E+00 -0.50868521225E+02  0.50868521225E+02  0.00000000000E+00 0. -1.
         23    2    1    2    0    0  0.95921052746E+01 -0.17421616666E+02  0.54199540862E+03  0.55280524167E+03  0.10695368642E+03 0.  0.
         24    2    1    2    0    0  0.21437364323E+02 -0.40174507328E+02  0.47119491280E+02  0.10466303302E+03  0.81612207390E+02 0.  0.
        -13    1    4    4    0    0  0.39548987862E+02 -0.56439551210E+02  0.31792052354E+02  0.75896508316E+02  0.00000000000E+00 0.  1.
         14    1    4    4    0    0 -0.18111623539E+02  0.16265043882E+02  0.15327438927E+02  0.28766524708E+02  0.00000000000E+00 0. -1.
        -13    1    3    3    0    0  0.48800254456E+02 -0.38688819700E+02  0.36508215802E+03  0.37035560170E+03  0.00000000000E+00 0.  1.
         13    1    3    3    0    0 -0.39208149181E+02  0.21267203034E+02  0.17691325060E+03  0.18244963997E+03  0.00000000000E+00 0. -1.
         21    1    1    2  502  501 -0.31029469598E+02  0.57596123994E+02  0.47413487468E+02  0.80797155126E+02  0.00000000000E+00 0. -1.
<scales pt_clust_5="13000.00000" pt_clust_6="13000.00000" pt_clust_7="13000.00000" pt_clust_8="13000.00000" pt_clust_9="65.42279"></scales>
<clustering>
<clus scale="   65.423">  2  9  1 -1</clus>
<clus scale="   81.612">  5  6 -1 -1</clus>
<clus scale="   82.168">  2  5  1 -1</clus>
<clus scale="  106.954">  7  8 -1 -1</clus>
<clus scale="   65.423">  2  5  1 -1</clus>
</clustering>
</event>
<event>
 9    2  0.2984928E-005  0.1368294E+03  0.7546771E-02  0.1221732E+00
         -1   -1    0    0    0  501 -0.00000000000E+00  0.00000000000E+00  0.84637597262E+02  0.84637597262E+02  0.00000000000E+00 0.  1.
          2   -1    0    0  502    0  0.00000000000E+00 -0.00000000000E+00 -0.44279254391E+03  0.44279254391E+03  0.00000000000E+00 0. -1.
         24    2    1    2    0    0 -0.28539492292E+02  0.85407510253E+02 -0.16067058281E+02  0.12171145912E+03  0.80290618949E+02 0.  0.
         23    2    1    2    0    0  0.32628645534E+02 -0.10893479832E+03 -0.14845797480E+03  0.21062178847E+03  0.96903811598E+02 0.  0.
        -11    1    3    3    0    0 -0.18781737573E+02 -0.11410695374E+02 -0.10194554770E+02  0.24225742138E+02  0.00000000000E+00 0.  1.
         12    1    3    3    0    0 -0.97577547193E+01  0.96818205626E+02 -0.58725035111E+01  0.97485716981E+02  0.00000000000E+00 0. -1.
        -11    1    4    4    0    0 -0.20901057902E+02 -0.21357374082E+02 -0.84635193413E+02  0.89755822169E+02  0.00000000000E+00 0.  1.
         11    1    4    4    0    0  0.53529703436E+02 -0.87577424238E+02 -0.63822781389E+02  0.12086596630E+03  0.00000000000E+00 0. -1.
         21    1    1    2  502  501 -0.40891532421E+01  0.23527288068E+02 -0.19362991357E+03  0.19509689358E+03  0.00000000000E+00 0. -1.
<scales pt_clust_5="13000.00000" pt_clust_6="13000.00000" pt_clust_7="13000.00000" pt_clust_8="13000.00000" pt_clust_9="23.88000"></scales>
<clustering>
<clus scale="   23.880">  2  9  1 -1</clus>
<clus scale="   80.291">  5  6 -1 -1</clus>
<clus scale="   96.904">  7  8 -1 -1</clus>
<clus scale="  125.613">  1  5  2 -1</clus>
<clus scale="   23.880">  2  5  1 -1</clus>
</clustering>
</event>
<event>
 9    2  0.2984928E-005  0.1151725E+03  0.7546771E-02  0.1257702E+00
          2   -1    0    0  502    0  0.00000000000E+00  0.00000000000E+00  0.11204372712E+04  0.11204372712E+04  0.00000000000E+00 0. -1.
         -1   -1    0    0    0  501 -0.00000000000E+00 -0.00000000000E+00 -0.24321479499E+02  0.24321479499E+02  0.00000000000E+00 0.  1.
         23    2    1    2    0    0  0.53030233145E+02 -0.41017090870E+02  0.16315512397E+03  0.20189971333E+03  0.98230811832E+02 0.  0.
         24    2    1    2    0    0 -0.10068126463E+02  0.39742030405E+02  0.70347159893E+03  0.70937969977E+03  0.81648464701E+02 0.  0.
        -11    1    4    4    0    0 -0.15140290837E+02  0.48395791674E+02  0.21860217668E+03  0.22440653446E+03  0.00000000000E+00 0.  1.
         12    1    4    4    0    0  0.50721643738E+01 -0.86537612693E+01  0.48486942225E+03  0.48497316531E+03  0.00000000000E+00 0. -1.
        -11    1    3    3    0    0  0.36108530766E+02 -0.72334764059E+02  0.13095142798E+03  0.15389743525E+03  0.00000000000E+00 0. -1.
         11    1    3    3    0    0  0.16921702379E+02  0.31317673189E+02  0.32203695983E+02  0.48002278074E+02  0.00000000000E+00 0.  1.
         21    1    1    2  502  501 -0.42962106681E+02  0.12750604651E+01  0.22948906885E+03  0.23347933765E+03  0.00000000000E+00 0.  1.
<scales pt_clust_5="13000.00000" pt_clust_6="13000.00000" pt_clust_7="13000.00000" pt_clust_8="13000.00000" pt_clust_9="42.98102"></scales>
<clustering>
<clus scale="   42.981">  1  9  2 -1</clus>
<clus scale="   81.648">  5  6 -1 -1</clus>
<clus scale="   98.231">  7  8 -1 -1</clus>
<clus scale="  101.400">  1  5  2 -1</clus>
<clus scale="   42.981">  1  5  2 -1</clus>
</clustering>
</event>
<event>
 9    2  0.2984928E-005  0.1468279E+03  0.7546771E-02  0.1211438E+00
         -1   -1    0    0    0  501 -0.00000000000E+00  0.00000000000E+00  0.17867313472E+03  0.17867313472E+03  0.00000000000E+00 0.  1.
          2   -1    0    0  502    0  0.00000000000E+00 -0.00000000000E+00 -0.10961994492E+04  0.10961994492E+04  0.00000000000E+00 0. -1.
         23    2    1    2    0    0  0.67489517208E+02 -0.33999980632E+02 -0.47049527404E+02  0.13481820244E+03  0.10124947439E+03 0.  0.
         24    2    1    2    0    0  0.40455488035E+02  0.10256337055E+03  0.96760087774E+02  0.16440063415E+03  0.74223732278E+02 0.  0.
        -11    1    4    4    0    0  0.52547840903E+02  0.35110207559E+02  0.57392699445E+02  0.85369339976E+02  0.00000000000E+00 0.  1.
         12    1    4    4    0    0 -0.12092352868E+02  0.67453162993E+02  0.39367388329E+02  0.79031294178E+02  0.00000000000E+00 0. -1.
        -13    1    3    3    0    0  0.45876328302E+02  0.28388889268E+02 -0.42419953756E+02  0.68629578236E+02  0.00000000000E+00 0.  1.
         13    1    3    3    0    0  0.21613188906E+02 -0.62388869900E+02 -0.46295736481E+01  0.66188624206E+02  0.00000000000E+00 0. -1.
         21    1    1    2  502  501 -0.10794500524E+03 -0.68563389919E+02 -0.96723687481E+03  0.97565374728E+03  0.00000000000E+00 0. -1.
<scales pt_clust_5="13000.00000" pt_clust_6="13000.00000" pt_clust_7="13000.00000" pt_clust_8="13000.00000" pt_clust_9="126.68574"></scales>
<clustering>
<clus scale="   74.224">  5  6 -1 -1</clus>
<clus scale="  101.249">  7  8 -1 -1</clus>
<clus scale="  126.342">  1  7  2 -1</clus>
<clus scale="  126.686">  2  9  1 -1</clus>
<clus scale="  126.686">  2  5  1 -1</clus>
</clustering>
</event>
<event>
 9    2  0.2984928E-005  0.1325384E+03  0.7546771E-02  0.1225860E+00
         -1   -1    0    0    0  501 -0.00000000000E+00  0.00000000000E+00  0.71451325509E+03  0.71451325509E+03  0.00000000000E+00 0.  1.
          2   -1    0    0  502    0  0.00000000000E+00 -0.00000000000E+00 -0.50791854096E+02  0.50791854096E+02  0.00000000000E+00 0. -1.
         24    2    1    2    0    0 -0.96668432894E+02 -0.48083874721E+02  0.51038797541E+03  0.52828900530E+03  0.83285909638E+02 0.  0.
         23    2    1    2    0    0  0.68707920506E+02  0.16455379040E+02  0.15648170543E+03  0.19468333103E+03  0.91779722187E+02 0.  0.
        -11    1    3    3    0    0 -0.63732420235E+02 -0.62451741593E+02  0.44322375777E+03  0.45211651249E+03  0.00000000000E+00 0.  1.
         12    1    3    3    0    0 -0.32936012659E+02  0.14367866872E+02  0.67164217646E+02  0.76172492806E+02  0.00000000000E+00 0. -1.
        -11    1    4    4    0    0  0.66935423964E+02 -0.49290106283E+01  0.44185662357E+02  0.80355577808E+02  0.00000000000E+00 0. -1.
         11    1    4    4    0    0  0.17724965423E+01  0.21384389668E+02  0.11229604307E+03  0.11432775322E+03  0.00000000000E+00 0.  1.
         21    1    1    2  502  501  0.27960512388E+02  0.31628495681E+02 -0.31482798535E+01  0.42332772861E+02  0.00000000000E+00 0. -1.
<scales pt_clust_5="13000.00000" pt_clust_6="13000.00000" pt_clust_7="13000.00000" pt_clust_8="13000.00000" pt_clust_9="42.21554"></scales>
<clustering>
<clus scale="   42.216">  2  9  1 -1</clus>
<clus scale="   83.286">  5  6 -1 -1</clus>
<clus scale="   91.780">  7  8 -1 -1</clus>
<clus scale="  126.805">  1  5  2 -1</clus>
<clus scale="   42.216">  2  5  1 -1</clus>
</clustering>
</event>
<event>
 9    2  0.2984928E-005  0.1022189E+03  0.7546771E-02  0.1280453E+00
         -1   -1    0    0    0  501 -0.00000000000E+00  0.00000000000E+00  0.17744202785E+03  0.17744202785E+03  0.00000000000E+00 0.  1.
          2   -1    0    0  502    0  0.00000000000E+00 -0.00000000000E+00 -0.10415391241E+03  0.10415391241E+03  0.00000000000E+00 0. -1.
         24    2    1    2    0    0 -0.59161689660E+00 -0.50169412286E+02  0.11454887323E+03  0.14882477458E+03  0.80684876102E+02 0.  0.
         23    2    1    2    0    0 -0.20538905259E+02  0.33048861977E+02 -0.35499882138E+02  0.10497188696E+03  0.90800779250E+02 0.  0.
        -13    1    3    3    0    0 -0.45999631274E+01 -0.70262637242E+02  0.10448753408E+03  0.12599858186E+03  0.00000000000E+00 0.  1.
         14    1    3    3    0    0  0.40083462308E+01  0.20093224956E+02  0.10061339148E+02  0.22826192719E+02  0.00000000000E+00 0. -1.
        -11    1    4    4    0    0  0.24543311348E+02 -0.17979648877E+02 -0.74021906232E+01  0.31311888026E+02  0.00000000000E+00 0. -1.
         11    1    4    4    0    0 -0.45082216607E+02  0.51028510854E+02 -0.28097691515E+02  0.73659998932E+02  0.00000000000E+00 0.  1.
         21    1    1    2  502  501  0.21130522155E+02  0.17120550309E+02 -0.57608756387E+01  0.27799278724E+02  0.00000000000E+00 0. -1.
<scales pt_clust_5="13000.00000" pt_clust_6="13000.00000" pt_clust_7="13000.00000" pt_clust_8="13000.00000" pt_clust_9="27.19581"></scales>
<clustering>
<clus scale="   27.196">  2  9  1 -1</clus>
<clus scale="   80.685">  5  6 -1 -1</clus>
<clus scale="   90.801">  7  8 -1 -1</clus>
<clus scale="   93.349">  1  5  2 -1</clus>
<clus scale="   27.196">  2  5  1 -1</clus>
</clustering>
</event>
<event>
 9    2  0.2984928E-005  0.9684310E+02  0.7546771E-02  0.1292461E+00
         -1   -1    0    0    0  501 -0.00000000000E+00  0.00000000000E+00  0.40078911033E+03  0.40078911033E+03  0.00000000000E+00 0.  1.
          2   -1    0    0  502    0  0.00000000000E+00 -0.00000000000E+00 -0.35076737857E+02  0.35076737857E+02  0.00000000000E+00 0. -1.
         24    2    1    2    0    0 -0.33249448669E+02  0.17100059940E+02  0.24133337232E+03  0.25761818179E+03  0.82020687065E+02 0.  0.
         23    2    1    2    0    0  0.20772012029E+02  0.61164398017E+01  0.11804083917E+03  0.15113928079E+03  0.91872494061E+02 0.  0.
        -11    1    3    3    0    0 -0.18252852213E+02  0.41590187381E+02  0.21105793053E+03  0.21588969484E+03  0.00000000000E+00 0.  1.
         12    1    3    3    0    0 -0.14996596456E+02 -0.24490127441E+02  0.30275441796E+02  0.41728486952E+02  0.00000000000E+00 0. -1.
        -11    1    4    4    0    0  0.10393825858E+02 -0.42771782118E+02  0.48410575835E+02  0.65429663107E+02  0.00000000000E+00 0.  1.
         11    1    4    4    0    0  0.10378186171E+02  0.48888221920E+02  0.69630263339E+02  0.85709617683E+02  0.00000000000E+00 0. -1.
         21    1    1    2  502  501  0.12477436640E+02 -0.23216499742E+02  0.63381609721E+01  0.27108385601E+02  0.00000000000E+00 0. -1.
<scales pt_clust_5="13000.00000" pt_clust_6="13000.00000" pt_clust_7="13000.00000" pt_clust_8="13000.00000" pt_clust_9="26.35702"></scales>
<clustering>
<clus scale="   26.357">  2  9  1 -1</clus>
<clus scale="   82.021">  5  6 -1 -1</clus>
<clus scale="   87.552">  1  5  2 -1</clus>
<clus scale="   91.872">  7  8 -1 -1</clus>
<clus scale="   26.357">  2  5  1 -1</clus>
</clustering>
</event>
<event>
 9    2  0.2984928E-005  0.1429389E+03  0.7546771E-02  0.1211982E+00
         -1   -1    0    0    0  501 -0.00000000000E+00  0.00000000000E+00  0.68891400770E+02  0.68891400770E+02  0.00000000000E+00 0.  1.
          2   -1    0    0  502    0  0.00000000000E+00 -0.00000000000E+00 -0.41526822758E+03  0.41526822758E+03  0.00000000000E+00 0. -1.
         23    2    1    2    0    0 -0.37051743561E+02  0.10941116461E+03 -0.79731459646E+02  0.16789054228E+03  0.92122168267E+02 0.  0.
         24    2    1    2    0    0 -0.16431338240E+01 -0.10260062581E+03 -0.19150890847E+03  0.23148014576E+03  0.79861176749E+02 0.  0.
        -11    1    4    4    0    0 -0.39268700797E+02 -0.69790383336E+02 -0.11566247932E+03  0.14067884557E+03  0.00000000000E+00 0.  1.
         12    1    4    4    0    0  0.37625566973E+02 -0.32810242475E+02 -0.75846429145E+02  0.90801300185E+02  0.00000000000E+00 0. -1.
        -13    1    3    3    0    0 -0.11751069948E+02  0.43020558282E+02 -0.85682392955E+02  0.96593625785E+02  0.00000000000E+00 0. -1.
         13    1    3    3    0    0 -0.25300673614E+02  0.66390606328E+02  0.59509333090E+01  0.71296916491E+02  0.00000000000E+00 0.  1.
         21    1    1    2  502  501  0.38694877385E+02 -0.68105387991E+01 -0.75136458697E+02  0.84788940317E+02  0.00000000000E+00 0. -1.
<scales pt_clust_5="13000.00000" pt_clust_6="13000.00000" pt_clust_7="13000.00000" pt_clust_8="13000.00000" pt_clust_9="39.28965"></scales>
<clustering>
<clus scale="   39.290">  2  9  1 -1</clus>
<clus scale="   79.861">  5  6 -1 -1</clus>
<clus scale="   92.122">  7  8 -1 -1</clus>
<clus scale="  135.362">  2  5  1 -1</clus>
<clus scale="   39.290">  2  5  1 -1</clus>
</clustering>
</event>
<event>
 9    2  0.2984928E-005  0.1205686E+03  0.7546771E-02  0.1247934E+00
         -1   -1    0    0    0  501 -0.00000000000E+00  0.00000000000E+00  0.21984200157E+03  0.21984200157E+03  0.00000000000E+00 0.  1.
          2   -1    0    0  502    0  0.00000000000E+00 -0.00000000000E+00 -0.11933572179E+03  0.11933572179E+03  0.00000000000E+00 0. -1.
         24    2    1    2    0    0  0.85000238276E+01 -0.76869768348E+02  0.13556504845E+03  0.17772092389E+03  0.85003721892E+02 0.  0.
         23    2    1    2    0    0  0.21641788234E+01  0.35384724702E+02 -0.18297092659E+01  0.10724513602E+03  0.10119984660E+03 0.  0.
        -11    1    3    3    0    0  0.21271268625E+02 -0.54602115987E+02  0.13990967556E+03  0.15168577803E+03  0.00000000000E+00 0.  1.
         12    1    3    3    0    0 -0.12771244798E+02 -0.22267652361E+02 -0.43446271126E+01  0.26035145863E+02  0.00000000000E+00 0. -1.
        -13    1    4    4    0    0 -0.36118636605E+01 -0.33881142910E+02 -0.13715374028E+02  0.36729945394E+02  0.00000000000E+00 0.  1.
         13    1    4    4    0    0  0.57760424839E+01  0.69265867612E+02  0.11885664762E+02  0.70515190630E+02  0.00000000000E+00 0. -1.
         21    1    1    2  502  501 -0.10664202651E+02  0.41485043646E+02 -0.33229059406E+02  0.54211663445E+02  0.00000000000E+00 0. -1.
<scales pt_clust_5="13000.00000" pt_clust_6="13000.00000" pt_clust_7="13000.00000" pt_clust_8="13000.00000" pt_clust_9="42.83380"></scales>
<clustering>
<clus scale="   42.834">  2  9  1 -1</clus>
<clus scale="   85.004">  5  6 -1 -1</clus>
<clus scale="  101.200">  7  8 -1 -1</clus>
<clus scale="  107.336">  1  5  2 -1</clus>
<clus scale="   42.834">  2  5  1 -1</clus>
</clustering>
</event>
<event>
 9    2  0.2984928E-005  0.2095569E+03  0.7546771E-02  0.1167400E+00
          2   -1    0    0  502    0  0.00000000000E+00  0.00000000000E+00  0.15070034592E+04  0.15070034592E+04  0.00000000000E+00 0. -1.
         -1   -1    0    0    0  501 -0.00000000000E+00 -0.00000000000E+00 -0.16790430461E+03  0.16790430461E+03  0.00000000000E+00 0.  1.
         24    2    1    2    0    0  0.28053770464E+02 -0.70754843416E+02 -0.11246626275E+03  0.16094973216E+03  0.86388043859E+02 0.  0.
         23    2    1    2    0    0  0.54502624468E+01  0.21214850921E+03  0.12106713545E+04  0.12326314626E+04  0.92835869375E+02 0.  0.
        -13    1    3    3    0    0  0.24408157746E+02 -0.49443228479E+02 -0.12452946978E+03  0.13619096832E+03  0.00000000000E+00 0.  1.
         14    1    3    3    0    0  0.36456127183E+01 -0.21311614937E+02  0.12063207030E+02  0.24758763846E+02  0.00000000000E+00 0. -1.
        -13    1    4    4    0    0  0.43642213229E+02  0.15673570315E+03  0.91955654749E+03  0.93383883376E+03  0.00000000000E+00 0. -1.
         13    1    4    4    0    0 -0.38191950782E+02  0.55412806055E+02  0.29111480699E+03  0.29879262881E+03  0.00000000000E+00 0.  1.
         21    1    1    2  502  501 -0.33504032911E+02 -0.14139366579E+03  0.24089406291E+03  0.28132656912E+03  0.00000000000E+00 0.  1.
<scales pt_clust_5="13000.00000" pt_clust_6="13000.00000" pt_clust_7="13000.00000" pt_clust_8="13000.00000" pt_clust_9="187.87120"></scales>
<clustering>
<clus scale="   86.388">  5  6 -1 -1</clus>
<clus scale="   92.836">  7  8 -1 -1</clus>
<clus scale="  115.135">  2  5  1 -1</clus>
<clus scale="  187.871">  2  9  1 -1</clus>
<clus scale="  209.557">  1  5  2 -1</clus>
</clustering>
</event>
<event>
 9    2  0.2984928E-005  0.2392110E+03  0.7546771E-02  0.1121043E+00
          2   -1    0    0  502    0  0.00000000000E+00  0.00000000000E+00  0.11903414727E+03  0.11903414727E+03  0.00000000000E+00 0. -1.
         -1   -1    0    0    0  501 -0.00000000000E+00 -0.00000000000E+00 -0.69002087555E+03  0.69002087555E+03  0.00000000000E+00 0.  1.
         23    2    1    2    0    0  0.82428405085E+02 -0.21672126934E+03 -0.44801542239E+03  0.51261505799E+03  0.91070458575E+02 0.  0.
         24    2    1    2    0    0 -0.10285595139E+03  0.19219109926E+03 -0.85373723314E+02  0.24711864989E+03  0.79133994714E+02 0.  0.
        -11    1    4    4    0    0 -0.14333478216E+02  0.11031957186E+03 -0.44162699976E+02  0.11969210752E+03  0.00000000000E+00 0.  1.
         12    1    4    4    0    0 -0.88522473178E+02  0.81871527400E+02 -0.41211023338E+02  0.12742654237E+03  0.00000000000E+00 0. -1.
        -13    1    3    3    0    0  0.40447273927E+02 -0.49918195233E+02 -0.20539514958E+03  0.21520914398E+03  0.00000000000E+00 0.  1.
         13    1    3    3    0    0  0.41981131158E+02 -0.16680307410E+03 -0.24262027281E+03  0.29740591400E+03  0.00000000000E+00 0. -1.
         21    1    1    2  502  501  0.20427546308E+02  0.24530170078E+02 -0.37597582577E+02  0.49321314945E+02  0.00000000000E+00 0. -1.
<scales pt_clust_5="13000.00000" pt_clust_6="13000.00000" pt_clust_7="13000.00000" pt_clust_8="13000.00000" pt_clust_9="31.92200"></scales>
<clustering>
<clus scale="   31.922">  2  9  1 -1</clus>
<clus scale="   79.134">  5  6 -1 -1</clus>
<clus scale="   91.070">  7  8 -1 -1</clus>
<clus scale="  234.926">  1  5  2 -1</clus>
<clus scale="  234.926">  1  5  2 -1</clus>
</clustering>
</event>
<event>
 9    2  0.2984928E-005  0.1143147E+03  0.7546771E-02  0.1255475E+00
         -1   -1    0    0    0  501 -0.00000000000E+00  0.00000000000E+00  0.17875457320E+03  0.17875457320E+03  0.00000000000E+00 0.  1.
          2   -1    0    0  502    0  0.00000000000E+00 -0.00000000000E+00 -0.25166718731E+03  0.25166718731E+03  0.00000000000E+00 0. -1.
         23    2    1    2    0    0 -0.36157104398E+01 -0.74232568060E+02  0.14023106865E+03  0.18143614124E+03  0.87924815675E+02 0.  0.
         24    2    1    2    0    0 -0.17948084062E+02  0.62948606461E+02 -0.15953137074E+03  0.19010773697E+03  0.80037695048E+02 0.  0.
        -13    1    4    4    0    0  0.28165985603E+02  0.25008578581E+02 -0.32534794731E+02  0.49772126897E+02  0.00000000000E+00 0.  1.
         14    1    4    4    0    0 -0.46114069665E+02  0.37940027881E+02 -0.12699657601E+03  0.14033561007E+03  0.00000000000E+00 0. -1.
        -13    1    3    3    0    0  0.23834367107E+02 -0.62846928437E+02  0.43065476823E+02  0.79827619051E+02  0.00000000000E+00 0. -1.
         13    1    3    3    0    0 -0.27450077547E+02 -0.11385639624E+02  0.97165591826E+02  0.10160852219E+03  0.00000000000E+00 0.  1.
         21    1    1    2  502  501  0.21563794502E+02  0.11283961599E+02 -0.53612312026E+02  0.58877882295E+02  0.00000000000E+00 0. -1.
<scales pt_clust_5="13000.00000" pt_clust_6="13000.00000" pt_clust_7="13000.00000" pt_clust_8="13000.00000" pt_clust_9="24.33773"></scales>
<clustering>
<clus scale="   24.338">  2  9  1 -1</clus>
<clus scale="   80.038">  5  6 -1 -1</clus>
<clus scale="   87.925">  7  8 -1 -1</clus>
<clus scale="  108.366">  2  5  1 -1</clus>
<clus scale="   24.338">  2  5  1 -1</clus>
</clustering>
</event>
<event>
 9    2  0.2984928E-005  0.1108669E+03  0.7546771E-02  0.1262705E+00
          2   -1    0    0  502    0  0.00000000000E+00  0.00000000000E+00  0.39359472026E+03  0.39359472026E+03  0.00000000000E+00 0. -1.
         -1   -1    0    0    0  501 -0.00000000000E+00 -0.00000000000E+00 -0.52052687829E+02  0.52052687829E+02  0.00000000000E+00 0.  1.
         23    2    1    2    0    0  0.21727665588E+02 -0.46377571575E+02  0.80069505605E+02  0.13117199578E+03  0.90399093762E+02 0.  0.
         24    2    1    2    0    0 -0.55478880564E+02  0.61331897573E+02  0.11333101806E+03  0.16180359762E+03  0.80603825597E+02 0.  0.
        -13    1    4    4    0    0 -0.62003296584E+02  0.31744770227E+02  0.35287980398E+02  0.78085727151E+02  0.00000000000E+00 0.  1.
         14    1    4    4    0    0  0.65244160200E+01  0.29587127346E+02  0.78043037662E+02  0.83717870473E+02  0.00000000000E+00 0. -1.
        -11    1    3    3    0    0  0.23674822525E+02 -0.23426573687E+02 -0.12655092556E+02  0.35629383153E+02  0.00000000000E+00 0.  1.
         11    1    3    3    0    0 -0.19471569368E+01 -0.22950997888E+02  0.92724598161E+02  0.95542612631E+02  0.00000000000E+00 0. -1.
         21    1    1    2  502  501  0.33751214976E+02 -0.14954325998E+02  0.14814150876E+03  0.15267181468E+03  0.00000000000E+00 0. -1.
<scales pt_clust_5="13000.00000" pt_clust_6="13000.00000" pt_clust_7="13000.00000" pt_clust_8="13000.00000" pt_clust_9="36.91580"></scales>
<clustering>
<clus scale="   36.916">  1  9  2 -1</clus>
<clus scale="   80.604">  5  6 -1 -1</clus>
<clus scale="   90.399">  7  8 -1 -1</clus>
<clus scale="  103.036">  1  5  2 -1</clus>
<clus scale="   36.916">  1  5  2 -1</clus>
</clustering>
</event>
<event>
 9    2  0.2984928E-005  0.1580421E+03  0.7546771E-02  0.1211581E+00
          2   -1    0    0  502    0  0.00000000000E+00  0.00000000000E+00  0.39999714391E+03  0.39999714391E+03  0.00000000000E+00 0. -1.
         -1   -1    0    0    0  501 -0.00000000000E+00 -0.00000000000E+00 -0.14606149369E+03  0.14606149369E+03  0.00000000000E+00 0.  1.
         24    2    1    2    0    0  0.44747210557E+02  0.59767599114E+02 -0.57595783363E+02  0.11627069061E+03  0.68022940824E+02 0.  0.
         23    2    1    2    0    0 -0.14812899470E+03 -0.45625452236E+02  0.24907468296E+03  0.30817939750E+03  0.94405838742E+02 0.  0.
        -11    1    3    3    0    0 -0.69695203887E+00  0.45700712490E+02 -0.60116707380E+01  0.46099686000E+02  0.00000000000E+00 0.  1.
         12    1    3    3    0    0  0.45444162596E+02  0.14066886624E+02 -0.51584112625E+02  0.70171004615E+02  0.00000000000E+00 0. -1.
        -11    1    4    4    0    0 -0.12359421081E+03 -0.65069181564E+02  0.15316412331E+03  0.20728911212E+03  0.00000000000E+00 0.  1.
         11    1    4    4    0    0 -0.24534783886E+02  0.19443729327E+02  0.95910559653E+02  0.10089028538E+03  0.00000000000E+00 0. -1.
         21    1    1    2  502  501  0.10338178414E+03 -0.14142146877E+02  0.62456750620E+02  0.12160854949E+03  0.00000000000E+00 0. -1.
<scales pt_clust_5="13000.00000" pt_clust_6="13000.00000" pt_clust_7="13000.00000" pt_clust_8="13000.00000" pt_clust_9="126.74712"></scales>
<clustering>
<clus scale="   68.023">  5  6 -1 -1</clus>
<clus scale="   94.406">  7  8 -1 -1</clus>
<clus scale="  101.003">  2  5  1 -1</clus>
<clus scale="  126.747">  2  9  1 -1</clus>
<clus scale="  158.042">  1  5  2 -1</clus>
</clustering>
</event>
<event>
 9    2  0.2984928E-005  0.1446198E+03  0.7546771E-02  0.1219020E+00
          2   -1    0    0  502    0  0.00000000000E+00  0.00000000000E+00  0.10982624887E+04  0.10982624887E+04  0.00000000000E+00 0. -1.
         -1   -1    0    0    0  501 -0.00000000000E+00 -0.00000000000E+00 -0.10620602012E+03  0.10620602012E+03  0.00000000000E+00 0.  1.
         24    2    1    2    0    0 -0.50979601879E+02  0.81476387123E+02 -0.33595803161E+02  0.12871547011E+03  0.78750700240E+02 0.  0.
         23    2    1    2    0    0  0.53749808398E+02  0.21935853360E+02  0.18141611774E+03  0.22520236459E+03  0.12014188975E+03 0.  0.
        -13    1    3    3    0    0 -0.67514375695E+02  0.37477272148E+02 -0.22288959500E+02  0.80371229733E+02  0.00000000000E+00 0.  1.
         14    1    3    3    0    0  0.16534773816E+02  0.43999114975E+02 -0.11306843661E+02  0.48344240373E+02  0.00000000000E+00 0. -1.
        -11    1    4    4    0    0 -0.26696850072E+02  0.42611549128E+02  0.72399027084E+02  0.88148085887E+02  0.00000000000E+00 0.  1.
         11    1    4    4    0    0  0.80446658470E+02 -0.20675695768E+02  0.10901709066E+03  0.13705427870E+03  0.00000000000E+00 0. -1.
         21    1    1    2  502  501 -0.27702065189E+01 -0.10341224048E+03  0.84423615403E+03  0.85055067415E+03  0.00000000000E+00 0. -1.
<scales pt_clust_5="13000.00000" pt_clust_6="13000.00000" pt_clust_7="13000.00000" pt_clust_8="13000.00000" pt_clust_9="103.44934"></scales>
<clustering>
<clus scale="   78.751">  5  6 -1 -1</clus>
<clus scale="  103.449">  1  9  2 -1</clus>
<clus scale="  112.617">  2  5  1 -1</clus>
<clus scale="  120.142">  7  8 -1 -1</clus>
<clus scale="  103.449">  1  5  2 -1</clus>
</clustering>
</event>
<event>
 9    2  0.2984928E-005  0.1020058E+03  0.7546771E-02  0.1280794E+00
         -1   -1    0    0    0  501 -0.00000000000E+00  0.00000000000E+00  0.16286861672E+03  0.16286861672E+03  0.00000000000E+00 0.  1.
          2   -1    0    0  502    0  0.00000000000E+00 -0.00000000000E+00 -0.10764974948E+03  0.10764974948E+03  0.00000000000E+00 0. -1.
         24    2    1    2    0    0 -0.10977428392E+02  0.20830296542E+02  0.74557441472E+02  0.11323903702E+03  0.81913748775E+02 0.  0.
         23    2    1    2    0    0  0.37257549538E+02 -0.37431280981E+02 -0.46903759838E+02  0.11573324743E+03  0.91678765696E+02 0.  0.
        -11    1    3    3    0    0  0.11971968516E+02  0.24353097483E+02  0.83924341977E+02  0.88202588191E+02  0.00000000000E+00 0.  1.
         12    1    3    3    0    0 -0.22949396908E+02 -0.35228009409E+01 -0.93669005059E+01  0.25036448830E+02  0.00000000000E+00 0. -1.
        -11    1    4    4    0    0 -0.19906303803E+02 -0.41498514287E+02 -0.86534939483E+01  0.46832366763E+02  0.00000000000E+00 0. -1.
         11    1    4    4    0    0  0.57163853341E+02  0.40672333061E+01 -0.38250265889E+02  0.68900880663E+02  0.00000000000E+00 0.  1.
         21    1    1    2  502  501 -0.26280121146E+02  0.16600984439E+02  0.27565185605E+02  0.41546081755E+02  0.00000000000E+00 0. -1.
<scales pt_clust_5="13000.00000" pt_clust_6="13000.00000" pt_clust_7="13000.00000" pt_clust_8="13000.00000" pt_clust_9="31.08436"></scales>
<clustering>
<clus scale="   31.084">  1  9  2 -1</clus>
<clus scale="   81.914">  5  6 -1 -1</clus>
<clus scale="   91.679">  7  8 -1 -1</clus>
<clus scale="   93.328">  1  5  2 -1</clus>
<clus scale="  102.006">  2  5  1 -1</clus>
</clustering>
</event>
<event>
 9    2  0.2984928E-005  0.1586339E+03  0.7546771E-02  0.1191457E+00
         -1   -1    0    0    0  501 -0.00000000000E+00  0.00000000000E+00  0.18569562432E+03  0.18569562432E+03  0.00000000000E+00 0.  1.
          2   -1    0    0  502    0  0.00000000000E+00 -0.00000000000E+00 -0.36480229588E+03  0.36480229588E+03  0.00000000000E+00 0. -1.
         24    2    1    2    0    0 -0.13436919618E+03  0.74590098864E+01  0.12274018903E+03  0.19879112544E+03  0.79636925114E+02 0.  0.
         23    2    1    2    0    0  0.11806424888E+03  0.19804460847E+02 -0.23817719298E+03  0.28055221152E+03  0.87463047055E+02 0.  0.
        -13    1    3    3    0    0 -0.13401256868E+03 -0.80262306336E+01  0.12463347881E+03  0.18318649782E+03  0.00000000000E+00 0.  1.
         14    1    3    3    0    0 -0.35662749266E+00  0.15485240520E+02 -0.18932897748E+01  0.15604627625E+02  0.00000000000E+00 0. -1.
        -11    1    4    4    0    0  0.12240603114E+03 -0.55407953596E+01 -0.19834147652E+03  0.23313789521E+03  0.00000000000E+00 0. -1.
         11    1    4    4    0    0 -0.43417822667E+01  0.25345256207E+02 -0.39835716461E+02  0.47414316313E+02  0.00000000000E+00 0.  1.
         21    1    1    2  502  501  0.16304947301E+02 -0.27263470734E+02 -0.63669667606E+02  0.71154583239E+02  0.00000000000E+00 0.  1.
<scales pt_clust_5="13000.00000" pt_clust_6="13000.00000" pt_clust_7="13000.00000" pt_clust_8="13000.00000" pt_clust_9="31.76709"></scales>
<clustering>
<clus scale="   31.767">  2  9  1 -1</clus>
<clus scale="   79.637">  5  6 -1 -1</clus>
<clus scale="   87.463">  7  8 -1 -1</clus>
<clus scale="  154.457">  1  5  2 -1</clus>
<clus scale="   31.767">  2  5  1 -1</clus>
</clustering>
</event>
<event>
 9    2  0.2984928E-005  0.9256492E+02  0.7546771E-02  0.1302197E+00
         -1   -1    0    0    0  501 -0.00000000000E+00  0.00000000000E+00  0.71555381509E+02  0.71555381509E+02  0.00000000000E+00 0.  1.
          2   -1    0    0  502    0  0.00000000000E+00 -0.00000000000E+00 -0.35907860457E+03  0.35907860457E+03  0.00000000000E+00 0. -1.
         23    2    1    2    0    0  0.42085436292E+02 -0.78755757009E+01  0.12527365786E+02  0.10036919225E+03  0.89910128566E+02 0.  0.
         24    2    1    2    0    0 -0.15666735821E+02  0.12918846045E+02 -0.28971646919E+03  0.30145201300E+03  0.80779579248E+02 0.  0.
        -11    1    4    4    0    0 -0.41437829894E+02 -0.12213022168E+02 -0.11026061360E+03  0.11842151227E+03  0.00000000000E+00 0.  1.
         12    1    4    4    0    0  0.25771094073E+02  0.25131868212E+02 -0.17945585560E+03  0.18303050073E+03  0.00000000000E+00 0. -1.
        -11    1    3    3    0    0  0.65149722019E+02 -0.25743576515E+02  0.49540181822E+01  0.70226492915E+02  0.00000000000E+00 0. -1.
         11    1    3    3    0    0 -0.23064285728E+02  0.17868000814E+02  0.75733476039E+01  0.30142699334E+02  0.00000000000E+00 0.  1.
         21    1    1    2  502  501 -0.26418700470E+02 -0.50432703439E+01 -0.10334119654E+02  0.28812780833E+02  0.00000000000E+00 0.  1.
<scales pt_clust_5="13000.00000" pt_clust_6="13000.00000" pt_clust_7="13000.00000" pt_clust_8="13000.00000" pt_clust_9="26.89577"></scales>
<clustering>
<clus scale="   26.896">  1  9  2 -1</clus>
<clus scale="   80.780">  5  6 -1 -1</clus>
<clus scale="   83.724">  2  5  1 -1</clus>
<clus scale="   89.910">  7  8 -1 -1</clus>
<clus scale="   83.724">  2  5  1 -1</clus>
</clustering>
</event>
<event>
 9    2  0.2984928E-005  0.1503311E+03  0.7546771E-02  0.1201771E+00
          2   -1    0    0  502    0  0.00000000000E+00  0.00000000000E+00  0.14942845158E+03  0.14942845158E+03  0.00000000000E+00 0. -1.
         -1   -1    0    0    0  501 -0.00000000000E+00 -0.00000000000E+00 -0.30471903280E+03  0.30471903280E+03  0.00000000000E+00 0.  1.
         24    2    1    2    0    0  0.13019716525E+03  0.24232827107E+02 -0.18408952996E+03  0.24080123803E+03  0.80979932384E+02 0.  0.
         23    2    1    2    0    0 -0.94166894120E+02  0.39787276239E+02  0.66234676982E+01  0.13660964471E+03  0.90376398498E+02 0.  0.
        -13    1    3    3    0    0  0.25892763180E+02  0.87466958657E+01 -0.10632153536E+03  0.10977799759E+03  0.00000000000E+00 0.  1.
         14    1    3    3    0    0  0.10430440207E+03  0.15486131241E+02 -0.77767994601E+02  0.13102324045E+03  0.00000000000E+00 0. -1.
        -13    1    4    4    0    0 -0.69691141033E+02 -0.16523376769E+02 -0.11613449941E+02  0.72558592447E+02  0.00000000000E+00 0. -1.
         13    1    4    4    0    0 -0.24475753087E+02  0.56310653009E+02  0.18236917640E+02  0.64051052266E+02  0.00000000000E+00 0.  1.
         21    1    1    2  502  501 -0.36030271134E+02 -0.64020103346E+02  0.22175481038E+02  0.76736601630E+02  0.00000000000E+00 0. -1.
<scales pt_clust_5="13000.00000" pt_clust_6="13000.00000" pt_clust_7="13000.00000" pt_clust_8="13000.00000" pt_clust_9="73.46260"></scales>
<clustering>
<clus scale="   73.463">  1  9  2 -1</clus>
<clus scale="   80.980">  5  6 -1 -1</clus>
<clus scale="   90.376">  7  8 -1 -1</clus>
<clus scale="  144.877">  2  5  1 -1</clus>
<clus scale="   73.463">  1  5  2 -1</clus>
</clustering>
</event>
<event>
 9    2  0.2984928E-005  0.1304019E+03  0.7546771E-02  0.1229951E+00
          4   -1    0    0  502    0  0.00000000000E+00  0.00000000000E+00  0.76077402063E+02  0.76077402063E+02  0.00000000000E+00 0. -1.
         -3   -1    0    0    0  501 -0.00000000000E+00 -0.00000000000E+00 -0.69071990972E+03  0.69071990972E+03  0.00000000000E+00 0.  1.
         24    2    1    2    0    0 -0.69759384481E+02  0.87396852149E+02 -0.54506268454E+03  0.56214136263E+03  0.80031244029E+02 0.  0.
         23    2    1    2    0    0  0.20914807726E+02 -0.34015258263E+02 -0.84140039066E+02  0.13084953254E+03  0.91910755708E+02 0.  0.
        -13    1    3    3    0    0 -0.80544153154E+02  0.69409124783E+02 -0.34577583656E+03  0.36175394450E+03  0.00000000000E+00 0.  1.
         14    1    3    3    0    0  0.10784768673E+02  0.17987727366E+02 -0.19928684797E+03  0.20038741813E+03  0.00000000000E+00 0. -1.
        -11    1    4    4    0    0 -0.21597741654E+02 -0.21437518316E+02  0.54268372014E+01  0.30910842728E+02  0.00000000000E+00 0.  1.
         11    1    4    4    0    0  0.42512549380E+02 -0.12577739947E+02 -0.89566876268E+02  0.99938689812E+02  0.00000000000E+00 0. -1.
         21    1    1    2  502  501  0.48844576756E+02 -0.53381593886E+02  0.14560215946E+02  0.73806416609E+02  0.00000000000E+00 0. -1.
<scales pt_clust_5="13000.00000" pt_clust_6="13000.00000" pt_clust_7="13000.00000" pt_clust_8="13000.00000" pt_clust_9="72.35598"></scales>
<clustering>
<clus scale="   72.356">  1  9  2 -1</clus>
<clus scale="   80.031">  5  6 -1 -1</clus>
<clus scale="   91.911">  7  8 -1 -1</clus>
<clus scale="  122.320">  2  5  1 -1</clus>
<clus scale="   72.356">  1  5  2 -1</clus>
</clustering>
</event>
<event>
 9    2  0.2984928E-005  0.1105058E+03  0.7546771E-02  0.1264374E+00
         -1   -1    0    0    0  501 -0.00000000000E+00  0.00000000000E+00  0.30882446815E+02  0.30882446815E+02  0.00000000000E+00 0.  1.
          2   -1    0    0  502    0  0.00000000000E+00 -0.00000000000E+00 -0.10711879625E+04  0.10711879625E+04  0.00000000000E+00 0. -1.
         23    2    1    2    0    0  0.53886288908E+02  0.33127344966E+02 -0.95545274055E+02  0.14768204089E+03  0.93166156362E+02 0.  0.
         24    2    1    2    0    0 -0.21920903700E+02 -0.26870010737E+02 -0.84108038835E+03  0.84571246466E+03  0.81307009010E+02 0.  0.
        -11    1    4    4    0    0 -0.23201838303E+02  0.68313793325E+01 -0.73211306965E+02  0.77103103127E+02  0.00000000000E+00 0.  1.
         12    1    4    4    0    0  0.12809346026E+01 -0.33701390069E+02 -0.76786908139E+03  0.76860936153E+03  0.00000000000E+00 0. -1.
        -13    1    3    3    0    0 -0.25673298136E+01 -0.27049916820E+02 -0.10340082593E+02  0.29072435232E+02  0.00000000000E+00 0. -1.
         13    1    3    3    0    0  0.56453618721E+02  0.60177261785E+02 -0.85205191462E+02  0.11860960566E+03  0.00000000000E+00 0.  1.
         21    1    1    2  502  501 -0.31965385207E+02 -0.62573342288E+01 -0.10367985330E+03  0.10867590378E+03  0.00000000000E+00 0.  1.
<scales pt_clust_5="13000.00000" pt_clust_6="13000.00000" pt_clust_7="13000.00000" pt_clust_8="13000.00000" pt_clust_9="32.57208"></scales>
<clustering>
<clus scale="   32.572">  2  9  1 -1</clus>
<clus scale="   81.307">  5  6 -1 -1</clus>
<clus scale="   93.166">  7  8 -1 -1</clus>
<clus scale="  100.710">  2  5  1 -1</clus>
<clus scale="   32.572">  2  5  1 -1</clus>
</clustering>
</event>
<event>
 9    2  0.6595210E-005  0.1072844E+03  0.7546771E-02  0.1270783E+00
         -1   -1    0    0    0  501 -0.00000000000E+00  0.00000000000E+00  0.58821462610E+03  0.58821462610E+03  0.00000000000E+00 0.  1.
          2   -1    0    0  502    0  0.00000000000E+00 -0.00000000000E+00 -0.42218461036E+03  0.42218461036E+03  0.00000000000E+00 0. -1.
         23    2    1    2    0    0 -0.50711590795E+02  0.18964656856E+02  0.56848405023E+03  0.57856534235E+03  0.92910797829E+02 0.  0.
         24    2    1    2    0    0  0.65589990383E+01 -0.33883973835E+02 -0.35323655377E+03  0.36405190693E+03  0.81034460983E+02 0.  0.
        -13    1    4    4    0    0 -0.21554339607E+02 -0.35770061627E+02 -0.88931106312E+02  0.98248809329E+02  0.00000000000E+00 0.  1.
         14    1    4    4    0    0  0.28113338645E+02  0.18860877919E+01 -0.26430544746E+03  0.26580309760E+03  0.00000000000E+00 0. -1.
        -13    1    3    3    0    0  0.17767741715E+02 -0.20929466954E+02  0.11697982313E+03  0.12015828832E+03  0.00000000000E+00 0. -1.
         13    1    3    3    0    0 -0.68479332510E+02  0.39894123811E+02  0.45150422710E+03  0.45840705403E+03  0.00000000000E+00 0.  1.
         21    1    1    2  502  501  0.44152591757E+02  0.14919316978E+02 -0.49217480722E+02  0.67781987184E+02  0.00000000000E+00 0. -1.
<scales pt_clust_5="13000.00000" pt_clust_6="13000.00000" pt_clust_7="13000.00000" pt_clust_8="13000.00000" pt_clust_9="46.60512"></scales>
<clustering>
<clus scale="   46.605">  2  9  1 -1</clus>
<clus scale="   81.034">  5  6 -1 -1</clus>
<clus scale="   92.911">  7  8 -1 -1</clus>
<clus scale="   97.181">  2  5  1 -1</clus>
<clus scale="   46.605">  2  5  1 -1</clus>
</clustering>
</event>
<event>
 9    2  0.2984928E-005  0.1498914E+03  0.7546771E-02  0.1220761E+00
          2   -1    0    0  502    0  0.00000000000E+00  0.00000000000E+00  0.64405095687E+03  0.64405095687E+03  0.00000000000E+00 0. -1.
         -1   -1    0    0    0  501 -0.00000000000E+00 -0.00000000000E+00 -0.12221353894E+03  0.12221353894E+03  0.00000000000E+00 0.  1.
         23    2    1    2    0    0  0.38454162756E+02 -0.11431863271E+03 -0.36746835776E+02  0.15551537387E+03  0.91034219669E+02 0.  0.
         24    2    1    2    0    0  0.40797994109E+02  0.28957892300E+02  0.10869861008E+03  0.14602936476E+03  0.83702757951E+02 0.  0.
        -11    1    4    4    0    0  0.44160071376E+02 -0.32443216771E+01  0.10435697155E+03  0.11336231754E+03  0.00000000000E+00 0.  1.
         12    1    4    4    0    0 -0.33620772674E+01  0.32202213977E+02  0.43416385244E+01  0.32667047213E+02  0.00000000000E+00 0. -1.
        -11    1    3    3    0    0  0.63130863157E+02 -0.10848318224E+03 -0.33804931255E+02  0.12998799979E+03  0.00000000000E+00 0.  1.
         11    1    3    3    0    0 -0.24676700402E+02 -0.58354504666E+01 -0.29419045214E+01  0.25527374073E+02  0.00000000000E+00 0. -1.
         21    1    1    2  502  501 -0.79252156865E+02  0.85360740412E+02  0.44988564364E+03  0.46471975719E+03  0.00000000000E+00 0. -1.
<scales pt_clust_5="13000.00000" pt_clust_6="13000.00000" pt_clust_7="13000.00000" pt_clust_8="13000.00000" pt_clust_9="119.08068"></scales>
<clustering>
<clus scale="   83.703">  5  6 -1 -1</clus>
<clus scale="   91.034">  7  8 -1 -1</clus>
<clus scale="   97.515">  1  5  2 -1</clus>
<clus scale="  119.081">  1  9  2 -1</clus>
<clus scale="   97.515">  1  5  2 -1</clus>
</clustering>
</event>
<event>
 9    2  0.2984928E-005  0.1082475E+03  0.7546771E-02  0.1267281E+00
          2   -1    0    0  502    0  0.00000000000E+00  0.00000000000E+00  0.18701448194E+03  0.18701448194E+03  0.00000000000E+00 0. -1.
         -1   -1    0    0    0  501 -0.00000000000E+00 -0.00000000000E+00 -0.14410687756E+03  0.14410687756E+03  0.00000000000E+00 0.  1.
         23    2    1    2    0    0 -0.61473290522E+02 -0.25498721584E+02 -0.93953972818E+02  0.14589465555E+03  0.89603299382E+02 0.  0.
         24    2    1    2    0    0  0.29156836326E+02  0.12611639668E+02  0.11471615734E+03  0.14398534471E+03  0.81011160805E+02 0.  0.
        -11    1    4    4    0    0 -0.12978723301E+02 -0.25434394895E+02  0.25755945269E+02  0.38454185974E+02  0.00000000000E+00 0.  1.
         12    1    4    4    0    0  0.42135559627E+02  0.38046034563E+02  0.88960212074E+02  0.10553115873E+03  0.00000000000E+00 0. -1.
        -11    1    3    3    0    0  0.21254745916E+02 -0.79683728447E+01 -0.51670565746E+01  0.23279984179E+02  0.00000000000E+00 0. -1.
         11    1    3    3    0    0 -0.82728036437E+02 -0.17530348739E+02 -0.88786916243E+02  0.12261467137E+03  0.00000000000E+00 0.  1.
         21    1    1    2  502  501  0.32316454196E+02  0.12887081916E+02  0.22145419851E+02  0.41241359246E+02  0.00000000000E+00 0. -1.
<scales pt_clust_5="13000.00000" pt_clust_6="13000.00000" pt_clust_7="13000.00000" pt_clust_8="13000.00000" pt_clust_9="34.79124"></scales>
<clustering>
<clus scale="   34.791">  1  9  2 -1</clus>
<clus scale="   81.011">  5  6 -1 -1</clus>
<clus scale="   89.603">  7  8 -1 -1</clus>
<clus scale="  101.250">  1  5  2 -1</clus>
<clus scale="   34.791">  1  5  2 -1</clus>
</clustering>
</event>
<event>
 9    2  0.2984928E-005  0.1036106E+03  0.7546771E-02  0.1277772E+00
         -1   -1    0    0    0  501 -0.00000000000E+00  0.00000000000E+00  0.13743865897E+03  0.13743865897E+03  0.00000000000E+00 0.  1.
          2   -1    0    0  502    0  0.00000000000E+00 -0.00000000000E+00 -0.31855325823E+03  0.31855325823E+03  0.00000000000E+00 0. -1.
         24    2    1    2    0    0 -0.28802402104E+02  0.33677207260E+02  0.86730761303E+02  0.12661814131E+03  0.80908566273E+02 0.  0.
         23    2    1    2    0    0  0.44302968083E+02 -0.57888675719E+02 -0.85899837271E+02  0.14517107179E+03  0.91553297512E+02 0.  0.
        -11    1    3    3    0    0 -0.25567321160E+02  0.46321331029E+02  0.96677545324E+02  0.11020844518E+03  0.00000000000E+00 0.  1.
         12    1    3    3    0    0 -0.32350809443E+01 -0.12644123769E+02 -0.99467840207E+01  0.16409696126E+02  0.00000000000E+00 0. -1.
        -11    1    4    4    0    0 -0.23979757589E+02 -0.91322708402E+01 -0.81072101645E+00  0.25672639391E+02  0.00000000000E+00 0.  1.
         11    1    4    4    0    0  0.68282725672E+02 -0.48756404879E+02 -0.85089116254E+02  0.11949843240E+03  0.00000000000E+00 0. -1.
         21    1    1    2  502  501 -0.15500565978E+02  0.24211468459E+02 -0.18194552330E+03  0.18420270410E+03  0.00000000000E+00 0. -1.
<scales pt_clust_5="13000.00000" pt_clust_6="13000.00000" pt_clust_7="13000.00000" pt_clust_8="13000.00000" pt_clust_9="28.74827"></scales>
<clustering>
<clus scale="   28.748">  2  9  1 -1</clus>
<clus scale="   80.909">  5  6 -1 -1</clus>
<clus scale="   91.553">  7  8 -1 -1</clus>
<clus scale="   94.336">  1  5  2 -1</clus>
<clus scale="   28.748">  2  5  1 -1</clus>
</clustering>
</event>
<event>
 9    2  0.2984928E-005  0.9247396E+02  0.7546771E-02  0.1303622E+00
         -1   -1    0    0    0  501 -0.00000000000E+00  0.00000000000E+00  0.14753655524E+02  0.14753655524E+02  0.00000000000E+00 0.  1.
          2   -1    0    0  502    0  0.00000000000E+00 -0.00000000000E+00 -0.74490080945E+03  0.74490080945E+03  0.00000000000E+00 0. -1.
         23    2    1    2    0    0 -0.10517583866E+02  0.10721287397E+02 -0.22284104621E+03  0.24152723520E+03  0.91933170795E+02 0.  0.
         24    2    1    2    0    0 -0.12028884902E+02 -0.81528511884E+01 -0.38548088180E+03  0.39420658667E+03  0.81192115914E+02 0.  0.
        -13    1    4    4    0    0 -0.33467236392E+02  0.18399170988E+02 -0.10639454132E+03  0.11304151373E+03  0.00000000000E+00 0.  1.
         14    1    4    4    0    0  0.21438351490E+02 -0.26552022177E+02 -0.27908634048E+03  0.28116507294E+03  0.00000000000E+00 0. -1.
        -11    1    3    3    0    0  0.36134313769E+02  0.24289279663E+02 -0.12331600133E+03  0.13077650371E+03  0.00000000000E+00 0. -1.
         11    1    3    3    0    0 -0.46651897635E+02 -0.13567992266E+02 -0.99525044881E+02  0.11075073149E+03  0.00000000000E+00 0.  1.
         21    1    1    2  502  501  0.22546468768E+02 -0.25684362087E+01 -0.12182522591E+03  0.12392064311E+03  0.00000000000E+00 0. -1.
<scales pt_clust_5="13000.00000" pt_clust_6="13000.00000" pt_clust_7="13000.00000" pt_clust_8="13000.00000" pt_clust_9="22.69229"></scales>
<clustering>
<clus scale="   22.692">  2  9  1 -1</clus>
<clus scale="   81.192">  5  6 -1 -1</clus>
<clus scale="   81.804">  2  5  1 -1</clus>
<clus scale="   91.933">  7  8 -1 -1</clus>
<clus scale="   22.692">  2  5  1 -1</clus>
</clustering>
</event>
<event>
 9    2  0.2984928E-005  0.1591640E+03  0.7546771E-02  0.1191516E+00
          2   -1    0    0  502    0  0.00000000000E+00  0.00000000000E+00  0.15319273177E+03  0.15319273177E+03  0.00000000000E+00 0. -1.
         -1   -1    0    0    0  501 -0.00000000000E+00 -0.00000000000E+00 -0.36988769705E+03  0.36988769705E+03  0.00000000000E+00 0.  1.
         23    2    1    2    0    0  0.44469999757E+02 -0.13994969059E+03 -0.26035241924E+03  0.31404133797E+03  0.96307232206E+02 0.  0.
         24    2    1    2    0    0 -0.36800694289E+02  0.51956967838E+02  0.55370689934E+02  0.11993949825E+03  0.85239382504E+02 0.  0.
        -11    1    4    4    0    0  0.22298376187E+01  0.41785615074E+02 -0.10095508134E+02  0.43045662818E+02  0.00000000000E+00 0.  1.
         12    1    4    4    0    0 -0.39030531908E+02  0.10171352764E+02  0.65466198068E+02  0.76893835433E+02  0.00000000000E+00 0. -1.
        -11    1    3    3    0    0  0.34118567650E+02 -0.93351679142E+02 -0.80320794265E+02  0.12778905528E+03  0.00000000000E+00 0. -1.
         11    1    3    3    0    0  0.10351432107E+02 -0.46598011449E+02 -0.18003162497E+03  0.18625228269E+03  0.00000000000E+00 0.  1.
         21    1    1    2  502  501 -0.76693054677E+01  0.87992722753E+02 -0.11713235978E+02  0.89099592597E+02  0.00000000000E+00 0.  1.
<scales pt_clust_5="13000.00000" pt_clust_6="13000.00000" pt_clust_7="13000.00000" pt_clust_8="13000.00000" pt_clust_9="88.32631"></scales>
<clustering>
<clus scale="   85.239">  5  6 -1 -1</clus>
<clus scale="   88.326">  1  9  2 -1</clus>
<clus scale="   96.307">  7  8 -1 -1</clus>
<clus scale="  152.721">  1  5  2 -1</clus>
<clus scale="   88.326">  1  5  2 -1</clus>
</clustering>
</event>
<event>
 9    2  0.2984928E-005  0.2667903E+03  0.7546771E-02  0.1115722E+00
         -3   -1    0    0    0  501 -0.00000000000E+00  0.00000000000E+00  0.17202720253E+03  0.17202720253E+03  0.00000000000E+00 0.  1.
          4   -1    0    0  502    0  0.00000000000E+00 -0.00000000000E+00 -0.11374827390E+04  0.11374827390E+04  0.00000000000E+00 0. -1.
         23    2    1    2    0    0 -0.12249635463E+03  0.11745374234E+03  0.67174802931E+01  0.19363978455E+03  0.93008081004E+02 0.  0.
         24    2    1    2    0    0 -0.19279223184E+03 -0.58894207488E+02 -0.29531888562E+03  0.36689243586E+03  0.82215831517E+02 0.  0.
        -11    1    4    4    0    0 -0.19503183182E+03 -0.45775741286E+02 -0.25406906407E+03  0.32354895029E+03  0.00000000000E+00 0.  1.
         12    1    4    4    0    0  0.22395999814E+01 -0.13118466202E+02 -0.41249821550E+02  0.43343485571E+02  0.00000000000E+00 0. -1.
        -11    1    3    3    0    0 -0.13935315327E+02  0.65857182370E+02 -0.20559444500E+02  0.70385028530E+02  0.00000000000E+00 0. -1.
         11    1    3    3    0    0 -0.10856103931E+03  0.51596559966E+02  0.27276924793E+02  0.12325475602E+03  0.00000000000E+00 0.  1.
         21    1    1    2  502  501  0.31528858647E+03 -0.58559534848E+02 -0.67685413110E+03  0.74897772107E+03  0.00000000000E+00 0. -1.
<scales pt_clust_5="13000.00000" pt_clust_6="13000.00000" pt_clust_7="13000.00000" pt_clust_8="13000.00000" pt_clust_9="253.80627"></scales>
<clustering>
<clus scale="   82.216">  5  6 -1 -1</clus>
<clus scale="   93.008">  7  8 -1 -1</clus>
<clus scale="  193.523">  1  7  2 -1</clus>
<clus scale="  253.806">  1  9  2 -1</clus>
<clus scale="  266.790">  2  5  1 -1</clus>
</clustering>
</event>
<event>
 9    2  0.4725428E-005  0.3750089E+03  0.7546771E-02  0.1053412E+00
         -1   -1    0    0    0  501 -0.00000000000E+00  0.00000000000E+00  0.26349229699E+03  0.26349229699E+03  0.00000000000E+00 0.  1.
          2   -1    0    0  502    0  0.00000000000E+00 -0.00000000000E+00 -0.86533782030E+03  0.86533782030E+03  0.00000000000E+00 0. -1.
         23    2    1    2    0    0  0.35085534841E+03  0.92642166841E+02  0.41321020116E+02  0.38130198507E+03  0.10955240996E+03 0.  0.
         24    2    1    2    0    0 -0.32682498584E+03 -0.10207100631E+03 -0.61749828137E+03  0.71112454702E+03  0.84622291328E+02 0.  0.
        -11    1    4    4    0    0 -0.15611698174E+03 -0.61292141358E+01 -0.25294117659E+03  0.29730341079E+03  0.00000000000E+00 0.  1.
         12    1    4    4    0    0 -0.17070800411E+03 -0.95941792172E+02 -0.36455710477E+03  0.41382113623E+03  0.00000000000E+00 0. -1.
        -11    1    3    3    0    0  0.28294287713E+03  0.78780692226E+02  0.76596246935E+02  0.30352933010E+03  0.00000000000E+00 0.  1.
         11    1    3    3    0    0  0.67912471281E+02  0.13861474616E+02 -0.35275226819E+02  0.77772654970E+02  0.00000000000E+00 0. -1.
         21    1    1    2  502  501 -0.24030362563E+02  0.94288394665E+01 -0.25668262061E+02  0.36403585205E+02  0.00000000000E+00 0.  1.
<scales pt_clust_5="13000.00000" pt_clust_6="13000.00000" pt_clust_7="13000.00000" pt_clust_8="13000.00000" pt_clust_9="25.81398"></scales>
<clustering>
<clus scale="   25.814">  2  9  1 -1</clus>
<clus scale="   84.622">  5  6 -1 -1</clus>
<clus scale="  109.552">  7  8 -1 -1</clus>
<clus scale="  368.498">  2  5  1 -1</clus>
<clus scale="   25.814">  2  5  1 -1</clus>
</clustering>
</event>
<event>
 9    2  0.2984928E-005  0.1235357E+03  0.7546771E-02  0.1240122E+00
          2   -1    0    0  502    0  0.00000000000E+00  0.00000000000E+00  0.27400318515E+03  0.27400318515E+03  0.00000000000E+00 0. -1.
         -1   -1    0    0    0  501 -0.00000000000E+00 -0.00000000000E+00 -0.23763684191E+03  0.23763684191E+03  0.00000000000E+00 0.  1.
         24    2    1    2    0    0  0.80502082322E+02 -0.19040510879E+02 -0.19939137464E+03  0.23136258724E+03  0.83238213452E+02 0.  0.
         23    2    1    2    0    0 -0.66368855021E+02  0.38314477513E+02  0.15503029293E+03  0.19608628208E+03  0.92426263521E+02 0.  0.
        -13    1    3    3    0    0  0.19814095626E+02  0.25935504531E+02 -0.10784469306E+03  0.11267531496E+03  0.00000000000E+00 0.  1.
         14    1    3    3    0    0  0.60687986697E+02 -0.44976015410E+02 -0.91546681588E+02  0.11868727228E+03  0.00000000000E+00 0. -1.
        -11    1    4    4    0    0 -0.35895837081E+02 -0.22210785727E+02  0.23966528708E+02  0.48540958176E+02  0.00000000000E+00 0. -1.
         11    1    4    4    0    0 -0.30473017940E+02  0.60525263240E+02  0.13106376422E+03  0.14754532390E+03  0.00000000000E+00 0.  1.
         21    1    1    2  502  501 -0.14133227302E+02 -0.19273966634E+02  0.80727424955E+02  0.84191157752E+02  0.00000000000E+00 0. -1.
<scales pt_clust_5="13000.00000" pt_clust_6="13000.00000" pt_clust_7="13000.00000" pt_clust_8="13000.00000" pt_clust_9="23.90050"></scales>
<clustering>
<clus scale="   23.901">  1  9  2 -1</clus>
<clus scale="   83.238">  5  6 -1 -1</clus>
<clus scale="   92.426">  7  8 -1 -1</clus>
<clus scale="  116.821">  2  5  1 -1</clus>
<clus scale="   23.901">  1  5  2 -1</clus>
</clustering>
</event>
<event>
 9    2  0.2984928E-005  0.2121487E+03  0.7546771E-02  0.1172938E+00
          2   -1    0    0  502    0  0.00000000000E+00  0.00000000000E+00  0.28775734001E+04  0.28775734001E+04  0.00000000000E+00 0. -1.
         -1   -1    0    0    0  501 -0.00000000000E+00 -0.00000000000E+00 -0.33665702465E+02  0.33665702465E+02  0.00000000000E+00 0.  1.
         23    2    1    2    0    0 -0.42903357402E+02 -0.35420252929E+02  0.11607306796E+03  0.15176122812E+03  0.80394159365E+02 0.  0.
         24    2    1    2    0    0  0.12267729067E+03  0.18294671273E+03  0.19326777963E+04  0.19468264569E+04  0.79815860897E+02 0.  0.
        -13    1    4    4    0    0  0.39877878304E+02  0.51551016862E+02  0.31263246332E+03  0.31935373747E+03  0.00000000000E+00 0.  1.
         14    1    4    4    0    0  0.82799412366E+02  0.13139569587E+03  0.16200453329E+04  0.16274727194E+04  0.00000000000E+00 0. -1.
        -13    1    3    3    0    0  0.11551475405E+01  0.21398512510E+02  0.48796261439E+02  0.53294519736E+02  0.00000000000E+00 0. -1.
         13    1    3    3    0    0 -0.44058504942E+02 -0.56818765439E+02  0.67276806525E+02  0.98466708384E+02  0.00000000000E+00 0.  1.
         21    1    1    2  502  501 -0.79773933269E+02 -0.14752645980E+03  0.79515683337E+03  0.81265141754E+03  0.00000000000E+00 0.  1.
<scales pt_clust_5="13000.00000" pt_clust_6="13000.00000" pt_clust_7="13000.00000" pt_clust_8="13000.00000" pt_clust_9="196.56165"></scales>
<clustering>
<clus scale="   79.816">  5  6 -1 -1</clus>
<clus scale="   80.394">  7  8 -1 -1</clus>
<clus scale="   97.768">  2  7  1 -1</clus>
<clus scale="  196.562">  2  9  1 -1</clus>
<clus scale="  212.149">  1  5  2 -1</clus>
</clustering>
</event>
<event>
 9    2  0.2984928E-005  0.1432577E+03  0.7546771E-02  0.1213109E+00
          2   -1    0    0  502    0  0.00000000000E+00  0.00000000000E+00  0.16567646329E+03  0.16567646329E+03  0.00000000000E+00 0. -1.
         -1   -1    0    0    0  501 -0.00000000000E+00 -0.00000000000E+00 -0.26268581311E+03  0.26268581311E+03  0.00000000000E+00 0.  1.
         23    2    1    2    0    0 -0.29552980487E+02  0.97740075181E+02 -0.17650212279E+03  0.22634254657E+03  0.98241783813E+02 0.  0.
         24    2    1    2    0    0  0.69070443021E+01 -0.11357101220E+03  0.25368413576E+02  0.14125046727E+03  0.79762497598E+02 0.  0.
        -11    1    4    4    0    0 -0.26247080994E+02 -0.55180688805E+02 -0.14979352632E+02  0.62914216859E+02  0.00000000000E+00 0.  1.
         12    1    4    4    0    0  0.33154125297E+02 -0.58390323399E+02  0.40347766207E+02  0.78336250413E+02  0.00000000000E+00 0. -1.
        -13    1    3    3    0    0 -0.51183468119E+02  0.57609590728E+02 -0.16047395995E+03  0.17801826922E+03  0.00000000000E+00 0.  1.
         13    1    3    3    0    0  0.21630487632E+02  0.40130484453E+02 -0.16028162835E+02  0.48324277351E+02  0.00000000000E+00 0. -1.
         21    1    1    2  502  501  0.22645936184E+02  0.15830937023E+02  0.54124359394E+02  0.60769262563E+02  0.00000000000E+00 0. -1.
<scales pt_clust_5="13000.00000" pt_clust_6="13000.00000" pt_clust_7="13000.00000" pt_clust_8="13000.00000" pt_clust_9="27.63073"></scales>
<clustering>
<clus scale="   27.631">  1  9  2 -1</clus>
<clus scale="   79.762">  5  6 -1 -1</clus>
<clus scale="   98.242">  7  8 -1 -1</clus>
<clus scale="  131.276">  1  5  2 -1</clus>
<clus scale="   27.631">  1  5  2 -1</clus>
</clustering>
</event>
<event>
 9    2  0.2984928E-005  0.1029652E+03  0.7546771E-02  0.1278590E+00
         -1   -1    0    0    0  501 -0.00000000000E+00  0.00000000000E+00  0.13612162698E+03  0.13612162698E+03  0.00000000000E+00 0.  1.
          2   -1    0    0  502    0  0.00000000000E+00 -0.00000000000E+00 -0.18527289758E+03  0.18527289758E+03  0.00000000000E+00 0. -1.
         24    2    1    2    0    0 -0.25679993735E+02 -0.12601918646E+02  0.85148232331E+02  0.12007751335E+03  0.79687623334E+02 0.  0.
         23    2    1    2    0    0  0.49122313495E+02  0.24457078157E+02 -0.13948677966E+03  0.17454024884E+03  0.89423634512E+02 0.  0.
        -11    1    3    3    0    0 -0.33514898745E+02 -0.42090348070E+02  0.59488770378E+02  0.80210720229E+02  0.00000000000E+00 0.  1.
         12    1    3    3    0    0  0.78349050099E+01  0.29488429424E+02  0.25659461953E+02  0.39866793126E+02  0.00000000000E+00 0. -1.
        -13    1    4    4    0    0  0.25769434141E+02  0.48566113742E+02 -0.12758646263E+03  0.13892817060E+03  0.00000000000E+00 0. -1.
         13    1    4    4    0    0  0.23352879354E+02 -0.24109035585E+02 -0.11900317030E+02  0.35612078238E+02  0.00000000000E+00 0.  1.
         21    1    1    2  502  501 -0.23442319760E+02 -0.11855159512E+02  0.51872767366E+01  0.26776762364E+02  0.00000000000E+00 0.  1.
<scales pt_clust_5="13000.00000" pt_clust_6="13000.00000" pt_clust_7="13000.00000" pt_clust_8="13000.00000" pt_clust_9="26.26951"></scales>
<clustering>
<clus scale="   26.270">  1  9  2 -1</clus>
<clus scale="   79.688">  5  6 -1 -1</clus>
<clus scale="   89.424">  7  8 -1 -1</clus>
<clus scale="   94.633">  1  5  2 -1</clus>
<clus scale="  102.965">  2  5  1 -1</clus>
</clustering>
</event>
<event>
 9    2  0.2984928E-005  0.9564131E+02  0.7546771E-02  0.1296158E+00
          2   -1    0    0  502    0  0.00000000000E+00  0.00000000000E+00  0.31069570372E+02  0.31069570372E+02  0.00000000000E+00 0. -1.
         -1   -1    0    0    0  501 -0.00000000000E+00 -0.00000000000E+00 -0.48824151376E+03  0.48824151376E+03  0.00000000000E+00 0.  1.
         23    2    1    2    0    0 -0.14749496101E+02  0.27720121620E+02 -0.32506889431E+03  0.33930343511E+03  0.92038482446E+02 0.  0.
         24    2    1    2    0    0  0.28218187930E+02  0.57021809217E+01 -0.85414098773E+02  0.12103041572E+03  0.80771357943E+02 0.  0.
        -13    1    4    4    0    0  0.36185496738E+02  0.17918969677E+02 -0.66449291526E+01  0.40922301156E+02  0.00000000000E+00 0.  1.
         14    1    4    4    0    0 -0.79673088078E+01 -0.12216788755E+02 -0.78769169620E+02  0.80108114569E+02  0.00000000000E+00 0. -1.
        -13    1    3    3    0    0 -0.41217600468E+02 -0.61153841744E+01 -0.24423174669E+03  0.24776084154E+03  0.00000000000E+00 0.  1.
         13    1    3    3    0    0  0.26468104367E+02  0.33835505794E+02 -0.80837147626E+02  0.91542593570E+02  0.00000000000E+00 0. -1.
         21    1    1    2  502  501 -0.13468691829E+02 -0.33422302541E+02 -0.46688950301E+02  0.58977233294E+02  0.00000000000E+00 0. -1.
<scales pt_clust_5="13000.00000" pt_clust_6="13000.00000" pt_clust_7="13000.00000" pt_clust_8="13000.00000" pt_clust_9="36.03409"></scales>
<clustering>
<clus scale="   36.034">  1  9  2 -1</clus>
<clus scale="   80.771">  5  6 -1 -1</clus>
<clus scale="   84.854">  1  5  2 -1</clus>
<clus scale="   92.038">  7  8 -1 -1</clus>
<clus scale="   36.034">  1  5  2 -1</clus>
</clustering>
</event>
<event>
 9    2  0.2984928E-005  0.1241052E+03  0.7546771E-02  0.1247849E+00
          2   -1    0    0  502    0  0.00000000000E+00  0.00000000000E+00  0.67969582097E+03  0.67969582097E+03  0.00000000000E+00 0. -1.
         -1   -1    0    0    0  501 -0.00000000000E+00 -0.00000000000E+00 -0.52009050424E+02  0.52009050424E+02  0.00000000000E+00 0.  1.
         24    2    1    2    0    0 -0.74088090316E+01 -0.93767649356E+02  0.77459595876E+02  0.14550165982E+03  0.79520321309E+02 0.  0.
         23    2    1    2    0    0 -0.32785346302E+02 -0.66920058775E+00  0.24084546245E+03  0.26024166076E+03  0.92972353156E+02 0.  0.
        -11    1    3    3    0    0  0.15211726621E+01 -0.10700184625E+03  0.70046921330E+02  0.12789949279E+03  0.00000000000E+00 0.  1.
         12    1    3    3    0    0 -0.89299816937E+01  0.13234196894E+02  0.74126745462E+01  0.17602167037E+02  0.00000000000E+00 0. -1.
        -13    1    4    4    0    0 -0.76641750119E+01  0.37565678431E+02  0.44972365253E+02  0.59096813882E+02  0.00000000000E+00 0. -1.
         13    1    4    4    0    0 -0.25121171291E+02 -0.38234879019E+02  0.19587309719E+03  0.20114484688E+03  0.00000000000E+00 0.  1.
         21    1    1    2  502  501  0.40194155334E+02  0.94436849943E+02  0.30938171223E+03  0.32596155082E+03  0.00000000000E+00 0. -1.
<scales pt_clust_5="13000.00000" pt_clust_6="13000.00000" pt_clust_7="13000.00000" pt_clust_8="13000.00000" pt_clust_9="95.28181"></scales>
<clustering>
<clus scale="   79.520">  5  6 -1 -1</clus>
<clus scale="   92.972">  7  8 -1 -1</clus>
<clus scale="   98.586">  1  7  2 -1</clus>
<clus scale="   95.282">  1  9  2 -1</clus>
<clus scale="   98.586">  1  5  2 -1</clus>
</clustering>
</event>
<event>
 9    2  0.2984928E-005  0.1579811E+03  0.7546771E-02  0.1196215E+00
         -1   -1    0    0    0  501 -0.00000000000E+00  0.00000000000E+00  0.36236742841E+03  0.36236742841E+03  0.00000000000E+00 0.  1.
          2   -1    0    0  502    0  0.00000000000E+00 -0.00000000000E+00 -0.95508023583E+02  0.95508023583E+02  0.00000000000E+00 0. -1.
         23    2    1    2    0    0 -0.47955021872E+02  0.10376520109E+03  0.22920019039E+03  0.27747738813E+03  0.10674302117E+03 0.  0.
         24    2    1    2    0    0  0.76450607680E+02 -0.97786428224E+02  0.30057681463E+02  0.15030608089E+03  0.79256373731E+02 0.  0.
        -11    1    4    4    0    0  0.71208277675E+02 -0.10440708676E+03  0.44157609864E+02  0.13387065804E+03  0.00000000000E+00 0.  1.
         12    1    4    4    0    0  0.52423300046E+01  0.66206585333E+01 -0.14099928401E+02  0.16435422848E+02  0.00000000000E+00 0. -1.
        -13    1    3    3    0    0 -0.70740959449E+02  0.35207934537E+02  0.15463328859E+03  0.17365291802E+03  0.00000000000E+00 0.  1.
         13    1    3    3    0    0  0.22785937577E+02  0.68557266557E+02  0.74566901802E+02  0.10382447011E+03  0.00000000000E+00 0. -1.
         21    1    1    2  502  501 -0.28495585808E+02 -0.59787728694E+01  0.76015329685E+01  0.30091982970E+02  0.00000000000E+00 0.  1.
<scales pt_clust_5="13000.00000" pt_clust_6="13000.00000" pt_clust_7="13000.00000" pt_clust_8="13000.00000" pt_clust_9="29.11605"></scales>
<clustering>
<clus scale="   29.116">  2  9  1 -1</clus>
<clus scale="   79.256">  5  6 -1 -1</clus>
<clus scale="  106.743">  7  8 -1 -1</clus>
<clus scale="  140.874">  2  5  1 -1</clus>
<clus scale="   29.116">  2  5  1 -1</clus>
</clustering>
</event>
<event>
 9    2  0.2984928E-005  0.1679934E+03  0.7546771E-02  0.1200250E+00
          2   -1    0    0  502    0  0.00000000000E+00  0.00000000000E+00  0.14214652914E+03  0.14214652914E+03  0.00000000000E+00 0. -1.
         -1   -1    0    0    0  501 -0.00000000000E+00 -0.00000000000E+00 -0.33939772683E+03  0.33939772683E+03  0.00000000000E+00 0.  1.
         24    2    1    2    0    0  0.66071572551E+02  0.28056830453E+02 -0.77961717329E+02  0.13262960170E+03  0.79749253565E+02 0.  0.
         23    2    1    2    0    0 -0.31967785631E+01  0.10472573447E+03 -0.13701599720E+03  0.20093263285E+03  0.10306716549E+03 0.  0.
        -13    1    3    3    0    0  0.81271909137E+02  0.36631907075E+02 -0.59237674455E+02  0.10703327476E+03  0.00000000000E+00 0.  1.
         14    1    3    3    0    0 -0.15200336586E+02 -0.85750766226E+01 -0.18724042874E+02  0.25596326943E+02  0.00000000000E+00 0. -1.
        -11    1    4    4    0    0 -0.44601813572E+02  0.74510824538E+02 -0.50734555304E+02  0.10057425043E+03  0.00000000000E+00 0.  1.
         11    1    4    4    0    0  0.41405035009E+02  0.30214909928E+02 -0.86281441897E+02  0.10035838242E+03  0.00000000000E+00 0. -1.
         21    1    1    2  502  501 -0.62874793988E+02 -0.13278256492E+03  0.17726516843E+02  0.14798202142E+03  0.00000000000E+00 0. -1.
<scales pt_clust_5="13000.00000" pt_clust_6="13000.00000" pt_clust_7="13000.00000" pt_clust_8="13000.00000" pt_clust_9="132.66102"></scales>
<clustering>
<clus scale="   79.749">  5  6 -1 -1</clus>
<clus scale="  103.067">  7  8 -1 -1</clus>
<clus scale="  107.297">  2  5  1 -1</clus>
<clus scale="  132.661">  1  9  2 -1</clus>
<clus scale="  132.661">  1  5  2 -1</clus>
</clustering>
</event>
<event>
 9    2  0.2984928E-005  0.1157731E+03  0.7546771E-02  0.1252766E+00
         -1   -1    0    0    0  501 -0.00000000000E+00  0.00000000000E+00  0.11832287144E+03  0.11832287144E+03  0.00000000000E+00 0.  1.
          2   -1    0    0  502    0  0.00000000000E+00 -0.00000000000E+00 -0.29648827068E+03  0.29648827068E+03  0.00000000000E+00 0. -1.
         23    2    1    2    0    0 -0.20591787803E+02  0.74112476656E+02  0.70008106917E+02  0.13635689588E+03  0.88178155452E+02 0.  0.
         24    2    1    2    0    0  0.32878626899E+02 -0.56343817008E+02 -0.19068292951E+03  0.21703879148E+03  0.80561948702E+02 0.  0.
        -13    1    4    4    0    0  0.35217087091E+02 -0.36267561196E+02 -0.38563364458E+02  0.63582326921E+02  0.00000000000E+00 0.  1.
         14    1    4    4    0    0 -0.23384601921E+01 -0.20076255811E+02 -0.15211956505E+03  0.15345646456E+03  0.00000000000E+00 0. -1.
        -13    1    3    3    0    0 -0.44365786831E+01 -0.20440103084E+02  0.15454417823E+02  0.26006154555E+02  0.00000000000E+00 0. -1.
         13    1    3    3    0    0 -0.16155209120E+02  0.94552579740E+02  0.54553689094E+02  0.11035074132E+03  0.00000000000E+00 0.  1.
         21    1    1    2  502  501 -0.12286839096E+02 -0.17768659648E+02 -0.57490576647E+02  0.61415454764E+02  0.00000000000E+00 0.  1.
<scales pt_clust_5="13000.00000" pt_clust_6="13000.00000" pt_clust_7="13000.00000" pt_clust_8="13000.00000" pt_clust_9="21.60305"></scales>
<clustering>
<clus scale="   21.603">  2  9  1 -1</clus>
<clus scale="   80.562">  5  6 -1 -1</clus>
<clus scale="   88.178">  7  8 -1 -1</clus>
<clus scale="  110.083">  2  5  1 -1</clus>
<clus scale="   21.603">  2  5  1 -1</clus>
</clustering>
</event>
<event>
 9    2  0.2984928E-005  0.1025783E+03  0.7546771E-02  0.1283526E+00
         -1   -1    0    0    0  501 -0.00000000000E+00  0.00000000000E+00  0.45889134850E+03  0.45889134850E+03  0.00000000000E+00 0.  1.
          2   -1    0    0  502    0  0.00000000000E+00 -0.00000000000E+00 -0.44870398023E+02  0.44870398023E+02  0.00000000000E+00 0. -1.
         23    2    1    2    0    0  0.34420998939E+02  0.35183227467E+02  0.29696650297E+03  0.31446777728E+03  0.90984693204E+02 0.  0.
         24    2    1    2    0    0 -0.55107968719E+01 -0.50938675633E+02  0.12668028440E+03  0.15499104421E+03  0.73138305763E+02 0.  0.
        -13    1    4    4    0    0 -0.38258898036E+02 -0.30507077516E+02  0.85762599096E+02  0.98740308189E+02  0.00000000000E+00 0.  1.
         14    1    4    4    0    0  0.32748101164E+02 -0.20431598117E+02  0.40917685308E+02  0.56250736017E+02  0.00000000000E+00 0. -1.
        -11    1    3    3    0    0  0.51266818297E+02 -0.10839938454E+02  0.12223389175E+03  0.13299216224E+03  0.00000000000E+00 0. -1.
         11    1    3    3    0    0 -0.16845819358E+02  0.46023165921E+02  0.17473261121E+03  0.18147561504E+03  0.00000000000E+00 0.  1.
         21    1    1    2  502  501 -0.28910202068E+02  0.15755448165E+02 -0.96258368935E+01  0.34302925041E+02  0.00000000000E+00 0.  1.
<scales pt_clust_5="13000.00000" pt_clust_6="13000.00000" pt_clust_7="13000.00000" pt_clust_8="13000.00000" pt_clust_9="32.92467"></scales>
<clustering>
<clus scale="   32.925">  2  9  1 -1</clus>
<clus scale="   73.138">  5  6 -1 -1</clus>
<clus scale="   87.140">  2  5  1 -1</clus>
<clus scale="   90.985">  7  8 -1 -1</clus>
<clus scale="   32.925">  2  5  1 -1</clus>
</clustering>
</event>
<event>
 9    2  0.2984928E-005  0.9645582E+02  0.7546771E-02  0.1290457E+00
         -1   -1    0    0    0  501 -0.00000000000E+00  0.00000000000E+00  0.99827972062E+02  0.99827972062E+02  0.00000000000E+00 0.  1.
          2   -1    0    0  502    0  0.00000000000E+00 -0.00000000000E+00 -0.21673392247E+03  0.21673392247E+03  0.00000000000E+00 0. -1.
         24    2    1    2    0    0  0.38882278878E+02 -0.37698238175E+01  0.54502892841E+02  0.10824633833E+03  0.84974474112E+02 0.  0.
         23    2    1    2    0    0 -0.17314884461E+02  0.67904119395E+00 -0.10937210280E+03  0.14256403451E+03  0.89788533485E+02 0.  0.
        -11    1    3    3    0    0  0.51376713766E+02  0.25976908617E+02  0.19844769147E+02  0.60894838543E+02  0.00000000000E+00 0.  1.
         12    1    3    3    0    0 -0.12494434888E+02 -0.29746732434E+02  0.34658123694E+02  0.47351499783E+02  0.00000000000E+00 0. -1.
        -11    1    4    4    0    0 -0.23496237217E+02 -0.36027714208E+02 -0.23596592404E+02  0.49059846387E+02  0.00000000000E+00 0. -1.
         11    1    4    4    0    0  0.61813527553E+01  0.36706755402E+02 -0.85775510392E+02  0.93504188126E+02  0.00000000000E+00 0.  1.
         21    1    1    2  502  501 -0.21567394417E+02  0.30907826236E+01 -0.62036740449E+02  0.65751521691E+02  0.00000000000E+00 0. -1.
<scales pt_clust_5="13000.00000" pt_clust_6="13000.00000" pt_clust_7="13000.00000" pt_clust_8="13000.00000" pt_clust_9="21.78774"></scales>
<clustering>
<clus scale="   21.788">  2  9  1 -1</clus>
<clus scale="   84.974">  5  6 -1 -1</clus>
<clus scale="   89.789">  7  8 -1 -1</clus>
<clus scale="   91.991">  1  5  2 -1</clus>
<clus scale="   21.788">  2  5  1 -1</clus>
</clustering>
</event>
<event>
 9    2  0.3143332E-005  0.9137162E+02  0.7546771E-02  0.1309437E+00
         -1   -1    0    0    0  501 -0.00000000000E+00  0.00000000000E+00  0.82594796118E+02  0.82594796118E+02  0.00000000000E+00 0.  1.
          2   -1    0    0  502    0  0.00000000000E+00 -0.00000000000E+00 -0.54409311796E+03  0.54409311796E+03  0.00000000000E+00 0. -1.
         23    2    1    2    0    0  0.63448565018E+01  0.47279526890E+01  0.50630462768E+02  0.10436409997E+03  0.90916504895E+02 0.  0.
         24    2    1    2    0    0 -0.24384740129E+02 -0.15049527526E+02 -0.43347230623E+03  0.44096772091E+03  0.75717810260E+02 0.  0.
        -13    1    4    4    0    0  0.26039024497E+02 -0.15357267519E+02 -0.18134619344E+03  0.18384862887E+03  0.00000000000E+00 0.  1.
         14    1    4    4    0    0 -0.50423764626E+02  0.30773999313E+00 -0.25212611278E+03  0.25711909204E+03  0.00000000000E+00 0. -1.
        -11    1    3    3    0    0  0.33361792019E+02 -0.31270270819E+02  0.31105975309E+02  0.55302990007E+02  0.00000000000E+00 0. -1.
         11    1    3    3    0    0 -0.27016935517E+02  0.35998223508E+02  0.19524487459E+02  0.49061109965E+02  0.00000000000E+00 0.  1.
         21    1    1    2  502  501  0.18039883627E+02  0.10321574837E+02 -0.78656478383E+02  0.81356093195E+02  0.00000000000E+00 0.  1.
<scales pt_clust_5="13000.00000" pt_clust_6="13000.00000" pt_clust_7="13000.00000" pt_clust_8="13000.00000" pt_clust_9="20.78394"></scales>
<clustering>
<clus scale="   20.784">  2  9  1 -1</clus>
<clus scale="   75.718">  5  6 -1 -1</clus>
<clus scale="   76.264">  2  5  1 -1</clus>
<clus scale="   90.917">  7  8 -1 -1</clus>
<clus scale="   20.784">  2  5  1 -1</clus>
</clustering>
</event>
<event>
 9    2  0.2984928E-005  0.2283378E+03  0.7546771E-02  0.1162274E+00
         -1   -1    0    0    0  501 -0.00000000000E+00  0.00000000000E+00  0.33775768859E+03  0.33775768859E+03  0.00000000000E+00 0.  1.
          2   -1    0    0  502    0  0.00000000000E+00 -0.00000000000E+00 -0.43211389949E+03  0.43211389949E+03  0.00000000000E+00 0. -1.
         23    2    1    2    0    0  0.31483740637E+02  0.19128935529E+02  0.18812353179E+03  0.21313303511E+03  0.93156241581E+02 0.  0.
         24    2    1    2    0    0 -0.19546502117E+03 -0.11205262600E+03 -0.27972701797E+03  0.36823855268E+03  0.81179194376E+02 0.  0.
        -13    1    4    4    0    0 -0.50002573054E+02 -0.21052667633E+02 -0.12865805768E+03  0.13962939495E+03  0.00000000000E+00 0.  1.
         14    1    4    4    0    0 -0.14546244812E+03 -0.90999958367E+02 -0.15106896029E+03  0.22860915773E+03  0.00000000000E+00 0. -1.
        -11    1    3    3    0    0  0.64359024377E+02  0.16764478366E+02  0.11341087796E+03  0.13147303524E+03  0.00000000000E+00 0.  1.
         11    1    3    3    0    0 -0.32875283740E+02  0.23644571627E+01  0.74712653823E+02  0.81659999877E+02  0.00000000000E+00 0. -1.
         21    1    1    2  502  501  0.16398128054E+03  0.92923690472E+02 -0.27527247185E+01  0.18850000029E+03  0.00000000000E+00 0.  1.
<scales pt_clust_5="13000.00000" pt_clust_6="13000.00000" pt_clust_7="13000.00000" pt_clust_8="13000.00000" pt_clust_9="213.41993"></scales>
<clustering>
<clus scale="   81.179">  5  6 -1 -1</clus>
<clus scale="   93.156">  7  8 -1 -1</clus>
<clus scale="  100.176">  1  7  2 -1</clus>
<clus scale="  213.420">  1  9  2 -1</clus>
<clus scale="  228.338">  2  5  1 -1</clus>
</clustering>
</event>
<event>
 9    2  0.2984928E-005  0.1157986E+03  0.7546771E-02  0.1253772E+00
          2   -1    0    0  502    0  0.00000000000E+00  0.00000000000E+00  0.88491584462E+03  0.88491584462E+03  0.00000000000E+00 0. -1.
         -1   -1    0    0    0  501 -0.00000000000E+00 -0.00000000000E+00 -0.90158639883E+02  0.90158639883E+02  0.00000000000E+00 0.  1.
         23    2    1    2    0    0 -0.22166726255E+01 -0.72628007797E+02 -0.43195618152E+02  0.12403376645E+03  0.90767684994E+02 0.  0.
         24    2    1    2    0    0 -0.37093229554E+02  0.60586330490E+02  0.62947177599E+03  0.63854455969E+03  0.80360604904E+02 0.  0.
        -13    1    4    4    0    0  0.16265716665E+02  0.39156367985E+02  0.15841483724E+03  0.16399102217E+03  0.00000000000E+00 0.  1.
         14    1    4    4    0    0 -0.53358946219E+02  0.21429962505E+02  0.47105693875E+03  0.47455353752E+03  0.00000000000E+00 0. -1.
        -11    1    3    3    0    0  0.20167073112E+02 -0.59422466652E+02 -0.64824810646E+02  0.90221928909E+02  0.00000000000E+00 0.  1.
         11    1    3    3    0    0 -0.22383745738E+02 -0.13205541146E+02  0.21629192494E+02  0.33811837545E+02  0.00000000000E+00 0. -1.
         21    1    1    2  502  501  0.39309902180E+02  0.12041677307E+02  0.20848104690E+03  0.21249615836E+03  0.00000000000E+00 0. -1.
<scales pt_clust_5="13000.00000" pt_clust_6="13000.00000" pt_clust_7="13000.00000" pt_clust_8="13000.00000" pt_clust_9="41.11290"></scales>
<clustering>
<clus scale="   41.113">  1  9  2 -1</clus>
<clus scale="   80.361">  5  6 -1 -1</clus>
<clus scale="   90.768">  7  8 -1 -1</clus>
<clus scale="  107.835">  1  5  2 -1</clus>
<clus scale="   41.113">  1  5  2 -1</clus>
</clustering>
</event>
<event>
 9    2  0.2984928E-005  0.1005275E+03  0.7546771E-02  0.1285635E+00
         -1   -1    0    0    0  501 -0.00000000000E+00  0.00000000000E+00  0.29515053947E+03  0.29515053947E+03  0.00000000000E+00 0.  1.
          2   -1    0    0  502    0  0.00000000000E+00 -0.00000000000E+00 -0.41467425872E+03  0.41467425872E+03  0.00000000000E+00 0. -1.
         23    2    1    2    0    0 -0.33048212931E+02  0.25939770074E+02  0.27255430542E+03  0.29067283177E+03  0.91868327929E+02 0.  0.
         24    2    1    2    0    0 -0.22328194663E+02 -0.39555530504E+02 -0.24239528250E+03  0.25897438137E+03  0.79051052854E+02 0.  0.
        -13    1    4    4    0    0 -0.48757266164E+02 -0.42364174886E+02 -0.17082034364E+03  0.18262416083E+03  0.00000000000E+00 0.  1.
         14    1    4    4    0    0  0.26429071501E+02  0.28086443817E+01 -0.71574938867E+02  0.76350220546E+02  0.00000000000E+00 0. -1.
        -13    1    3    3    0    0 -0.47540546270E+02  0.48684141226E+02  0.23349041817E+03  0.24320366882E+03  0.00000000000E+00 0.  1.
         13    1    3    3    0    0  0.14492333339E+02 -0.22744371152E+02  0.39063887244E+02  0.47469162952E+02  0.00000000000E+00 0. -1.
         21    1    1    2  502  501  0.55376407594E+02  0.13615760430E+02 -0.14968274216E+03  0.16017758505E+03  0.00000000000E+00 0. -1.
<scales pt_clust_5="13000.00000" pt_clust_6="13000.00000" pt_clust_7="13000.00000" pt_clust_8="13000.00000" pt_clust_9="57.02574"></scales>
<clustering>
<clus scale="   57.026">  2  9  1 -1</clus>
<clus scale="   79.051">  5  6 -1 -1</clus>
<clus scale="   88.967">  2  5  1 -1</clus>
<clus scale="   91.868">  7  8 -1 -1</clus>
<clus scale="   57.026">  2  5  1 -1</clus>
</clustering>
</event>
<event>
 9    2  0.2984928E-005  0.1622365E+03  0.7546771E-02  0.1195634E+00
         -1   -1    0    0    0  501 -0.00000000000E+00  0.00000000000E+00  0.42027721758E+03  0.42027721758E+03  0.00000000000E+00 0.  1.
          2   -1    0    0  502    0  0.00000000000E+00 -0.00000000000E+00 -0.37396591534E+03  0.37396591534E+03  0.00000000000E+00 0. -1.
         23    2    1    2    0    0  0.63770252772E+01 -0.10491511583E+03  0.38153776089E+03  0.41523128000E+03  0.12569051247E+03 0.  0.
         24    2    1    2    0    0  0.42823204698E+02  0.69839813288E+02 -0.21674996449E+03  0.24601704421E+03  0.82658408841E+02 0.  0.
        -13    1    4    4    0    0  0.58021761349E+02  0.39010937456E+02 -0.86053425064E+02  0.11087637258E+03  0.00000000000E+00 0.  1.
         14    1    4    4    0    0 -0.15198556650E+02  0.30828875831E+02 -0.13069653943E+03  0.13514067163E+03  0.00000000000E+00 0. -1.
        -13    1    3    3    0    0 -0.27618789608E+02  0.18098095441E+02  0.49421547774E+02  0.59437597381E+02  0.00000000000E+00 0. -1.
         13    1    3    3    0    0  0.33995814885E+02 -0.12301321127E+03  0.33211621312E+03  0.35579368262E+03  0.00000000000E+00 0.  1.
         21    1    1    2  502  501 -0.49200229976E+02  0.35075302543E+02 -0.11847649416E+03  0.13299480872E+03  0.00000000000E+00 0. -1.
<scales pt_clust_5="13000.00000" pt_clust_6="13000.00000" pt_clust_7="13000.00000" pt_clust_8="13000.00000" pt_clust_9="60.42300"></scales>
<clustering>
<clus scale="   60.423">  2  9  1 -1</clus>
<clus scale="   82.658">  5  6 -1 -1</clus>
<clus scale="  125.691">  7  8 -1 -1</clus>
<clus scale="  131.738">  2  5  1 -1</clus>
<clus scale="   60.423">  2  5  1 -1</clus>
</clustering>
</event>
<event>
 9    2  0.2984928E-005  0.3996547E+03  0.7546771E-02  0.1043965E+00
         -1   -1    0    0    0  501 -0.00000000000E+00  0.00000000000E+00  0.15610276267E+03  0.15610276267E+03  0.00000000000E+00 0.  1.
          2   -1    0    0  502    0  0.00000000000E+00 -0.00000000000E+00 -0.12535128226E+04  0.12535128226E+04  0.00000000000E+00 0. -1.
         24    2    1    2    0    0 -0.20878830660E+03  0.33937295512E+03 -0.28606131902E+03  0.49826827148E+03  0.87599272199E+02 0.  0.
         23    2    1    2    0    0  0.18052328109E+03 -0.32319736992E+03 -0.76473479121E+03  0.85448413122E+03  0.90987002785E+02 0.  0.
        -11    1    3    3    0    0 -0.13539473170E+03  0.18906461610E+03 -0.11652983250E+03  0.26010837029E+03  0.00000000000E+00 0.  1.
         12    1    3    3    0    0 -0.73393574901E+02  0.15030833902E+03 -0.16953148651E+03  0.23815990119E+03  0.00000000000E+00 0. -1.
        -13    1    4    4    0    0  0.90860020627E+02 -0.21516125842E+03 -0.55448675320E+03  0.60166890392E+03  0.00000000000E+00 0. -1.
         13    1    4    4    0    0  0.89663260461E+02 -0.10803611150E+03 -0.21024803801E+03  0.25281522729E+03  0.00000000000E+00 0.  1.
         21    1    1    2  502  501  0.28265025514E+02 -0.16175585195E+02 -0.46613949690E+02  0.56863182548E+02  0.00000000000E+00 0.  1.
<scales pt_clust_5="13000.00000" pt_clust_6="13000.00000" pt_clust_7="13000.00000" pt_clust_8="13000.00000" pt_clust_9="32.56626"></scales>
<clustering>
<clus scale="   32.566">  2  9  1 -1</clus>
<clus scale="   87.599">  5  6 -1 -1</clus>
<clus scale="   90.987">  7  8 -1 -1</clus>
<clus scale="  398.897">  1  5  2 -1</clus>
<clus scale="   32.566">  2  5  1 -1</clus>
</clustering>
</event>
<event>
 9    2  0.2984928E-005  0.9317622E+02  0.7546771E-02  0.1298593E+00
          2   -1    0    0  502    0  0.00000000000E+00  0.00000000000E+00  0.10235062365E+04  0.10235062365E+04  0.00000000000E+00 0. -1.
         -1   -1    0    0    0  501 -0.00000000000E+00 -0.00000000000E+00 -0.27169901203E+02  0.27169901203E+02  0.00000000000E+00 0.  1.
         23    2    1    2    0    0 -0.21495882783E+00  0.18115963029E+02  0.77608063933E+02  0.12083473261E+03  0.90828336409E+02 0.  0.
         24    2    1    2    0    0 -0.40721184039E+02 -0.32223650138E+02  0.61589127921E+03  0.62392468694E+03  0.85225399410E+02 0.  0.
        -11    1    4    4    0    0 -0.13959666932E+02 -0.15493085384E+02  0.26654716712E+02  0.33843491524E+02  0.00000000000E+00 0.  1.
         12    1    4    4    0    0 -0.26761517107E+02 -0.16730564754E+02  0.58923656250E+03  0.59008119541E+03  0.00000000000E+00 0. -1.
        -11    1    3    3    0    0 -0.34106983178E+02  0.39074938018E+02  0.52130395030E+02  0.73537168619E+02  0.00000000000E+00 0. -1.
         11    1    3    3    0    0  0.33892024350E+02 -0.20958974989E+02  0.25477668903E+02  0.47297563995E+02  0.00000000000E+00 0.  1.
         21    1    1    2  502  501  0.40936142867E+02  0.14107687109E+02  0.30283699217E+03  0.30591671817E+03  0.00000000000E+00 0. -1.
<scales pt_clust_5="13000.00000" pt_clust_6="13000.00000" pt_clust_7="13000.00000" pt_clust_8="13000.00000" pt_clust_9="43.29890"></scales>
<clustering>
<clus scale="   43.299">  1  9  2 -1</clus>
<clus scale="   85.225">  5  6 -1 -1</clus>
<clus scale="   87.723">  1  5  2 -1</clus>
<clus scale="   90.828">  7  8 -1 -1</clus>
<clus scale="   43.299">  1  5  2 -1</clus>
</clustering>
</event>
<event>
 9    2  0.2984928E-005  0.1043836E+03  0.7546771E-02  0.1282380E+00
          2   -1    0    0  502    0  0.00000000000E+00  0.00000000000E+00  0.83654630884E+02  0.83654630884E+02  0.00000000000E+00 0. -1.
         -1   -1    0    0    0  501 -0.00000000000E+00 -0.00000000000E+00 -0.16279078477E+03  0.16279078477E+03  0.00000000000E+00 0.  1.
         23    2    1    2    0    0  0.42736684869E+02  0.40427851224E+02 -0.80987754923E+02  0.13395830672E+03  0.89022334852E+02 0.  0.
         24    2    1    2    0    0 -0.50419288865E+02 -0.13498776996E+02 -0.64184473990E+01  0.83287945528E+02  0.64586095510E+02 0.  0.
        -11    1    4    4    0    0 -0.40005397604E+02  0.22258512946E+02 -0.43689538354E+01  0.45988705065E+02  0.00000000000E+00 0.  1.
         12    1    4    4    0    0 -0.10413891261E+02 -0.35757289942E+02 -0.20494935636E+01  0.37299240462E+02  0.00000000000E+00 0. -1.
        -11    1    3    3    0    0  0.66787045248E+02  0.18892512228E+02 -0.34898550476E+02  0.77687484555E+02  0.00000000000E+00 0.  1.
         11    1    3    3    0    0 -0.24050360379E+02  0.21535338997E+02 -0.46089204447E+02  0.56270822161E+02  0.00000000000E+00 0. -1.
         21    1    1    2  502  501  0.76826039960E+01 -0.26929074228E+02  0.82700484340E+01  0.29199163413E+02  0.00000000000E+00 0. -1.
<scales pt_clust_5="13000.00000" pt_clust_6="13000.00000" pt_clust_7="13000.00000" pt_clust_8="13000.00000" pt_clust_9="28.00353"></scales>
<clustering>
<clus scale="   28.004">  1  9  2 -1</clus>
<clus scale="   64.586">  5  6 -1 -1</clus>
<clus scale="   84.512">  1  5  2 -1</clus>
<clus scale="   89.022">  7  8 -1 -1</clus>
<clus scale="   28.004">  1  5  2 -1</clus>
</clustering>
</event>
<event>
 9    2  0.2984928E-005  0.2321952E+03  0.7546771E-02  0.1160935E+00
         -1   -1    0    0    0  501 -0.00000000000E+00  0.00000000000E+00  0.85440937633E+03  0.85440937633E+03  0.00000000000E+00 0.  1.
          2   -1    0    0  502    0  0.00000000000E+00 -0.00000000000E+00 -0.16884897529E+04  0.16884897529E+04  0.00000000000E+00 0. -1.
         23    2    1    2    0    0 -0.19389949773E+02  0.32709045309E+02  0.12796668322E+02  0.99102989409E+02  0.90618960447E+02 0.  0.
         24    2    1    2    0    0  0.23625951599E+03 -0.34580478438E+02  0.77106044071E+03  0.81138760690E+03  0.82469855189E+02 0.  0.
        -11    1    4    4    0    0  0.18476096642E+03 -0.60661227670E+02  0.61368645089E+03  0.64376040517E+03  0.00000000000E+00 0.  1.
         12    1    4    4    0    0  0.51498549568E+02  0.26080749232E+02  0.15737398982E+03  0.16762720173E+03  0.00000000000E+00 0. -1.
        -13    1    3    3    0    0  0.31566593729E+02  0.24921774407E+02 -0.11902573424E+02  0.41943008158E+02  0.00000000000E+00 0.  1.
         13    1    3    3    0    0 -0.50956543502E+02  0.77872709022E+01  0.24699241746E+02  0.57159981251E+02  0.00000000000E+00 0. -1.
         21    1    1    2  502  501 -0.21686956622E+03  0.18714331295E+01 -0.16179374856E+04  0.16324085329E+04  0.00000000000E+00 0. -1.
<scales pt_clust_5="13000.00000" pt_clust_6="13000.00000" pt_clust_7="13000.00000" pt_clust_8="13000.00000" pt_clust_9="217.05610"></scales>
<clustering>
<clus scale="   82.470">  5  6 -1 -1</clus>
<clus scale="   90.619">  7  8 -1 -1</clus>
<clus scale="   98.273">  1  7  2 -1</clus>
<clus scale="  217.056">  2  9  1 -1</clus>
<clus scale="  217.056">  2  5  1 -1</clus>
</clustering>
</event>
<event>
 9    2  0.2984928E-005  0.1232953E+03  0.7546771E-02  0.1250633E+00
         -1   -1    0    0    0  501 -0.00000000000E+00  0.00000000000E+00  0.42494045602E+03  0.42494045602E+03  0.00000000000E+00 0.  1.
          2   -1    0    0  502    0  0.00000000000E+00 -0.00000000000E+00 -0.14962035634E+03  0.14962035634E+03  0.00000000000E+00 0. -1.
         23    2    1    2    0    0  0.15426205725E+01  0.46482448135E+02  0.45137525482E+02  0.10808292471E+03  0.86495807665E+02 0.  0.
         24    2    1    2    0    0  0.20075213368E+02  0.48669690766E+02 -0.90501311252E+02  0.13127732877E+03  0.79192781995E+02 0.  0.
        -11    1    4    4    0    0  0.13848795345E+02 -0.20831892011E+02 -0.19413521021E+02  0.31664517297E+02  0.00000000000E+00 0.  1.
         12    1    4    4    0    0  0.62264180230E+01  0.69501582777E+02 -0.71087790231E+02  0.99612811474E+02  0.00000000000E+00 0. -1.
        -13    1    3    3    0    0  0.20964134835E+02  0.56130815764E+02  0.57563901014E+02  0.83088904962E+02  0.00000000000E+00 0. -1.
         13    1    3    3    0    0 -0.19421514263E+02 -0.96483676289E+01 -0.12426375532E+02  0.24994019745E+02  0.00000000000E+00 0.  1.
         21    1    1    2  502  501 -0.21617833940E+02 -0.95152138902E+02  0.32068388545E+03  0.33520055888E+03  0.00000000000E+00 0.  1.
<scales pt_clust_5="13000.00000" pt_clust_6="13000.00000" pt_clust_7="13000.00000" pt_clust_8="13000.00000" pt_clust_9="87.86469"></scales>
<clustering>
<clus scale="   79.193">  5  6 -1 -1</clus>
<clus scale="   86.496">  7  8 -1 -1</clus>
<clus scale="   95.096">  2  5  1 -1</clus>
<clus scale="   87.865">  1  9  2 -1</clus>
<clus scale="   95.096">  2  5  1 -1</clus>
</clustering>
</event>
<event>
 9    2  0.2984928E-005  0.1037556E+03  0.7546771E-02  0.1288402E+00
         -1   -1    0    0    0  501 -0.00000000000E+00  0.00000000000E+00  0.36716734536E+03  0.36716734536E+03  0.00000000000E+00 0.  1.
          2   -1    0    0  502    0  0.00000000000E+00 -0.00000000000E+00 -0.44691567793E+02  0.44691567793E+02  0.00000000000E+00 0. -1.
         24    2    1    2    0    0 -0.58624599638E+01 -0.36762241354E+02  0.19907194885E+03  0.21289987581E+03  0.65657333724E+02 0.  0.
         23    2    1    2    0    0  0.47035568162E+02  0.40224730841E+02  0.81992153690E+02  0.14045997325E+03  0.95791007799E+02 0.  0.
        -11    1    3    3    0    0 -0.34186987911E+02 -0.16315847911E+02  0.13128885715E+03  0.13664450610E+03  0.00000000000E+00 0.  1.
         12    1    3    3    0    0  0.28324527947E+02 -0.20446393442E+02  0.67783091707E+02  0.76255369710E+02  0.00000000000E+00 0. -1.
        -11    1    4    4    0    0  0.37812578004E+02 -0.26123841565E+02  0.43071529691E+02  0.62987322719E+02  0.00000000000E+00 0.  1.
         11    1    4    4    0    0  0.92229901573E+01  0.66348572406E+02  0.38920623999E+02  0.77472650531E+02  0.00000000000E+00 0. -1.
         21    1    1    2  502  501 -0.41173108198E+02 -0.34624894877E+01  0.41411675026E+02  0.58499064100E+02  0.00000000000E+00 0. -1.
<scales pt_clust_5="13000.00000" pt_clust_6="13000.00000" pt_clust_7="13000.00000" pt_clust_8="13000.00000" pt_clust_9="41.31844"></scales>
<clustering>
<clus scale="   41.318">  2  9  1 -1</clus>
<clus scale="   65.657">  5  6 -1 -1</clus>
<clus scale="   76.813">  1  5  2 -1</clus>
<clus scale="   95.791">  7  8 -1 -1</clus>
<clus scale="   41.318">  2  5  1 -1</clus>
</clustering>
</event>
<event>
 9    2  0.2984928E-005  0.1262099E+03  0.7546771E-02  0.1234777E+00
          2   -1    0    0  502    0  0.00000000000E+00  0.00000000000E+00  0.95703782301E+03  0.95703782301E+03  0.00000000000E+00 0. -1.
         -1   -1    0    0    0  501 -0.00000000000E+00 -0.00000000000E+00 -0.56430576180E+02  0.56430576180E+02  0.00000000000E+00 0.  1.
         23    2    1    2    0    0 -0.89221389866E+02 -0.14993443955E+02  0.26698973908E+02  0.12357820036E+03  0.79834056797E+02 0.  0.
         24    2    1    2    0    0  0.11072193151E+03  0.25843804955E+02  0.78215641419E+03  0.79503026417E+03  0.85890723029E+02 0.  0.
        -13    1    4    4    0    0  0.31670048645E+02 -0.13360782705E+02  0.76365566897E+02  0.83744864339E+02  0.00000000000E+00 0.  1.
         14    1    4    4    0    0  0.79051882866E+02  0.39204587660E+02  0.70579084730E+03  0.71128539983E+03  0.00000000000E+00 0. -1.
        -11    1    3    3    0    0 -0.33940655616E+02  0.96674742105E+01  0.47850912360E+02  0.59457026287E+02  0.00000000000E+00 0. -1.
         11    1    3    3    0    0 -0.55280734250E+02 -0.24660918165E+02 -0.21151938451E+02  0.64121174071E+02  0.00000000000E+00 0.  1.
         21    1    1    2  502  501 -0.21500541646E+02 -0.10850361001E+02  0.91751858725E+02  0.94859934664E+02  0.00000000000E+00 0.  1.
<scales pt_clust_5="13000.00000" pt_clust_6="13000.00000" pt_clust_7="13000.00000" pt_clust_8="13000.00000" pt_clust_9="24.08326"></scales>
<clustering>
<clus scale="   24.083">  1  9  2 -1</clus>
<clus scale="   79.834">  7  8 -1 -1</clus>
<clus scale="   85.891">  5  6 -1 -1</clus>
<clus scale="  122.169">  2  7  1 -1</clus>
<clus scale="   24.083">  1  5  2 -1</clus>
</clustering>
</event>
<event>
 9    2  0.2984928E-005  0.1118127E+03  0.7546771E-02  0.1261038E+00
          2   -1    0    0  502    0  0.00000000000E+00  0.00000000000E+00  0.44003119342E+03  0.44003119342E+03  0.00000000000E+00 0. -1.
         -1   -1    0    0    0  501 -0.00000000000E+00 -0.00000000000E+00 -0.21331365326E+03  0.21331365326E+03  0.00000000000E+00 0.  1.
         23    2    1    2    0    0  0.47104759008E+02 -0.44684740182E+02 -0.18622950488E+03  0.21719219398E+03  0.90969425160E+02 0.  0.
         24    2    1    2    0    0 -0.63839710434E+02  0.30127936638E+02  0.38886092350E+03  0.40340970875E+03  0.80891124910E+02 0.  0.
        -13    1    4    4    0    0 -0.30081785223E+02  0.55620326991E+02  0.26802418668E+03  0.27538245990E+03  0.00000000000E+00 0.  1.
         14    1    4    4    0    0 -0.33757925211E+02 -0.25492390353E+02  0.12083673682E+03  0.12802724884E+03  0.00000000000E+00 0. -1.
        -13    1    3    3    0    0  0.11254015326E+02 -0.47644799900E+02 -0.31220274731E+02  0.58063632101E+02  0.00000000000E+00 0.  1.
         13    1    3    3    0    0  0.35850743682E+02  0.29600597185E+01 -0.15500923014E+03  0.15912856188E+03  0.00000000000E+00 0. -1.
         21    1    1    2  502  501  0.16734951426E+02  0.14556803544E+02  0.24086121534E+02  0.32742943960E+02  0.00000000000E+00 0.  1.
<scales pt_clust_5="13000.00000" pt_clust_6="13000.00000" pt_clust_7="13000.00000" pt_clust_8="13000.00000" pt_clust_9="22.18015"></scales>
<clustering>
<clus scale="   22.180">  1  9  2 -1</clus>
<clus scale="   80.891">  5  6 -1 -1</clus>
<clus scale="   90.969">  7  8 -1 -1</clus>
<clus scale="  103.779">  1  5  2 -1</clus>
<clus scale="   22.180">  1  5  2 -1</clus>
</clustering>
</event>
<event>
 9    2  0.2984928E-005  0.8951665E+02  0.7546771E-02  0.1308147E+00
          2   -1    0    0  502    0  0.00000000000E+00  0.00000000000E+00  0.10160301581E+03  0.10160301581E+03  0.00000000000E+00 0. -1.
         -1   -1    0    0    0  501 -0.00000000000E+00 -0.00000000000E+00 -0.11985108164E+03  0.11985108164E+03  0.00000000000E+00 0.  1.
         23    2    1    2    0    0  0.25337039799E+02  0.87929265261E+01 -0.61549612774E+02  0.10959353840E+03  0.86620480746E+02 0.  0.
         24    2    1    2    0    0 -0.56771914933E+01 -0.14355657202E+02  0.41508119346E+02  0.91350317928E+02  0.79897692188E+02 0.  0.
        -11    1    4    4    0    0 -0.17165321317E+02 -0.43864100006E+02  0.13305962347E+02  0.48946462173E+02  0.00000000000E+00 0.  1.
         12    1    4    4    0    0  0.11488129824E+02  0.29508442803E+02  0.28202156999E+02  0.42403855755E+02  0.00000000000E+00 0. -1.
        -13    1    3    3    0    0  0.19733858858E+02 -0.36228367967E+02 -0.45626468107E+02  0.61511742155E+02  0.00000000000E+00 0.  1.
         13    1    3    3    0    0  0.56031809417E+01  0.45021294493E+02 -0.15923144666E+02  0.48081796249E+02  0.00000000000E+00 0. -1.
         21    1    1    2  502  501 -0.19659848306E+02  0.55627306760E+01  0.17934275965E+01  0.20510241114E+02  0.00000000000E+00 0.  1.
<scales pt_clust_5="13000.00000" pt_clust_6="13000.00000" pt_clust_7="13000.00000" pt_clust_8="13000.00000" pt_clust_9="20.43168"></scales>
<clustering>
<clus scale="   20.432">  1  9  2 -1</clus>
<clus scale="   79.898">  5  6 -1 -1</clus>
<clus scale="   83.029">  1  5  2 -1</clus>
<clus scale="   86.620">  7  8 -1 -1</clus>
<clus scale="   20.432">  1  5  2 -1</clus>
</clustering>
</event>
<event>
 9    2  0.2984928E-005  0.2028332E+03  0.7546771E-02  0.1149235E+00
         -1   -1    0    0    0  501 -0.00000000000E+00  0.00000000000E+00  0.59838919878E+03  0.59838919878E+03  0.00000000000E+00 0.  1.
          2   -1    0    0  502    0  0.00000000000E+00 -0.00000000000E+00 -0.35413269935E+03  0.35413269935E+03  0.00000000000E+00 0. -1.
         24    2    1    2    0    0 -0.17406482307E+03  0.31090558708E+02  0.51471615287E+03  0.55031937402E+03  0.81569050088E+02 0.  0.
         23    2    1    2    0    0  0.16275219288E+03 -0.52724806313E+02 -0.86360290259E+02  0.21649148029E+03  0.10070888648E+03 0.  0.
        -11    1    3    3    0    0 -0.77044192485E+02 -0.13893582176E+02  0.30529852632E+03  0.31517618786E+03  0.00000000000E+00 0.  1.
         12    1    3    3    0    0 -0.97020630582E+02  0.44984140885E+02  0.20941762654E+03  0.23514318616E+03  0.00000000000E+00 0. -1.
        -13    1    4    4    0    0  0.15927743039E+03 -0.14506614594E+02 -0.73511199063E+02  0.17602169777E+03  0.00000000000E+00 0. -1.
         13    1    4    4    0    0  0.34747624915E+01 -0.38218191720E+02 -0.12849091196E+02  0.40469782521E+02  0.00000000000E+00 0.  1.
         21    1    1    2  502  501  0.11312630186E+02  0.21634247605E+02 -0.18409936318E+03  0.18571104382E+03  0.00000000000E+00 0. -1.
<scales pt_clust_5="13000.00000" pt_clust_6="13000.00000" pt_clust_7="13000.00000" pt_clust_8="13000.00000" pt_clust_9="24.41344"></scales>
<clustering>
<clus scale="   24.413">  2  9  1 -1</clus>
<clus scale="   81.569">  5  6 -1 -1</clus>
<clus scale="  100.709">  7  8 -1 -1</clus>
<clus scale="  194.043">  1  5  2 -1</clus>
<clus scale="   24.413">  2  5  1 -1</clus>
</clustering>
</event>
<event>
 9    2  0.2984928E-005  0.4010844E+03  0.7546771E-02  0.1043590E+00
          4   -1    0    0  502    0  0.00000000000E+00  0.00000000000E+00  0.60926014617E+03  0.60926014617E+03  0.00000000000E+00 0. -1.
         -3   -1    0    0    0  501 -0.00000000000E+00 -0.00000000000E+00 -0.43487419637E+03  0.43487419637E+03  0.00000000000E+00 0.  1.
         24    2    1    2    0    0 -0.12966902833E+03 -0.37039000313E+03 -0.23224214274E+03  0.46301950270E+03  0.80298416485E+02 0.  0.
         23    2    1    2    0    0  0.10973330612E+03  0.36834477814E+03  0.39141666830E+03  0.55595528116E+03  0.90332676098E+02 0.  0.
        -11    1    3    3    0    0 -0.11891270074E+03 -0.26362367784E+03 -0.19759034618E+03  0.35025650432E+03  0.00000000000E+00 0.  1.
         12    1    3    3    0    0 -0.10756327590E+02 -0.10676632529E+03 -0.34651796563E+02  0.11276299838E+03  0.00000000000E+00 0. -1.
        -13    1    4    4    0    0  0.60099589710E+02  0.17274691249E+03  0.24903167900E+03  0.30898257816E+03  0.00000000000E+00 0. -1.
         13    1    4    4    0    0  0.49633716408E+02  0.19559786564E+03  0.14238498930E+03  0.24697270300E+03  0.00000000000E+00 0.  1.
         21    1    1    2  502  501  0.19935722214E+02  0.20452249903E+01  0.15211424238E+02  0.25159558676E+02  0.00000000000E+00 0. -1.
<scales pt_clust_5="13000.00000" pt_clust_6="13000.00000" pt_clust_7="13000.00000" pt_clust_8="13000.00000" pt_clust_9="20.04036"></scales>
<clustering>
<clus scale="   20.040">  1  9  2 -1</clus>
<clus scale="   80.298">  5  6 -1 -1</clus>
<clus scale="   90.333">  7  8 -1 -1</clus>
<clus scale="  398.944">  2  5  1 -1</clus>
<clus scale="   20.040">  1  5  2 -1</clus>
</clustering>
</event>
<event>
 9    2  0.2984928E-005  0.9987453E+02  0.7546771E-02  0.1286498E+00
          2   -1    0    0  502    0  0.00000000000E+00  0.00000000000E+00  0.19265435064E+03  0.19265435064E+03  0.00000000000E+00 0. -1.
         -1   -1    0    0    0  501 -0.00000000000E+00 -0.00000000000E+00 -0.74955410800E+02  0.74955410800E+02  0.00000000000E+00 0.  1.
         23    2    1    2    0    0 -0.12349468895E+01  0.52573246986E+02  0.11492492600E+02  0.10586501588E+03  0.91158394069E+02 0.  0.
         24    2    1    2    0    0 -0.14342998377E+02 -0.24654444443E+02  0.52852345383E+02  0.99545130614E+02  0.79387022763E+02 0.  0.
        -13    1    4    4    0    0 -0.45112230073E+02 -0.27817528371E+01  0.19704787050E+02  0.49306491294E+02  0.00000000000E+00 0.  1.
         14    1    4    4    0    0  0.30769231696E+02 -0.21872691606E+02  0.33147558333E+02  0.50238639320E+02  0.00000000000E+00 0. -1.
        -11    1    3    3    0    0 -0.26045591000E+02 -0.35340204278E+01  0.31787637401E+02  0.41247012043E+02  0.00000000000E+00 0. -1.
         11    1    3    3    0    0  0.24810644110E+02  0.56107267413E+02 -0.20295144801E+02  0.64618003840E+02  0.00000000000E+00 0.  1.
         21    1    1    2  502  501  0.15577945266E+02 -0.27918802543E+02  0.53354101859E+02  0.62199614945E+02  0.00000000000E+00 0.  1.
<scales pt_clust_5="13000.00000" pt_clust_6="13000.00000" pt_clust_7="13000.00000" pt_clust_8="13000.00000" pt_clust_9="31.97080"></scales>
<clustering>
<clus scale="   31.971">  1  9  2 -1</clus>
<clus scale="   79.387">  5  6 -1 -1</clus>
<clus scale="   89.260">  1  5  2 -1</clus>
<clus scale="   91.158">  7  8 -1 -1</clus>
<clus scale="   31.971">  1  5  2 -1</clus>
</clustering>
</event>
<event>
 9    2  0.2984928E-005  0.4248885E+03  0.7546771E-02  0.1035618E+00
          2   -1    0    0  502    0  0.00000000000E+00  0.00000000000E+00  0.17839936286E+04  0.17839936286E+04  0.00000000000E+00 0. -1.
         -1   -1    0    0    0  501 -0.00000000000E+00 -0.00000000000E+00 -0.12791282390E+03  0.12791282390E+03  0.00000000000E+00 0.  1.
         23    2    1    2    0    0  0.40977987247E+03  0.13681008894E+03  0.48697696118E+03  0.65688055361E+03  0.87800664418E+02 0.  0.
         24    2    1    2    0    0 -0.35271923318E+03 -0.15912024304E+03  0.10198459795E+04  0.10936828807E+04  0.79538120095E+02 0.  0.
        -11    1    4    4    0    0 -0.16971341322E+03 -0.11518526969E+03  0.58262838734E+03  0.61767801216E+03  0.00000000000E+00 0.  1.
         12    1    4    4    0    0 -0.18300581996E+03 -0.43934973352E+02  0.43721759212E+03  0.47600486855E+03  0.00000000000E+00 0. -1.
        -13    1    3    3    0    0  0.25157785809E+03  0.12083530012E+03  0.27417458478E+03  0.39123431774E+03  0.00000000000E+00 0.  1.
         13    1    3    3    0    0  0.15820201438E+03  0.15974788821E+02  0.21280237639E+03  0.26564623587E+03  0.00000000000E+00 0. -1.
         21    1    1    2  502  501 -0.57060639292E+02  0.22310154106E+02  0.14925786402E+03  0.16134301814E+03  0.00000000000E+00 0. -1.
<scales pt_clust_5="13000.00000" pt_clust_6="13000.00000" pt_clust_7="13000.00000" pt_clust_8="13000.00000" pt_clust_9="61.26712"></scales>
<clustering>
<clus scale="   61.267">  1  9  2 -1</clus>
<clus scale="   79.538">  5  6 -1 -1</clus>
<clus scale="   87.801">  7  8 -1 -1</clus>
<clus scale="  423.258">  1  5  2 -1</clus>
<clus scale="   61.267">  1  5  2 -1</clus>
</clustering>
</event>
<event>
 9    2  0.2984928E-005  0.1526463E+03  0.7546771E-02  0.1198040E+00
          2   -1    0    0  502    0  0.00000000000E+00  0.00000000000E+00  0.15170559361E+03  0.15170559361E+03  0.00000000000E+00 0. -1.
         -1   -1    0    0    0  501 -0.00000000000E+00 -0.00000000000E+00 -0.43234304566E+03  0.43234304566E+03  0.00000000000E+00 0.  1.
         24    2    1    2    0    0 -0.12893059772E+03 -0.56387689966E+02 -0.28645864237E+03  0.33059208356E+03  0.86196875327E+02 0.  0.
         23    2    1    2    0    0  0.86954914292E+02 -0.52889065085E+02  0.58590707568E+01  0.13639516742E+03  0.90614031262E+02 0.  0.
        -11    1    3    3    0    0  0.82573809165E+01 -0.20043012473E+02 -0.24921809930E+02  0.33030339065E+02  0.00000000000E+00 0.  1.
         12    1    3    3    0    0 -0.13718797863E+03 -0.36344677493E+02 -0.26153683244E+03  0.29756174449E+03  0.00000000000E+00 0. -1.
        -13    1    4    4    0    0 -0.16088711692E+02 -0.16473789501E+02  0.13753597036E+02  0.26821517777E+02  0.00000000000E+00 0.  1.
         13    1    4    4    0    0  0.10304362598E+03 -0.36415275584E+02 -0.78945262795E+01  0.10957364965E+03  0.00000000000E+00 0. -1.
         21    1    1    2  502  501  0.41975683425E+02  0.10927675505E+03 -0.37880448945E-01  0.11706138829E+03  0.00000000000E+00 0. -1.
<scales pt_clust_5="13000.00000" pt_clust_6="13000.00000" pt_clust_7="13000.00000" pt_clust_8="13000.00000" pt_clust_9="117.06138"></scales>
<clustering>
<clus scale="   86.197">  5  6 -1 -1</clus>
<clus scale="   90.614">  7  8 -1 -1</clus>
<clus scale="  117.061">  1  9  2 -1</clus>
<clus scale="  150.066">  2  5  1 -1</clus>
<clus scale="  117.061">  1  5  2 -1</clus>
</clustering>
</event>
<event>
 9    2  0.2984928E-005  0.1144455E+03  0.7546771E-02  0.1261807E+00
          2   -1    0    0  502    0  0.00000000000E+00  0.00000000000E+00  0.12152711399E+03  0.12152711399E+03  0.00000000000E+00 0. -1.
         -1   -1    0    0    0  501 -0.00000000000E+00 -0.00000000000E+00 -0.19601849208E+03  0.19601849208E+03  0.00000000000E+00 0.  1.
         23    2    1    2    0    0 -0.39907897342E+02  0.25493709562E+02 -0.13381767370E+03  0.17508345548E+03  0.10249135129E+03 0.  0.
         24    2    1    2    0    0  0.50237894117E+02 -0.44580313014E+02  0.59796851804E+02  0.12075434813E+03  0.80589694093E+02 0.  0.
        -13    1    4    4    0    0  0.33482586714E+02 -0.27072454977E+02 -0.12228975977E+02  0.44761024172E+02  0.00000000000E+00 0.  1.
         14    1    4    4    0    0  0.16755307403E+02 -0.17507858037E+02  0.72025827782E+02  0.75993323962E+02  0.00000000000E+00 0. -1.
        -13    1    3    3    0    0 -0.71593817314E+02  0.20732336342E+02 -0.11744752016E+03  0.13910220860E+03  0.00000000000E+00 0.  1.
         13    1    3    3    0    0  0.31685919972E+02  0.47613732197E+01 -0.16370153545E+02  0.35981246873E+02  0.00000000000E+00 0. -1.
         21    1    1    2  502  501 -0.10329996775E+02  0.19086603453E+02 -0.47055619477E+00  0.21707802465E+02  0.00000000000E+00 0.  1.
<scales pt_clust_5="13000.00000" pt_clust_6="13000.00000" pt_clust_7="13000.00000" pt_clust_8="13000.00000" pt_clust_9="21.70270"></scales>
<clustering>
<clus scale="   21.703">  1  9  2 -1</clus>
<clus scale="   80.590">  5  6 -1 -1</clus>
<clus scale="   95.331">  1  5  2 -1</clus>
<clus scale="  102.491">  7  8 -1 -1</clus>
<clus scale="   21.703">  1  5  2 -1</clus>
</clustering>
</event>
<event>
 9    2  0.2984928E-005  0.1108102E+03  0.7546771E-02  0.1263052E+00
          4   -1    0    0  502    0  0.00000000000E+00  0.00000000000E+00  0.67727380593E+03  0.67727380593E+03  0.00000000000E+00 0. -1.
         -3   -1    0    0    0  501 -0.00000000000E+00 -0.00000000000E+00 -0.33819658402E+02  0.33819658402E+02  0.00000000000E+00 0.  1.
         24    2    1    2    0    0 -0.66181566912E+02  0.10824314880E+02  0.83411534946E+02  0.13330232683E+03  0.79466097077E+02 0.  0.
         23    2    1    2    0    0  0.58842079617E+02  0.17799194802E+02  0.37872389567E+03  0.39408035806E+03  0.89935186601E+02 0.  0.
        -13    1    3    3    0    0 -0.41325709921E+02 -0.31314785604E+02  0.26423690119E+02  0.58194857998E+02  0.00000000000E+00 0.  1.
         14    1    3    3    0    0 -0.24855856992E+02  0.42139100484E+02  0.56987844827E+02  0.75107468832E+02  0.00000000000E+00 0. -1.
        -11    1    4    4    0    0  0.58947956755E+02 -0.23236268423E+02  0.17145655411E+03  0.18278986767E+03  0.00000000000E+00 0. -1.
         11    1    4    4    0    0 -0.10587713840E+00  0.41035463225E+02  0.20726734157E+03  0.21129049040E+03  0.00000000000E+00 0.  1.
         21    1    1    2  502  501  0.73394872960E+01 -0.28623509681E+02  0.18131871691E+03  0.18371077944E+03  0.00000000000E+00 0.  1.
<scales pt_clust_5="13000.00000" pt_clust_6="13000.00000" pt_clust_7="13000.00000" pt_clust_8="13000.00000" pt_clust_9="29.54951"></scales>
<clustering>
<clus scale="   29.550">  1  9  2 -1</clus>
<clus scale="   79.466">  5  6 -1 -1</clus>
<clus scale="   89.935">  7  8 -1 -1</clus>
<clus scale="  102.496">  2  5  1 -1</clus>
<clus scale="   29.550">  1  5  2 -1</clus>
</clustering>
</event>
<event>
 9    2  0.2984928E-005  0.1202815E+03  0.7546771E-02  0.1243716E+00
         -1   -1    0    0    0  501 -0.00000000000E+00  0.00000000000E+00  0.30357538970E+02  0.30357538970E+02  0.00000000000E+00 0.  1.
          2   -1    0    0  502    0  0.00000000000E+00 -0.00000000000E+00 -0.10927326743E+04  0.10927326743E+04  0.00000000000E+00 0. -1.
         23    2    1    2    0    0  0.32090591809E+02  0.11550101395E+03 -0.39759096618E+03  0.42494151538E+03  0.90146684929E+02 0.  0.
         24    2    1    2    0    0 -0.84275570068E+01 -0.58717541956E+02 -0.59458093594E+03  0.60480633953E+03  0.93517086695E+02 0.  0.
        -13    1    4    4    0    0 -0.41786842381E+02  0.92005398719E+00 -0.19559115057E+03  0.20000721207E+03  0.00000000000E+00 0.  1.
         14    1    4    4    0    0  0.33359285374E+02 -0.59637595943E+02 -0.39898978537E+03  0.40479912747E+03  0.00000000000E+00 0. -1.
        -11    1    3    3    0    0  0.11342175073E+02  0.50100732147E+02 -0.53856784255E+02  0.74426349550E+02  0.00000000000E+00 0.  1.
         11    1    3    3    0    0  0.20748416737E+02  0.65400281805E+02 -0.34373418192E+03  0.35051516583E+03  0.00000000000E+00 0. -1.
         21    1    1    2  502  501 -0.23663034803E+02 -0.56783471996E+02 -0.70203233175E+02  0.93342358317E+02  0.00000000000E+00 0. -1.
<scales pt_clust_5="13000.00000" pt_clust_6="13000.00000" pt_clust_7="13000.00000" pt_clust_8="13000.00000" pt_clust_9="61.51668"></scales>
<clustering>
<clus scale="   61.517">  1  9  2 -1</clus>
<clus scale="   90.147">  7  8 -1 -1</clus>
<clus scale="   93.517">  5  6 -1 -1</clus>
<clus scale="  117.680">  1  7  2 -1</clus>
<clus scale="  120.281">  2  5  1 -1</clus>
</clustering>
</event>
<event>
 9    2  0.2984928E-005  0.1282702E+03  0.7546771E-02  0.1234362E+00
          2   -1    0    0  502    0  0.00000000000E+00  0.00000000000E+00  0.35213663034E+03  0.35213663034E+03  0.00000000000E+00 0. -1.
         -1   -1    0    0    0  501 -0.00000000000E+00 -0.00000000000E+00 -0.41282300798E+03  0.41282300798E+03  0.00000000000E+00 0.  1.
         24    2    1    2    0    0  0.57103527304E+02 -0.10240204569E+03 -0.87214406400E+02  0.16719765159E+03  0.81250909048E+02 0.  0.
         23    2    1    2    0    0  0.46444006463E+01  0.82868213599E+02  0.29518654401E+03  0.32140754942E+03  0.96327596146E+02 0.  0.
        -11    1    3    3    0    0  0.29992476416E+02 -0.11016853707E+03 -0.73936279880E+02  0.13602657345E+03  0.00000000000E+00 0.  1.
         12    1    3    3    0    0  0.27111050888E+02  0.77664913792E+01 -0.13278126520E+02  0.31171078141E+02  0.00000000000E+00 0. -1.
        -11    1    4    4    0    0 -0.25849157215E+02  0.86598875602E+02  0.25681855855E+03  0.27225597551E+03  0.00000000000E+00 0. -1.
         11    1    4    4    0    0  0.30493557861E+02 -0.37306620034E+01  0.38367985456E+02  0.49151573912E+02  0.00000000000E+00 0.  1.
         21    1    1    2  502  501 -0.61747927951E+02  0.19533832090E+02 -0.26865851525E+03  0.27635443730E+03  0.00000000000E+00 0.  1.
<scales pt_clust_5="13000.00000" pt_clust_6="13000.00000" pt_clust_7="13000.00000" pt_clust_8="13000.00000" pt_clust_9="64.76401"></scales>
<clustering>
<clus scale="   64.764">  2  9  1 -1</clus>
<clus scale="   81.251">  5  6 -1 -1</clus>
<clus scale="   96.328">  7  8 -1 -1</clus>
<clus scale="  117.371">  2  5  1 -1</clus>
<clus scale="  128.270">  1  5  2 -1</clus>
</clustering>
</event>
<event>
 9    2  0.2984928E-005  0.2287886E+03  0.7546771E-02  0.1128742E+00
         -1   -1    0    0    0  501 -0.00000000000E+00  0.00000000000E+00  0.67927724562E+02  0.67927724562E+02  0.00000000000E+00 0.  1.
          2   -1    0    0  502    0  0.00000000000E+00 -0.00000000000E+00 -0.21960847682E+04  0.21960847682E+04  0.00000000000E+00 0. -1.
         23    2    1    2    0    0  0.15730670698E+03  0.98076525201E+02 -0.21579747002E+03  0.30100218157E+03  0.98332905899E+02 0.  0.
         24    2    1    2    0    0 -0.24075264383E+03 -0.17021537295E+03 -0.10495787465E+04  0.10932068890E+04  0.80936074889E+02 0.  0.
        -13    1    4    4    0    0 -0.17591174097E+03 -0.12312301883E+03 -0.61767963367E+03  0.65393604292E+03  0.00000000000E+00 0.  1.
         14    1    4    4    0    0 -0.64840902860E+02 -0.47092354128E+02 -0.43189911284E+03  0.43927084604E+03  0.00000000000E+00 0. -1.
        -11    1    3    3    0    0  0.15828726876E+03  0.64469945753E+02 -0.15126798077E+03  0.22823942553E+03  0.00000000000E+00 0. -1.
         11    1    3    3    0    0 -0.98056177951E+00  0.33606579448E+02 -0.64529489253E+02  0.72762756042E+02  0.00000000000E+00 0.  1.
         21    1    1    2  502  501  0.83445936846E+02  0.72138847753E+02 -0.86278082710E+03  0.86980342224E+03  0.00000000000E+00 0.  1.
<scales pt_clust_5="13000.00000" pt_clust_6="13000.00000" pt_clust_7="13000.00000" pt_clust_8="13000.00000" pt_clust_9="110.30520"></scales>
<clustering>
<clus scale="   80.936">  5  6 -1 -1</clus>
<clus scale="   98.333">  7  8 -1 -1</clus>
<clus scale="  110.305">  2  9  1 -1</clus>
<clus scale="  221.868">  2  5  1 -1</clus>
<clus scale="  110.305">  2  5  1 -1</clus>
</clustering>
</event>
<event>
 9    2  0.2984928E-005  0.1605563E+03  0.7546771E-02  0.1189500E+00
         -1   -1    0    0    0  501 -0.00000000000E+00  0.00000000000E+00  0.88218908016E+02  0.88218908016E+02  0.00000000000E+00 0.  1.
          2   -1    0    0  502    0  0.00000000000E+00 -0.00000000000E+00 -0.53583097285E+03  0.53583097285E+03  0.00000000000E+00 0. -1.
         23    2    1    2    0    0 -0.68180968445E+02  0.11412367796E+03 -0.23283881640E+02  0.16288875734E+03  0.91201698417E+02 0.  0.
         24    2    1    2    0    0  0.84479932628E+02 -0.98937004665E+02 -0.39788787794E+03  0.42658684087E+03  0.82074231545E+02 0.  0.
        -13    1    4    4    0    0  0.16837867356E+02 -0.15325858627E+02 -0.11493760539E+02  0.25504945620E+02  0.00000000000E+00 0.  1.
         14    1    4    4    0    0  0.67642065272E+02 -0.83611146039E+02 -0.38639411740E+03  0.40108189525E+03  0.00000000000E+00 0. -1.
        -13    1    3    3    0    0 -0.76915121242E+02  0.46633161759E+02 -0.29225577578E+02  0.94576540623E+02  0.00000000000E+00 0. -1.
         13    1    3    3    0    0  0.87341527971E+01  0.67490516201E+02  0.59416959378E+01  0.68312216717E+02  0.00000000000E+00 0.  1.
         21    1    1    2  502  501 -0.16298964183E+02 -0.15186673295E+02 -0.26440305252E+02  0.34574282654E+02  0.00000000000E+00 0.  1.
<scales pt_clust_5="13000.00000" pt_clust_6="13000.00000" pt_clust_7="13000.00000" pt_clust_8="13000.00000" pt_clust_9="22.27760"></scales>
<clustering>
<clus scale="   22.278">  2  9  1 -1</clus>
<clus scale="   82.074">  5  6 -1 -1</clus>
<clus scale="   91.202">  7  8 -1 -1</clus>
<clus scale="  155.553">  2  5  1 -1</clus>
<clus scale="   22.278">  2  5  1 -1</clus>
</clustering>
</event>
<event>
 9    2  0.2984928E-005  0.2695442E+03  0.7546771E-02  0.1102537E+00
          2   -1    0    0  502    0  0.00000000000E+00  0.00000000000E+00  0.46750357097E+03  0.46750357097E+03  0.00000000000E+00 0. -1.
         -1   -1    0    0    0  501 -0.00000000000E+00 -0.00000000000E+00 -0.42496197529E+03  0.42496197529E+03  0.00000000000E+00 0.  1.
         24    2    1    2    0    0  0.26689649069E+02  0.23953398644E+03 -0.27391047503E+03  0.37273116821E+03  0.76241113535E+02 0.  0.
         23    2    1    2    0    0 -0.28802885619E+02 -0.31391964920E+03  0.21445983322E+03  0.39348023317E+03  0.97254930241E+02 0.  0.
        -11    1    3    3    0    0  0.51699722390E+02  0.19235207157E+03 -0.22204685478E+03  0.29829010451E+03  0.00000000000E+00 0.  1.
         12    1    3    3    0    0 -0.25010073320E+02  0.47181914869E+02 -0.51863620258E+02  0.74441063698E+02  0.00000000000E+00 0. -1.
        -13    1    4    4    0    0 -0.10613689296E+02 -0.10061672472E+03  0.17689767416E+02  0.10270980267E+03  0.00000000000E+00 0.  1.
         13    1    4    4    0    0 -0.18189196324E+02 -0.21330292448E+03  0.19677006581E+03  0.29077043050E+03  0.00000000000E+00 0. -1.
         21    1    1    2  502  501  0.21132365502E+01  0.74385662759E+02  0.10199223749E+03  0.12625414488E+03  0.00000000000E+00 0. -1.
<scales pt_clust_5="13000.00000" pt_clust_6="13000.00000" pt_clust_7="13000.00000" pt_clust_8="13000.00000" pt_clust_9="74.41567"></scales>
<clustering>
<clus scale="   74.416">  1  9  2 -1</clus>
<clus scale="   76.241">  5  6 -1 -1</clus>
<clus scale="   97.255">  7  8 -1 -1</clus>
<clus scale="  262.694">  2  5  1 -1</clus>
<clus scale="   74.416">  1  5  2 -1</clus>
</clustering>
</event>
<event>
 9    2  0.2984928E-005  0.5917962E+03  0.7546771E-02  0.9922574E-01
         -1   -1    0    0    0  501 -0.00000000000E+00  0.00000000000E+00  0.16592022130E+03  0.16592022130E+03  0.00000000000E+00 0.  1.
          2   -1    0    0  502    0  0.00000000000E+00 -0.00000000000E+00 -0.19447117317E+04  0.19447117317E+04  0.00000000000E+00 0. -1.
         24    2    1    2    0    0  0.13157087854E+03  0.10762844862E+03 -0.16439301191E+03  0.24993887624E+03  0.80929601855E+02 0.  0.
         23    2    1    2    0    0  0.27240213498E+03  0.25316056218E+03 -0.69222145418E+03  0.79121965166E+03  0.92546216335E+02 0.  0.
        -11    1    3    3    0    0  0.45274910291E+02  0.27474109613E+01 -0.73979599822E+02  0.86777571749E+02  0.00000000000E+00 0.  1.
         12    1    3    3    0    0  0.86295968254E+02  0.10488103765E+03 -0.90413412090E+02  0.16316130449E+03  0.00000000000E+00 0. -1.
        -11    1    4    4    0    0  0.15982431522E+03  0.18984713779E+03 -0.38622872376E+03  0.45908427823E+03  0.00000000000E+00 0. -1.
         11    1    4    4    0    0  0.11257781976E+03  0.63313424383E+02 -0.30599273043E+03  0.33213537343E+03  0.00000000000E+00 0.  1.
         21    1    1    2  502  501 -0.40397301353E+03 -0.36078901079E+03 -0.92217704425E+03  0.10694734251E+04  0.00000000000E+00 0.  1.
<scales pt_clust_5="13000.00000" pt_clust_6="13000.00000" pt_clust_7="13000.00000" pt_clust_8="13000.00000" pt_clust_9="541.62986"></scales>
<clustering>
<clus scale="   80.930">  5  6 -1 -1</clus>
<clus scale="   92.546">  7  8 -1 -1</clus>
<clus scale="  140.959">  5  7 -1 -1</clus>
<clus scale="  541.630">  2  9  1 -1</clus>
<clus scale="  541.630">  2  5  1 -1</clus>
</clustering>
</event>
<event>
 9    2  0.2984928E-005  0.1027475E+03  0.7546771E-02  0.1277910E+00
         -1   -1    0    0    0  501 -0.00000000000E+00  0.00000000000E+00  0.95542943730E+02  0.95542943730E+02  0.00000000000E+00 0.  1.
          2   -1    0    0  502    0  0.00000000000E+00 -0.00000000000E+00 -0.22794114532E+03  0.22794114532E+03  0.00000000000E+00 0. -1.
         23    2    1    2    0    0  0.40149843253E+02 -0.30243149639E+02  0.33164215178E+02  0.10754267147E+03  0.89100521917E+02 0.  0.
         24    2    1    2    0    0 -0.22846175543E+02  0.46952878743E+02 -0.16554057563E+03  0.19188663760E+03  0.81794125405E+02 0.  0.
        -13    1    4    4    0    0 -0.39837411734E+02  0.13723154664E+02 -0.31120617950E+02  0.52381649546E+02  0.00000000000E+00 0.  1.
         14    1    4    4    0    0  0.16991236190E+02  0.33229724078E+02 -0.13441995768E+03  0.13950498805E+03  0.00000000000E+00 0. -1.
        -11    1    3    3    0    0 -0.17135111161E+02 -0.35686087641E+02 -0.27995376106E+01  0.39685593059E+02  0.00000000000E+00 0. -1.
         11    1    3    3    0    0  0.57284954413E+02  0.54429380018E+01  0.35963752789E+02  0.67857078414E+02  0.00000000000E+00 0.  1.
         21    1    1    2  502  501 -0.17303667709E+02 -0.16709729104E+02 -0.21841144589E-01  0.24054779982E+02  0.00000000000E+00 0.  1.
<scales pt_clust_5="13000.00000" pt_clust_6="13000.00000" pt_clust_7="13000.00000" pt_clust_8="13000.00000" pt_clust_9="24.05477"></scales>
<clustering>
<clus scale="   24.055">  1  9  2 -1</clus>
<clus scale="   81.794">  5  6 -1 -1</clus>
<clus scale="   89.101">  7  8 -1 -1</clus>
<clus scale="   96.480">  2  5  1 -1</clus>
<clus scale="   96.480">  2  5  1 -1</clus>
</clustering>
</event>
<event>
 9    2  0.2984928E-005  0.1131879E+03  0.7546771E-02  0.1257656E+00
         -1   -1    0    0    0  501 -0.00000000000E+00  0.00000000000E+00  0.41940189636E+02  0.41940189636E+02  0.00000000000E+00 0.  1.
          2   -1    0    0  502    0  0.00000000000E+00 -0.00000000000E+00 -0.58048827027E+03  0.58048827027E+03  0.00000000000E+00 0. -1.
         23    2    1    2    0    0 -0.61298341069E+02  0.45934072258E+02 -0.82106977052E+02  0.14397749169E+03  0.90114021216E+02 0.  0.
         24    2    1    2    0    0  0.26491301546E+02 -0.47009099104E+02 -0.24174458076E+03  0.26094859445E+03  0.82110183066E+02 0.  0.
        -11    1    4    4    0    0 -0.11956308667E+01 -0.38399982049E+02 -0.34345302963E+02  0.51532397481E+02  0.00000000000E+00 0.  1.
         12    1    4    4    0    0  0.27686932413E+02 -0.86091170552E+01 -0.20739927779E+03  0.20941619697E+03  0.00000000000E+00 0. -1.
        -13    1    3    3    0    0  0.17425962427E+02  0.21786682922E+02 -0.46580605044E+02  0.54296192183E+02  0.00000000000E+00 0. -1.
         13    1    3    3    0    0 -0.78724303496E+02  0.24147389336E+02 -0.35526372008E+02  0.89681299504E+02  0.00000000000E+00 0.  1.
         21    1    1    2  502  501  0.34807039523E+02  0.10750268459E+01 -0.21469652282E+03  0.21750237377E+03  0.00000000000E+00 0.  1.
<scales pt_clust_5="13000.00000" pt_clust_6="13000.00000" pt_clust_7="13000.00000" pt_clust_8="13000.00000" pt_clust_9="34.82364"></scales>
<clustering>
<clus scale="   34.824">  2  9  1 -1</clus>
<clus scale="   82.110">  5  6 -1 -1</clus>
<clus scale="   90.114">  7  8 -1 -1</clus>
<clus scale="  106.925">  2  5  1 -1</clus>
<clus scale="   34.824">  2  5  1 -1</clus>
</clustering>
</event>
<event>
 9    2  0.2984928E-005  0.1007745E+03  0.7546771E-02  0.1284133E+00
          2   -1    0    0  502    0  0.00000000000E+00  0.00000000000E+00  0.15828455207E+03  0.15828455207E+03  0.00000000000E+00 0. -1.
         -1   -1    0    0    0  501 -0.00000000000E+00 -0.00000000000E+00 -0.26893127884E+03  0.26893127884E+03  0.00000000000E+00 0.  1.
         24    2    1    2    0    0 -0.18056917893E+02  0.36778019872E+02 -0.22944832512E+03  0.24654398976E+03  0.80366223986E+02 0.  0.
         23    2    1    2    0    0  0.18313426006E+02 -0.61177530361E+02  0.10107191419E+03  0.15050988483E+03  0.91430967401E+02 0.  0.
        -11    1    3    3    0    0 -0.42264023601E+02  0.72878323284E+01 -0.17420217171E+03  0.17940389299E+03  0.00000000000E+00 0.  1.
         12    1    3    3    0    0  0.24207105709E+02  0.29490187543E+02 -0.55246153411E+02  0.67140096774E+02  0.00000000000E+00 0. -1.
        -11    1    4    4    0    0  0.42064947604E+02 -0.35485361647E+02  0.14169466029E+02  0.56828201412E+02  0.00000000000E+00 0.  1.
         11    1    4    4    0    0 -0.23751521599E+02 -0.25692168715E+02  0.86902448158E+02  0.93681683414E+02  0.00000000000E+00 0. -1.
         21    1    1    2  502  501 -0.25650811300E+00  0.24399510490E+02  0.17729684164E+02  0.30161956321E+02  0.00000000000E+00 0. -1.
<scales pt_clust_5="13000.00000" pt_clust_6="13000.00000" pt_clust_7="13000.00000" pt_clust_8="13000.00000" pt_clust_9="24.40086"></scales>
<clustering>
<clus scale="   24.401">  1  9  2 -1</clus>
<clus scale="   80.366">  5  6 -1 -1</clus>
<clus scale="   90.855">  2  5  1 -1</clus>
<clus scale="   91.431">  7  8 -1 -1</clus>
<clus scale="   24.401">  1  5  2 -1</clus>
</clustering>
</event>
<event>
 9    2  0.2984928E-005  0.1724768E+03  0.7546771E-02  0.1176445E+00
          2   -1    0    0  502    0  0.00000000000E+00  0.00000000000E+00  0.31855067841E+03  0.31855067841E+03  0.00000000000E+00 0. -1.
         -1   -1    0    0    0  501 -0.00000000000E+00 -0.00000000000E+00 -0.18224427815E+03  0.18224427815E+03  0.00000000000E+00 0.  1.
         23    2    1    2    0    0 -0.14437951610E+03 -0.38265413563E+02 -0.95250206138E+02  0.19917715505E+03  0.91045322674E+02 0.  0.
         24    2    1    2    0    0  0.12213569788E+03  0.56820979310E+02  0.21920066225E+03  0.27012548777E+03  0.82298823954E+02 0.  0.
        -11    1    4    4    0    0  0.10285531192E+03  0.72124197932E+02  0.14448935098E+03  0.19146354134E+03  0.00000000000E+00 0.  1.
         12    1    4    4    0    0  0.19280385957E+02 -0.15303218622E+02  0.74711311277E+02  0.78661946427E+02  0.00000000000E+00 0. -1.
        -13    1    3    3    0    0 -0.11295181627E+03 -0.53492157417E+02 -0.35419162854E+02  0.12990011856E+03  0.00000000000E+00 0.  1.
         13    1    3    3    0    0 -0.31427699828E+02  0.15226743854E+02 -0.59831043284E+02  0.69277036494E+02  0.00000000000E+00 0. -1.
         21    1    1    2  502  501  0.22243818215E+02 -0.18555565748E+02  0.12355944145E+02  0.31492313741E+02  0.00000000000E+00 0. -1.
<scales pt_clust_5="13000.00000" pt_clust_6="13000.00000" pt_clust_7="13000.00000" pt_clust_8="13000.00000" pt_clust_9="28.96716"></scales>
<clustering>
<clus scale="   28.967">  1  9  2 -1</clus>
<clus scale="   82.299">  5  6 -1 -1</clus>
<clus scale="   91.045">  7  8 -1 -1</clus>
<clus scale="  168.024">  1  5  2 -1</clus>
<clus scale="   28.967">  1  5  2 -1</clus>
</clustering>
</event>
<event>
 9    2  0.2984928E-005  0.9113799E+02  0.7546771E-02  0.1313731E+00
          2   -1    0    0  502    0  0.00000000000E+00  0.00000000000E+00  0.89788033816E+02  0.89788033816E+02  0.00000000000E+00 0. -1.
         -1   -1    0    0    0  501 -0.00000000000E+00 -0.00000000000E+00 -0.17277174945E+03  0.17277174945E+03  0.00000000000E+00 0.  1.
         23    2    1    2    0    0  0.73687600857E+01 -0.12252733769E+00 -0.11290389362E+03  0.14514721858E+03  0.90918162261E+02 0.  0.
         24    2    1    2    0    0  0.14993749748E+02  0.20864096135E+02  0.94632755779E+00  0.75343828904E+02  0.70821423164E+02 0.  0.
        -13    1    4    4    0    0 -0.46958780917E+01 -0.23071468130E+02 -0.10619063598E+02  0.25828442160E+02  0.00000000000E+00 0.  1.
         14    1    4    4    0    0  0.19689627840E+02  0.43935564265E+02  0.11565391155E+02  0.49515386743E+02  0.00000000000E+00 0. -1.
        -11    1    3    3    0    0  0.28832400323E+02 -0.25409107840E+02 -0.10389909177E+03  0.11077883977E+03  0.00000000000E+00 0.  1.
         11    1    3    3    0    0 -0.21463640238E+02  0.25286580502E+02 -0.90048018473E+01  0.34368378810E+02  0.00000000000E+00 0. -1.
         21    1    1    2  502  501 -0.22362509834E+02 -0.20741568797E+02  0.28973850425E+02  0.42068735786E+02  0.00000000000E+00 0.  1.
<scales pt_clust_5="13000.00000" pt_clust_6="13000.00000" pt_clust_7="13000.00000" pt_clust_8="13000.00000" pt_clust_9="30.50073"></scales>
<clustering>
<clus scale="   30.501">  1  9  2 -1</clus>
<clus scale="   70.821">  5  6 -1 -1</clus>
<clus scale="   71.103">  1  5  2 -1</clus>
<clus scale="   90.918">  7  8 -1 -1</clus>
<clus scale="   30.501">  1  5  2 -1</clus>
</clustering>
</event>
<event>
 9    2  0.2984928E-005  0.3287911E+03  0.7546771E-02  0.1103902E+00
          2   -1    0    0  502    0  0.00000000000E+00  0.00000000000E+00  0.74122064507E+03  0.74122064507E+03  0.00000000000E+00 0. -1.
         -1   -1    0    0    0  501 -0.00000000000E+00 -0.00000000000E+00 -0.22577460586E+03  0.22577460586E+03  0.00000000000E+00 0.  1.
         23    2    1    2    0    0 -0.27674924939E+03  0.13303562779E+03  0.14589051394E+03  0.35161975660E+03  0.89798585023E+02 0.  0.
         24    2    1    2    0    0 -0.58261455442E+02 -0.97212576146E+02  0.18302739556E+03  0.23026744904E+03  0.81727525409E+02 0.  0.
        -13    1    4    4    0    0 -0.64301141316E+02 -0.10648975892E+03  0.17997867468E+03  0.21878534885E+03  0.00000000000E+00 0.  1.
         14    1    4    4    0    0  0.60396858746E+01  0.92771827760E+01  0.30487208731E+01  0.11482100186E+02  0.00000000000E+00 0. -1.
        -13    1    3    3    0    0 -0.22248332662E+02  0.44882664652E+02  0.15909376340E+02  0.52559967161E+02  0.00000000000E+00 0. -1.
         13    1    3    3    0    0 -0.25450091673E+03  0.88152963139E+02  0.12998113760E+03  0.29905978943E+03  0.00000000000E+00 0.  1.
         21    1    1    2  502  501  0.33501070483E+03 -0.35823051646E+02  0.18652812971E+03  0.38510804530E+03  0.00000000000E+00 0. -1.
<scales pt_clust_5="13000.00000" pt_clust_6="13000.00000" pt_clust_7="13000.00000" pt_clust_8="13000.00000" pt_clust_9="316.29068"></scales>
<clustering>
<clus scale="   81.728">  5  6 -1 -1</clus>
<clus scale="   89.799">  7  8 -1 -1</clus>
<clus scale="  139.729">  1  5  2 -1</clus>
<clus scale="  316.291">  1  9  2 -1</clus>
<clus scale="  139.729">  1  5  2 -1</clus>
</clustering>
</event>
<event>
 9    2  0.2984928E-005  0.1319945E+03  0.7546771E-02  0.1227897E+00
          4   -1    0    0  502    0  0.00000000000E+00  0.00000000000E+00  0.90130635546E+02  0.90130635546E+02  0.00000000000E+00 0. -1.
         -3   -1    0    0    0  501 -0.00000000000E+00 -0.00000000000E+00 -0.41367753561E+03  0.41367753561E+03  0.00000000000E+00 0.  1.
         23    2    1    2    0    0  0.58753009493E+02  0.72268702208E+02 -0.32850320825E+03  0.35386069257E+03  0.92888914706E+02 0.  0.
         24    2    1    2    0    0 -0.45086158291E+02 -0.88291192180E+02  0.11953865388E+02  0.12775584021E+03  0.79690423045E+02 0.  0.
        -13    1    4    4    0    0 -0.38292567266E+02 -0.98676494056E+01 -0.18109556138E+02  0.43493071127E+02  0.00000000000E+00 0.  1.
         14    1    4    4    0    0 -0.67935910254E+01 -0.78423542774E+02  0.30063421526E+02  0.84262769087E+02  0.00000000000E+00 0. -1.
        -13    1    3    3    0    0  0.46926506206E+02  0.80314481276E+01 -0.23518065523E+03  0.23995112364E+03  0.00000000000E+00 0.  1.
         13    1    3    3    0    0  0.11826503287E+02  0.64237254080E+02 -0.93322553022E+02  0.11390956893E+03  0.00000000000E+00 0. -1.
         21    1    1    2  502  501 -0.13666851202E+02  0.16022489972E+02 -0.69975572039E+01  0.22191638369E+02  0.00000000000E+00 0.  1.
<scales pt_clust_5="13000.00000" pt_clust_6="13000.00000" pt_clust_7="13000.00000" pt_clust_8="13000.00000" pt_clust_9="21.05951"></scales>
<clustering>
<clus scale="   21.060">  1  9  2 -1</clus>
<clus scale="   79.690">  5  6 -1 -1</clus>
<clus scale="   92.889">  7  8 -1 -1</clus>
<clus scale="  123.064">  1  5  2 -1</clus>
<clus scale="   21.060">  1  5  2 -1</clus>
</clustering>
</event>
<event>
 9    2  0.2984928E-005  0.3133709E+03  0.7546771E-02  0.1078880E+00
         -1   -1    0    0    0  501 -0.00000000000E+00  0.00000000000E+00  0.11064664785E+04  0.11064664785E+04  0.00000000000E+00 0.  1.
          2   -1    0    0  502    0  0.00000000000E+00 -0.00000000000E+00 -0.51550948543E+03  0.51550948543E+03  0.00000000000E+00 0. -1.
         24    2    1    2    0    0  0.20269912374E+03  0.21808688399E+03  0.95270191317E+03  0.10013889099E+04  0.80560473078E+02 0.  0.
         23    2    1    2    0    0 -0.22443828753E+03 -0.25569222019E+03 -0.11352572135E+03  0.36859593673E+03  0.84993051438E+02 0.  0.
        -13    1    3    3    0    0  0.20461002578E+03  0.22198396982E+03  0.94834553924E+03  0.99523937186E+03  0.00000000000E+00 0.  1.
         14    1    3    3    0    0 -0.19109020410E+01 -0.38970858260E+01  0.43563739311E+01  0.61495380617E+01  0.00000000000E+00 0. -1.
        -11    1    4    4    0    0 -0.15728875168E+02 -0.26774683321E+02  0.13402790511E+02  0.33821826895E+02  0.00000000000E+00 0.  1.
         11    1    4    4    0    0 -0.20870941237E+03 -0.22891753687E+03 -0.12692851186E+03  0.33477410984E+03  0.00000000000E+00 0. -1.
         21    1    1    2  502  501  0.21739163792E+02  0.37605336196E+02 -0.24821919875E+03  0.25199111727E+03  0.00000000000E+00 0. -1.
<scales pt_clust_5="13000.00000" pt_clust_6="13000.00000" pt_clust_7="13000.00000" pt_clust_8="13000.00000" pt_clust_9="43.43676"></scales>
<clustering>
<clus scale="   43.437">  2  9  1 -1</clus>
<clus scale="   80.560">  5  6 -1 -1</clus>
<clus scale="   84.993">  7  8 -1 -1</clus>
<clus scale="  312.198">  1  5  2 -1</clus>
<clus scale="   43.437">  2  5  1 -1</clus>
</clustering>
</event>
<event>
 9    2  0.2984928E-005  0.1523107E+03  0.7546771E-02  0.1198739E+00
          2   -1    0    0  502    0  0.00000000000E+00  0.00000000000E+00  0.30957817591E+03  0.30957817591E+03  0.00000000000E+00 0. -1.
         -1   -1    0    0    0  501 -0.00000000000E+00 -0.00000000000E+00 -0.23981521591E+03  0.23981521591E+03  0.00000000000E+00 0.  1.
         23    2    1    2    0    0  0.18000853476E+01  0.11468624422E+03 -0.16203004182E+03  0.21786155219E+03  0.89742668513E+02 0.  0.
         24    2    1    2    0    0 -0.29896313421E+02 -0.14012696098E+03  0.11082770083E+03  0.20476736455E+03  0.95485808181E+02 0.  0.
        -11    1    4    4    0    0 -0.18281188614E+02  0.81198962864E+01  0.12296003880E+01  0.20041119977E+02  0.00000000000E+00 0.  1.
         12    1    4    4    0    0 -0.11615124808E+02 -0.14824685727E+03  0.10959810044E+03  0.18472624457E+03  0.00000000000E+00 0. -1.
        -13    1    3    3    0    0 -0.19491237720E+02 -0.50384759048E+01 -0.81158983958E+01  0.21706275454E+02  0.00000000000E+00 0. -1.
         13    1    3    3    0    0  0.21291323068E+02  0.11972472013E+03 -0.15391414342E+03  0.19615527674E+03  0.00000000000E+00 0.  1.
         21    1    1    2  502  501  0.28096228074E+02  0.25440716755E+02  0.12096530099E+03  0.12676447509E+03  0.00000000000E+00 0. -1.
<scales pt_clust_5="13000.00000" pt_clust_6="13000.00000" pt_clust_7="13000.00000" pt_clust_8="13000.00000" pt_clust_9="37.90288"></scales>
<clustering>
<clus scale="   37.903">  1  9  2 -1</clus>
<clus scale="   89.743">  7  8 -1 -1</clus>
<clus scale="   95.486">  5  6 -1 -1</clus>
<clus scale="  148.777">  2  7  1 -1</clus>
<clus scale="   37.903">  1  5  2 -1</clus>
</clustering>
</event>
<event>
 9    2  0.2984928E-005  0.1740222E+03  0.7546771E-02  0.1174914E+00
         -3   -1    0    0    0  501 -0.00000000000E+00  0.00000000000E+00  0.78805578707E+03  0.78805578707E+03  0.00000000000E+00 0.  1.
          4   -1    0    0  502    0  0.00000000000E+00 -0.00000000000E+00 -0.52621378064E+02  0.52621378064E+02  0.00000000000E+00 0. -1.
         23    2    1    2    0    0 -0.16122689789E+03 -0.77417331879E+01  0.50105548987E+03  0.53421439563E+03  0.90963561528E+02 0.  0.
         24    2    1    2    0    0  0.12959205977E+03  0.84165378519E+01  0.22698021575E+03  0.27396724434E+03  0.81688999045E+02 0.  0.
        -13    1    4    4    0    0  0.25674599301E+02 -0.31595112908E+02  0.45568642124E+02  0.61105951870E+02  0.00000000000E+00 0.  1.
         14    1    4    4    0    0  0.10391746047E+03  0.40011650760E+02  0.18141157363E+03  0.21286129247E+03  0.00000000000E+00 0. -1.
        -13    1    3    3    0    0 -0.15132849087E+03 -0.30189609751E+02  0.46971994438E+03  0.49441738525E+03  0.00000000000E+00 0.  1.
         13    1    3    3    0    0 -0.98984070185E+01  0.22447876563E+02  0.31335545492E+02  0.39797010377E+02  0.00000000000E+00 0. -1.
         21    1    1    2  502  501  0.31634838117E+02 -0.67480466397E+00  0.73987033809E+01  0.32495525165E+02  0.00000000000E+00 0. -1.
<scales pt_clust_5="13000.00000" pt_clust_6="13000.00000" pt_clust_7="13000.00000" pt_clust_8="13000.00000" pt_clust_9="31.64203"></scales>
<clustering>
<clus scale="   31.642">  2  9  1 -1</clus>
<clus scale="   81.689">  5  6 -1 -1</clus>
<clus scale="   90.964">  7  8 -1 -1</clus>
<clus scale="  169.359">  2  5  1 -1</clus>
<clus scale="   31.642">  2  5  1 -1</clus>
</clustering>
</event>
<event>
 9    2  0.2984928E-005  0.1975579E+03  0.7546771E-02  0.1188251E+00
          2   -1    0    0  502    0  0.00000000000E+00  0.00000000000E+00  0.47396938805E+03  0.47396938805E+03  0.00000000000E+00 0. -1.
         -1   -1    0    0    0  501 -0.00000000000E+00 -0.00000000000E+00 -0.11675108417E+03  0.11675108417E+03  0.00000000000E+00 0.  1.
         23    2    1    2    0    0  0.14625273940E+03 -0.69906442832E+02  0.11943762899E+03  0.22089199706E+03  0.90835855346E+02 0.  0.
         24    2    1    2    0    0  0.16475291672E+02 -0.26780124378E+02  0.11766711140E+03  0.14565003617E+03  0.79873485168E+02 0.  0.
        -13    1    4    4    0    0  0.16840390657E+02  0.16114898007E+02  0.33480709984E+01  0.23547787044E+02  0.00000000000E+00 0.  1.
         14    1    4    4    0    0 -0.36509898433E+00 -0.42895022385E+02  0.11431904040E+03  0.12210224912E+03  0.00000000000E+00 0. -1.
        -13    1    3    3    0    0  0.26699172630E+02 -0.47443283717E+02  0.72136580419E+02  0.90373653370E+02  0.00000000000E+00 0.  1.
         13    1    3    3    0    0  0.11955356677E+03 -0.22463159115E+02  0.47301048576E+02  0.13051834369E+03  0.00000000000E+00 0. -1.
         21    1    1    2  502  501 -0.16272803107E+03  0.96686567210E+02  0.12011356348E+03  0.22417843899E+03  0.00000000000E+00 0.  1.
<scales pt_clust_5="13000.00000" pt_clust_6="13000.00000" pt_clust_7="13000.00000" pt_clust_8="13000.00000" pt_clust_9="175.43647"></scales>
<clustering>
<clus scale="   79.873">  5  6 -1 -1</clus>
<clus scale="   85.839">  1  5  2 -1</clus>
<clus scale="   90.836">  7  8 -1 -1</clus>
<clus scale="  175.436">  1  9  2 -1</clus>
<clus scale="   85.839">  1  5  2 -1</clus>
</clustering>
</event>
<event>
 9    2  0.2984928E-005  0.2020080E+03  0.7546771E-02  0.1148950E+00
          2   -1    0    0  502    0  0.00000000000E+00  0.00000000000E+00  0.12446671408E+04  0.12446671408E+04  0.00000000000E+00 0. -1.
         -1   -1    0    0    0  501 -0.00000000000E+00 -0.00000000000E+00 -0.93749018957E+02  0.93749018957E+02  0.00000000000E+00 0.  1.
         23    2    1    2    0    0 -0.17262697121E+03 -0.13616804112E+03  0.12331247656E+03  0.26810439677E+03  0.91280852768E+02 0.  0.
         24    2    1    2    0    0  0.11687506751E+03  0.34250713878E+02  0.30430184103E+03  0.33773834713E+03  0.81453593318E+02 0.  0.
        -13    1    4    4    0    0  0.10451230332E+02 -0.20906767927E+02  0.80910913417E+02  0.84219339053E+02  0.00000000000E+00 0.  1.
         14    1    4    4    0    0  0.10642383718E+03  0.55157481805E+02  0.22339092761E+03  0.25351900808E+03  0.00000000000E+00 0. -1.
        -11    1    3    3    0    0 -0.10206378362E+03 -0.25406665975E+02  0.70135642066E+02  0.12641804812E+03  0.00000000000E+00 0. -1.
         11    1    3    3    0    0 -0.70563187586E+02 -0.11076137515E+03  0.53176834489E+02  0.14168634865E+03  0.00000000000E+00 0.  1.
         21    1    1    2  502  501  0.55751903698E+02  0.10191732724E+03  0.72330380422E+03  0.73257341582E+03  0.00000000000E+00 0. -1.
<scales pt_clust_5="13000.00000" pt_clust_6="13000.00000" pt_clust_7="13000.00000" pt_clust_8="13000.00000" pt_clust_9="116.16977"></scales>
<clustering>
<clus scale="   81.454">  5  6 -1 -1</clus>
<clus scale="   91.281">  7  8 -1 -1</clus>
<clus scale="  116.170">  1  9  2 -1</clus>
<clus scale="  197.762">  1  5  2 -1</clus>
<clus scale="  116.170">  1  5  2 -1</clus>
</clustering>
</event>
<event>
 9    2  0.2984928E-005  0.1021778E+03  0.7546771E-02  0.1279800E+00
         -1   -1    0    0    0  501 -0.00000000000E+00  0.00000000000E+00  0.32352172879E+02  0.32352172879E+02  0.00000000000E+00 0.  1.
          2   -1    0    0  502    0  0.00000000000E+00 -0.00000000000E+00 -0.70535557424E+03  0.70535557424E+03  0.00000000000E+00 0. -1.
         24    2    1    2    0    0  0.19536099463E+02 -0.17388502208E+02 -0.50471988940E+02  0.98873105737E+02  0.80897776108E+02 0.  0.
         23    2    1    2    0    0 -0.49171098456E+02  0.22143301658E+02 -0.55731321209E+03  0.56704150147E+03  0.89609850430E+02 0.  0.
        -13    1    3    3    0    0  0.48824422749E+02 -0.33674237868E+01 -0.43896770051E+02  0.65742605824E+02  0.00000000000E+00 0.  1.
         14    1    3    3    0    0 -0.29288323286E+02 -0.14021078421E+02 -0.65752188889E+01  0.33130499912E+02  0.00000000000E+00 0. -1.
        -13    1    4    4    0    0  0.20969909599E+02  0.26923474405E+02 -0.19688745228E+03  0.19982312041E+03  0.00000000000E+00 0.  1.
         13    1    4    4    0    0 -0.70141008055E+02 -0.47801727471E+01 -0.36042575980E+03  0.36721838106E+03  0.00000000000E+00 0. -1.
         21    1    1    2  502  501  0.29634998993E+02 -0.47547994501E+01 -0.65218200338E+02  0.71793139912E+02  0.00000000000E+00 0.  1.
<scales pt_clust_5="13000.00000" pt_clust_6="13000.00000" pt_clust_7="13000.00000" pt_clust_8="13000.00000" pt_clust_9="30.01402"></scales>
<clustering>
<clus scale="   30.014">  1  9  2 -1</clus>
<clus scale="   80.898">  5  6 -1 -1</clus>
<clus scale="   89.610">  7  8 -1 -1</clus>
<clus scale="   94.630">  1  5  2 -1</clus>
<clus scale="  102.178">  2  5  1 -1</clus>
</clustering>
</event>
<event>
 9    2  0.2984928E-005  0.9552579E+02  0.7546771E-02  0.1296932E+00
         -1   -1    0    0    0  501 -0.00000000000E+00  0.00000000000E+00  0.11951758888E+03  0.11951758888E+03  0.00000000000E+00 0.  1.
          2   -1    0    0  502    0  0.00000000000E+00 -0.00000000000E+00 -0.36892167001E+03  0.36892167001E+03  0.00000000000E+00 0. -1.
         24    2    1    2    0    0  0.24442655931E+02  0.10237703108E+02  0.91812738457E+02  0.12433801631E+03  0.79549414603E+02 0.  0.
         23    2    1    2    0    0 -0.21326768711E+02 -0.33205055296E+02 -0.30662034817E+03  0.32245842982E+03  0.91684209603E+02 0.  0.
        -11    1    3    3    0    0  0.39741990286E+02  0.36167128320E+02  0.58167590139E+02  0.79189364851E+02  0.00000000000E+00 0.  1.
         12    1    3    3    0    0 -0.15299334355E+02 -0.25929425212E+02  0.33645148317E+02  0.45148651462E+02  0.00000000000E+00 0. -1.
        -13    1    4    4    0    0 -0.28288302029E+02  0.26022304052E+02 -0.91990072360E+02  0.99697350781E+02  0.00000000000E+00 0.  1.
         13    1    4    4    0    0  0.69615333180E+01 -0.59227359348E+02 -0.21463027581E+03  0.22276107904E+03  0.00000000000E+00 0. -1.
         21    1    1    2  502  501 -0.31158872197E+01  0.22967352188E+02 -0.34596471416E+02  0.41642812755E+02  0.00000000000E+00 0.  1.
<scales pt_clust_5="13000.00000" pt_clust_6="13000.00000" pt_clust_7="13000.00000" pt_clust_8="13000.00000" pt_clust_9="23.17775"></scales>
<clustering>
<clus scale="   23.178">  2  9  1 -1</clus>
<clus scale="   79.549">  5  6 -1 -1</clus>
<clus scale="   83.948">  1  5  2 -1</clus>
<clus scale="   91.684">  7  8 -1 -1</clus>
<clus scale="   23.178">  2  5  1 -1</clus>
</clustering>
</event>
<event>
 9    2  0.2984928E-005  0.1823787E+03  0.7546771E-02  0.1194153E+00
         -1   -1    0    0    0  501 -0.00000000000E+00  0.00000000000E+00  0.17605489156E+03  0.17605489156E+03  0.00000000000E+00 0.  1.
          2   -1    0    0  502    0  0.00000000000E+00 -0.00000000000E+00 -0.91790924081E+03  0.91790924081E+03  0.00000000000E+00 0. -1.
         24    2    1    2    0    0  0.50311084088E+02 -0.80330624325E+01 -0.35428684029E+02  0.10213425573E+03  0.81120153279E+02 0.  0.
         23    2    1    2    0    0  0.10756962008E+03 -0.25161049821E+02  0.96902899205E+02  0.17246124882E+03  0.90268537584E+02 0.  0.
        -13    1    3    3    0    0  0.71337953814E+02 -0.77875493603E+01 -0.37562277941E+02  0.80997989503E+02  0.00000000000E+00 0.  1.
         14    1    3    3    0    0 -0.21026869726E+02 -0.24551307224E+00  0.21335939116E+01  0.21136266230E+02  0.00000000000E+00 0. -1.
        -13    1    4    4    0    0  0.19394692276E+02  0.21149442410E+02 -0.59316444582E+01  0.29302515399E+02  0.00000000000E+00 0. -1.
         13    1    4    4    0    0  0.88174927806E+02 -0.46310492231E+02  0.10283454366E+03  0.14315873342E+03  0.00000000000E+00 0.  1.
         21    1    1    2  502  501 -0.15788070417E+03  0.33194112254E+02 -0.80332856442E+03  0.81936862782E+03  0.00000000000E+00 0. -1.
<scales pt_clust_5="13000.00000" pt_clust_6="13000.00000" pt_clust_7="13000.00000" pt_clust_8="13000.00000" pt_clust_9="158.47259"></scales>
<clustering>
<clus scale="   81.120">  5  6 -1 -1</clus>
<clus scale="   90.269">  7  8 -1 -1</clus>
<clus scale="   95.793">  1  5  2 -1</clus>
<clus scale="  158.473">  2  9  1 -1</clus>
<clus scale="  158.473">  2  5  1 -1</clus>
</clustering>
</event>
<event>
 9    2  0.2984928E-005  0.2665338E+03  0.7546771E-02  0.1103851E+00
          2   -1    0    0  502    0  0.00000000000E+00  0.00000000000E+00  0.16448817721E+03  0.16448817721E+03  0.00000000000E+00 0. -1.
         -1   -1    0    0    0  501 -0.00000000000E+00 -0.00000000000E+00 -0.91127233735E+03  0.91127233735E+03  0.00000000000E+00 0.  1.
         23    2    1    2    0    0  0.24536840760E+03  0.55334312373E+02 -0.72017408477E+03  0.76836621110E+03  0.92023803523E+02 0.  0.
         24    2    1    2    0    0 -0.23391883693E+03 -0.72698530606E+02 -0.63169114421E+02  0.26533277615E+03  0.80050274558E+02 0.  0.
        -13    1    4    4    0    0 -0.94798692743E+02 -0.71101568390E+02 -0.25879612756E+02  0.12129294922E+03  0.00000000000E+00 0.  1.
         14    1    4    4    0    0 -0.13912014419E+03 -0.15969622158E+01 -0.37289501665E+02  0.14403982693E+03  0.00000000000E+00 0. -1.
        -11    1    3    3    0    0  0.20369842721E+03  0.63585173038E+02 -0.49218210858E+03  0.53645069810E+03  0.00000000000E+00 0. -1.
         11    1    3    3    0    0  0.41669980392E+02 -0.82508606645E+01 -0.22799197619E+03  0.23191551301E+03  0.00000000000E+00 0.  1.
         21    1    1    2  502  501 -0.11449570672E+02  0.17364218232E+02  0.36559039047E+02  0.42061527308E+02  0.00000000000E+00 0. -1.
<scales pt_clust_5="13000.00000" pt_clust_6="13000.00000" pt_clust_7="13000.00000" pt_clust_8="13000.00000" pt_clust_9="20.79925"></scales>
<clustering>
<clus scale="   20.799">  1  9  2 -1</clus>
<clus scale="   80.050">  5  6 -1 -1</clus>
<clus scale="   92.024">  7  8 -1 -1</clus>
<clus scale="  262.640">  1  5  2 -1</clus>
<clus scale="   20.799">  1  5  2 -1</clus>
</clustering>
</event>
<event>
 9    2  0.2984928E-005  0.1220597E+03  0.7546771E-02  0.1260520E+00
          2   -1    0    0  502    0  0.00000000000E+00  0.00000000000E+00  0.34477756479E+03  0.34477756479E+03  0.00000000000E+00 0. -1.
         -1   -1    0    0    0  501 -0.00000000000E+00 -0.00000000000E+00 -0.73934306086E+02  0.73934306086E+02  0.00000000000E+00 0.  1.
         23    2    1    2    0    0  0.36880243370E+01  0.19555919505E+02  0.57461931917E-01  0.12238711414E+03  0.12075829949E+03 0.  0.
         24    2    1    2    0    0 -0.25733812543E+02 -0.25950142709E+01  0.14011772215E+03  0.16272896784E+03  0.78605201531E+02 0.  0.
        -13    1    4    4    0    0 -0.22751937169E+02  0.32426207020E+02  0.10830606734E+03  0.11532265072E+03  0.00000000000E+00 0.  1.
         14    1    4    4    0    0 -0.29818753742E+01 -0.35021221291E+02  0.31811654815E+02  0.47406317127E+02  0.00000000000E+00 0. -1.
        -11    1    3    3    0    0  0.30986996113E+02  0.41088325294E+00 -0.52019319070E+02  0.60550576460E+02  0.00000000000E+00 0.  1.
         11    1    3    3    0    0 -0.27298971776E+02  0.19145036252E+02  0.52076781002E+02  0.61836537683E+02  0.00000000000E+00 0. -1.
         21    1    1    2  502  501  0.22045788206E+02 -0.16960905234E+02  0.13066807462E+03  0.13359578888E+03  0.00000000000E+00 0.  1.
<scales pt_clust_5="13000.00000" pt_clust_6="13000.00000" pt_clust_7="13000.00000" pt_clust_8="13000.00000" pt_clust_9="27.81527"></scales>
<clustering>
<clus scale="   27.815">  1  9  2 -1</clus>
<clus scale="   78.605">  5  6 -1 -1</clus>
<clus scale="   80.590">  1  5  2 -1</clus>
<clus scale="  120.758">  7  8 -1 -1</clus>
<clus scale="   27.815">  1  5  2 -1</clus>
</clustering>
</event>
<event>
 9    2  0.2984928E-005  0.2104144E+03  0.7546771E-02  0.1173188E+00
         -1   -1    0    0    0  501 -0.00000000000E+00  0.00000000000E+00  0.55715961788E+03  0.55715961788E+03  0.00000000000E+00 0.  1.
          2   -1    0    0  502    0  0.00000000000E+00 -0.00000000000E+00 -0.20811786640E+03  0.20811786640E+03  0.00000000000E+00 0. -1.
         23    2    1    2    0    0  0.18383314116E+03 -0.71756965899E+02  0.40638064849E+03  0.46028024572E+03  0.88141858322E+02 0.  0.
         24    2    1    2    0    0 -0.54134888013E+02 -0.23142096849E+02  0.50257762350E+02  0.11159478231E+03  0.80382896284E+02 0.  0.
        -11    1    4    4    0    0 -0.63304704910E+02  0.10747861623E+02  0.36704440365E+02  0.73960923031E+02  0.00000000000E+00 0.  1.
         12    1    4    4    0    0  0.91698168968E+01 -0.33889958472E+02  0.13553321985E+02  0.37633859276E+02  0.00000000000E+00 0. -1.
        -13    1    3    3    0    0  0.11876106775E+03 -0.89446019583E+02  0.28252579862E+03  0.31925790282E+03  0.00000000000E+00 0.  1.
         13    1    3    3    0    0  0.65072073411E+02  0.17689053684E+02  0.12385484987E+03  0.14102234290E+03  0.00000000000E+00 0. -1.
         21    1    1    2  502  501 -0.12969825314E+03  0.94899062747E+02 -0.10759665936E+03  0.19340245625E+03  0.00000000000E+00 0. -1.
<scales pt_clust_5="13000.00000" pt_clust_6="13000.00000" pt_clust_7="13000.00000" pt_clust_8="13000.00000" pt_clust_9="191.06339"></scales>
<clustering>
<clus scale="   80.383">  5  6 -1 -1</clus>
<clus scale="   88.142">  7  8 -1 -1</clus>
<clus scale="   99.637">  2  5  1 -1</clus>
<clus scale="  191.063">  2  9  1 -1</clus>
<clus scale="   99.637">  2  5  1 -1</clus>
</clustering>
</event>
<event>
 9    2  0.2984928E-005  0.1349153E+03  0.7546771E-02  0.1227314E+00
         -1   -1    0    0    0  501 -0.00000000000E+00  0.00000000000E+00  0.61127046325E+02  0.61127046325E+02  0.00000000000E+00 0.  1.
          2   -1    0    0  502    0  0.00000000000E+00 -0.00000000000E+00 -0.39222309579E+03  0.39222309579E+03  0.00000000000E+00 0. -1.
         23    2    1    2    0    0  0.78249749893E+02 -0.76142237391E+01 -0.73584519288E+02  0.15137696319E+03  0.10639221656E+03 0.  0.
         24    2    1    2    0    0 -0.91795799305E+02 -0.21707550113E+02 -0.19511974658E+03  0.23171653129E+03  0.81994809980E+02 0.  0.
        -13    1    4    4    0    0 -0.13100770371E+02  0.24964828342E+02 -0.21470829974E+02  0.35438247392E+02  0.00000000000E+00 0.  1.
         14    1    4    4    0    0 -0.78695028935E+02 -0.46672378455E+02 -0.17364891661E+03  0.19627828390E+03  0.00000000000E+00 0. -1.
        -13    1    3    3    0    0  0.58785184726E+02 -0.54622662200E+02 -0.35117814254E+02  0.87593344765E+02  0.00000000000E+00 0. -1.
         13    1    3    3    0    0  0.19464565167E+02  0.47008438461E+02 -0.38466705034E+02  0.63783618428E+02  0.00000000000E+00 0.  1.
         21    1    1    2  502  501  0.13546049412E+02  0.29321773852E+02 -0.62391783589E+02  0.70256647628E+02  0.00000000000E+00 0.  1.
<scales pt_clust_5="13000.00000" pt_clust_6="13000.00000" pt_clust_7="13000.00000" pt_clust_8="13000.00000" pt_clust_9="32.29956"></scales>
<clustering>
<clus scale="   32.300">  2  9  1 -1</clus>
<clus scale="   81.995">  5  6 -1 -1</clus>
<clus scale="  106.392">  7  8 -1 -1</clus>
<clus scale="  116.645">  2  5  1 -1</clus>
<clus scale="   32.300">  2  5  1 -1</clus>
</clustering>
</event>
<event>
 9    2  0.2984928E-005  0.1313543E+03  0.7546771E-02  0.1228191E+00
         -1   -1    0    0    0  501 -0.00000000000E+00  0.00000000000E+00  0.94057641905E+02  0.94057641905E+02  0.00000000000E+00 0.  1.
          2   -1    0    0  502    0  0.00000000000E+00 -0.00000000000E+00 -0.70518505631E+03  0.70518505631E+03  0.00000000000E+00 0. -1.
         23    2    1    2    0    0 -0.50194733274E+02 -0.88762402710E+02  0.25612787415E+02  0.13865123509E+03  0.90387359344E+02 0.  0.
         24    2    1    2    0    0  0.15358812887E+02  0.31448920698E+02 -0.50855234921E+03  0.51591768483E+03  0.79502439501E+02 0.  0.
        -13    1    4    4    0    0  0.11427938253E+02  0.28984295021E+02 -0.62441599815E+02  0.69782809617E+02  0.00000000000E+00 0.  1.
         14    1    4    4    0    0  0.39308746339E+01  0.24646256770E+01 -0.44611074940E+03  0.44613487521E+03  0.00000000000E+00 0. -1.
        -11    1    3    3    0    0 -0.64621745694E+02 -0.22676329126E+02  0.97712145599E+01  0.69178483310E+02  0.00000000000E+00 0. -1.
         11    1    3    3    0    0  0.14427012420E+02 -0.66086073585E+02  0.15841572855E+02  0.69472751779E+02  0.00000000000E+00 0.  1.
         21    1    1    2  502  501  0.34835920387E+02  0.57313482012E+02 -0.12818785261E+03  0.14467377829E+03  0.00000000000E+00 0. -1.
<scales pt_clust_5="13000.00000" pt_clust_6="13000.00000" pt_clust_7="13000.00000" pt_clust_8="13000.00000" pt_clust_9="67.06994"></scales>
<clustering>
<clus scale="   67.070">  2  9  1 -1</clus>
<clus scale="   79.502">  5  6 -1 -1</clus>
<clus scale="   90.387">  7  8 -1 -1</clus>
<clus scale="  124.116">  2  5  1 -1</clus>
<clus scale="   67.070">  2  5  1 -1</clus>
</clustering>
</event>
<event>
 9    2  0.2984928E-005  0.1309400E+03  0.7546771E-02  0.1228454E+00
         -1   -1    0    0    0  501 -0.00000000000E+00  0.00000000000E+00  0.75366500604E+03  0.75366500604E+03  0.00000000000E+00 0.  1.
          2   -1    0    0  502    0  0.00000000000E+00 -0.00000000000E+00 -0.78310716581E+02  0.78310716581E+02  0.00000000000E+00 0. -1.
         23    2    1    2    0    0 -0.66966601540E+02  0.66120356610E+02  0.62956753727E+03  0.64296467905E+03  0.90508934606E+02 0.  0.
         24    2    1    2    0    0  0.86676077938E+02 -0.50174396827E+02  0.75971751545E+02  0.14959186957E+03  0.81091354808E+02 0.  0.
        -13    1    4    4    0    0  0.20491113740E+02  0.19854773665E+02  0.29344730905E+01  0.28682902781E+02  0.00000000000E+00 0.  1.
         14    1    4    4    0    0  0.66184964197E+02 -0.70029170492E+02  0.73037278455E+02  0.12090896679E+03  0.00000000000E+00 0. -1.
        -13    1    3    3    0    0 -0.72143204594E+01  0.69764953999E+02  0.36932654113E+03  0.37592723924E+03  0.00000000000E+00 0.  1.
         13    1    3    3    0    0 -0.59752281080E+02 -0.36445973892E+01  0.26024099614E+03  0.26703743980E+03  0.00000000000E+00 0. -1.
         21    1    1    2  502  501 -0.19709476398E+02 -0.15945959783E+02 -0.30184999352E+02  0.39419174004E+02  0.00000000000E+00 0. -1.
<scales pt_clust_5="13000.00000" pt_clust_6="13000.00000" pt_clust_7="13000.00000" pt_clust_8="13000.00000" pt_clust_9="25.35226"></scales>
<clustering>
<clus scale="   25.352">  2  9  1 -1</clus>
<clus scale="   81.091">  5  6 -1 -1</clus>
<clus scale="   90.509">  7  8 -1 -1</clus>
<clus scale="  124.616">  2  5  1 -1</clus>
<clus scale="   25.352">  2  5  1 -1</clus>
</clustering>
</event>
<event>
 9    2  0.2984928E-005  0.1418892E+03  0.7546771E-02  0.1213130E+00
         -3   -1    0    0    0  501 -0.00000000000E+00  0.00000000000E+00  0.46195474452E+03  0.46195474452E+03  0.00000000000E+00 0.  1.
          4   -1    0    0  502    0  0.00000000000E+00 -0.00000000000E+00 -0.66344134349E+02  0.66344134349E+02  0.00000000000E+00 0. -1.
         24    2    1    2    0    0  0.11352564015E+03 -0.30795122254E+02  0.22671312104E+03  0.26789024629E+03  0.80808008763E+02 0.  0.
         23    2    1    2    0    0 -0.10010353528E+03 -0.31859039178E+01  0.17686508523E+03  0.22301417274E+03  0.91777966374E+02 0.  0.
        -11    1    3    3    0    0  0.89724210309E+02  0.15458851570E+01  0.97178097532E+02  0.13227398201E+03  0.00000000000E+00 0.  1.
         12    1    3    3    0    0  0.23801429843E+02 -0.32341007411E+02  0.12953502351E+03  0.13561626429E+03  0.00000000000E+00 0. -1.
        -13    1    4    4    0    0 -0.31554882157E+02 -0.38079909515E+02  0.31737416729E+02  0.58762689840E+02  0.00000000000E+00 0. -1.
         13    1    4    4    0    0 -0.68548653126E+02  0.34894005597E+02  0.14512766850E+03  0.16425148290E+03  0.00000000000E+00 0.  1.
         21    1    1    2  502  501 -0.13422104870E+02  0.33981026172E+02 -0.79675960949E+01  0.37394459835E+02  0.00000000000E+00 0. -1.
<scales pt_clust_5="13000.00000" pt_clust_6="13000.00000" pt_clust_7="13000.00000" pt_clust_8="13000.00000" pt_clust_9="36.53578"></scales>
<clustering>
<clus scale="   36.536">  2  9  1 -1</clus>
<clus scale="   80.808">  5  6 -1 -1</clus>
<clus scale="   91.778">  7  8 -1 -1</clus>
<clus scale="  135.053">  1  5  2 -1</clus>
<clus scale="   36.536">  2  5  1 -1</clus>
</clustering>
</event>
<event>
 9    2  0.2984928E-005  0.9451779E+02  0.7546771E-02  0.1299242E+00
          2   -1    0    0  502    0  0.00000000000E+00  0.00000000000E+00  0.39620194201E+03  0.39620194201E+03  0.00000000000E+00 0. -1.
         -1   -1    0    0    0  501 -0.00000000000E+00 -0.00000000000E+00 -0.62660739329E+02  0.62660739329E+02  0.00000000000E+00 0.  1.
         23    2    1    2    0    0  0.18349211639E+02  0.11891223718E+02  0.19502796725E+00  0.93377936734E+02  0.90781640564E+02 0.  0.
         24    2    1    2    0    0 -0.61143273520E+02  0.87970865606E+01  0.25371862864E+03  0.27274918504E+03  0.78759677444E+02 0.  0.
        -11    1    4    4    0    0 -0.78976971632E+02  0.49278660150E+01  0.22697084776E+03  0.24036932343E+03  0.00000000000E+00 0.  1.
         12    1    4    4    0    0  0.17833698112E+02  0.38692205456E+01  0.26747780880E+02  0.32379861611E+02  0.00000000000E+00 0. -1.
        -13    1    3    3    0    0  0.15635866669E+02 -0.37362635826E+02  0.12777176085E+02  0.42470026031E+02  0.00000000000E+00 0. -1.
         13    1    3    3    0    0  0.27133449708E+01  0.49253859544E+02 -0.12582148118E+02  0.50907910703E+02  0.00000000000E+00 0.  1.
         21    1    1    2  502  501  0.42794061880E+02 -0.20688310279E+02  0.79627546075E+02  0.92735559568E+02  0.00000000000E+00 0. -1.
<scales pt_clust_5="13000.00000" pt_clust_6="13000.00000" pt_clust_7="13000.00000" pt_clust_8="13000.00000" pt_clust_9="47.53249"></scales>
<clustering>
<clus scale="   47.532">  1  9  2 -1</clus>
<clus scale="   78.760">  5  6 -1 -1</clus>
<clus scale="   83.039">  1  5  2 -1</clus>
<clus scale="   90.782">  7  8 -1 -1</clus>
<clus scale="   47.532">  1  5  2 -1</clus>
</clustering>
</event>
<event>
 9    2  0.2984928E-005  0.9930273E+02  0.7546771E-02  0.1286843E+00
          2   -1    0    0  502    0  0.00000000000E+00  0.00000000000E+00  0.75357429646E+03  0.75357429646E+03  0.00000000000E+00 0. -1.
         -1   -1    0    0    0  501 -0.00000000000E+00 -0.00000000000E+00 -0.32227017669E+02  0.32227017669E+02  0.00000000000E+00 0.  1.
         24    2    1    2    0    0 -0.19801650980E+02 -0.28567358042E+02  0.72287447267E+02  0.11330243134E+03  0.80023537713E+02 0.  0.
         23    2    1    2    0    0  0.64843102152E+01  0.80986777947E+02  0.42326110746E+03  0.44031315770E+03  0.90137712806E+02 0.  0.
        -11    1    3    3    0    0 -0.20441482939E+02 -0.82159614553E+01 -0.13025477328E+02  0.25593344975E+02  0.00000000000E+00 0.  1.
         12    1    3    3    0    0  0.63983195842E+00 -0.20351396587E+02  0.85312924596E+02  0.87709086365E+02  0.00000000000E+00 0. -1.
        -11    1    4    4    0    0 -0.27281780131E+02 -0.57810436646E+01  0.11242596486E+03  0.11583312811E+03  0.00000000000E+00 0.  1.
         11    1    4    4    0    0  0.33766090346E+02  0.86767821612E+02  0.31083514260E+03  0.32448002958E+03  0.00000000000E+00 0. -1.
         21    1    1    2  502  501  0.13317340765E+02 -0.52419419905E+02  0.22579872406E+03  0.23218572509E+03  0.00000000000E+00 0. -1.
<scales pt_clust_5="13000.00000" pt_clust_6="13000.00000" pt_clust_7="13000.00000" pt_clust_8="13000.00000" pt_clust_9="54.08463"></scales>
<clustering>
<clus scale="   54.085">  1  9  2 -1</clus>
<clus scale="   80.024">  5  6 -1 -1</clus>
<clus scale="   90.138">  7  8 -1 -1</clus>
<clus scale="   90.222">  2  5  1 -1</clus>
<clus scale="   54.085">  1  5  2 -1</clus>
</clustering>
</event>
<event>
 9    2  0.2984928E-005  0.3566838E+03  0.7546771E-02  0.1059905E+00
         -1   -1    0    0    0  501 -0.00000000000E+00  0.00000000000E+00  0.45426172744E+03  0.45426172744E+03  0.00000000000E+00 0.  1.
          2   -1    0    0  502    0  0.00000000000E+00 -0.00000000000E+00 -0.33919012465E+03  0.33919012465E+03  0.00000000000E+00 0. -1.
         24    2    1    2    0    0  0.16691391560E+03 -0.56688897786E+02  0.16113894033E+03  0.25016660719E+03  0.74455939388E+02 0.  0.
         23    2    1    2    0    0  0.14581321589E+03  0.28007575841E+02  0.10493648348E+03  0.19482716856E+03  0.70000298660E+02 0.  0.
        -13    1    3    3    0    0  0.19484818813E+02 -0.20051571440E+02  0.64028085241E+02  0.69866439591E+02  0.00000000000E+00 0.  1.
         14    1    3    3    0    0  0.14742909679E+03 -0.36637326346E+02  0.97110855090E+02  0.18030016760E+03  0.00000000000E+00 0. -1.
        -13    1    4    4    0    0  0.11335371474E+03  0.39566661632E+02  0.10628185412E+03  0.16034468459E+03  0.00000000000E+00 0. -1.
         13    1    4    4    0    0  0.32459501148E+02 -0.11559085791E+02 -0.13453706457E+01  0.34482483977E+02  0.00000000000E+00 0.  1.
         21    1    1    2  502  501 -0.31272713149E+03  0.28681321945E+02 -0.15100382102E+03  0.34845807633E+03  0.00000000000E+00 0. -1.
<scales pt_clust_5="13000.00000" pt_clust_6="13000.00000" pt_clust_7="13000.00000" pt_clust_8="13000.00000" pt_clust_9="314.03961"></scales>
<clustering>
<clus scale="   70.000">  7  8 -1 -1</clus>
<clus scale="   74.456">  5  6 -1 -1</clus>
<clus scale="  109.135">  5  7 -1 -1</clus>
<clus scale="  314.040">  2  9  1 -1</clus>
<clus scale="  314.040">  2  5  1 -1</clus>
</clustering>
</event>
<event>
 9    2  0.2984928E-005  0.1413779E+03  0.7546771E-02  0.1213210E+00
         -1   -1    0    0    0  501 -0.00000000000E+00  0.00000000000E+00  0.23180796168E+03  0.23180796168E+03  0.00000000000E+00 0.  1.
          2   -1    0    0  502    0  0.00000000000E+00 -0.00000000000E+00 -0.16778026512E+03  0.16778026512E+03  0.00000000000E+00 0. -1.
         24    2    1    2    0    0  0.28346377898E-01 -0.91991787599E+02  0.27351202636E+02  0.12439612598E+03  0.79144286486E+02 0.  0.
         23    2    1    2    0    0  0.66451336958E+02  0.13448588089E+03  0.81573583777E+02  0.18441189957E+03  0.69651035816E+02 0.  0.
        -11    1    3    3    0    0  0.34459898813E+02 -0.25262581283E+02  0.24498948425E+02  0.49253234546E+02  0.00000000000E+00 0.  1.
         12    1    3    3    0    0 -0.34431552435E+02 -0.66729206316E+02  0.28522542115E+01  0.75142891432E+02  0.00000000000E+00 0. -1.
        -11    1    4    4    0    0  0.24090137082E+02  0.11329021383E+03  0.71082496161E+02  0.13589602097E+03  0.00000000000E+00 0. -1.
         11    1    4    4    0    0  0.42361199876E+02  0.21195667057E+02  0.10491087616E+02  0.48515878599E+02  0.00000000000E+00 0.  1.
         21    1    1    2  502  501 -0.66479683336E+02 -0.42494093291E+02 -0.44897089851E+02  0.90780201245E+02  0.00000000000E+00 0. -1.
<scales pt_clust_5="13000.00000" pt_clust_6="13000.00000" pt_clust_7="13000.00000" pt_clust_8="13000.00000" pt_clust_9="78.90055"></scales>
<clustering>
<clus scale="   69.651">  7  8 -1 -1</clus>
<clus scale="   78.901">  2  9  1 -1</clus>
<clus scale="   79.144">  5  6 -1 -1</clus>
<clus scale="  136.291">  2  7  1 -1</clus>
<clus scale="   78.901">  2  5  1 -1</clus>
</clustering>
</event>
<event>
 9    2  0.5274031E-005  0.3671502E+03  0.7546771E-02  0.1055979E+00
          2   -1    0    0  502    0  0.00000000000E+00  0.00000000000E+00  0.13437938186E+04  0.13437938186E+04  0.00000000000E+00 0. -1.
         -1   -1    0    0    0  501 -0.00000000000E+00 -0.00000000000E+00 -0.40961226240E+03  0.40961226240E+03  0.00000000000E+00 0.  1.
         23    2    1    2    0    0  0.69602495034E+02  0.35044887106E+03 -0.29097374045E+03  0.46919248435E+03  0.88413523863E+02 0.  0.
         24    2    1    2    0    0 -0.44728329172E+02 -0.34236370208E+03  0.10781401968E+04  0.11348900095E+04  0.79846865076E+02 0.  0.
        -11    1    4    4    0    0 -0.45150415676E+02 -0.10851144332E+03  0.29399711184E+03  0.31661900628E+03  0.00000000000E+00 0.  1.
         12    1    4    4    0    0  0.42208650429E+00 -0.23385225876E+03  0.78414308494E+03  0.81827100324E+03  0.00000000000E+00 0. -1.
        -13    1    3    3    0    0 -0.21214035689E+02  0.79228162200E+02 -0.67342838346E+02  0.10612348879E+03  0.00000000000E+00 0. -1.
         13    1    3    3    0    0  0.90816530723E+02  0.27122070886E+03 -0.22363090210E+03  0.36306899557E+03  0.00000000000E+00 0.  1.
         21    1    1    2  502  501 -0.24874165862E+02 -0.80851689828E+01  0.14701509991E+03  0.14932358718E+03  0.00000000000E+00 0. -1.
<scales pt_clust_5="13000.00000" pt_clust_6="13000.00000" pt_clust_7="13000.00000" pt_clust_8="13000.00000" pt_clust_9="26.15519"></scales>
<clustering>
<clus scale="   26.155">  1  9  2 -1</clus>
<clus scale="   79.847">  5  6 -1 -1</clus>
<clus scale="   88.414">  7  8 -1 -1</clus>
<clus scale="  365.182">  1  5  2 -1</clus>
<clus scale="   26.155">  1  5  2 -1</clus>
</clustering>
</event>
<event>
 9    2  0.2984928E-005  0.2922512E+03  0.7546771E-02  0.1090453E+00
          2   -1    0    0  502    0  0.00000000000E+00  0.00000000000E+00  0.20387985441E+03  0.20387985441E+03  0.00000000000E+00 0. -1.
         -1   -1    0    0    0  501 -0.00000000000E+00 -0.00000000000E+00 -0.89046799088E+03  0.89046799088E+03  0.00000000000E+00 0.  1.
         23    2    1    2    0    0 -0.19080712822E+03  0.21302627279E+03 -0.60303277914E+03  0.67635267341E+03  0.10962140777E+03 0.  0.
         24    2    1    2    0    0  0.24102753954E+03 -0.81428650727E+02 -0.73745371256E+02  0.27679935158E+03  0.80340533221E+02 0.  0.
        -11    1    4    4    0    0  0.26241429875E+02 -0.11065658612E+02 -0.38747932988E+02  0.48088083276E+02  0.00000000000E+00 0.  1.
         12    1    4    4    0    0  0.21478610966E+03 -0.70362992116E+02 -0.34997438268E+02  0.22871126830E+03  0.00000000000E+00 0. -1.
        -11    1    3    3    0    0 -0.13720168592E+03  0.71217138369E+02 -0.29632352237E+03  0.33422120418E+03  0.00000000000E+00 0.  1.
         11    1    3    3    0    0 -0.53605442292E+02  0.14180913442E+03 -0.30670925677E+03  0.34213146923E+03  0.00000000000E+00 0. -1.
         21    1    1    2  502  501 -0.50220411320E+02 -0.13159762206E+03 -0.98099860688E+01  0.14119582030E+03  0.00000000000E+00 0. -1.
<scales pt_clust_5="13000.00000" pt_clust_6="13000.00000" pt_clust_7="13000.00000" pt_clust_8="13000.00000" pt_clust_9="140.85462"></scales>
<clustering>
<clus scale="   80.341">  5  6 -1 -1</clus>
<clus scale="  109.621">  7  8 -1 -1</clus>
<clus scale="  140.855">  1  9  2 -1</clus>
<clus scale="  282.575">  1  5  2 -1</clus>
<clus scale="  140.855">  1  5  2 -1</clus>
</clustering>
</event>
<event>
 9    2  0.2984928E-005  0.1142684E+03  0.7546771E-02  0.1263173E+00
          2   -1    0    0  502    0  0.00000000000E+00  0.00000000000E+00  0.36500680988E+03  0.36500680988E+03  0.00000000000E+00 0. -1.
         -1   -1    0    0    0  501 -0.00000000000E+00 -0.00000000000E+00 -0.10188908989E+03  0.10188908989E+03  0.00000000000E+00 0.  1.
         23    2    1    2    0    0 -0.21352987004E+02  0.28038744755E+02 -0.40081302176E+02  0.11667602436E+03  0.10375289208E+03 0.  0.
         24    2    1    2    0    0 -0.21021088120E+02 -0.46293546402E+02  0.28545661314E+03  0.30078716252E+03  0.80015377050E+02 0.  0.
        -11    1    4    4    0    0  0.26870948629E+02 -0.49417189797E+01  0.50009930294E+02  0.56986503619E+02  0.00000000000E+00 0.  1.
         12    1    4    4    0    0 -0.47892036749E+02 -0.41351827423E+02  0.23544668285E+03  0.24380065890E+03  0.00000000000E+00 0. -1.
        -11    1    3    3    0    0  0.33753265205E+02 -0.17080641510E+02 -0.85285685588E+01  0.38778443858E+02  0.00000000000E+00 0. -1.
         11    1    3    3    0    0 -0.55106252209E+02  0.45119386266E+02 -0.31552733617E+02  0.77897580503E+02  0.00000000000E+00 0.  1.
         21    1    1    2  502  501  0.42374075124E+02  0.18254801647E+02  0.17742409020E+02  0.49432712890E+02  0.00000000000E+00 0.  1.
<scales pt_clust_5="13000.00000" pt_clust_6="13000.00000" pt_clust_7="13000.00000" pt_clust_8="13000.00000" pt_clust_9="46.13892"></scales>
<clustering>
<clus scale="   46.139">  2  9  1 -1</clus>
<clus scale="   80.015">  5  6 -1 -1</clus>
<clus scale="   93.247">  1  5  2 -1</clus>
<clus scale="  103.753">  7  8 -1 -1</clus>
<clus scale="   93.247">  1  5  2 -1</clus>
</clustering>
</event>
<event>
 9    2  0.2984928E-005  0.1060544E+03  0.7546771E-02  0.1274398E+00
          2   -1    0    0  502    0  0.00000000000E+00  0.00000000000E+00  0.18175964654E+03  0.18175964654E+03  0.00000000000E+00 0. -1.
         -1   -1    0    0    0  501 -0.00000000000E+00 -0.00000000000E+00 -0.34195937106E+03  0.34195937106E+03  0.00000000000E+00 0.  1.
         24    2    1    2    0    0 -0.42729345193E+02 -0.28818680255E+02 -0.25488341525E+03  0.27217688324E+03  0.80364091032E+02 0.  0.
         23    2    1    2    0    0 -0.11667628717E+01  0.55265637360E+02 -0.32786850349E+02  0.11415564053E+03  0.94344478911E+02 0.  0.
        -13    1    3    3    0    0 -0.34894467157E+02 -0.28475917893E+02 -0.25929590154E+03  0.26317839253E+03  0.00000000000E+00 0.  1.
         14    1    3    3    0    0 -0.78348780360E+01 -0.34276236189E+00  0.44124862873E+01  0.89984907129E+01  0.00000000000E+00 0. -1.
        -11    1    4    4    0    0 -0.27659002758E+02 -0.16704854475E+02 -0.56364436390E+01  0.32800031913E+02  0.00000000000E+00 0.  1.
         11    1    4    4    0    0  0.26492239887E+02  0.71970491835E+02 -0.27150406710E+02  0.81355608619E+02  0.00000000000E+00 0. -1.
         21    1    1    2  502  501  0.43896108064E+02 -0.26446957105E+02  0.12747054108E+03  0.13738649383E+03  0.00000000000E+00 0. -1.
<scales pt_clust_5="13000.00000" pt_clust_6="13000.00000" pt_clust_7="13000.00000" pt_clust_8="13000.00000" pt_clust_9="51.24753"></scales>
<clustering>
<clus scale="   51.248">  1  9  2 -1</clus>
<clus scale="   80.364">  5  6 -1 -1</clus>
<clus scale="   93.835">  2  5  1 -1</clus>
<clus scale="   94.344">  7  8 -1 -1</clus>
<clus scale="   51.248">  1  5  2 -1</clus>
</clustering>
</event>
<event>
 9    2  0.2984928E-005  0.1288103E+03  0.7546771E-02  0.1232330E+00
         -1   -1    0    0    0  501 -0.00000000000E+00  0.00000000000E+00  0.96871332077E+02  0.96871332077E+02  0.00000000000E+00 0.  1.
          2   -1    0    0  502    0  0.00000000000E+00 -0.00000000000E+00 -0.12248952280E+04  0.12248952280E+04  0.00000000000E+00 0. -1.
         23    2    1    2    0    0  0.88726479224E+02  0.28698938491E+02  0.42021643540E+02  0.13739732908E+03  0.91739796853E+02 0.  0.
         24    2    1    2    0    0 -0.46265329976E+02  0.26795075368E+02 -0.91042816203E+03  0.91551291726E+03  0.80162376672E+02 0.  0.
        -11    1    4    4    0    0 -0.16261243515E+02  0.35833314456E+02 -0.17298314010E+03  0.17740242734E+03  0.00000000000E+00 0.  1.
         12    1    4    4    0    0 -0.30004086461E+02 -0.90382390878E+01 -0.73744502193E+03  0.73811048992E+03  0.00000000000E+00 0. -1.
        -11    1    3    3    0    0 -0.19778249158E+01  0.37299221793E+02  0.71119641614E+00  0.37358393141E+02  0.00000000000E+00 0.  1.
         11    1    3    3    0    0  0.90704304140E+02 -0.86002833013E+01  0.41310447124E+02  0.10003893594E+03  0.00000000000E+00 0. -1.
         21    1    1    2  502  501 -0.42461149248E+02 -0.55494013860E+02 -0.25961737742E+03  0.26885631372E+03  0.00000000000E+00 0. -1.
<scales pt_clust_5="13000.00000" pt_clust_6="13000.00000" pt_clust_7="13000.00000" pt_clust_8="13000.00000" pt_clust_9="69.87514"></scales>
<clustering>
<clus scale="   69.875">  2  9  1 -1</clus>
<clus scale="   80.162">  5  6 -1 -1</clus>
<clus scale="   91.740">  7  8 -1 -1</clus>
<clus scale="  120.838">  2  5  1 -1</clus>
<clus scale="   69.875">  2  5  1 -1</clus>
</clustering>
</event>
<event>
 9    2  0.2984928E-005  0.1035280E+03  0.7546771E-02  0.1280628E+00
         -1   -1    0    0    0  501 -0.00000000000E+00  0.00000000000E+00  0.57704114422E+02  0.57704114422E+02  0.00000000000E+00 0.  1.
          2   -1    0    0  502    0  0.00000000000E+00 -0.00000000000E+00 -0.28534322237E+03  0.28534322237E+03  0.00000000000E+00 0. -1.
         23    2    1    2    0    0 -0.42370792734E+02  0.33989575769E+02 -0.34845509025E+02  0.11488573794E+03  0.95047082782E+02 0.  0.
         24    2    1    2    0    0  0.53755708680E+01 -0.18795417096E+02 -0.12616594037E+03  0.15045217997E+03  0.79598049486E+02 0.  0.
        -13    1    4    4    0    0  0.15053957436E+02 -0.39322496155E+02 -0.30140841107E+02  0.51781759732E+02  0.00000000000E+00 0.  1.
         14    1    4    4    0    0 -0.96783865676E+01  0.20527079059E+02 -0.96025099262E+02  0.98670420236E+02  0.00000000000E+00 0. -1.
        -13    1    3    3    0    0 -0.67598190966E+02  0.39614903237E+02 -0.40835439419E+02  0.88353772376E+02  0.00000000000E+00 0. -1.
         13    1    3    3    0    0  0.25227398232E+02 -0.56253274682E+01  0.59899303946E+01  0.26531965566E+02  0.00000000000E+00 0.  1.
         21    1    1    2  502  501  0.36995221866E+02 -0.15194158673E+02 -0.66627658556E+02  0.77709418885E+02  0.00000000000E+00 0.  1.
<scales pt_clust_5="13000.00000" pt_clust_6="13000.00000" pt_clust_7="13000.00000" pt_clust_8="13000.00000" pt_clust_9="39.99386"></scales>
<clustering>
<clus scale="   39.994">  2  9  1 -1</clus>
<clus scale="   79.598">  5  6 -1 -1</clus>
<clus scale="   89.554">  2  5  1 -1</clus>
<clus scale="   95.047">  7  8 -1 -1</clus>
<clus scale="   39.994">  2  5  1 -1</clus>
</clustering>
</event>
<event>
 9    2  0.2984928E-005  0.1182339E+03  0.7546771E-02  0.1249604E+00
          2   -1    0    0  502    0  0.00000000000E+00  0.00000000000E+00  0.22916770316E+03  0.22916770316E+03  0.00000000000E+00 0. -1.
         -1   -1    0    0    0  501 -0.00000000000E+00 -0.00000000000E+00 -0.16340485709E+03  0.16340485709E+03  0.00000000000E+00 0.  1.
         23    2    1    2    0    0 -0.45652210887E+02  0.52753729560E+02 -0.94003602613E+02  0.14932700046E+03  0.92708119502E+02 0.  0.
         24    2    1    2    0    0  0.66076044933E+02 -0.54257100550E+02  0.45145031324E+02  0.12680904301E+03  0.82052317840E+02 0.  0.
        -13    1    4    4    0    0  0.52125415915E+02 -0.10628151701E+02 -0.11026949816E+02  0.54328723666E+02  0.00000000000E+00 0.  1.
         14    1    4    4    0    0  0.13950629018E+02 -0.43628948849E+02  0.56171981140E+02  0.72480319349E+02  0.00000000000E+00 0. -1.
        -13    1    3    3    0    0 -0.18758598420E+02  0.18675058075E+02  0.16094854055E+02  0.30978817535E+02  0.00000000000E+00 0. -1.
         13    1    3    3    0    0 -0.26893612467E+02  0.34078671485E+02 -0.11009845667E+03  0.11834818293E+03  0.00000000000E+00 0.  1.
         21    1    1    2  502  501 -0.20423834046E+02  0.15033709905E+01  0.11462141736E+03  0.11643651677E+03  0.00000000000E+00 0. -1.
<scales pt_clust_5="13000.00000" pt_clust_6="13000.00000" pt_clust_7="13000.00000" pt_clust_8="13000.00000" pt_clust_9="20.47909"></scales>
<clustering>
<clus scale="   20.479">  1  9  2 -1</clus>
<clus scale="   82.052">  5  6 -1 -1</clus>
<clus scale="   92.708">  7  8 -1 -1</clus>
<clus scale="  110.077">  1  5  2 -1</clus>
<clus scale="   20.479">  1  5  2 -1</clus>
</clustering>
</event>
<event>
 9    2  0.2984928E-005  0.1488815E+03  0.7546771E-02  0.1204002E+00
          2   -1    0    0  502    0  0.00000000000E+00  0.00000000000E+00  0.59082457388E+03  0.59082457388E+03  0.00000000000E+00 0. -1.
         -1   -1    0    0    0  501 -0.00000000000E+00 -0.00000000000E+00 -0.43060745583E+02  0.43060745583E+02  0.00000000000E+00 0.  1.
         24    2    1    2    0    0  0.49141066259E+02 -0.10279213234E+03  0.21082009534E+03  0.25254283584E+03  0.79697581328E+02 0.  0.
         23    2    1    2    0    0 -0.35056235084E+02  0.11793545921E+03  0.26082346779E+03  0.30246284375E+03  0.91198565468E+02 0.  0.
        -13    1    3    3    0    0 -0.11603023941E+02 -0.38572568841E+02  0.11653581878E+03  0.12330073110E+03  0.00000000000E+00 0.  1.
         14    1    3    3    0    0  0.60744090200E+02 -0.64219563497E+02  0.94284276566E+02  0.12924210474E+03  0.00000000000E+00 0. -1.
        -11    1    4    4    0    0 -0.40676355812E+02  0.64308629351E+02  0.22552443470E+03  0.23801562213E+03  0.00000000000E+00 0. -1.
         11    1    4    4    0    0  0.56201207278E+01  0.53626829858E+02  0.35299033089E+02  0.64447221621E+02  0.00000000000E+00 0.  1.
         21    1    1    2  502  501 -0.14084831175E+02 -0.15143326871E+02  0.76120265162E+02  0.78879639871E+02  0.00000000000E+00 0. -1.
<scales pt_clust_5="13000.00000" pt_clust_6="13000.00000" pt_clust_7="13000.00000" pt_clust_8="13000.00000" pt_clust_9="20.68098"></scales>
<clustering>
<clus scale="   20.681">  1  9  2 -1</clus>
<clus scale="   79.698">  5  6 -1 -1</clus>
<clus scale="   91.199">  7  8 -1 -1</clus>
<clus scale="  142.128">  2  5  1 -1</clus>
<clus scale="   20.681">  1  5  2 -1</clus>
</clustering>
</event>
<event>
 9    2  0.2984928E-005  0.1151573E+03  0.7546771E-02  0.1252386E+00
         -1   -1    0    0    0  501 -0.00000000000E+00  0.00000000000E+00  0.36511322465E+03  0.36511322465E+03  0.00000000000E+00 0.  1.
          2   -1    0    0  502    0  0.00000000000E+00 -0.00000000000E+00 -0.25988485806E+03  0.25988485806E+03  0.00000000000E+00 0. -1.
         24    2    1    2    0    0  0.78254144392E+02 -0.57935334700E+01  0.31934983339E+03  0.33866623622E+03  0.80952006304E+02 0.  0.
         23    2    1    2    0    0 -0.73671355459E+02  0.45970833665E+02 -0.21403648290E+03  0.24589393572E+03  0.84329268032E+02 0.  0.
        -11    1    3    3    0    0  0.72859815862E+02 -0.17738204782E+02  0.13982720302E+03  0.15866582298E+03  0.00000000000E+00 0.  1.
         12    1    3    3    0    0  0.53943285299E+01  0.11944671312E+02  0.17952263037E+03  0.18000041324E+03  0.00000000000E+00 0. -1.
        -11    1    4    4    0    0 -0.70973559231E+02  0.68323109171E+02 -0.17577659860E+03  0.20150113145E+03  0.00000000000E+00 0. -1.
         11    1    4    4    0    0 -0.26977962283E+01 -0.22352275506E+02 -0.38259884295E+02  0.44392804271E+02  0.00000000000E+00 0.  1.
         21    1    1    2  502  501 -0.45827889321E+01 -0.40177300195E+02 -0.84983895590E-01  0.40437910773E+02  0.00000000000E+00 0.  1.
<scales pt_clust_5="13000.00000" pt_clust_6="13000.00000" pt_clust_7="13000.00000" pt_clust_8="13000.00000" pt_clust_9="40.43782"></scales>
<clustering>
<clus scale="   40.438">  2  9  1 -1</clus>
<clus scale="   80.952">  5  6 -1 -1</clus>
<clus scale="   84.329">  7  8 -1 -1</clus>
<clus scale="  112.708">  1  5  2 -1</clus>
<clus scale="   40.438">  2  5  1 -1</clus>
</clustering>
</event>
<event>
 9    2  0.2984928E-005  0.1041622E+03  0.7546771E-02  0.1276074E+00
          2   -1    0    0  502    0  0.00000000000E+00  0.00000000000E+00  0.34319924111E+03  0.34319924111E+03  0.00000000000E+00 0. -1.
         -1   -1    0    0    0  501 -0.00000000000E+00 -0.00000000000E+00 -0.39661505218E+02  0.39661505218E+02  0.00000000000E+00 0.  1.
         23    2    1    2    0    0 -0.46549713779E+02 -0.37359004490E+02  0.91834146919E+02  0.14240728967E+03  0.91015133578E+02 0.  0.
         24    2    1    2    0    0  0.31942841827E+02  0.21128761757E+02  0.14916001035E+03  0.17420784765E+03  0.81442591900E+02 0.  0.
        -13    1    4    4    0    0  0.44317641172E+02  0.10500914311E+01  0.31938835369E+02  0.54637397594E+02  0.00000000000E+00 0.  1.
         14    1    4    4    0    0 -0.12374799345E+02  0.20078670325E+02  0.11722117498E+03  0.11957045005E+03  0.00000000000E+00 0. -1.
        -13    1    3    3    0    0 -0.15036038587E+02 -0.65114751110E+02  0.57674611533E+02  0.88274424858E+02  0.00000000000E+00 0.  1.
         13    1    3    3    0    0 -0.31513675192E+02  0.27755746620E+02  0.34159535386E+02  0.54132864808E+02  0.00000000000E+00 0. -1.
         21    1    1    2  502  501  0.14606871952E+02  0.16230242734E+02  0.62543578617E+02  0.66245609014E+02  0.00000000000E+00 0. -1.
<scales pt_clust_5="13000.00000" pt_clust_6="13000.00000" pt_clust_7="13000.00000" pt_clust_8="13000.00000" pt_clust_9="21.83533"></scales>
<clustering>
<clus scale="   21.835">  1  9  2 -1</clus>
<clus scale="   81.443">  5  6 -1 -1</clus>
<clus scale="   91.015">  7  8 -1 -1</clus>
<clus scale="   95.911">  1  5  2 -1</clus>
<clus scale="   21.835">  1  5  2 -1</clus>
</clustering>
</event>
<event>
 9    2  0.2984928E-005  0.2729174E+03  0.7546771E-02  0.1099621E+00
          2   -1    0    0  502    0  0.00000000000E+00  0.00000000000E+00  0.87917145525E+03  0.87917145525E+03  0.00000000000E+00 0. -1.
         -1   -1    0    0    0  501 -0.00000000000E+00 -0.00000000000E+00 -0.66261352101E+02  0.66261352101E+02  0.00000000000E+00 0.  1.
         24    2    1    2    0    0 -0.28057765817E+02 -0.10816838055E+03  0.23362131404E+03  0.27099978479E+03  0.79839390084E+02 0.  0.
         23    2    1    2    0    0 -0.53844838930E+02 -0.73816186257E+02  0.13756624977E+03  0.18972154036E+03  0.93390008920E+02 0.  0.
        -13    1    3    3    0    0  0.83141568763E+01 -0.84309687061E+02  0.10322229846E+03  0.13353685423E+03  0.00000000000E+00 0.  1.
         14    1    3    3    0    0 -0.36371922694E+02 -0.23858693489E+02  0.13039901558E+03  0.13746293057E+03  0.00000000000E+00 0. -1.
        -13    1    4    4    0    0 -0.74676929212E+02 -0.33069292261E+02  0.67107919113E+02  0.10570569831E+03  0.00000000000E+00 0.  1.
         13    1    4    4    0    0  0.20832090282E+02 -0.40746893996E+02  0.70458330657E+02  0.84015842047E+02  0.00000000000E+00 0. -1.
         21    1    1    2  502  501  0.81902604748E+02  0.18198456681E+03  0.44172253934E+03  0.48471148220E+03  0.00000000000E+00 0. -1.
<scales pt_clust_5="13000.00000" pt_clust_6="13000.00000" pt_clust_7="13000.00000" pt_clust_8="13000.00000" pt_clust_9="199.56558"></scales>
<clustering>
<clus scale="   79.839">  5  6 -1 -1</clus>
<clus scale="   93.390">  7  8 -1 -1</clus>
<clus scale="  111.046">  5  7 -1 -1</clus>
<clus scale="  199.566">  1  9  2 -1</clus>
<clus scale="  199.566">  1  5  2 -1</clus>
</clustering>
</event>
<event>
 9    2  0.2984928E-005  0.1070555E+03  0.7546771E-02  0.1276808E+00
          2   -1    0    0  502    0  0.00000000000E+00  0.00000000000E+00  0.19654430224E+03  0.19654430224E+03  0.00000000000E+00 0. -1.
         -1   -1    0    0    0  501 -0.00000000000E+00 -0.00000000000E+00 -0.14927223291E+03  0.14927223291E+03  0.00000000000E+00 0.  1.
         23    2    1    2    0    0  0.18477804228E+01  0.59492296620E+02 -0.97099505198E+02  0.14889102773E+03  0.95903475323E+02 0.  0.
         24    2    1    2    0    0 -0.19154720664E+02 -0.11635893182E+02  0.55014608744E+02  0.94093445954E+02  0.72970350570E+02 0.  0.
        -13    1    4    4    0    0 -0.42125929278E+01  0.30874612474E+02  0.19980600159E+02  0.37016374989E+02  0.00000000000E+00 0.  1.
         14    1    4    4    0    0 -0.14942127736E+02 -0.42510505656E+02  0.35034008585E+02  0.57077070965E+02  0.00000000000E+00 0. -1.
        -11    1    3    3    0    0  0.44408500327E+02  0.28674165738E+02 -0.75298856137E+02  0.92001306608E+02  0.00000000000E+00 0.  1.
         11    1    3    3    0    0 -0.42560719904E+02  0.30818130882E+02 -0.21800649062E+02  0.56889721122E+02  0.00000000000E+00 0. -1.
         21    1    1    2  502  501  0.17306940241E+02 -0.47856403438E+02  0.89356965791E+02  0.10283206147E+03  0.00000000000E+00 0. -1.
<scales pt_clust_5="13000.00000" pt_clust_6="13000.00000" pt_clust_7="13000.00000" pt_clust_8="13000.00000" pt_clust_9="50.88974"></scales>
<clustering>
<clus scale="   50.890">  1  9  2 -1</clus>
<clus scale="   72.970">  5  6 -1 -1</clus>
<clus scale="   87.110">  1  5  2 -1</clus>
<clus scale="   95.903">  7  8 -1 -1</clus>
<clus scale="   50.890">  1  5  2 -1</clus>
</clustering>
</event>
<event>
 9    2  0.2984928E-005  0.2396976E+03  0.7546771E-02  0.1163442E+00
          2   -1    0    0  502    0  0.00000000000E+00  0.00000000000E+00  0.18391535758E+04  0.18391535758E+04  0.00000000000E+00 0. -1.
         -1   -1    0    0    0  501 -0.00000000000E+00 -0.00000000000E+00 -0.55808048577E+02  0.55808048577E+02  0.00000000000E+00 0.  1.
         23    2    1    2    0    0  0.15573668322E+03 -0.15317475971E+03  0.32331081297E+03  0.40057451966E+03  0.90629148212E+02 0.  0.
         24    2    1    2    0    0  0.22204845183E+02  0.42808400278E+01  0.47282788601E+03  0.48028163260E+03  0.81196404383E+02 0.  0.
        -13    1    4    4    0    0 -0.53897089436E+01  0.38621534169E+02  0.18151819552E+03  0.18565970798E+03  0.00000000000E+00 0.  1.
         14    1    4    4    0    0  0.27594554127E+02 -0.34340694142E+02  0.29130969049E+03  0.29462192462E+03  0.00000000000E+00 0. -1.
        -13    1    3    3    0    0  0.13010693737E+03 -0.15801770746E+03  0.25207778513E+03  0.32471621576E+03  0.00000000000E+00 0.  1.
         13    1    3    3    0    0  0.25629745853E+02  0.48429477496E+01  0.71233027843E+02  0.75858303903E+02  0.00000000000E+00 0. -1.
         21    1    1    2  502  501 -0.17794152840E+03  0.14889391968E+03  0.98720682822E+03  0.10141054721E+04  0.00000000000E+00 0. -1.
<scales pt_clust_5="13000.00000" pt_clust_6="13000.00000" pt_clust_7="13000.00000" pt_clust_8="13000.00000" pt_clust_9="221.90377"></scales>
<clustering>
<clus scale="   81.196">  5  6 -1 -1</clus>
<clus scale="   84.287">  1  5  2 -1</clus>
<clus scale="   90.629">  7  8 -1 -1</clus>
<clus scale="  221.904">  1  9  2 -1</clus>
<clus scale="   84.287">  1  5  2 -1</clus>
</clustering>
</event>
<event>
 9    2  0.2984928E-005  0.1402535E+03  0.7546771E-02  0.1215036E+00
          2   -1    0    0  502    0  0.00000000000E+00  0.00000000000E+00  0.10369552010E+03  0.10369552010E+03  0.00000000000E+00 0. -1.
         -1   -1    0    0    0  501 -0.00000000000E+00 -0.00000000000E+00 -0.30286802851E+03  0.30286802851E+03  0.00000000000E+00 0.  1.
         24    2    1    2    0    0 -0.87954340094E+02  0.66069254950E+02 -0.12645365865E+03  0.18729747589E+03  0.83598470669E+02 0.  0.
         23    2    1    2    0    0  0.54139445892E+02 -0.88058591617E+02 -0.99444559556E+02  0.17087969488E+03  0.92872248475E+02 0.  0.
        -11    1    3    3    0    0 -0.85886312494E+02  0.15256706457E+02 -0.76781601309E+02  0.11620946633E+03  0.00000000000E+00 0.  1.
         12    1    3    3    0    0 -0.20680276006E+01  0.50812548493E+02 -0.49672057337E+02  0.71088009556E+02  0.00000000000E+00 0. -1.
        -11    1    4    4    0    0  0.15463039475E+02  0.16395520988E+02 -0.15507023647E+01  0.22590338114E+02  0.00000000000E+00 0. -1.
         11    1    4    4    0    0  0.38676406417E+02 -0.10445411261E+03 -0.97893857191E+02  0.14828935676E+03  0.00000000000E+00 0.  1.
         21    1    1    2  502  501  0.33814894202E+02  0.21989336667E+02  0.26725709799E+02  0.48386377847E+02  0.00000000000E+00 0. -1.
<scales pt_clust_5="13000.00000" pt_clust_6="13000.00000" pt_clust_7="13000.00000" pt_clust_8="13000.00000" pt_clust_9="40.33582"></scales>
<clustering>
<clus scale="   40.336">  1  9  2 -1</clus>
<clus scale="   83.598">  5  6 -1 -1</clus>
<clus scale="   92.872">  7  8 -1 -1</clus>
<clus scale="  134.293">  2  5  1 -1</clus>
<clus scale="   40.336">  1  5  2 -1</clus>
</clustering>
</event>
<event>
 9    2  0.2984928E-005  0.1075215E+03  0.7546771E-02  0.1270200E+00
         -1   -1    0    0    0  501 -0.00000000000E+00  0.00000000000E+00  0.35677546297E+02  0.35677546297E+02  0.00000000000E+00 0.  1.
          2   -1    0    0  502    0  0.00000000000E+00 -0.00000000000E+00 -0.55445674475E+03  0.55445674475E+03  0.00000000000E+00 0. -1.
         24    2    1    2    0    0  0.29209617099E+02 -0.40799340291E+02 -0.67731346904E+02  0.11700680218E+03  0.81149667301E+02 0.  0.
         23    2    1    2    0    0 -0.53113938488E+02  0.48904654552E+02 -0.36827880571E+03  0.38659525413E+03  0.92810861869E+02 0.  0.
        -11    1    3    3    0    0 -0.18888891927E+02  0.13056485160E+02 -0.12876046451E+02  0.26325930471E+02  0.00000000000E+00 0.  1.
         12    1    3    3    0    0  0.48098509025E+02 -0.53855825451E+02 -0.54855300453E+02  0.90680871706E+02  0.00000000000E+00 0. -1.
        -11    1    4    4    0    0 -0.84360780715E+01  0.67039810133E+02 -0.24720997953E+03  0.25627773515E+03  0.00000000000E+00 0. -1.
         11    1    4    4    0    0 -0.44677860417E+02 -0.18135155581E+02 -0.12106882619E+03  0.13031751898E+03  0.00000000000E+00 0.  1.
         21    1    1    2  502  501  0.23904321390E+02 -0.81053142607E+01 -0.82769045834E+02  0.86532234737E+02  0.00000000000E+00 0.  1.
<scales pt_clust_5="13000.00000" pt_clust_6="13000.00000" pt_clust_7="13000.00000" pt_clust_8="13000.00000" pt_clust_9="25.24109"></scales>
<clustering>
<clus scale="   25.241">  2  9  1 -1</clus>
<clus scale="   81.150">  5  6 -1 -1</clus>
<clus scale="   92.811">  7  8 -1 -1</clus>
<clus scale="   97.633">  1  5  2 -1</clus>
<clus scale="   25.241">  2  5  1 -1</clus>
</clustering>
</event>
<event>
 9    2  0.2984928E-005  0.1386820E+03  0.7546771E-02  0.1217081E+00
         -1   -1    0    0    0  501 -0.00000000000E+00  0.00000000000E+00  0.19233684564E+03  0.19233684564E+03  0.00000000000E+00 0.  1.
          2   -1    0    0  502    0  0.00000000000E+00 -0.00000000000E+00 -0.45272362574E+03  0.45272362574E+03  0.00000000000E+00 0. -1.
         23    2    1    2    0    0 -0.10817140698E+03  0.12122791114E+02  0.14977072852E+03  0.20505618769E+03  0.88140533461E+02 0.  0.
         24    2    1    2    0    0  0.91333909443E+02  0.33293797663E+01 -0.24371618674E+03  0.27200135354E+03  0.78956879799E+02 0.  0.
        -11    1    4    4    0    0  0.35147167674E+02  0.34330439536E+02 -0.60889384913E+02  0.78239501975E+02  0.00000000000E+00 0.  1.
         12    1    4    4    0    0  0.56186741769E+02 -0.31001059770E+02 -0.18282680182E+03  0.19376185157E+03  0.00000000000E+00 0. -1.
        -13    1    3    3    0    0 -0.62353545594E+02  0.47742135726E+01  0.14560480197E+03  0.15846613556E+03  0.00000000000E+00 0.  1.
         13    1    3    3    0    0 -0.45817861381E+02  0.73485775416E+01  0.41659265478E+01  0.46590052130E+02  0.00000000000E+00 0. -1.
         21    1    1    2  502  501  0.16837497533E+02 -0.15452170880E+02 -0.16644132188E+03  0.16800293015E+03  0.00000000000E+00 0.  1.
<scales pt_clust_5="13000.00000" pt_clust_6="13000.00000" pt_clust_7="13000.00000" pt_clust_8="13000.00000" pt_clust_9="22.85325"></scales>
<clustering>
<clus scale="   22.853">  2  9  1 -1</clus>
<clus scale="   78.957">  5  6 -1 -1</clus>
<clus scale="   88.141">  7  8 -1 -1</clus>
<clus scale="  133.034">  2  5  1 -1</clus>
<clus scale="   22.853">  2  5  1 -1</clus>
</clustering>
</event>
<event>
 9    2  0.2984928E-005  0.1176608E+03  0.7546771E-02  0.1251144E+00
         -1   -1    0    0    0  501 -0.00000000000E+00  0.00000000000E+00  0.28836418449E+03  0.28836418449E+03  0.00000000000E+00 0.  1.
          2   -1    0    0  502    0  0.00000000000E+00 -0.00000000000E+00 -0.79069647059E+02  0.79069647059E+02  0.00000000000E+00 0. -1.
         23    2    1    2    0    0 -0.19422341160E+02  0.71367480358E+02  0.19709488979E+03  0.23003329687E+03  0.92727436617E+02 0.  0.
         24    2    1    2    0    0  0.43936551270E+02 -0.57131628903E+02  0.14091105237E+02  0.10898955835E+03  0.80533974345E+02 0.  0.
        -11    1    4    4    0    0  0.29484415577E+02 -0.77594625357E+02  0.11597810405E+02  0.83813876252E+02  0.00000000000E+00 0.  1.
         12    1    4    4    0    0  0.14452135693E+02  0.20462996454E+02  0.24932948317E+01  0.25175682098E+02  0.00000000000E+00 0. -1.
        -11    1    3    3    0    0 -0.54864411807E+02  0.31284301349E+02  0.85732083435E+02  0.10648380780E+03  0.00000000000E+00 0.  1.
         11    1    3    3    0    0  0.35442070647E+02  0.40083179009E+02  0.11136280635E+03  0.12354948907E+03  0.00000000000E+00 0. -1.
         21    1    1    2  502  501 -0.24514210111E+02 -0.14235851456E+02 -0.18914575925E+01  0.28410976327E+02  0.00000000000E+00 0.  1.
<scales pt_clust_5="13000.00000" pt_clust_6="13000.00000" pt_clust_7="13000.00000" pt_clust_8="13000.00000" pt_clust_9="28.34794"></scales>
<clustering>
<clus scale="   28.348">  2  9  1 -1</clus>
<clus scale="   80.534">  5  6 -1 -1</clus>
<clus scale="   92.727">  7  8 -1 -1</clus>
<clus scale="  108.312">  2  5  1 -1</clus>
<clus scale="   28.348">  2  5  1 -1</clus>
</clustering>
</event>
<event>
 9    2  0.2984928E-005  0.1709012E+03  0.7546771E-02  0.1177124E+00
          2   -1    0    0  502    0  0.00000000000E+00  0.00000000000E+00  0.89750330724E+02  0.89750330724E+02  0.00000000000E+00 0. -1.
         -1   -1    0    0    0  501 -0.00000000000E+00 -0.00000000000E+00 -0.41863235215E+03  0.41863235215E+03  0.00000000000E+00 0.  1.
         23    2    1    2    0    0  0.10416693930E+03  0.70545152446E+02 -0.20599606616E+03  0.25803958172E+03  0.91228705370E+02 0.  0.
         24    2    1    2    0    0 -0.11798732814E+03 -0.10283057868E+03 -0.87487043237E+02  0.20047893699E+03  0.89681012080E+02 0.  0.
        -13    1    4    4    0    0 -0.12868401133E+03 -0.75466720816E+02 -0.83125777488E+02  0.17077674199E+03  0.00000000000E+00 0.  1.
         14    1    4    4    0    0  0.10696683190E+02 -0.27363857866E+02 -0.43612657482E+01  0.29702194995E+02  0.00000000000E+00 0. -1.
        -13    1    3    3    0    0  0.11238185276E+03  0.34688295725E+02 -0.16872531313E+03  0.20567253093E+03  0.00000000000E+00 0. -1.
         13    1    3    3    0    0 -0.82149134515E+01  0.35856856721E+02 -0.37270753032E+02  0.52367050791E+02  0.00000000000E+00 0.  1.
         21    1    1    2  502  501  0.13820388835E+02  0.32285426237E+02 -0.35398912023E+02  0.49864164159E+02  0.00000000000E+00 0. -1.
<scales pt_clust_5="13000.00000" pt_clust_6="13000.00000" pt_clust_7="13000.00000" pt_clust_8="13000.00000" pt_clust_9="35.11911"></scales>
<clustering>
<clus scale="   35.119">  2  9  1 -1</clus>
<clus scale="   89.681">  5  6 -1 -1</clus>
<clus scale="   91.229">  7  8 -1 -1</clus>
<clus scale="  170.080">  1  5  2 -1</clus>
<clus scale="  170.080">  1  5  2 -1</clus>
</clustering>
</event>
<event>
 9    2  0.2984928E-005  0.1644789E+03  0.7546771E-02  0.1184396E+00
          2   -1    0    0  502    0  0.00000000000E+00  0.00000000000E+00  0.10860486591E+04  0.10860486591E+04  0.00000000000E+00 0. -1.
         -1   -1    0    0    0  501 -0.00000000000E+00 -0.00000000000E+00 -0.40496876304E+02  0.40496876304E+02  0.00000000000E+00 0.  1.
         24    2    1    2    0    0  0.44988250310E+02  0.13560853661E+03  0.20751069556E+03  0.26659237916E+03  0.87161860832E+02 0.  0.
         23    2    1    2    0    0 -0.10841135295E+02 -0.12233352816E+03  0.60755903914E+03  0.62657743813E+03  0.91587540672E+02 0.  0.
        -13    1    3    3    0    0  0.58677143706E+02  0.71929728517E+02  0.76514945841E+02  0.12029725672E+03  0.00000000000E+00 0.  1.
         14    1    3    3    0    0 -0.13688893396E+02  0.63678808095E+02  0.13099574972E+03  0.14629512243E+03  0.00000000000E+00 0. -1.
        -13    1    4    4    0    0  0.34966676536E+02 -0.91510349515E+02  0.39424318161E+03  0.40623207503E+03  0.00000000000E+00 0. -1.
         13    1    4    4    0    0 -0.45807811831E+02 -0.30823178649E+02  0.21331585753E+03  0.22034536310E+03  0.00000000000E+00 0.  1.
         21    1    1    2  502  501 -0.34147115015E+02 -0.13275008448E+02  0.23048204813E+03  0.23337571815E+03  0.00000000000E+00 0.  1.
<scales pt_clust_5="13000.00000" pt_clust_6="13000.00000" pt_clust_7="13000.00000" pt_clust_8="13000.00000" pt_clust_9="36.63675"></scales>
<clustering>
<clus scale="   36.637">  1  9  2 -1</clus>
<clus scale="   87.162">  5  6 -1 -1</clus>
<clus scale="   91.588">  7  8 -1 -1</clus>
<clus scale="  162.056">  2  5  1 -1</clus>
<clus scale="   36.637">  1  5  2 -1</clus>
</clustering>
</event>
<event>
 9    2  0.2984928E-005  0.1044194E+03  0.7546771E-02  0.1280106E+00
          2   -1    0    0  502    0  0.00000000000E+00  0.00000000000E+00  0.45641209528E+03  0.45641209528E+03  0.00000000000E+00 0. -1.
         -1   -1    0    0    0  501 -0.00000000000E+00 -0.00000000000E+00 -0.36099429781E+02  0.36099429781E+02  0.00000000000E+00 0.  1.
         24    2    1    2    0    0 -0.25948111141E+02 -0.27555438229E+02  0.62506018528E+02  0.10575981189E+03  0.76456058046E+02 0.  0.
         23    2    1    2    0    0  0.56440015672E+02  0.34188570888E+02  0.27480266007E+03  0.29807580588E+03  0.94754157293E+02 0.  0.
        -11    1    3    3    0    0  0.16301511352E+02 -0.38355061987E+02  0.31909301062E+02  0.52488603969E+02  0.00000000000E+00 0.  1.
         12    1    3    3    0    0 -0.42249622493E+02  0.10799623758E+02  0.30596717466E+02  0.53271207925E+02  0.00000000000E+00 0. -1.
        -11    1    4    4    0    0  0.82090235392E+02  0.33074173045E+02  0.22996977447E+03  0.24641186018E+03  0.00000000000E+00 0. -1.
         11    1    4    4    0    0 -0.25650219720E+02  0.11143978426E+01  0.44832885596E+02  0.51663945698E+02  0.00000000000E+00 0.  1.
         21    1    1    2  502  501 -0.30491904531E+02 -0.66331326586E+01  0.83003986905E+02  0.88675907286E+02  0.00000000000E+00 0.  1.
<scales pt_clust_5="13000.00000" pt_clust_6="13000.00000" pt_clust_7="13000.00000" pt_clust_8="13000.00000" pt_clust_9="31.20504"></scales>
<clustering>
<clus scale="   31.205">  1  9  2 -1</clus>
<clus scale="   76.456">  5  6 -1 -1</clus>
<clus scale="   88.151">  2  5  1 -1</clus>
<clus scale="   94.754">  7  8 -1 -1</clus>
<clus scale="   31.205">  1  5  2 -1</clus>
</clustering>
</event>
<event>
 9    2  0.2984928E-005  0.9532314E+02  0.7546771E-02  0.1295548E+00
          2   -1    0    0  502    0  0.00000000000E+00  0.00000000000E+00  0.10403291894E+03  0.10403291894E+03  0.00000000000E+00 0. -1.
         -1   -1    0    0    0  501 -0.00000000000E+00 -0.00000000000E+00 -0.20904550806E+03  0.20904550806E+03  0.00000000000E+00 0.  1.
         23    2    1    2    0    0 -0.42884579459E+01 -0.24825357156E+02 -0.15501292066E+03  0.18152606973E+03  0.91038558821E+02 0.  0.
         24    2    1    2    0    0  0.17926812053E+02  0.44037942069E+02  0.51701591944E+02  0.10792985933E+03  0.81945646581E+02 0.  0.
        -11    1    4    4    0    0  0.44024333821E+02  0.45200394236E+02  0.18638883071E+02  0.65792291111E+02  0.00000000000E+00 0.  1.
         12    1    4    4    0    0 -0.26097521768E+02 -0.11624521675E+01  0.33062708872E+02  0.42137568220E+02  0.00000000000E+00 0. -1.
        -11    1    3    3    0    0 -0.45486194134E+02 -0.93147815537E+01 -0.53246210841E+02  0.70646429359E+02  0.00000000000E+00 0.  1.
         11    1    3    3    0    0  0.41197736188E+02 -0.15510575602E+02 -0.10176670981E+03  0.11087964037E+03  0.00000000000E+00 0. -1.
         21    1    1    2  502  501 -0.13638354107E+02 -0.19212584913E+02 -0.17012604006E+01  0.23622497936E+02  0.00000000000E+00 0. -1.
<scales pt_clust_5="13000.00000" pt_clust_6="13000.00000" pt_clust_7="13000.00000" pt_clust_8="13000.00000" pt_clust_9="23.56116"></scales>
<clustering>
<clus scale="   23.561">  1  9  2 -1</clus>
<clus scale="   81.946">  5  6 -1 -1</clus>
<clus scale="   86.681">  1  5  2 -1</clus>
<clus scale="   91.039">  7  8 -1 -1</clus>
<clus scale="   23.561">  1  5  2 -1</clus>
</clustering>
</event>
<event>
 9    2  0.2984928E-005  0.1011655E+03  0.7546771E-02  0.1285799E+00
          2   -1    0    0  502    0  0.00000000000E+00  0.00000000000E+00  0.58277302704E+03  0.58277302704E+03  0.00000000000E+00 0. -1.
         -1   -1    0    0    0  501 -0.00000000000E+00 -0.00000000000E+00 -0.12447851433E+03  0.12447851433E+03  0.00000000000E+00 0.  1.
         23    2    1    2    0    0  0.40115571182E+02  0.92929527303E+01 -0.90907402314E+02  0.13627453155E+03  0.92795334648E+02 0.  0.
         24    2    1    2    0    0 -0.10878187911E+02 -0.43802617271E+02  0.48038531466E+03  0.48862735278E+03  0.77133877709E+02 0.  0.
        -11    1    4    4    0    0  0.24146204567E+02  0.41238225302E+01  0.74487654475E+02  0.78412089479E+02  0.00000000000E+00 0.  1.
         12    1    4    4    0    0 -0.35024392478E+02 -0.47926439802E+02  0.40589766018E+03  0.41021526330E+03  0.00000000000E+00 0. -1.
        -13    1    3    3    0    0  0.63656064117E+02  0.12520832712E+02 -0.31150127971E+02  0.71966632708E+02  0.00000000000E+00 0. -1.
         13    1    3    3    0    0 -0.23540492935E+02 -0.32278799821E+01 -0.59757274343E+02  0.64307898844E+02  0.00000000000E+00 0.  1.
         21    1    1    2  502  501 -0.29237383271E+02  0.34509664541E+02  0.68816600368E+02  0.82349657034E+02  0.00000000000E+00 0. -1.
<scales pt_clust_5="13000.00000" pt_clust_6="13000.00000" pt_clust_7="13000.00000" pt_clust_8="13000.00000" pt_clust_9="45.22987"></scales>
<clustering>
<clus scale="   45.230">  1  9  2 -1</clus>
<clus scale="   77.134">  5  6 -1 -1</clus>
<clus scale="   87.024">  1  5  2 -1</clus>
<clus scale="   92.795">  7  8 -1 -1</clus>
<clus scale="   45.230">  1  5  2 -1</clus>
</clustering>
</event>
<event>
 9    2  0.2984928E-005  0.1485012E+03  0.7546771E-02  0.1203980E+00
          2   -1    0    0  502    0  0.00000000000E+00  0.00000000000E+00  0.68097349769E+03  0.68097349769E+03  0.00000000000E+00 0. -1.
         -1   -1    0    0    0  501 -0.00000000000E+00 -0.00000000000E+00 -0.71295657655E+02  0.71295657655E+02  0.00000000000E+00 0.  1.
         23    2    1    2    0    0 -0.88823163236E+01  0.12002988820E+03  0.53808734031E+02  0.15916946851E+03  0.89182230535E+02 0.  0.
         24    2    1    2    0    0 -0.47368815243E+02 -0.11312406079E+03  0.44627996417E+03  0.46972359409E+03  0.80209666686E+02 0.  0.
        -11    1    4    4    0    0 -0.23419652693E+02 -0.85787101222E+02  0.17783486724E+03  0.19882944167E+03  0.00000000000E+00 0.  1.
         12    1    4    4    0    0 -0.23949162549E+02 -0.27336959572E+02  0.26844509694E+03  0.27089415242E+03  0.00000000000E+00 0. -1.
        -13    1    3    3    0    0 -0.48663477754E+02  0.77056293475E+02  0.29882827241E+02  0.95910321629E+02  0.00000000000E+00 0. -1.
         13    1    3    3    0    0  0.39781161430E+02  0.42973594726E+02  0.23925906791E+02  0.63259146882E+02  0.00000000000E+00 0.  1.
         21    1    1    2  502  501  0.56251131566E+02 -0.69058274073E+01  0.10958914183E+03  0.12337609275E+03  0.00000000000E+00 0.  1.
<scales pt_clust_5="13000.00000" pt_clust_6="13000.00000" pt_clust_7="13000.00000" pt_clust_8="13000.00000" pt_clust_9="56.67345"></scales>
<clustering>
<clus scale="   56.673">  1  9  2 -1</clus>
<clus scale="   80.210">  5  6 -1 -1</clus>
<clus scale="   89.182">  7  8 -1 -1</clus>
<clus scale="  143.292">  1  5  2 -1</clus>
<clus scale="   56.673">  1  5  2 -1</clus>
</clustering>
</event>
<event>
 9    2  0.2984928E-005  0.1260932E+03  0.7546771E-02  0.1237215E+00
         -1   -1    0    0    0  501 -0.00000000000E+00  0.00000000000E+00  0.10274299019E+03  0.10274299019E+03  0.00000000000E+00 0.  1.
          2   -1    0    0  502    0  0.00000000000E+00 -0.00000000000E+00 -0.20220074639E+03  0.20220074639E+03  0.00000000000E+00 0. -1.
         24    2    1    2    0    0 -0.50823390017E+02  0.68120396524E+02 -0.90891495813E+01  0.11665899703E+03  0.79393347023E+02 0.  0.
         23    2    1    2    0    0  0.69066182544E+02 -0.53887643189E+02 -0.41505203991E+02  0.13421993712E+03  0.92834766665E+02 0.  0.
        -11    1    3    3    0    0 -0.35464813590E+02  0.84389528939E+02 -0.16653728258E+02  0.93041347059E+02  0.00000000000E+00 0.  1.
         12    1    3    3    0    0 -0.15358576427E+02 -0.16269132416E+02  0.75645786769E+01  0.23617649967E+02  0.00000000000E+00 0. -1.
        -13    1    4    4    0    0 -0.14495871354E+02 -0.33532362485E+02 -0.30350110057E+02  0.47493986994E+02  0.00000000000E+00 0.  1.
         13    1    4    4    0    0  0.83562053897E+02 -0.20355280704E+02 -0.11155093933E+02  0.86725950123E+02  0.00000000000E+00 0. -1.
         21    1    1    2  502  501 -0.18242792527E+02 -0.14232753334E+02 -0.48863402625E+02  0.54064802439E+02  0.00000000000E+00 0.  1.
<scales pt_clust_5="13000.00000" pt_clust_6="13000.00000" pt_clust_7="13000.00000" pt_clust_8="13000.00000" pt_clust_9="23.13808"></scales>
<clustering>
<clus scale="   23.138">  2  9  1 -1</clus>
<clus scale="   79.393">  5  6 -1 -1</clus>
<clus scale="   92.835">  7  8 -1 -1</clus>
<clus scale="  116.553">  1  5  2 -1</clus>
<clus scale="   23.138">  2  5  1 -1</clus>
</clustering>
</event>
<event>
 9    2  0.2984928E-005  0.8933735E+02  0.7546771E-02  0.1309365E+00
          2   -1    0    0  502    0  0.00000000000E+00  0.00000000000E+00  0.50187255710E+03  0.50187255710E+03  0.00000000000E+00 0. -1.
         -1   -1    0    0    0  501 -0.00000000000E+00 -0.00000000000E+00 -0.10245949456E+03  0.10245949456E+03  0.00000000000E+00 0.  1.
         23    2    1    2    0    0 -0.15396940698E+02 -0.11264232351E+02 -0.70722238663E+02  0.11377098073E+03  0.87053157905E+02 0.  0.
         24    2    1    2    0    0 -0.15457627556E+00  0.52314029724E+02  0.28920977149E+03  0.30438646781E+03  0.79196264163E+02 0.  0.
        -11    1    4    4    0    0  0.14871518660E+02 -0.17638471029E+02  0.60660950432E+02  0.64900143566E+02  0.00000000000E+00 0.  1.
         12    1    4    4    0    0 -0.15026094936E+02  0.69952500753E+02  0.22854882106E+03  0.23948632424E+03  0.00000000000E+00 0. -1.
        -11    1    3    3    0    0 -0.14227437082E+02  0.31405527195E+02 -0.42021916583E+01  0.34733060893E+02  0.00000000000E+00 0. -1.
         11    1    3    3    0    0 -0.11695036159E+01 -0.42669759546E+02 -0.66520047004E+02  0.79037919835E+02  0.00000000000E+00 0.  1.
         21    1    1    2  502  501  0.15551516973E+02 -0.41049797372E+02  0.18092552971E+03  0.18617460312E+03  0.00000000000E+00 0. -1.
<scales pt_clust_5="13000.00000" pt_clust_6="13000.00000" pt_clust_7="13000.00000" pt_clust_8="13000.00000" pt_clust_9="43.89687"></scales>
<clustering>
<clus scale="   43.897">  1  9  2 -1</clus>
<clus scale="   79.196">  5  6 -1 -1</clus>
<clus scale="   81.700">  1  5  2 -1</clus>
<clus scale="   87.053">  7  8 -1 -1</clus>
<clus scale="   43.897">  1  5  2 -1</clus>
</clustering>
</event>
<event>
 9    2  0.2984928E-005  0.9639900E+02  0.7546771E-02  0.1294856E+00
          2   -1    0    0  502    0  0.00000000000E+00  0.00000000000E+00  0.53637189255E+03  0.53637189255E+03  0.00000000000E+00 0. -1.
         -1   -1    0    0    0  501 -0.00000000000E+00 -0.00000000000E+00 -0.11805277180E+03  0.11805277180E+03  0.00000000000E+00 0.  1.
         24    2    1    2    0    0 -0.10766813017E+02  0.21286886185E+02 -0.84998498436E+02  0.11953637218E+03  0.80592454686E+02 0.  0.
         23    2    1    2    0    0  0.44476325739E+02 -0.49165875926E+02  0.21539445615E+03  0.24366103188E+03  0.92630987308E+02 0.  0.
        -13    1    3    3    0    0 -0.45150242039E+02  0.20333686694E+02 -0.46808852221E+02  0.68140089646E+02  0.00000000000E+00 0.  1.
         14    1    3    3    0    0  0.34383429022E+02  0.95319949176E+00 -0.38189646215E+02  0.51396282537E+02  0.00000000000E+00 0. -1.
        -13    1    4    4    0    0  0.63681134974E+01 -0.54899293634E+02  0.52352753761E+02  0.76126842424E+02  0.00000000000E+00 0.  1.
         13    1    4    4    0    0  0.38108212241E+02  0.57334177080E+01  0.16304170239E+03  0.16753418945E+03  0.00000000000E+00 0. -1.
         21    1    1    2  502  501 -0.33709512722E+02  0.27878989741E+02  0.28792316304E+03  0.29122726029E+03  0.00000000000E+00 0. -1.
<scales pt_clust_5="13000.00000" pt_clust_6="13000.00000" pt_clust_7="13000.00000" pt_clust_8="13000.00000" pt_clust_9="43.74436"></scales>
<clustering>
<clus scale="   43.744">  1  9  2 -1</clus>
<clus scale="   80.592">  5  6 -1 -1</clus>
<clus scale="   84.896">  2  5  1 -1</clus>
<clus scale="   92.631">  7  8 -1 -1</clus>
<clus scale="   43.744">  1  5  2 -1</clus>
</clustering>
</event>
<event>
 9    2  0.2984928E-005  0.1501715E+03  0.7546771E-02  0.1204600E+00
         -1   -1    0    0    0  501 -0.00000000000E+00  0.00000000000E+00  0.28078120617E+03  0.28078120617E+03  0.00000000000E+00 0.  1.
          2   -1    0    0  502    0  0.00000000000E+00 -0.00000000000E+00 -0.13984291681E+03  0.13984291681E+03  0.00000000000E+00 0. -1.
         23    2    1    2    0    0 -0.15259918022E+03 -0.54908699094E+02  0.62349260978E+02  0.20153952634E+03  0.10212382333E+03 0.  0.
         24    2    1    2    0    0  0.74684699241E+02  0.38500121776E+02  0.16079296356E+02  0.11785528095E+03  0.81063307355E+02 0.  0.
        -13    1    4    4    0    0 -0.11482018531E+02  0.22973650880E+02  0.16078477894E+02  0.30300871863E+02  0.00000000000E+00 0.  1.
         14    1    4    4    0    0  0.86166717772E+02  0.15526470896E+02  0.81846127375E-03  0.87554409088E+02  0.00000000000E+00 0. -1.
        -11    1    3    3    0    0 -0.94265508695E+02  0.69898959504E+01  0.67776593321E+02  0.11631212911E+03  0.00000000000E+00 0.  1.
         11    1    3    3    0    0 -0.58333671527E+02 -0.61898595044E+02 -0.54273323428E+01  0.85227397230E+02  0.00000000000E+00 0. -1.
         21    1    1    2  502  501  0.77914480981E+02  0.16408577318E+02  0.62509732027E+02  0.10122931569E+03  0.00000000000E+00 0. -1.
<scales pt_clust_5="13000.00000" pt_clust_6="13000.00000" pt_clust_7="13000.00000" pt_clust_8="13000.00000" pt_clust_9="79.62354"></scales>
<clustering>
<clus scale="   79.624">  1  9  2 -1</clus>
<clus scale="   81.063">  5  6 -1 -1</clus>
<clus scale="  102.124">  7  8 -1 -1</clus>
<clus scale="  136.724">  2  5  1 -1</clus>
<clus scale="  136.724">  2  5  1 -1</clus>
</clustering>
</event>
<event>
 9    2  0.2984928E-005  0.9927515E+02  0.7546771E-02  0.1287962E+00
          2   -1    0    0  502    0  0.00000000000E+00  0.00000000000E+00  0.49801378049E+03  0.49801378049E+03  0.00000000000E+00 0. -1.
         -1   -1    0    0    0  501 -0.00000000000E+00 -0.00000000000E+00 -0.68785290392E+02  0.68785290392E+02  0.00000000000E+00 0.  1.
         24    2    1    2    0    0 -0.21060039516E+02 -0.44271144511E+02 -0.17919067693E+02  0.95196063498E+02  0.79609911555E+02 0.  0.
         23    2    1    2    0    0 -0.53156431551E+01  0.37761883925E+02  0.42540700878E+03  0.43680791318E+03  0.91519473101E+02 0.  0.
        -11    1    3    3    0    0  0.29658483431E+02 -0.67895888393E+01 -0.62081558552E+01  0.31052622356E+02  0.00000000000E+00 0.  1.
         12    1    3    3    0    0 -0.50718522947E+02 -0.37481555672E+02 -0.11710911838E+02  0.64143441142E+02  0.00000000000E+00 0. -1.
        -11    1    4    4    0    0 -0.44036768865E+02  0.39898639668E+02  0.28596300248E+03  0.29207187001E+03  0.00000000000E+00 0. -1.
         11    1    4    4    0    0  0.38721125709E+02 -0.21367557428E+01  0.13944400629E+03  0.14473604317E+03  0.00000000000E+00 0.  1.
         21    1    1    2  502  501  0.26375682671E+02  0.65092605859E+01  0.21740549019E+02  0.34795094214E+02  0.00000000000E+00 0. -1.
<scales pt_clust_5="13000.00000" pt_clust_6="13000.00000" pt_clust_7="13000.00000" pt_clust_8="13000.00000" pt_clust_9="27.16702"></scales>
<clustering>
<clus scale="   27.167">  2  9  1 -1</clus>
<clus scale="   79.610">  5  6 -1 -1</clus>
<clus scale="   88.417">  2  5  1 -1</clus>
<clus scale="   91.519">  7  8 -1 -1</clus>
<clus scale="   99.275">  1  5  2 -1</clus>
</clustering>
</event>
<event>
 9    2  0.2984928E-005  0.1436017E+03  0.7546771E-02  0.1211000E+00
         -1   -1    0    0    0  501 -0.00000000000E+00  0.00000000000E+00  0.26075586693E+03  0.26075586693E+03  0.00000000000E+00 0.  1.
          2   -1    0    0  502    0  0.00000000000E+00 -0.00000000000E+00 -0.10074418623E+04  0.10074418623E+04  0.00000000000E+00 0. -1.
         23    2    1    2    0    0 -0.92291922836E+02 -0.59063507755E+02  0.22178231298E+03  0.26389281626E+03  0.91900637386E+02 0.  0.
         24    2    1    2    0    0  0.15715652598E+03  0.10801842320E+02 -0.76973045700E+03  0.78975110002E+03  0.80043551273E+02 0.  0.
        -13    1    4    4    0    0  0.10857284435E+03 -0.11674846782E+02 -0.35049523810E+03  0.36711207622E+03  0.00000000000E+00 0.  1.
         14    1    4    4    0    0  0.48583681626E+02  0.22476689102E+02 -0.41923521890E+03  0.42263902380E+03  0.00000000000E+00 0. -1.
        -13    1    3    3    0    0 -0.66187726326E+01 -0.21175039978E+02 -0.10090257159E+01  0.22208300298E+02  0.00000000000E+00 0. -1.
         13    1    3    3    0    0 -0.85673150203E+02 -0.37888467778E+02  0.22279133870E+03  0.24168451596E+03  0.00000000000E+00 0.  1.
         21    1    1    2  502  501 -0.64864603140E+02  0.48261665436E+02 -0.19873785136E+03  0.21455381296E+03  0.00000000000E+00 0.  1.
<scales pt_clust_5="13000.00000" pt_clust_6="13000.00000" pt_clust_7="13000.00000" pt_clust_8="13000.00000" pt_clust_9="80.84927"></scales>
<clustering>
<clus scale="   80.044">  5  6 -1 -1</clus>
<clus scale="   80.849">  2  9  1 -1</clus>
<clus scale="   91.901">  7  8 -1 -1</clus>
<clus scale="  136.318">  2  5  1 -1</clus>
<clus scale="   80.849">  2  5  1 -1</clus>
</clustering>
</event>
<event>
 9    2  0.2984928E-005  0.9134258E+02  0.7546771E-02  0.1301721E+00
          2   -1    0    0  502    0  0.00000000000E+00  0.00000000000E+00  0.73990960670E+03  0.73990960670E+03  0.00000000000E+00 0. -1.
         -1   -1    0    0    0  501 -0.00000000000E+00 -0.00000000000E+00 -0.35631474238E+02  0.35631474238E+02  0.00000000000E+00 0.  1.
         23    2    1    2    0    0  0.83111248326E+00 -0.20151590524E+02  0.88634158785E+02  0.12811555555E+03  0.90281803928E+02 0.  0.
         24    2    1    2    0    0 -0.56192476458E+02 -0.48118112400E+02  0.38599470132E+03  0.40153038259E+03  0.82230113374E+02 0.  0.
        -11    1    4    4    0    0 -0.23916548382E+02  0.15099466322E+02  0.44433761183E+02  0.52672139719E+02  0.00000000000E+00 0.  1.
         12    1    4    4    0    0 -0.32275928076E+02 -0.63217578722E+02  0.34156094014E+03  0.34885824288E+03  0.00000000000E+00 0. -1.
        -13    1    3    3    0    0 -0.40380053490E+02 -0.24549703074E+02  0.28840140952E+02  0.55362355180E+02  0.00000000000E+00 0. -1.
         13    1    3    3    0    0  0.41211165973E+02  0.43981125501E+01  0.59794017833E+02  0.72753200366E+02  0.00000000000E+00 0.  1.
         21    1    1    2  502  501  0.55361363975E+02  0.68269702925E+02  0.22964927235E+03  0.24589514279E+03  0.00000000000E+00 0.  1.
<scales pt_clust_5="13000.00000" pt_clust_6="13000.00000" pt_clust_7="13000.00000" pt_clust_8="13000.00000" pt_clust_9="87.89558"></scales>
<clustering>
<clus scale="   82.230">  5  6 -1 -1</clus>
<clus scale="   87.896">  1  9  2 -1</clus>
<clus scale="   87.896">  1  5  2 -1</clus>
<clus scale="   90.282">  7  8 -1 -1</clus>
<clus scale="   87.896">  1  5  2 -1</clus>
</clustering>
</event>
<event>
 9    2  0.2984928E-005  0.2921984E+03  0.7546771E-02  0.1089622E+00
          2   -1    0    0  502    0  0.00000000000E+00  0.00000000000E+00  0.68634383951E+03  0.68634383951E+03  0.00000000000E+00 0. -1.
         -1   -1    0    0    0  501 -0.00000000000E+00 -0.00000000000E+00 -0.13232026929E+03  0.13232026929E+03  0.00000000000E+00 0.  1.
         24    2    1    2    0    0 -0.28041256752E+03  0.21172484873E+02  0.27382344824E+03  0.40063491288E+03  0.80309217859E+02 0.  0.
         23    2    1    2    0    0  0.27138809290E+03 -0.40261888106E+02  0.26183429236E+03  0.39004437584E+03  0.91131234281E+02 0.  0.
        -13    1    3    3    0    0 -0.12965121230E+03 -0.10323390170E+02  0.78580791893E+02  0.15195706660E+03  0.00000000000E+00 0.  1.
         14    1    3    3    0    0 -0.15076135522E+03  0.31495875043E+02  0.19524265635E+03  0.24867784628E+03  0.00000000000E+00 0. -1.
        -11    1    4    4    0    0  0.15927427734E+03  0.19113783896E+02  0.12434652936E+03  0.20296721785E+03  0.00000000000E+00 0.  1.
         11    1    4    4    0    0  0.11211381556E+03 -0.59375672002E+02  0.13748776300E+03  0.18707715798E+03  0.00000000000E+00 0. -1.
         21    1    1    2  502  501  0.90244746209E+01  0.19089403233E+02  0.18365829618E+02  0.27984820091E+02  0.00000000000E+00 0.  1.
<scales pt_clust_5="13000.00000" pt_clust_6="13000.00000" pt_clust_7="13000.00000" pt_clust_8="13000.00000" pt_clust_9="21.11508"></scales>
<clustering>
<clus scale="   21.115">  2  9  1 -1</clus>
<clus scale="   80.309">  5  6 -1 -1</clus>
<clus scale="   91.131">  7  8 -1 -1</clus>
<clus scale="  289.006">  2  5  1 -1</clus>
<clus scale="  292.198">  1  5  2 -1</clus>
</clustering>
</event>
<event>
 9    2  0.2984928E-005  0.1553685E+03  0.7546771E-02  0.1226053E+00
         -1   -1    0    0    0  501 -0.00000000000E+00  0.00000000000E+00  0.28481189002E+03  0.28481189002E+03  0.00000000000E+00 0.  1.
          2   -1    0    0  502    0  0.00000000000E+00 -0.00000000000E+00 -0.60660082326E+03  0.60660082326E+03  0.00000000000E+00 0. -1.
         23    2    1    2    0    0 -0.12231122217E+02 -0.12061976354E+03  0.23935388401E+03  0.28494400564E+03  0.95937880171E+02 0.  0.
         24    2    1    2    0    0 -0.81198802629E+01 -0.19459548041E+02 -0.12149541547E+03  0.14459619846E+03  0.75513695206E+02 0.  0.
        -11    1    4    4    0    0  0.12497929955E+02 -0.42190871955E+02 -0.48916817010E+02  0.65796070673E+02  0.00000000000E+00 0.  1.
         12    1    4    4    0    0 -0.20617810218E+02  0.22731323915E+02 -0.72578598455E+02  0.78800127784E+02  0.00000000000E+00 0. -1.
        -11    1    3    3    0    0 -0.52834477384E+02 -0.61995076471E+02  0.10557825178E+03  0.13334781121E+03  0.00000000000E+00 0.  1.
         11    1    3    3    0    0  0.40603355168E+02 -0.58624687066E+02  0.13377563224E+03  0.15159619443E+03  0.00000000000E+00 0. -1.
         21    1    1    2  502  501  0.20351002479E+02  0.14007931158E+03 -0.43964740179E+03  0.46187250918E+03  0.00000000000E+00 0. -1.
<scales pt_clust_5="13000.00000" pt_clust_6="13000.00000" pt_clust_7="13000.00000" pt_clust_8="13000.00000" pt_clust_9="122.21002"></scales>
<clustering>
<clus scale="   75.514">  5  6 -1 -1</clus>
<clus scale="   78.402">  2  5  1 -1</clus>
<clus scale="   95.938">  7  8 -1 -1</clus>
<clus scale="  122.210">  2  9  1 -1</clus>
<clus scale="   78.402">  2  5  1 -1</clus>
</clustering>
</event>
<event>
 9    2  0.2984928E-005  0.1144818E+03  0.7546771E-02  0.1258497E+00
         -1   -1    0    0    0  501 -0.00000000000E+00  0.00000000000E+00  0.16301727579E+03  0.16301727579E+03  0.00000000000E+00 0.  1.
          2   -1    0    0  502    0  0.00000000000E+00 -0.00000000000E+00 -0.11656476250E+03  0.11656476250E+03  0.00000000000E+00 0. -1.
         24    2    1    2    0    0  0.56040100786E+02  0.12907505861E+02  0.82450955773E+02  0.12858338065E+03  0.80177484795E+02 0.  0.
         23    2    1    2    0    0 -0.78045701483E+02 -0.13732281868E+02 -0.27795204118E+02  0.12749929941E+03  0.95936389823E+02 0.  0.
        -13    1    3    3    0    0  0.24122177059E+02 -0.31861524137E+02  0.17894982107E+02  0.43786602186E+02  0.00000000000E+00 0.  1.
         14    1    3    3    0    0  0.31917923728E+02  0.44769029998E+02  0.64555973666E+02  0.84796778465E+02  0.00000000000E+00 0. -1.
        -11    1    4    4    0    0 -0.57882153422E+02 -0.25703012631E+01  0.30023805610E+02  0.65256256685E+02  0.00000000000E+00 0.  1.
         11    1    4    4    0    0 -0.20163548061E+02 -0.11161980605E+02 -0.57819009728E+02  0.62243042722E+02  0.00000000000E+00 0. -1.
         21    1    1    2  502  501  0.22005600696E+02  0.82477600739E+00 -0.82032383617E+01  0.23499358227E+02  0.00000000000E+00 0. -1.
<scales pt_clust_5="13000.00000" pt_clust_6="13000.00000" pt_clust_7="13000.00000" pt_clust_8="13000.00000" pt_clust_9="22.02105"></scales>
<clustering>
<clus scale="   22.021">  2  9  1 -1</clus>
<clus scale="   80.177">  5  6 -1 -1</clus>
<clus scale="   95.936">  7  8 -1 -1</clus>
<clus scale="  101.640">  1  5  2 -1</clus>
<clus scale="   22.021">  2  5  1 -1</clus>
</clustering>
</event>
<event>
 9    2  0.2984928E-005  0.1827156E+03  0.7546771E-02  0.1190203E+00
         -1   -1    0    0    0  501 -0.00000000000E+00  0.00000000000E+00  0.40530331181E+03  0.40530331181E+03  0.00000000000E+00 0.  1.
          2   -1    0    0  502    0  0.00000000000E+00 -0.00000000000E+00 -0.17687321446E+03  0.17687321446E+03  0.00000000000E+00 0. -1.
         23    2    1    2    0    0 -0.12435037293E+02 -0.11839461646E+03  0.23326881367E+02  0.15258177922E+03  0.92548044812E+02 0.  0.
         24    2    1    2    0    0  0.34814907970E+02 -0.54599757712E+02 -0.54103937595E+02  0.11715873669E+03  0.81275593880E+02 0.  0.
        -13    1    4    4    0    0 -0.21864679533E+02 -0.22015252378E+01 -0.28174103174E+02  0.35730813231E+02  0.00000000000E+00 0.  1.
         14    1    4    4    0    0  0.56679587503E+02 -0.52398232474E+02 -0.25929834421E+02  0.81427923460E+02  0.00000000000E+00 0. -1.
        -11    1    3    3    0    0 -0.21681366148E+02 -0.31162963527E+01  0.29529968928E+02  0.36766996150E+02  0.00000000000E+00 0.  1.
         11    1    3    3    0    0  0.92463288544E+01 -0.11527832010E+03 -0.62030875609E+01  0.11581478307E+03  0.00000000000E+00 0. -1.
         21    1    1    2  502  501 -0.22379870677E+02  0.17299437417E+03  0.25920715357E+03  0.31243601036E+03  0.00000000000E+00 0.  1.
<scales pt_clust_5="13000.00000" pt_clust_6="13000.00000" pt_clust_7="13000.00000" pt_clust_8="13000.00000" pt_clust_9="157.54313"></scales>
<clustering>
<clus scale="   81.276">  5  6 -1 -1</clus>
<clus scale="   92.548">  7  8 -1 -1</clus>
<clus scale="  103.918">  2  5  1 -1</clus>
<clus scale="  157.543">  1  9  2 -1</clus>
<clus scale="  103.918">  2  5  1 -1</clus>
</clustering>
</event>
<event>
 9    2  0.2984928E-005  0.9980810E+02  0.7546771E-02  0.1286539E+00
         -1   -1    0    0    0  501 -0.00000000000E+00  0.00000000000E+00  0.28651743797E+03  0.28651743797E+03  0.00000000000E+00 0.  1.
          2   -1    0    0  502    0  0.00000000000E+00 -0.00000000000E+00 -0.33353536838E+03  0.33353536838E+03  0.00000000000E+00 0. -1.
         24    2    1    2    0    0  0.23957180443E+02 -0.18840334672E+01  0.15551650551E+03  0.17780842087E+03  0.82782576501E+02 0.  0.
         23    2    1    2    0    0 -0.48255148958E+02 -0.78161154843E+02  0.75742721648E+02  0.15166599697E+03  0.93956847680E+02 0.  0.
        -13    1    3    3    0    0  0.74992019751E-01 -0.33007042362E+02  0.12143732159E+03  0.12584313070E+03  0.00000000000E+00 0.  1.
         14    1    3    3    0    0  0.23882188423E+02  0.31123008895E+02  0.34079183914E+02  0.51965290173E+02  0.00000000000E+00 0. -1.
        -13    1    4    4    0    0  0.11555159680E+02 -0.65990723686E+02  0.22503101983E+02  0.70673099032E+02  0.00000000000E+00 0.  1.
         13    1    4    4    0    0 -0.59810308638E+02 -0.12170431156E+02  0.53239619664E+02  0.80992897935E+02  0.00000000000E+00 0. -1.
         21    1    1    2  502  501  0.24297968515E+02  0.80045188310E+02 -0.27827715756E+03  0.29057838850E+03  0.00000000000E+00 0. -1.
<scales pt_clust_5="13000.00000" pt_clust_6="13000.00000" pt_clust_7="13000.00000" pt_clust_8="13000.00000" pt_clust_9="83.65180"></scales>
<clustering>
<clus scale="   82.783">  5  6 -1 -1</clus>
<clus scale="   83.652">  2  9  1 -1</clus>
<clus scale="   89.368">  1  5  2 -1</clus>
<clus scale="   93.957">  7  8 -1 -1</clus>
<clus scale="   83.652">  2  5  1 -1</clus>
</clustering>
</event>
<event>
 9    2  0.2984928E-005  0.1359934E+03  0.7546771E-02  0.1221851E+00
          2   -1    0    0  502    0  0.00000000000E+00  0.00000000000E+00  0.11515753113E+04  0.11515753113E+04  0.00000000000E+00 0. -1.
         -1   -1    0    0    0  501 -0.00000000000E+00 -0.00000000000E+00 -0.46954382327E+02  0.46954382327E+02  0.00000000000E+00 0.  1.
         23    2    1    2    0    0  0.50318489226E+02 -0.81428704653E+02  0.76804120454E+02  0.15360666036E+03  0.92377209794E+02 0.  0.
         24    2    1    2    0    0 -0.77632893630E+02  0.10447462674E+03  0.83862598240E+03  0.85238638766E+03  0.79543709405E+02 0.  0.
        -11    1    4    4    0    0 -0.25703920837E+02  0.19668520931E+01  0.59673530559E+02  0.65003771452E+02  0.00000000000E+00 0.  1.
         12    1    4    4    0    0 -0.51928972794E+02  0.10250777465E+03  0.77895245184E+03  0.78738261621E+03  0.00000000000E+00 0. -1.
        -11    1    3    3    0    0  0.21897197793E+02 -0.97346319318E+02  0.51045620525E+02  0.11207786816E+03  0.00000000000E+00 0.  1.
         11    1    3    3    0    0  0.28421291433E+02  0.15917614665E+02  0.25758499929E+02  0.41528792204E+02  0.00000000000E+00 0. -1.
         21    1    1    2  502  501  0.27314404404E+02 -0.23045922091E+02  0.18919082614E+03  0.19253664563E+03  0.00000000000E+00 0.  1.
<scales pt_clust_5="13000.00000" pt_clust_6="13000.00000" pt_clust_7="13000.00000" pt_clust_8="13000.00000" pt_clust_9="35.73781"></scales>
<clustering>
<clus scale="   35.738">  1  9  2 -1</clus>
<clus scale="   79.544">  5  6 -1 -1</clus>
<clus scale="   92.377">  7  8 -1 -1</clus>
<clus scale="  127.624">  1  5  2 -1</clus>
<clus scale="   35.738">  1  5  2 -1</clus>
</clustering>
</event>
<event>
 9    2  0.2984928E-005  0.1783474E+03  0.7546771E-02  0.1176812E+00
          2   -1    0    0  502    0  0.00000000000E+00  0.00000000000E+00  0.76357104831E+03  0.76357104831E+03  0.00000000000E+00 0. -1.
         -1   -1    0    0    0  501 -0.00000000000E+00 -0.00000000000E+00 -0.11946147105E+03  0.11946147105E+03  0.00000000000E+00 0.  1.
         23    2    1    2    0    0  0.86259435538E+01  0.12015096455E+03  0.54233789391E+02  0.16035939224E+03  0.90901977890E+02 0.  0.
         24    2    1    2    0    0 -0.86577224844E+01  0.12715241919E+03  0.33600667909E+03  0.36826024782E+03  0.80451400664E+02 0.  0.
        -11    1    4    4    0    0 -0.38870893777E+02  0.42399753063E+02  0.95642889923E+02  0.11160756173E+03  0.00000000000E+00 0.  1.
         12    1    4    4    0    0  0.30213171293E+02  0.84752666128E+02  0.24036378916E+03  0.25665268609E+03  0.00000000000E+00 0. -1.
        -11    1    3    3    0    0  0.28713008265E+02  0.11657032250E+03  0.65801423461E+02  0.13690472695E+03  0.00000000000E+00 0. -1.
         11    1    3    3    0    0 -0.20087064711E+02  0.35806420534E+01 -0.11567634070E+02  0.23454665297E+02  0.00000000000E+00 0.  1.
         21    1    1    2  502  501  0.31778930534E-01 -0.24730338374E+03  0.25386910879E+03  0.35441287930E+03  0.00000000000E+00 0.  1.
<scales pt_clust_5="13000.00000" pt_clust_6="13000.00000" pt_clust_7="13000.00000" pt_clust_8="13000.00000" pt_clust_9="153.44256"></scales>
<clustering>
<clus scale="   80.451">  5  6 -1 -1</clus>
<clus scale="   90.902">  7  8 -1 -1</clus>
<clus scale="  150.715">  1  5  2 -1</clus>
<clus scale="  153.443">  1  9  2 -1</clus>
<clus scale="  150.715">  1  5  2 -1</clus>
</clustering>
</event>
<event>
 9    2  0.2984928E-005  0.1057041E+03  0.7546771E-02  0.1273678E+00
          2   -1    0    0  502    0  0.00000000000E+00  0.00000000000E+00  0.20928925191E+03  0.20928925191E+03  0.00000000000E+00 0. -1.
         -1   -1    0    0    0  501 -0.00000000000E+00 -0.00000000000E+00 -0.11205942525E+03  0.11205942525E+03  0.00000000000E+00 0.  1.
         23    2    1    2    0    0 -0.13425953713E+01 -0.57741023275E+02 -0.62999276511E+02  0.12505668967E+03  0.91293145739E+02 0.  0.
         24    2    1    2    0    0  0.22030644533E+01  0.31914123702E+02  0.13529096729E+03  0.16037987574E+03  0.79966830185E+02 0.  0.
        -11    1    4    4    0    0 -0.27577742558E+02  0.10426282859E+02  0.11438289694E+03  0.11812148988E+03  0.00000000000E+00 0.  1.
         12    1    4    4    0    0  0.29780807011E+02  0.21487840843E+02  0.20908070346E+02  0.42258385865E+02  0.00000000000E+00 0. -1.
        -11    1    3    3    0    0 -0.91604397419E+01 -0.36415194292E+02 -0.85316273163E+02  0.93213982310E+02  0.00000000000E+00 0.  1.
         11    1    3    3    0    0  0.78178443706E+01 -0.21325828982E+02  0.22316996652E+02  0.31842707359E+02  0.00000000000E+00 0. -1.
         21    1    1    2  502  501 -0.86046908201E+00  0.25826899573E+02  0.24938135889E+02  0.35912111748E+02  0.00000000000E+00 0. -1.
<scales pt_clust_5="13000.00000" pt_clust_6="13000.00000" pt_clust_7="13000.00000" pt_clust_8="13000.00000" pt_clust_9="25.84123"></scales>
<clustering>
<clus scale="   25.841">  1  9  2 -1</clus>
<clus scale="   79.967">  5  6 -1 -1</clus>
<clus scale="   91.293">  7  8 -1 -1</clus>
<clus scale="   96.092">  1  5  2 -1</clus>
<clus scale="   25.841">  1  5  2 -1</clus>
</clustering>
</event>
<event>
 9    2  0.2984928E-005  0.1097076E+03  0.7546771E-02  0.1264734E+00
          2   -1    0    0  502    0  0.00000000000E+00  0.00000000000E+00  0.90103957313E+02  0.90103957313E+02  0.00000000000E+00 0. -1.
         -1   -1    0    0    0  501 -0.00000000000E+00 -0.00000000000E+00 -0.22488209695E+03  0.22488209695E+03  0.00000000000E+00 0.  1.
         23    2    1    2    0    0 -0.66567344629E+02 -0.39666382705E+02 -0.14508151577E+03  0.18760090996E+03  0.90226503362E+02 0.  0.
         24    2    1    2    0    0  0.54258052375E+02  0.23027564022E+02  0.23490067771E+02  0.10284420302E+03  0.80937888891E+02 0.  0.
        -11    1    4    4    0    0  0.35594282742E+01 -0.22783545338E+02  0.25634730415E+02  0.34480412863E+02  0.00000000000E+00 0.  1.
         12    1    4    4    0    0  0.50698624101E+02  0.45811109360E+02 -0.21446626431E+01  0.68363790155E+02  0.00000000000E+00 0. -1.
        -11    1    3    3    0    0 -0.28451836124E+02  0.12284877069E+02 -0.10990407769E+03  0.11418989218E+03  0.00000000000E+00 0.  1.
         11    1    3    3    0    0 -0.38115508505E+02 -0.51951259775E+02 -0.35177438087E+02  0.73411017778E+02  0.00000000000E+00 0. -1.
         21    1    1    2  502  501  0.12309292254E+02  0.16638818684E+02 -0.13186691630E+02  0.24540941285E+02  0.00000000000E+00 0.  1.
<scales pt_clust_5="13000.00000" pt_clust_6="13000.00000" pt_clust_7="13000.00000" pt_clust_8="13000.00000" pt_clust_9="20.69708"></scales>
<clustering>
<clus scale="   20.697">  2  9  1 -1</clus>
<clus scale="   80.938">  5  6 -1 -1</clus>
<clus scale="   90.227">  7  8 -1 -1</clus>
<clus scale="  102.205">  1  5  2 -1</clus>
<clus scale="  102.205">  1  5  2 -1</clus>
</clustering>
</event>
<event>
 9    2  0.2984928E-005  0.9402928E+02  0.7546771E-02  0.1299269E+00
         -1   -1    0    0    0  501 -0.00000000000E+00  0.00000000000E+00  0.43218485040E+02  0.43218485040E+02  0.00000000000E+00 0.  1.
          2   -1    0    0  502    0  0.00000000000E+00 -0.00000000000E+00 -0.44877651595E+03  0.44877651595E+03  0.00000000000E+00 0. -1.
         23    2    1    2    0    0  0.65495092769E+01  0.11848408834E+02 -0.41838075045E+02  0.10127447746E+03  0.91229460145E+02 0.  0.
         24    2    1    2    0    0 -0.19597459539E+02 -0.41404061446E+02 -0.16594937819E+03  0.19032844035E+03  0.81162567475E+02 0.  0.
        -13    1    4    4    0    0  0.23300574791E+02 -0.57760070222E+01 -0.10503845636E+03  0.10774672319E+03  0.00000000000E+00 0.  1.
         14    1    4    4    0    0 -0.42898034330E+02 -0.35628054424E+02 -0.60910921833E+02  0.82581717165E+02  0.00000000000E+00 0. -1.
        -11    1    3    3    0    0  0.31246994962E+02 -0.17166043499E+02  0.99179492617E+01  0.37005586891E+02  0.00000000000E+00 0.  1.
         11    1    3    3    0    0 -0.24697485685E+02  0.29014452334E+02 -0.51756024306E+02  0.64268890572E+02  0.00000000000E+00 0. -1.
         21    1    1    2  502  501  0.13047950262E+02  0.29555652612E+02 -0.19777057767E+03  0.20039208318E+03  0.00000000000E+00 0. -1.
<scales pt_clust_5="13000.00000" pt_clust_6="13000.00000" pt_clust_7="13000.00000" pt_clust_8="13000.00000" pt_clust_9="32.30767"></scales>
<clustering>
<clus scale="   32.308">  2  9  1 -1</clus>
<clus scale="   81.163">  5  6 -1 -1</clus>
<clus scale="   84.297">  2  5  1 -1</clus>
<clus scale="   91.229">  7  8 -1 -1</clus>
<clus scale="   32.308">  2  5  1 -1</clus>
</clustering>
</event>
<event>
 9    2  0.2984928E-005  0.1049674E+03  0.7546771E-02  0.1275255E+00
         -1   -1    0    0    0  501 -0.00000000000E+00  0.00000000000E+00  0.60912102593E+02  0.60912102593E+02  0.00000000000E+00 0.  1.
          2   -1    0    0  502    0  0.00000000000E+00 -0.00000000000E+00 -0.68596707565E+03  0.68596707565E+03  0.00000000000E+00 0. -1.
         23    2    1    2    0    0  0.47771043745E+02  0.81601081389E+01  0.50676989895E+01  0.10622667845E+03  0.94391555005E+02 0.  0.
         24    2    1    2    0    0 -0.20074292959E+02 -0.12316672529E+01 -0.51136097613E+03  0.51850728411E+03  0.83398210552E+02 0.  0.
        -11    1    4    4    0    0  0.29808863508E+02  0.14720383078E+02 -0.18280197794E+03  0.18580048752E+03  0.00000000000E+00 0.  1.
         12    1    4    4    0    0 -0.49883156467E+02 -0.15952050331E+02 -0.32855899819E+03  0.33270679660E+03  0.00000000000E+00 0. -1.
        -13    1    3    3    0    0 -0.22564856102E+02  0.21087284850E+02 -0.11259012890E+02  0.32872658616E+02  0.00000000000E+00 0. -1.
         13    1    3    3    0    0  0.70335899847E+02 -0.12927176712E+02  0.16326711879E+02  0.73354019834E+02  0.00000000000E+00 0.  1.
         21    1    1    2  502  501 -0.27696750787E+02 -0.69284408859E+01 -0.11876169591E+03  0.12214521568E+03  0.00000000000E+00 0. -1.
<scales pt_clust_5="13000.00000" pt_clust_6="13000.00000" pt_clust_7="13000.00000" pt_clust_8="13000.00000" pt_clust_9="28.55019"></scales>
<clustering>
<clus scale="   28.550">  2  9  1 -1</clus>
<clus scale="   83.398">  5  6 -1 -1</clus>
<clus scale="   94.392">  7  8 -1 -1</clus>
<clus scale="   95.203">  2  5  1 -1</clus>
<clus scale="   28.550">  2  5  1 -1</clus>
</clustering>
</event>
<event>
 9    2  0.2984928E-005  0.1298528E+03  0.7546771E-02  0.1229394E+00
          2   -1    0    0  502    0  0.00000000000E+00  0.00000000000E+00  0.23752241576E+03  0.23752241576E+03  0.00000000000E+00 0. -1.
         -1   -1    0    0    0  501 -0.00000000000E+00 -0.00000000000E+00 -0.10208160774E+03  0.10208160774E+03  0.00000000000E+00 0.  1.
         24    2    1    2    0    0  0.95585048721E+02  0.14646155907E+02 -0.25474161923E+01  0.12796306157E+03  0.83767800354E+02 0.  0.
         23    2    1    2    0    0 -0.88005082439E+02  0.56913616746E+01  0.79468372232E+02  0.14922587092E+03  0.90420419344E+02 0.  0.
        -11    1    3    3    0    0  0.54450597923E+02 -0.47628794691E+01 -0.41061446961E+02  0.68363696956E+02  0.00000000000E+00 0.  1.
         12    1    3    3    0    0  0.41134450798E+02  0.19409035377E+02  0.38514030769E+02  0.59599364617E+02  0.00000000000E+00 0. -1.
        -11    1    4    4    0    0 -0.68762971060E+02 -0.38000093413E+02  0.49244586826E+02  0.92722071914E+02  0.00000000000E+00 0. -1.
         11    1    4    4    0    0 -0.19242111379E+02  0.43691455088E+02  0.30223785406E+02  0.56503799007E+02  0.00000000000E+00 0.  1.
         21    1    1    2  502  501 -0.75799662822E+01 -0.20337517582E+02  0.58519851979E+02  0.62415091010E+02  0.00000000000E+00 0.  1.
<scales pt_clust_5="13000.00000" pt_clust_6="13000.00000" pt_clust_7="13000.00000" pt_clust_8="13000.00000" pt_clust_9="21.70416"></scales>
<clustering>
<clus scale="   21.704">  1  9  2 -1</clus>
<clus scale="   83.768">  5  6 -1 -1</clus>
<clus scale="   90.420">  7  8 -1 -1</clus>
<clus scale="  125.311">  2  5  1 -1</clus>
<clus scale="   21.704">  1  5  2 -1</clus>
</clustering>
</event>
<event>
 9    2  0.2984928E-005  0.9364394E+02  0.7546771E-02  0.1300520E+00
          2   -1    0    0  502    0  0.00000000000E+00  0.00000000000E+00  0.87792790942E+03  0.87792790942E+03  0.00000000000E+00 0. -1.
         -1   -1    0    0    0  501 -0.00000000000E+00 -0.00000000000E+00 -0.19197471661E+02  0.19197471661E+02  0.00000000000E+00 0.  1.
         23    2    1    2    0    0 -0.29356906914E+02 -0.49057140909E+01  0.15221608019E+03  0.17971112642E+03  0.90776978780E+02 0.  0.
         24    2    1    2    0    0 -0.38656890527E+01  0.26169283557E+02  0.44410778239E+03  0.45205960336E+03  0.80164753208E+02 0.  0.
        -11    1    4    4    0    0 -0.34557437375E+02  0.35717411957E+02  0.21263167399E+03  0.21836249398E+03  0.00000000000E+00 0.  1.
         12    1    4    4    0    0  0.30691748322E+02 -0.95481284007E+01  0.23147610840E+03  0.23369710938E+03  0.00000000000E+00 0. -1.
        -11    1    3    3    0    0 -0.34330247562E+02 -0.27625553228E+02  0.25568924371E+02  0.50946118423E+02  0.00000000000E+00 0.  1.
         11    1    3    3    0    0  0.49733406488E+01  0.22719839137E+02  0.12664715582E+03  0.12876500799E+03  0.00000000000E+00 0. -1.
         21    1    1    2  502  501  0.33222595966E+02 -0.21263569466E+02  0.26240657518E+03  0.26535465130E+03  0.00000000000E+00 0. -1.
<scales pt_clust_5="13000.00000" pt_clust_6="13000.00000" pt_clust_7="13000.00000" pt_clust_8="13000.00000" pt_clust_9="39.44465"></scales>
<clustering>
<clus scale="   39.445">  1  9  2 -1</clus>
<clus scale="   80.165">  5  6 -1 -1</clus>
<clus scale="   83.397">  1  5  2 -1</clus>
<clus scale="   90.777">  7  8 -1 -1</clus>
<clus scale="   39.445">  1  5  2 -1</clus>
</clustering>
</event>
<event>
 9    2  0.2984928E-005  0.2178738E+03  0.7546771E-02  0.1136308E+00
          2   -1    0    0  502    0  0.00000000000E+00  0.00000000000E+00  0.44364307762E+03  0.44364307762E+03  0.00000000000E+00 0. -1.
         -1   -1    0    0    0  501 -0.00000000000E+00 -0.00000000000E+00 -0.27545458741E+03  0.27545458741E+03  0.00000000000E+00 0.  1.
         24    2    1    2    0    0 -0.19970655921E+03 -0.42092726556E+02 -0.19228034893E+03  0.29165598868E+03  0.80230765484E+02 0.  0.
         23    2    1    2    0    0  0.15513438608E+03  0.26752414055E+02  0.29875855034E+03  0.34978754864E+03  0.91171752094E+02 0.  0.
        -13    1    3    3    0    0 -0.16525300754E+03 -0.68288339340E+01 -0.17118128875E+03  0.23802987857E+03  0.00000000000E+00 0.  1.
         14    1    3    3    0    0 -0.34453551668E+02 -0.35263892622E+02 -0.21099060182E+02  0.53626110114E+02  0.00000000000E+00 0. -1.
        -11    1    4    4    0    0  0.15910910895E+03  0.54800678152E+01  0.24924281946E+03  0.29574942561E+03  0.00000000000E+00 0. -1.
         11    1    4    4    0    0 -0.39747228698E+01  0.21272346240E+02  0.49515730880E+02  0.54038123034E+02  0.00000000000E+00 0.  1.
         21    1    1    2  502  501  0.44572173134E+02  0.15340312501E+02  0.61710288800E+02  0.77654127703E+02  0.00000000000E+00 0. -1.
<scales pt_clust_5="13000.00000" pt_clust_6="13000.00000" pt_clust_7="13000.00000" pt_clust_8="13000.00000" pt_clust_9="47.13814"></scales>
<clustering>
<clus scale="   47.138">  1  9  2 -1</clus>
<clus scale="   80.231">  5  6 -1 -1</clus>
<clus scale="   91.172">  7  8 -1 -1</clus>
<clus scale="  213.527">  2  5  1 -1</clus>
<clus scale="   47.138">  1  5  2 -1</clus>
</clustering>
</event>
<event>
 9    2  0.2984928E-005  0.9186083E+02  0.7546771E-02  0.1305307E+00
          2   -1    0    0  502    0  0.00000000000E+00  0.00000000000E+00  0.55585131020E+03  0.55585131020E+03  0.00000000000E+00 0. -1.
         -1   -1    0    0    0  501 -0.00000000000E+00 -0.00000000000E+00 -0.28514403421E+02  0.28514403421E+02  0.00000000000E+00 0.  1.
         23    2    1    2    0    0  0.31967517485E+01  0.11940611043E+02  0.75622034639E+02  0.11899022152E+03  0.91033967732E+02 0.  0.
         24    2    1    2    0    0 -0.23578800361E+02 -0.43876745545E+00  0.28245851133E+03  0.29450877216E+03  0.79977833853E+02 0.  0.
        -13    1    4    4    0    0 -0.25695097394E+02  0.37039715771E+02  0.13407359834E+03  0.14144931370E+03  0.00000000000E+00 0.  1.
         14    1    4    4    0    0  0.21162970330E+01 -0.37478483227E+02  0.14838491299E+03  0.15305945845E+03  0.00000000000E+00 0. -1.
        -13    1    3    3    0    0 -0.40136521096E+02  0.62499626125E+01  0.13048480743E+02  0.42664566188E+02  0.00000000000E+00 0.  1.
         13    1    3    3    0    0  0.43333272844E+02  0.56906484302E+01  0.62573553896E+02  0.76325655334E+02  0.00000000000E+00 0. -1.
         21    1    1    2  502  501  0.20382048612E+02 -0.11501843587E+02  0.16925636081E+03  0.17086671995E+03  0.00000000000E+00 0. -1.
<scales pt_clust_5="13000.00000" pt_clust_6="13000.00000" pt_clust_7="13000.00000" pt_clust_8="13000.00000" pt_clust_9="23.40343"></scales>
<clustering>
<clus scale="   23.403">  1  9  2 -1</clus>
<clus scale="   79.978">  5  6 -1 -1</clus>
<clus scale="   80.918">  1  5  2 -1</clus>
<clus scale="   91.034">  7  8 -1 -1</clus>
<clus scale="   23.403">  1  5  2 -1</clus>
</clustering>
</event>
<event>
 9    2  0.2984928E-005  0.2733422E+03  0.7546771E-02  0.1139882E+00
          2   -1    0    0  502    0  0.00000000000E+00  0.00000000000E+00  0.15909007950E+04  0.15909007950E+04  0.00000000000E+00 0. -1.
         -1   -1    0    0    0  501 -0.00000000000E+00 -0.00000000000E+00 -0.93318211365E+02  0.93318211365E+02  0.00000000000E+00 0.  1.
         23    2    1    2    0    0 -0.24690182742E+03  0.54545641501E+02  0.21243675665E+03  0.34678026369E+03  0.10578958511E+03 0.  0.
         24    2    1    2    0    0 -0.76363571317E+01 -0.59889307460E+02  0.20544877312E+03  0.22813086373E+03  0.78673054544E+02 0.  0.
        -13    1    4    4    0    0 -0.32484360443E+02 -0.40980816730E+02  0.18120442510E+03  0.18859932314E+03  0.00000000000E+00 0.  1.
         14    1    4    4    0    0  0.24848003311E+02 -0.18908490730E+02  0.24244348011E+02  0.39531540581E+02  0.00000000000E+00 0. -1.
        -11    1    3    3    0    0 -0.57810768467E+02  0.67182847371E+01  0.11469066808E+03  0.12861247857E+03  0.00000000000E+00 0. -1.
         11    1    3    3    0    0 -0.18909105896E+03  0.47827356764E+02  0.97746088569E+02  0.21816778512E+03  0.00000000000E+00 0.  1.
         21    1    1    2  502  501  0.25453818455E+03  0.53436659594E+01  0.10796970539E+04  0.11093078790E+04  0.00000000000E+00 0. -1.
<scales pt_clust_5="13000.00000" pt_clust_6="13000.00000" pt_clust_7="13000.00000" pt_clust_8="13000.00000" pt_clust_9="252.04074"></scales>
<clustering>
<clus scale="   78.673">  5  6 -1 -1</clus>
<clus scale="   99.169">  1  5  2 -1</clus>
<clus scale="  105.790">  7  8 -1 -1</clus>
<clus scale="  252.041">  1  9  2 -1</clus>
<clus scale="   99.169">  1  5  2 -1</clus>
</clustering>
</event>
<event>
 9    2  0.2984928E-005  0.2074389E+03  0.7546771E-02  0.1144616E+00
          2   -1    0    0  502    0  0.00000000000E+00  0.00000000000E+00  0.12062272716E+04  0.12062272716E+04  0.00000000000E+00 0. -1.
         -1   -1    0    0    0  501 -0.00000000000E+00 -0.00000000000E+00 -0.41615696366E+02  0.41615696366E+02  0.00000000000E+00 0.  1.
         23    2    1    2    0    0 -0.98774547008E+02 -0.16351526683E+03  0.39628274163E+03  0.44944998637E+03  0.92041432554E+02 0.  0.
         24    2    1    2    0    0  0.77797820414E+02  0.16010553642E+03  0.67540725810E+03  0.70307211026E+03  0.80306564320E+02 0.  0.
        -11    1    4    4    0    0  0.48430234135E+02  0.24705859406E+02  0.24313374385E+03  0.24913828383E+03  0.00000000000E+00 0.  1.
         12    1    4    4    0    0  0.29367586278E+02  0.13539967701E+03  0.43227351425E+03  0.45393382643E+03  0.00000000000E+00 0. -1.
        -11    1    3    3    0    0 -0.16514389376E+02 -0.19843373815E+02  0.74965290657E+01  0.26882754488E+02  0.00000000000E+00 0. -1.
         11    1    3    3    0    0 -0.82260157633E+02 -0.14367189301E+03  0.38878621257E+03  0.42256723188E+03  0.00000000000E+00 0.  1.
         21    1    1    2  502  501  0.20976726594E+02  0.34097304113E+01  0.92921575523E+02  0.95320871365E+02  0.00000000000E+00 0. -1.
<scales pt_clust_5="13000.00000" pt_clust_6="13000.00000" pt_clust_7="13000.00000" pt_clust_8="13000.00000" pt_clust_9="21.25204"></scales>
<clustering>
<clus scale="   21.252">  1  9  2 -1</clus>
<clus scale="   80.307">  5  6 -1 -1</clus>
<clus scale="   92.041">  7  8 -1 -1</clus>
<clus scale="  202.505">  1  5  2 -1</clus>
<clus scale="   21.252">  1  5  2 -1</clus>
</clustering>
</event>
<event>
 9    2  0.2984928E-005  0.2395043E+03  0.7546771E-02  0.1121169E+00
          2   -1    0    0  502    0  0.00000000000E+00  0.00000000000E+00  0.54184785360E+03  0.54184785360E+03  0.00000000000E+00 0. -1.
         -1   -1    0    0    0  501 -0.00000000000E+00 -0.00000000000E+00 -0.48097209639E+03  0.48097209639E+03  0.00000000000E+00 0.  1.
         23    2    1    2    0    0 -0.31928201974E+02 -0.22686322296E+03 -0.34904061940E+03  0.42730614728E+03  0.90966243722E+02 0.  0.
         24    2    1    2    0    0 -0.14482172235E+03  0.18568561633E+03  0.19608778358E+03  0.31505204376E+03  0.73177127796E+02 0.  0.
        -11    1    4    4    0    0 -0.33624174702E+02  0.20018011341E+02  0.66429175194E+02  0.77098256916E+02  0.00000000000E+00 0.  1.
         12    1    4    4    0    0 -0.11119754764E+03  0.16566760499E+03  0.12965860839E+03  0.23795378684E+03  0.00000000000E+00 0. -1.
        -11    1    3    3    0    0 -0.17479887560E+02 -0.22605844537E+02 -0.10459202454E+03  0.10842537652E+03  0.00000000000E+00 0.  1.
         11    1    3    3    0    0 -0.14448314415E+02 -0.20425737842E+03 -0.24444859487E+03  0.31888077076E+03  0.00000000000E+00 0. -1.
         21    1    1    2  502  501  0.17674992432E+03  0.41177606632E+02  0.21382859303E+03  0.28046175895E+03  0.00000000000E+00 0. -1.
<scales pt_clust_5="13000.00000" pt_clust_6="13000.00000" pt_clust_7="13000.00000" pt_clust_8="13000.00000" pt_clust_9="181.48314"></scales>
<clustering>
<clus scale="   73.177">  5  6 -1 -1</clus>
<clus scale="   90.966">  7  8 -1 -1</clus>
<clus scale="  181.483">  1  9  2 -1</clus>
<clus scale="  233.329">  1  5  2 -1</clus>
<clus scale="  181.483">  1  5  2 -1</clus>
</clustering>
</event>
<event>
 9    2  0.2984928E-005  0.8844905E+02  0.7546771E-02  0.1310597E+00
         -1   -1    0    0    0  501 -0.00000000000E+00  0.00000000000E+00  0.18943121670E+03  0.18943121670E+03  0.00000000000E+00 0.  1.
          2   -1    0    0  502    0  0.00000000000E+00 -0.00000000000E+00 -0.19973975721E+03  0.19973975721E+03  0.00000000000E+00 0. -1.
         23    2    1    2    0    0 -0.46876675569E+02  0.35362694547E+02  0.13597188452E+03  0.17118127779E+03  0.85829677896E+02 0.  0.
         24    2    1    2    0    0  0.12054797377E+02 -0.14701472207E+02 -0.15620412588E+03  0.17630121872E+03  0.79504335447E+02 0.  0.
        -13    1    4    4    0    0 -0.19108025439E+02  0.19135168233E+02 -0.23416567278E+02  0.35771593794E+02  0.00000000000E+00 0.  1.
         14    1    4    4    0    0  0.31162822816E+02 -0.33836640439E+02 -0.13278755860E+03  0.14052962492E+03  0.00000000000E+00 0. -1.
        -11    1    3    3    0    0 -0.29282850350E+02 -0.20287653844E+02  0.90291708706E+02  0.97065271257E+02  0.00000000000E+00 0.  1.
         11    1    3    3    0    0 -0.17593825220E+02  0.55650348391E+02  0.45680175813E+02  0.74116006531E+02  0.00000000000E+00 0. -1.
         21    1    1    2  502  501  0.34821878193E+02 -0.20661222340E+02  0.99237008459E+01  0.41688477400E+02  0.00000000000E+00 0.  1.
<scales pt_clust_5="13000.00000" pt_clust_6="13000.00000" pt_clust_7="13000.00000" pt_clust_8="13000.00000" pt_clust_9="40.49011"></scales>
<clustering>
<clus scale="   40.490">  1  9  2 -1</clus>
<clus scale="   79.504">  5  6 -1 -1</clus>
<clus scale="   82.325">  2  5  1 -1</clus>
<clus scale="   85.830">  7  8 -1 -1</clus>
<clus scale="   82.325">  2  5  1 -1</clus>
</clustering>
</event>
<event>
 9    2  0.2984928E-005  0.1223892E+03  0.7546771E-02  0.1251486E+00
         -1   -1    0    0    0  501 -0.00000000000E+00  0.00000000000E+00  0.63391093628E+02  0.63391093628E+02  0.00000000000E+00 0.  1.
          2   -1    0    0  502    0  0.00000000000E+00 -0.00000000000E+00 -0.31861064759E+03  0.31861064759E+03  0.00000000000E+00 0. -1.
         23    2    1    2    0    0 -0.43664924046E+02 -0.13393585306E+02 -0.45907001895E+02  0.12818491219E+03  0.11062506574E+03 0.  0.
         24    2    1    2    0    0  0.49206269741E+02  0.44037563032E+02 -0.11677489801E+03  0.15617986215E+03  0.79970048127E+02 0.  0.
        -13    1    4    4    0    0  0.53535527756E+02 -0.50235239244E+01 -0.69883557626E+02  0.88175961300E+02  0.00000000000E+00 0.  1.
         14    1    4    4    0    0 -0.43292580147E+01  0.49061086956E+02 -0.46891340381E+02  0.68003900851E+02  0.00000000000E+00 0. -1.
        -13    1    3    3    0    0  0.25978337367E+02 -0.35514909634E+02 -0.30409184943E+02  0.53487394286E+02  0.00000000000E+00 0. -1.
         13    1    3    3    0    0 -0.69643261412E+02  0.22121324328E+02 -0.15497816953E+02  0.74697517900E+02  0.00000000000E+00 0.  1.
         21    1    1    2  502  501 -0.55413456953E+01 -0.30643977726E+02 -0.92537654063E+02  0.97636966885E+02  0.00000000000E+00 0.  1.
<scales pt_clust_5="13000.00000" pt_clust_6="13000.00000" pt_clust_7="13000.00000" pt_clust_8="13000.00000" pt_clust_9="31.14097"></scales>
<clustering>
<clus scale="   31.141">  2  9  1 -1</clus>
<clus scale="   79.970">  5  6 -1 -1</clus>
<clus scale="   95.585">  2  5  1 -1</clus>
<clus scale="  110.625">  7  8 -1 -1</clus>
<clus scale="   31.141">  2  5  1 -1</clus>
</clustering>
</event>
<event>
 9    2  0.2984928E-005  0.3713527E+03  0.7546771E-02  0.1054466E+00
          2   -1    0    0  502    0  0.00000000000E+00  0.00000000000E+00  0.66302408572E+03  0.66302408572E+03  0.00000000000E+00 0. -1.
         -1   -1    0    0    0  501 -0.00000000000E+00 -0.00000000000E+00 -0.35428885524E+03  0.35428885524E+03  0.00000000000E+00 0.  1.
         23    2    1    2    0    0 -0.14706495417E+03 -0.32436191324E+03 -0.15289940752E+03  0.39819344735E+03  0.91329300796E+02 0.  0.
         24    2    1    2    0    0  0.11526493338E+03  0.34202537147E+03  0.40851006755E+03  0.55473425411E+03  0.10287010160E+03 0.  0.
        -11    1    4    4    0    0  0.10366345814E+03  0.31814361350E+03  0.32251460753E+03  0.46473341115E+03  0.00000000000E+00 0.  1.
         12    1    4    4    0    0  0.11601475239E+02  0.23881757968E+02  0.85995460012E+02  0.90000842963E+02  0.00000000000E+00 0. -1.
        -13    1    3    3    0    0 -0.14330386330E+03 -0.22049015006E+03 -0.12098959952E+03  0.28946569175E+03  0.00000000000E+00 0. -1.
         13    1    3    3    0    0 -0.37610908765E+01 -0.10387176318E+03 -0.31909808008E+02  0.10872775560E+03  0.00000000000E+00 0.  1.
         21    1    1    2  502  501  0.31800020793E+02 -0.17663458232E+02  0.53124570453E+02  0.64385239496E+02  0.00000000000E+00 0.  1.
<scales pt_clust_5="13000.00000" pt_clust_6="13000.00000" pt_clust_7="13000.00000" pt_clust_8="13000.00000" pt_clust_9="36.37635"></scales>
<clustering>
<clus scale="   36.376">  1  9  2 -1</clus>
<clus scale="   91.329">  7  8 -1 -1</clus>
<clus scale="  102.870">  5  6 -1 -1</clus>
<clus scale="  368.323">  2  7  1 -1</clus>
<clus scale="   36.376">  1  5  2 -1</clus>
</clustering>
</event>
<event>
 9    2  0.2984928E-005  0.1108106E+03  0.7546771E-02  0.1262006E+00
          2   -1    0    0  502    0  0.00000000000E+00  0.00000000000E+00  0.65587777802E+03  0.65587777802E+03  0.00000000000E+00 0. -1.
         -1   -1    0    0    0  501 -0.00000000000E+00 -0.00000000000E+00 -0.45501998411E+02  0.45501998411E+02  0.00000000000E+00 0.  1.
         23    2    1    2    0    0  0.20992644574E+02 -0.65677440133E+02  0.50578586867E+02  0.12544582045E+03  0.91783675842E+02 0.  0.
         24    2    1    2    0    0 -0.20863489874E+02  0.22761118781E+02  0.42908264047E+03  0.43835444626E+03  0.84198304394E+02 0.  0.
        -13    1    4    4    0    0  0.22405265123E+02  0.36426705159E+02  0.16797851424E+03  0.17333690316E+03  0.00000000000E+00 0.  1.
         14    1    4    4    0    0 -0.43268754996E+02 -0.13665586378E+02  0.26110412623E+03  0.26501754309E+03  0.00000000000E+00 0. -1.
        -13    1    3    3    0    0 -0.45367155328E+01  0.22095169247E+02  0.16260376275E+02  0.27806080782E+02  0.00000000000E+00 0. -1.
         13    1    3    3    0    0  0.25529360106E+02 -0.87772609380E+02  0.34318210593E+02  0.97639739671E+02  0.00000000000E+00 0.  1.
         21    1    1    2  502  501 -0.12915470013E+00  0.42916321352E+02  0.13071455228E+03  0.13757950973E+03  0.00000000000E+00 0. -1.
<scales pt_clust_5="13000.00000" pt_clust_6="13000.00000" pt_clust_7="13000.00000" pt_clust_8="13000.00000" pt_clust_9="42.91652"></scales>
<clustering>
<clus scale="   42.917">  1  9  2 -1</clus>
<clus scale="   84.198">  5  6 -1 -1</clus>
<clus scale="   91.784">  7  8 -1 -1</clus>
<clus scale="  104.614">  1  5  2 -1</clus>
<clus scale="   42.917">  1  5  2 -1</clus>
</clustering>
</event>
<event>
 9    2  0.2984928E-005  0.1302156E+03  0.7546771E-02  0.1231637E+00
          2   -1    0    0  502    0  0.00000000000E+00  0.00000000000E+00  0.43878441304E+03  0.43878441304E+03  0.00000000000E+00 0. -1.
         -1   -1    0    0    0  501 -0.00000000000E+00 -0.00000000000E+00 -0.43474956791E+02  0.43474956791E+02  0.00000000000E+00 0.  1.
         24    2    1    2    0    0 -0.53034975512E+02 -0.85618848988E+02  0.14387573302E+03  0.19150078317E+03  0.76348067906E+02 0.  0.
         23    2    1    2    0    0  0.34253159915E+02  0.69830746904E+02  0.20863163773E+03  0.24142260296E+03  0.93317205175E+02 0.  0.
        -13    1    3    3    0    0 -0.21603154143E+02 -0.68363528031E+02  0.41079752587E+02  0.82630589411E+02  0.00000000000E+00 0.  1.
         14    1    3    3    0    0 -0.31431821369E+02 -0.17255320957E+02  0.10279598043E+03  0.10887019376E+03  0.00000000000E+00 0. -1.
        -11    1    4    4    0    0 -0.15333049904E+02  0.65052832279E+02  0.15171652186E+03  0.16578563391E+03  0.00000000000E+00 0. -1.
         11    1    4    4    0    0  0.49586209819E+02  0.47779146251E+01  0.56915115873E+02  0.75636969051E+02  0.00000000000E+00 0.  1.
         21    1    1    2  502  501  0.18781815597E+02  0.15788102083E+02  0.42802085495E+02  0.49335983696E+02  0.00000000000E+00 0.  1.
<scales pt_clust_5="13000.00000" pt_clust_6="13000.00000" pt_clust_7="13000.00000" pt_clust_8="13000.00000" pt_clust_9="24.53611"></scales>
<clustering>
<clus scale="   24.536">  1  9  2 -1</clus>
<clus scale="   76.348">  5  6 -1 -1</clus>
<clus scale="   93.317">  7  8 -1 -1</clus>
<clus scale="  118.647">  2  5  1 -1</clus>
<clus scale="   24.536">  1  5  2 -1</clus>
</clustering>
</event>
<event>
 9    2  0.2984928E-005  0.9331909E+02  0.7546771E-02  0.1299986E+00
          2   -1    0    0  502    0  0.00000000000E+00  0.00000000000E+00  0.25542680808E+03  0.25542680808E+03  0.00000000000E+00 0. -1.
         -1   -1    0    0    0  501 -0.00000000000E+00 -0.00000000000E+00 -0.16028880914E+03  0.16028880914E+03  0.00000000000E+00 0.  1.
         23    2    1    2    0    0  0.26670092805E+02  0.94643873805E+01 -0.12376311124E+03  0.15506099264E+03  0.89026598596E+02 0.  0.
         24    2    1    2    0    0 -0.12490743072E+02 -0.25497839170E+02  0.22311122992E+03  0.23884062349E+03  0.80374523628E+02 0.  0.
        -11    1    4    4    0    0 -0.81230592952E+01  0.28393643671E+02  0.57730433077E+02  0.64845863372E+02  0.00000000000E+00 0.  1.
         12    1    4    4    0    0 -0.43676837767E+01 -0.53891482841E+02  0.16538079684E+03  0.17399476012E+03  0.00000000000E+00 0. -1.
        -13    1    3    3    0    0 -0.19643928207E+02 -0.24306573713E+02 -0.69175707556E+02  0.75907654139E+02  0.00000000000E+00 0.  1.
         13    1    3    3    0    0  0.46314021012E+02  0.33770961094E+02 -0.54587403681E+02  0.79153338503E+02  0.00000000000E+00 0. -1.
         21    1    1    2  502  501 -0.14179349733E+02  0.16033451790E+02 -0.42101197347E+01  0.21814001085E+02  0.00000000000E+00 0.  1.
<scales pt_clust_5="13000.00000" pt_clust_6="13000.00000" pt_clust_7="13000.00000" pt_clust_8="13000.00000" pt_clust_9="21.40387"></scales>
<clustering>
<clus scale="   21.404">  2  9  1 -1</clus>
<clus scale="   80.375">  5  6 -1 -1</clus>
<clus scale="   85.105">  1  5  2 -1</clus>
<clus scale="   89.027">  7  8 -1 -1</clus>
<clus scale="   85.105">  1  5  2 -1</clus>
</clustering>
</event>
<event>
 9    2  0.2984928E-005  0.1526175E+03  0.7546771E-02  0.1198857E+00
          4   -1    0    0  502    0  0.00000000000E+00  0.00000000000E+00  0.30552850596E+03  0.30552850596E+03  0.00000000000E+00 0. -1.
         -3   -1    0    0    0  501 -0.00000000000E+00 -0.00000000000E+00 -0.15947736580E+03  0.15947736580E+03  0.00000000000E+00 0.  1.
         23    2    1    2    0    0 -0.10617960060E+03 -0.48575518743E+02 -0.60876876390E+02  0.15964921629E+03  0.90267322870E+02 0.  0.
         24    2    1    2    0    0  0.11400229601E+03  0.99527656914E+02  0.14524976675E+03  0.22497306607E+03  0.81321016524E+02 0.  0.
        -13    1    4    4    0    0  0.50193484419E+02  0.76238202372E+01  0.14318375121E+02  0.52749638664E+02  0.00000000000E+00 0.  1.
         14    1    4    4    0    0  0.63808811594E+02  0.91903836677E+02  0.13093139163E+03  0.17222342741E+03  0.00000000000E+00 0. -1.
        -11    1    3    3    0    0 -0.23805409702E+02  0.26844128206E+02 -0.15999987249E+02  0.39284912399E+02  0.00000000000E+00 0. -1.
         11    1    3    3    0    0 -0.82374190897E+02 -0.75419646949E+02 -0.44876889140E+02  0.12036430389E+03  0.00000000000E+00 0.  1.
         21    1    1    2  502  501 -0.78226954140E+01 -0.50952138171E+02  0.61678249791E+02  0.80383589402E+02  0.00000000000E+00 0.  1.
<scales pt_clust_5="13000.00000" pt_clust_6="13000.00000" pt_clust_7="13000.00000" pt_clust_8="13000.00000" pt_clust_9="51.54915"></scales>
<clustering>
<clus scale="   51.549">  1  9  2 -1</clus>
<clus scale="   81.321">  5  6 -1 -1</clus>
<clus scale="   90.267">  7  8 -1 -1</clus>
<clus scale="  147.503">  1  5  2 -1</clus>
<clus scale="   51.549">  1  5  2 -1</clus>
</clustering>
</event>
<event>
 9    2  0.2984928E-005  0.1168168E+03  0.7546771E-02  0.1254467E+00
          2   -1    0    0  502    0  0.00000000000E+00  0.00000000000E+00  0.30337855162E+03  0.30337855162E+03  0.00000000000E+00 0. -1.
         -1   -1    0    0    0  501 -0.00000000000E+00 -0.00000000000E+00 -0.18524003300E+03  0.18524003300E+03  0.00000000000E+00 0.  1.
         23    2    1    2    0    0  0.20070559821E+02  0.61088041496E+02 -0.14744008033E+03  0.18762383034E+03  0.96589586587E+02 0.  0.
         24    2    1    2    0    0 -0.70431811183E+01 -0.83331220655E+02  0.21337991418E+03  0.24277813890E+03  0.80103297168E+02 0.  0.
        -11    1    4    4    0    0 -0.36941025423E+02 -0.32845300508E+02  0.55362935638E+02  0.74219322062E+02  0.00000000000E+00 0.  1.
         12    1    4    4    0    0  0.29897844305E+02 -0.50485920146E+02  0.15801697854E+03  0.16855881684E+03  0.00000000000E+00 0. -1.
        -11    1    3    3    0    0  0.42283091863E+02 -0.83757448742E+01 -0.54309769829E+02  0.69336599705E+02  0.00000000000E+00 0. -1.
         11    1    3    3    0    0 -0.22212532042E+02  0.69463786370E+02 -0.93130310501E+02  0.11828723063E+03  0.00000000000E+00 0.  1.
         21    1    1    2  502  501 -0.13027378702E+02  0.22243179159E+02  0.52198684768E+02  0.58216615382E+02  0.00000000000E+00 0. -1.
<scales pt_clust_5="13000.00000" pt_clust_6="13000.00000" pt_clust_7="13000.00000" pt_clust_8="13000.00000" pt_clust_9="25.77735"></scales>
<clustering>
<clus scale="   25.777">  1  9  2 -1</clus>
<clus scale="   80.103">  5  6 -1 -1</clus>
<clus scale="   96.590">  7  8 -1 -1</clus>
<clus scale="  103.601">  1  5  2 -1</clus>
<clus scale="   25.777">  1  5  2 -1</clus>
</clustering>
</event>
<event>
 9    2  0.2984928E-005  0.1835956E+03  0.7546771E-02  0.1166244E+00
          2   -1    0    0  502    0  0.00000000000E+00  0.00000000000E+00  0.90590645079E+03  0.90590645079E+03  0.00000000000E+00 0. -1.
         -1   -1    0    0    0  501 -0.00000000000E+00 -0.00000000000E+00 -0.47426322774E+02  0.47426322774E+02  0.00000000000E+00 0.  1.
         23    2    1    2    0    0  0.15369440861E+03  0.48183055407E+02  0.24419504779E+03  0.30837484560E+03  0.97571747776E+02 0.  0.
         24    2    1    2    0    0 -0.14410967302E+03 -0.25662940761E+02  0.48050988756E+03  0.50896224828E+03  0.82016057873E+02 0.  0.
        -13    1    4    4    0    0 -0.54086229960E+02  0.19882983202E+02  0.26233914408E+03  0.26859352153E+03  0.00000000000E+00 0.  1.
         14    1    4    4    0    0 -0.90023443057E+02 -0.45545923963E+02  0.21817074348E+03  0.24036872675E+03  0.00000000000E+00 0. -1.
        -13    1    3    3    0    0  0.12667772776E+03  0.36897024351E+02  0.11228036576E+03  0.17324987057E+03  0.00000000000E+00 0.  1.
         13    1    3    3    0    0  0.27016680852E+02  0.11286031055E+02  0.13191468203E+03  0.13512497503E+03  0.00000000000E+00 0. -1.
         21    1    1    2  502  501 -0.95847355971E+01 -0.22520114645E+02  0.13377519266E+03  0.13599567968E+03  0.00000000000E+00 0.  1.
<scales pt_clust_5="13000.00000" pt_clust_6="13000.00000" pt_clust_7="13000.00000" pt_clust_8="13000.00000" pt_clust_9="24.47494"></scales>
<clustering>
<clus scale="   24.475">  1  9  2 -1</clus>
<clus scale="   82.016">  5  6 -1 -1</clus>
<clus scale="   97.572">  7  8 -1 -1</clus>
<clus scale="  175.823">  1  5  2 -1</clus>
<clus scale="   24.475">  1  5  2 -1</clus>
</clustering>
</event>
<event>
 9    2  0.2984928E-005  0.1366579E+03  0.7546771E-02  0.1220934E+00
         -1   -1    0    0    0  501 -0.00000000000E+00  0.00000000000E+00  0.21612994965E+03  0.21612994965E+03  0.00000000000E+00 0.  1.
          2   -1    0    0  502    0  0.00000000000E+00 -0.00000000000E+00 -0.11112832400E+03  0.11112832400E+03  0.00000000000E+00 0. -1.
         23    2    1    2    0    0 -0.93154979025E+02 -0.16615549946E+02  0.65874216394E+02  0.14839190672E+03  0.93417444721E+02 0.  0.
         24    2    1    2    0    0  0.95049024837E+02  0.54311150313E+02  0.37909100564E+02  0.14110355489E+03  0.80554919936E+02 0.  0.
        -11    1    4    4    0    0  0.68945078808E+01  0.42702880260E+02  0.28252899195E+02  0.51665235258E+02  0.00000000000E+00 0.  1.
         12    1    4    4    0    0  0.88154516957E+02  0.11608270054E+02  0.96562013695E+01  0.89438319631E+02  0.00000000000E+00 0. -1.
        -11    1    3    3    0    0 -0.52820254690E+02  0.80400758350E+01 -0.14308095111E+02  0.55311334378E+02  0.00000000000E+00 0. -1.
         11    1    3    3    0    0 -0.40334724335E+02 -0.24655625781E+02  0.80182311505E+02  0.93080572345E+02  0.00000000000E+00 0.  1.
         21    1    1    2  502  501 -0.18940458128E+01 -0.37695600367E+02  0.12183086886E+01  0.37762812033E+02  0.00000000000E+00 0.  1.
<scales pt_clust_5="13000.00000" pt_clust_6="13000.00000" pt_clust_7="13000.00000" pt_clust_8="13000.00000" pt_clust_9="37.74315"></scales>
<clustering>
<clus scale="   37.743">  2  9  1 -1</clus>
<clus scale="   80.555">  5  6 -1 -1</clus>
<clus scale="   93.417">  7  8 -1 -1</clus>
<clus scale="  128.209">  2  5  1 -1</clus>
<clus scale="   37.743">  2  5  1 -1</clus>
</clustering>
</event>
<event>
 9    2  0.2984928E-005  0.9354977E+02  0.7546771E-02  0.1296281E+00
         -1   -1    0    0    0  501 -0.00000000000E+00  0.00000000000E+00  0.47618545714E+02  0.47618545714E+02  0.00000000000E+00 0.  1.
          2   -1    0    0  502    0  0.00000000000E+00 -0.00000000000E+00 -0.66227896881E+03  0.66227896881E+03  0.00000000000E+00 0. -1.
         24    2    1    2    0    0 -0.32059980752E+02  0.28089200681E+02 -0.11191087447E+02  0.91230130126E+02  0.79880226865E+02 0.  0.
         23    2    1    2    0    0  0.57578442063E+01 -0.53329367674E+02 -0.46775910928E+03  0.47814644661E+03  0.83356258677E+02 0.  0.
        -11    1    3    3    0    0 -0.52021740448E+02  0.24899386523E+01  0.92102864575E+01  0.52889419077E+02  0.00000000000E+00 0.  1.
         12    1    3    3    0    0  0.19961759696E+02  0.25599262029E+02 -0.20401373905E+02  0.38340711049E+02  0.00000000000E+00 0. -1.
        -13    1    4    4    0    0  0.37372543322E+02 -0.55921575972E+02 -0.30565494733E+03  0.31296785215E+03  0.00000000000E+00 0. -1.
         13    1    4    4    0    0 -0.31614699116E+02  0.25922082975E+01 -0.16210416196E+03  0.16517859446E+03  0.00000000000E+00 0.  1.
         21    1    1    2  502  501  0.26302136545E+02  0.25240166993E+02 -0.13571022637E+03  0.14052093779E+03  0.00000000000E+00 0. -1.
<scales pt_clust_5="13000.00000" pt_clust_6="13000.00000" pt_clust_7="13000.00000" pt_clust_8="13000.00000" pt_clust_9="36.45365"></scales>
<clustering>
<clus scale="   36.454">  2  9  1 -1</clus>
<clus scale="   79.880">  5  6 -1 -1</clus>
<clus scale="   83.356">  7  8 -1 -1</clus>
<clus scale="   90.466">  1  5  2 -1</clus>
<clus scale="   36.454">  2  5  1 -1</clus>
</clustering>
</event>
<event>
 9    2  0.2984928E-005  0.2604570E+03  0.7546771E-02  0.1123621E+00
          2   -1    0    0  502    0  0.00000000000E+00  0.00000000000E+00  0.45414594684E+03  0.45414594684E+03  0.00000000000E+00 0. -1.
         -1   -1    0    0    0  501 -0.00000000000E+00 -0.00000000000E+00 -0.43454101708E+03  0.43454101708E+03  0.00000000000E+00 0.  1.
         23    2    1    2    0    0 -0.13921461075E+03 -0.42384401365E+02 -0.20403890231E+03  0.26601636859E+03  0.89194671218E+02 0.  0.
         24    2    1    2    0    0  0.26466986697E+03 -0.94869606904E+02  0.30256544857E+03  0.42066488837E+03  0.79766639894E+02 0.  0.
        -13    1    4    4    0    0  0.41588852356E+02 -0.27313124655E+02  0.18201713924E+02  0.52980579541E+02  0.00000000000E+00 0.  1.
         14    1    4    4    0    0  0.22308101462E+03 -0.67556482249E+02  0.28436373465E+03  0.36768430883E+03  0.00000000000E+00 0. -1.
        -13    1    3    3    0    0 -0.12437475630E+03  0.13954276133E+01 -0.14522549280E+03  0.19121054098E+03  0.00000000000E+00 0. -1.
         13    1    3    3    0    0 -0.14839854452E+02 -0.43779828978E+02 -0.58813409512E+02  0.74805827607E+02  0.00000000000E+00 0.  1.
         21    1    1    2  502  501 -0.12545525622E+03  0.13725400827E+03 -0.78921616497E+02  0.20200570697E+03  0.00000000000E+00 0.  1.
<scales pt_clust_5="13000.00000" pt_clust_6="13000.00000" pt_clust_7="13000.00000" pt_clust_8="13000.00000" pt_clust_9="247.94182"></scales>
<clustering>
<clus scale="   79.767">  5  6 -1 -1</clus>
<clus scale="   89.195">  7  8 -1 -1</clus>
<clus scale="  170.683">  2  7  1 -1</clus>
<clus scale="  247.942">  2  9  1 -1</clus>
<clus scale="  260.457">  1  5  2 -1</clus>
</clustering>
</event>
<event>
 9    2  0.2984928E-005  0.1146255E+03  0.7546771E-02  0.1258717E+00
         -1   -1    0    0    0  501 -0.00000000000E+00  0.00000000000E+00  0.29445146969E+03  0.29445146969E+03  0.00000000000E+00 0.  1.
          2   -1    0    0  502    0  0.00000000000E+00 -0.00000000000E+00 -0.22643307573E+03  0.22643307573E+03  0.00000000000E+00 0. -1.
         23    2    1    2    0    0 -0.26664430255E+02 -0.61507970460E+02  0.25438586039E+03  0.27892905101E+03  0.92709369875E+02 0.  0.
         24    2    1    2    0    0  0.73588597725E+01  0.76693982334E+02 -0.18881203966E+03  0.21727157359E+03  0.74972199037E+02 0.  0.
        -13    1    4    4    0    0  0.29688541101E+02  0.79297272439E+02 -0.14170249211E+03  0.16507290256E+03  0.00000000000E+00 0.  1.
         14    1    4    4    0    0 -0.22329681329E+02 -0.26032901045E+01 -0.47109547549E+02  0.52198671035E+02  0.00000000000E+00 0. -1.
        -13    1    3    3    0    0 -0.29894314944E+02  0.38011107298E+01  0.16748736583E+03  0.17017677932E+03  0.00000000000E+00 0.  1.
         13    1    3    3    0    0  0.32298846891E+01 -0.65309081190E+02  0.86898494562E+02  0.10875227169E+03  0.00000000000E+00 0. -1.
         21    1    1    2  502  501  0.19305570482E+02 -0.15186011874E+02  0.24445732342E+01  0.24683920810E+02  0.00000000000E+00 0.  1.
<scales pt_clust_5="13000.00000" pt_clust_6="13000.00000" pt_clust_7="13000.00000" pt_clust_8="13000.00000" pt_clust_9="24.56257"></scales>
<clustering>
<clus scale="   24.563">  2  9  1 -1</clus>
<clus scale="   74.972">  5  6 -1 -1</clus>
<clus scale="   92.709">  7  8 -1 -1</clus>
<clus scale="  100.821">  2  5  1 -1</clus>
<clus scale="   24.563">  2  5  1 -1</clus>
</clustering>
</event>
<event>
 9    2  0.2984928E-005  0.9872837E+02  0.7546771E-02  0.1291910E+00
          4   -1    0    0  502    0  0.00000000000E+00  0.00000000000E+00  0.48974075124E+03  0.48974075124E+03  0.00000000000E+00 0. -1.
         -3   -1    0    0    0  501 -0.00000000000E+00 -0.00000000000E+00 -0.25602649991E+02  0.25602649991E+02  0.00000000000E+00 0.  1.
         23    2    1    2    0    0  0.31915705230E+02 -0.39876433137E+02  0.16857335744E+03  0.19845573488E+03  0.91427346603E+02 0.  0.
         24    2    1    2    0    0 -0.14920998644E+02  0.19965154838E+02  0.15451652757E+03  0.17343077959E+03  0.74710336697E+02 0.  0.
        -13    1    4    4    0    0 -0.12504975102E+02  0.34810179643E+02  0.28960040616E+02  0.46976664011E+02  0.00000000000E+00 0.  1.
         14    1    4    4    0    0 -0.24160235417E+01 -0.14845024805E+02  0.12555648696E+03  0.12645411558E+03  0.00000000000E+00 0. -1.
        -11    1    3    3    0    0  0.17003252800E+02 -0.54561238454E+02  0.43969842076E+02  0.72106770553E+02  0.00000000000E+00 0. -1.
         11    1    3    3    0    0  0.14912452430E+02  0.14684805317E+02  0.12460351536E+03  0.12634896432E+03  0.00000000000E+00 0.  1.
         21    1    1    2  502  501 -0.16994706586E+02  0.19911278298E+02  0.14104821623E+03  0.14345688676E+03  0.00000000000E+00 0.  1.
<scales pt_clust_5="13000.00000" pt_clust_6="13000.00000" pt_clust_7="13000.00000" pt_clust_8="13000.00000" pt_clust_9="26.17784"></scales>
<clustering>
<clus scale="   26.178">  1  9  2 -1</clus>
<clus scale="   74.710">  5  6 -1 -1</clus>
<clus scale="   83.486">  1  5  2 -1</clus>
<clus scale="   91.427">  7  8 -1 -1</clus>
<clus scale="   26.178">  1  5  2 -1</clus>
</clustering>
</event>
<event>
 9    2  0.2984928E-005  0.1184892E+03  0.7546771E-02  0.1250673E+00
          2   -1    0    0  502    0  0.00000000000E+00  0.00000000000E+00  0.31061507199E+02  0.31061507199E+02  0.00000000000E+00 0. -1.
         -1   -1    0    0    0  501 -0.00000000000E+00 -0.00000000000E+00 -0.53668612621E+03  0.53668612621E+03  0.00000000000E+00 0.  1.
         24    2    1    2    0    0  0.73417061206E+02 -0.14936659983E+02 -0.27929454403E+03  0.29944188603E+03  0.77761379221E+02 0.  0.
         23    2    1    2    0    0 -0.73239815753E+02 -0.84462577521E+01 -0.20408191391E+03  0.23602924000E+03  0.92870687867E+02 0.  0.
        -11    1    3    3    0    0  0.31538028332E+02 -0.27540486236E+02 -0.22897971558E+03  0.23277636426E+03  0.00000000000E+00 0.  1.
         12    1    3    3    0    0  0.41879032874E+02  0.12603826253E+02 -0.50314828450E+02  0.66665521768E+02  0.00000000000E+00 0. -1.
        -11    1    4    4    0    0 -0.64787541433E+02  0.32145356407E+02 -0.95465680728E+02  0.11976829990E+03  0.00000000000E+00 0. -1.
         11    1    4    4    0    0 -0.84522743201E+01 -0.40591614159E+02 -0.10861623318E+03  0.11626094010E+03  0.00000000000E+00 0.  1.
         21    1    1    2  502  501 -0.17724545284E+00  0.23382917735E+02 -0.22248161066E+02  0.32276507379E+02  0.00000000000E+00 0. -1.
<scales pt_clust_5="13000.00000" pt_clust_6="13000.00000" pt_clust_7="13000.00000" pt_clust_8="13000.00000" pt_clust_9="23.38359"></scales>
<clustering>
<clus scale="   23.384">  1  9  2 -1</clus>
<clus scale="   77.761">  5  6 -1 -1</clus>
<clus scale="   92.871">  7  8 -1 -1</clus>
<clus scale="  107.059">  2  5  1 -1</clus>
<clus scale="   23.384">  1  5  2 -1</clus>
</clustering>
</event>
<event>
 9    2  0.2984928E-005  0.1589736E+03  0.7546771E-02  0.1220450E+00
         -1   -1    0    0    0  501 -0.00000000000E+00  0.00000000000E+00  0.26821117918E+03  0.26821117918E+03  0.00000000000E+00 0.  1.
          2   -1    0    0  502    0  0.00000000000E+00 -0.00000000000E+00 -0.70834962438E+03  0.70834962438E+03  0.00000000000E+00 0. -1.
         24    2    1    2    0    0 -0.42341928365E+01 -0.16221431522E+02  0.17538409014E+03  0.19372273561E+03  0.80547228298E+02 0.  0.
         23    2    1    2    0    0 -0.11419079168E+03  0.69882680991E+02 -0.86393151316E+01  0.16218417920E+03  0.91136953050E+02 0.  0.
        -13    1    3    3    0    0 -0.33238522475E+02 -0.33782880652E+02  0.11655574261E+03  0.12582258754E+03  0.00000000000E+00 0.  1.
         14    1    3    3    0    0  0.29004329638E+02  0.17561449130E+02  0.58828347533E+02  0.67900148061E+02  0.00000000000E+00 0. -1.
        -13    1    4    4    0    0 -0.59345985976E+02  0.45389156429E+02 -0.49423173673E+02  0.89581089905E+02  0.00000000000E+00 0.  1.
         13    1    4    4    0    0 -0.54844805703E+02  0.24493524563E+02  0.40783858541E+02  0.72603089298E+02  0.00000000000E+00 0. -1.
         21    1    1    2  502  501  0.11842498452E+03 -0.53661249470E+02 -0.60688322021E+03  0.62065388875E+03  0.00000000000E+00 0. -1.
<scales pt_clust_5="13000.00000" pt_clust_6="13000.00000" pt_clust_7="13000.00000" pt_clust_8="13000.00000" pt_clust_9="130.25611"></scales>
<clustering>
<clus scale="   80.547">  5  6 -1 -1</clus>
<clus scale="   82.273">  1  5  2 -1</clus>
<clus scale="   91.137">  7  8 -1 -1</clus>
<clus scale="  130.256">  2  9  1 -1</clus>
<clus scale="  130.256">  2  5  1 -1</clus>
</clustering>
</event>
<event>
 9    2  0.2984928E-005  0.9472360E+02  0.7546771E-02  0.1295986E+00
         -1   -1    0    0    0  501 -0.00000000000E+00  0.00000000000E+00  0.77188323198E+02  0.77188323198E+02  0.00000000000E+00 0.  1.
          2   -1    0    0  502    0  0.00000000000E+00 -0.00000000000E+00 -0.72212576581E+03  0.72212576581E+03  0.00000000000E+00 0. -1.
         23    2    1    2    0    0  0.24305185140E+02  0.29645257648E+02  0.41267163353E+02  0.10322429445E+03  0.86502559895E+02 0.  0.
         24    2    1    2    0    0 -0.44918962901E+02 -0.19129205659E+02 -0.58439612637E+03  0.59168442256E+03  0.78663737852E+02 0.  0.
        -11    1    4    4    0    0 -0.27443139540E+02  0.78840336207E+01 -0.61562408307E+02  0.67861727141E+02  0.00000000000E+00 0.  1.
         12    1    4    4    0    0 -0.17475823361E+02 -0.27013239280E+02 -0.52283371806E+03  0.52382269542E+03  0.00000000000E+00 0. -1.
        -13    1    3    3    0    0  0.58850793734E+01 -0.21201704146E+02  0.43872468791E+02  0.49080952881E+02  0.00000000000E+00 0.  1.
         13    1    3    3    0    0  0.18420105767E+02  0.50846961794E+02 -0.26053054380E+01  0.54143341572E+02  0.00000000000E+00 0. -1.
         21    1    1    2  502  501  0.20613777761E+02 -0.10516051989E+02 -0.10180847959E+03  0.10440537199E+03  0.00000000000E+00 0.  1.
<scales pt_clust_5="13000.00000" pt_clust_6="13000.00000" pt_clust_7="13000.00000" pt_clust_8="13000.00000" pt_clust_9="23.14120"></scales>
<clustering>
<clus scale="   23.141">  2  9  1 -1</clus>
<clus scale="   78.664">  5  6 -1 -1</clus>
<clus scale="   86.503">  7  8 -1 -1</clus>
<clus scale="   87.623">  2  5  1 -1</clus>
<clus scale="   23.141">  2  5  1 -1</clus>
</clustering>
</event>
<event>
 9    2  0.2984928E-005  0.5162284E+03  0.7546771E-02  0.1009628E+00
         -3   -1    0    0    0  501 -0.00000000000E+00  0.00000000000E+00  0.11495191353E+04  0.11495191353E+04  0.00000000000E+00 0.  1.
          4   -1    0    0  502    0  0.00000000000E+00 -0.00000000000E+00 -0.34514024864E+03  0.34514024864E+03  0.00000000000E+00 0. -1.
         24    2    1    2    0    0  0.14861666311E+03  0.85512401089E+02  0.26245834615E+03  0.32324803983E+03  0.78775811624E+02 0.  0.
         23    2    1    2    0    0  0.19056978290E+03  0.24544341217E+03  0.61214180778E+03  0.69233909286E+03  0.89758096773E+02 0.  0.
        -13    1    3    3    0    0  0.73186971788E+02  0.10873083934E+02  0.15739922998E+03  0.17392261036E+03  0.00000000000E+00 0.  1.
         14    1    3    3    0    0  0.75429691322E+02  0.74639317155E+02  0.10505911617E+03  0.14932542948E+03  0.00000000000E+00 0. -1.
        -13    1    4    4    0    0  0.12664289694E+03  0.17217627413E+03  0.50087577097E+03  0.54457288829E+03  0.00000000000E+00 0. -1.
         13    1    4    4    0    0  0.63926885952E+02  0.73267138040E+02  0.11126603682E+03  0.14776620457E+03  0.00000000000E+00 0.  1.
         21    1    1    2  502  501 -0.33918644601E+03 -0.33095581326E+03 -0.70221267322E+02  0.47907225120E+03  0.00000000000E+00 0. -1.
<scales pt_clust_5="13000.00000" pt_clust_6="13000.00000" pt_clust_7="13000.00000" pt_clust_8="13000.00000" pt_clust_9="473.89787"></scales>
<clustering>
<clus scale="   78.776">  5  6 -1 -1</clus>
<clus scale="   89.758">  7  8 -1 -1</clus>
<clus scale="  118.926">  5  7 -1 -1</clus>
<clus scale="  473.898">  2  9  1 -1</clus>
<clus scale="  473.898">  2  5  1 -1</clus>
</clustering>
</event>
<event>
 9    2  0.2984928E-005  0.1093214E+03  0.7546771E-02  0.1266750E+00
         -1   -1    0    0    0  501 -0.00000000000E+00  0.00000000000E+00  0.27078765201E+03  0.27078765201E+03  0.00000000000E+00 0.  1.
          2   -1    0    0  502    0  0.00000000000E+00 -0.00000000000E+00 -0.47316574957E+03  0.47316574957E+03  0.00000000000E+00 0. -1.
         24    2    1    2    0    0  0.74682057077E+02 -0.30040175200E+00  0.20721443159E+03  0.23395792060E+03  0.78873240443E+02 0.  0.
         23    2    1    2    0    0 -0.12758439150E+02  0.47485080481E+01  0.35325495707E+01  0.92231611349E+02  0.91152976514E+02 0.  0.
        -13    1    3    3    0    0  0.27796451587E+02 -0.32673308225E+02  0.13686389437E+03  0.14342912317E+03  0.00000000000E+00 0.  1.
         14    1    3    3    0    0  0.46885605490E+02  0.32372906473E+02  0.70350537227E+02  0.90528797428E+02  0.00000000000E+00 0. -1.
        -11    1    4    4    0    0  0.23138794707E+02 -0.42358042792E+01  0.35999260329E+02  0.43003402221E+02  0.00000000000E+00 0.  1.
         11    1    4    4    0    0 -0.35897233856E+02  0.89843123273E+01 -0.32466710758E+02  0.49228209128E+02  0.00000000000E+00 0. -1.
         21    1    1    2  502  501 -0.61923617927E+02 -0.44481062961E+01 -0.41312507872E+03  0.41776386964E+03  0.00000000000E+00 0. -1.
<scales pt_clust_5="13000.00000" pt_clust_6="13000.00000" pt_clust_7="13000.00000" pt_clust_8="13000.00000" pt_clust_9="62.08317"></scales>
<clustering>
<clus scale="   62.083">  2  9  1 -1</clus>
<clus scale="   78.873">  5  6 -1 -1</clus>
<clus scale="   91.153">  7  8 -1 -1</clus>
<clus scale="   99.314">  1  5  2 -1</clus>
<clus scale="   62.083">  2  5  1 -1</clus>
</clustering>
</event>
<event>
 9    2  0.2984928E-005  0.1257487E+03  0.7546771E-02  0.1236625E+00
          2   -1    0    0  502    0  0.00000000000E+00  0.00000000000E+00  0.26913276589E+03  0.26913276589E+03  0.00000000000E+00 0. -1.
         -1   -1    0    0    0  501 -0.00000000000E+00 -0.00000000000E+00 -0.80250330215E+02  0.80250330215E+02  0.00000000000E+00 0.  1.
         23    2    1    2    0    0  0.46873561398E+02 -0.93484894028E+02  0.44356351826E+02  0.14467265487E+03  0.89588698779E+02 0.  0.
         24    2    1    2    0    0 -0.18539717213E+02  0.65506358887E+02  0.98655213867E+02  0.14396719579E+03  0.79742699172E+02 0.  0.
        -13    1    4    4    0    0 -0.47940191030E+01  0.37102862369E+02 -0.29958968827E+01  0.37531059314E+02  0.00000000000E+00 0.  1.
         14    1    4    4    0    0 -0.13745698110E+02  0.28403496518E+02  0.10165111075E+03  0.10643613647E+03  0.00000000000E+00 0. -1.
        -13    1    3    3    0    0  0.58622934354E+02 -0.57188007939E+02 -0.52817414645E+01  0.82067127872E+02  0.00000000000E+00 0.  1.
         13    1    3    3    0    0 -0.11749372956E+02 -0.36296886088E+02  0.49638093290E+02  0.62605526993E+02  0.00000000000E+00 0. -1.
         21    1    1    2  502  501 -0.28333844186E+02  0.27978535141E+02  0.45870869982E+02  0.60743245450E+02  0.00000000000E+00 0.  1.
<scales pt_clust_5="13000.00000" pt_clust_6="13000.00000" pt_clust_7="13000.00000" pt_clust_8="13000.00000" pt_clust_9="39.81966"></scales>
<clustering>
<clus scale="   39.820">  1  9  2 -1</clus>
<clus scale="   79.743">  5  6 -1 -1</clus>
<clus scale="   89.589">  7  8 -1 -1</clus>
<clus scale="  118.935">  1  5  2 -1</clus>
<clus scale="   39.820">  1  5  2 -1</clus>
</clustering>
</event>
<event>
 9    2  0.2984928E-005  0.1737893E+03  0.7546771E-02  0.1192269E+00
          2   -1    0    0  502    0  0.00000000000E+00  0.00000000000E+00  0.94567288078E+03  0.94567288078E+03  0.00000000000E+00 0. -1.
         -1   -1    0    0    0  501 -0.00000000000E+00 -0.00000000000E+00 -0.85412766723E+02  0.85412766723E+02  0.00000000000E+00 0.  1.
         23    2    1    2    0    0 -0.72316607909E+02  0.14860897008E+01  0.14415223872E+03  0.18464616800E+03  0.89902386979E+02 0.  0.
         24    2    1    2    0    0 -0.13956730398E+03 -0.14883319956E+02  0.55938258239E+03  0.58255106494E+03  0.82196862619E+02 0.  0.
        -13    1    4    4    0    0 -0.79406036332E+02  0.52537862088E+00  0.44837609779E+03  0.45535340089E+03  0.00000000000E+00 0.  1.
         14    1    4    4    0    0 -0.60161267648E+02 -0.15408698577E+02  0.11100648460E+03  0.12719766405E+03  0.00000000000E+00 0. -1.
        -13    1    3    3    0    0 -0.45450993127E+02  0.31044996314E+02  0.27871284984E+02  0.61695973119E+02  0.00000000000E+00 0.  1.
         13    1    3    3    0    0 -0.26865614782E+02 -0.29558906613E+02  0.11628095374E+03  0.12295019488E+03  0.00000000000E+00 0. -1.
         21    1    1    2  502  501  0.21188391189E+03  0.13397230255E+02  0.15672529294E+03  0.26388841457E+03  0.00000000000E+00 0.  1.
<scales pt_clust_5="13000.00000" pt_clust_6="13000.00000" pt_clust_7="13000.00000" pt_clust_8="13000.00000" pt_clust_9="153.12218"></scales>
<clustering>
<clus scale="   82.197">  5  6 -1 -1</clus>
<clus scale="   89.902">  7  8 -1 -1</clus>
<clus scale="  115.388">  2  7  1 -1</clus>
<clus scale="  153.122">  2  9  1 -1</clus>
<clus scale="  173.789">  1  5  2 -1</clus>
</clustering>
</event>
<event>
 9    2  0.2984928E-005  0.1154751E+03  0.7546771E-02  0.1253292E+00
          2   -1    0    0  502    0  0.00000000000E+00  0.00000000000E+00  0.66245480760E+03  0.66245480760E+03  0.00000000000E+00 0. -1.
         -1   -1    0    0    0  501 -0.00000000000E+00 -0.00000000000E+00 -0.46814729996E+02  0.46814729996E+02  0.00000000000E+00 0.  1.
         23    2    1    2    0    0  0.28575651223E+02  0.64544773723E+02  0.59167518017E+02  0.12918364120E+03  0.90581578188E+02 0.  0.
         24    2    1    2    0    0  0.33680113710E+01 -0.81460797436E+02  0.31358411719E+03  0.33452257485E+03  0.83205465642E+02 0.  0.
        -13    1    4    4    0    0  0.28183055104E+02  0.24951781219E+00  0.49338166278E+02  0.56820784101E+02  0.00000000000E+00 0.  1.
         14    1    4    4    0    0 -0.24815043733E+02 -0.81710315248E+02  0.26424595091E+03  0.27770179075E+03  0.00000000000E+00 0. -1.
        -11    1    3    3    0    0  0.52981605003E+02  0.18223175063E+02  0.51810227116E+02  0.76311429104E+02  0.00000000000E+00 0.  1.
         11    1    3    3    0    0 -0.24405953780E+02  0.46321598660E+02  0.73572909008E+01  0.52872212094E+02  0.00000000000E+00 0. -1.
         21    1    1    2  502  501 -0.31943662594E+02  0.16916023713E+02  0.24288844240E+03  0.24556332155E+03  0.00000000000E+00 0. -1.
<scales pt_clust_5="13000.00000" pt_clust_6="13000.00000" pt_clust_7="13000.00000" pt_clust_8="13000.00000" pt_clust_9="36.14622"></scales>
<clustering>
<clus scale="   36.146">  1  9  2 -1</clus>
<clus scale="   83.205">  5  6 -1 -1</clus>
<clus scale="   90.582">  7  8 -1 -1</clus>
<clus scale="  109.784">  1  5  2 -1</clus>
<clus scale="   36.146">  1  5  2 -1</clus>
</clustering>
</event>
<event>
 9    2  0.2984928E-005  0.9582190E+02  0.7546771E-02  0.1296618E+00
          2   -1    0    0  502    0  0.00000000000E+00  0.00000000000E+00  0.81640885432E+03  0.81640885432E+03  0.00000000000E+00 0. -1.
         -1   -1    0    0    0  501 -0.00000000000E+00 -0.00000000000E+00 -0.51779281846E+02  0.51779281846E+02  0.00000000000E+00 0.  1.
         24    2    1    2    0    0 -0.80418194702E+01  0.26771275176E+01 -0.19406366171E+01  0.83914848761E+02  0.83463152948E+02 0.  0.
         23    2    1    2    0    0 -0.43978925346E+02 -0.94126863758E+01  0.61159892505E+03  0.62066514420E+03  0.95651615608E+02 0.  0.
        -11    1    3    3    0    0  0.29038583719E+02  0.23856489837E+02 -0.13063574948E+02  0.39787289957E+02  0.00000000000E+00 0.  1.
         12    1    3    3    0    0 -0.37080403189E+02 -0.21179362319E+02  0.11122938331E+02  0.44127558804E+02  0.00000000000E+00 0. -1.
        -13    1    4    4    0    0 -0.27123643850E+00 -0.47632094336E+02  0.27819840314E+03  0.28224677410E+03  0.00000000000E+00 0. -1.
         13    1    4    4    0    0 -0.43707688907E+02  0.38219407960E+02  0.33340052191E+03  0.33841837010E+03  0.00000000000E+00 0.  1.
         21    1    1    2  502  501  0.52020744816E+02  0.67355588582E+01  0.15497128405E+03  0.16360814321E+03  0.00000000000E+00 0.  1.
<scales pt_clust_5="13000.00000" pt_clust_6="13000.00000" pt_clust_7="13000.00000" pt_clust_8="13000.00000" pt_clust_9="52.45499"></scales>
<clustering>
<clus scale="   52.455">  1  9  2 -1</clus>
<clus scale="   83.463">  5  6 -1 -1</clus>
<clus scale="   83.658">  2  5  1 -1</clus>
<clus scale="   95.652">  7  8 -1 -1</clus>
<clus scale="   52.455">  1  5  2 -1</clus>
</clustering>
</event>
<event>
 9    2  0.2984928E-005  0.1180324E+03  0.7546771E-02  0.1250102E+00
          2   -1    0    0  502    0  0.00000000000E+00  0.00000000000E+00  0.39690508689E+03  0.39690508689E+03  0.00000000000E+00 0. -1.
         -1   -1    0    0    0  501 -0.00000000000E+00 -0.00000000000E+00 -0.18568075477E+03  0.18568075477E+03  0.00000000000E+00 0.  1.
         24    2    1    2    0    0 -0.64340379785E+02  0.37848518486E+02 -0.15480299043E+03  0.18960884702E+03  0.80095906271E+02 0.  0.
         23    2    1    2    0    0  0.76189658545E+02 -0.20956757507E+02  0.33064392511E+03  0.35201699206E+03  0.91359223581E+02 0.  0.
        -11    1    3    3    0    0 -0.77390425555E+02  0.47803026512E+02 -0.11552110546E+03  0.14703582257E+03  0.00000000000E+00 0.  1.
         12    1    3    3    0    0  0.13050045770E+02 -0.99545080258E+01 -0.39281884970E+02  0.42573024458E+02  0.00000000000E+00 0. -1.
        -11    1    4    4    0    0  0.30825586276E+02 -0.43291173592E+02  0.78137796349E+02  0.94497924308E+02  0.00000000000E+00 0.  1.
         11    1    4    4    0    0  0.45364072269E+02  0.22334416085E+02  0.25250612876E+03  0.25751906775E+03  0.00000000000E+00 0. -1.
         21    1    1    2  502  501 -0.11849278760E+02 -0.16891760979E+02  0.35383397446E+02  0.40960002575E+02  0.00000000000E+00 0.  1.
<scales pt_clust_5="13000.00000" pt_clust_6="13000.00000" pt_clust_7="13000.00000" pt_clust_8="13000.00000" pt_clust_9="20.63340"></scales>
<clustering>
<clus scale="   20.633">  1  9  2 -1</clus>
<clus scale="   80.096">  5  6 -1 -1</clus>
<clus scale="   91.359">  7  8 -1 -1</clus>
<clus scale="  109.547">  2  5  1 -1</clus>
<clus scale="   20.633">  1  5  2 -1</clus>
</clustering>
</event>
<event>
 9    2  0.2984928E-005  0.1902268E+03  0.7546771E-02  0.1159105E+00
         -1   -1    0    0    0  501 -0.00000000000E+00  0.00000000000E+00  0.36819815864E+03  0.36819815864E+03  0.00000000000E+00 0.  1.
          2   -1    0    0  502    0  0.00000000000E+00 -0.00000000000E+00 -0.74324240779E+03  0.74324240779E+03  0.00000000000E+00 0. -1.
         23    2    1    2    0    0  0.11275663221E+03  0.12250930029E+03  0.31990171096E+03  0.37179339928E+03  0.90391594229E+02 0.  0.
         24    2    1    2    0    0 -0.14449469849E+03 -0.11667792660E+03 -0.46473684935E+03  0.50718739762E+03  0.82257283665E+02 0.  0.
        -13    1    4    4    0    0 -0.20672797542E+02  0.66011368090E+01 -0.10553791646E+03  0.10774595758E+03  0.00000000000E+00 0.  1.
         14    1    4    4    0    0 -0.12382190095E+03 -0.12327906341E+03 -0.35919893289E+03  0.39944144004E+03  0.00000000000E+00 0. -1.
        -11    1    3    3    0    0  0.80845745577E+02  0.92158022169E+02  0.13778933674E+03  0.18443165929E+03  0.00000000000E+00 0. -1.
         11    1    3    3    0    0  0.31910886636E+02  0.30351278124E+02  0.18211237422E+03  0.18736173999E+03  0.00000000000E+00 0.  1.
         21    1    1    2  502  501  0.31738066277E+02 -0.58313736913E+01 -0.23020911076E+03  0.23245976953E+03  0.00000000000E+00 0. -1.
<scales pt_clust_5="13000.00000" pt_clust_6="13000.00000" pt_clust_7="13000.00000" pt_clust_8="13000.00000" pt_clust_9="32.26933"></scales>
<clustering>
<clus scale="   32.269">  2  9  1 -1</clus>
<clus scale="   82.257">  5  6 -1 -1</clus>
<clus scale="   90.392">  7  8 -1 -1</clus>
<clus scale="  186.499">  2  5  1 -1</clus>
<clus scale="   32.269">  2  5  1 -1</clus>
</clustering>
</event>
<event>
 9    2  0.2984928E-005  0.1469947E+03  0.7546771E-02  0.1205927E+00
         -1   -1    0    0    0  501 -0.00000000000E+00  0.00000000000E+00  0.71749977491E+03  0.71749977491E+03  0.00000000000E+00 0.  1.
          2   -1    0    0  502    0  0.00000000000E+00 -0.00000000000E+00 -0.83518714659E+02  0.83518714659E+02  0.00000000000E+00 0. -1.
         23    2    1    2    0    0 -0.10150425664E+03 -0.42696048570E+02  0.50863283489E+03  0.52804962115E+03  0.89459348256E+02 0.  0.
         24    2    1    2    0    0  0.15817530417E+03  0.28740909950E+02  0.71166849126E+02  0.19333235008E+03  0.80418968037E+02 0.  0.
        -11    1    4    4    0    0  0.25293089261E+02  0.20723437562E+01  0.50116303520E+02  0.56175429251E+02  0.00000000000E+00 0.  1.
         12    1    4    4    0    0  0.13288221491E+03  0.26668566193E+02  0.21050545606E+02  0.13715692083E+03  0.00000000000E+00 0. -1.
        -13    1    3    3    0    0 -0.11043006294E+03 -0.13596601217E+02  0.38823645482E+03  0.40386533797E+03  0.00000000000E+00 0.  1.
         13    1    3    3    0    0  0.89258063007E+01 -0.29099447353E+02  0.12039638007E+03  0.12418428317E+03  0.00000000000E+00 0. -1.
         21    1    1    2  502  501 -0.56671047530E+02  0.13955138620E+02  0.54181376234E+02  0.79636518336E+02  0.00000000000E+00 0.  1.
<scales pt_clust_5="13000.00000" pt_clust_6="13000.00000" pt_clust_7="13000.00000" pt_clust_8="13000.00000" pt_clust_9="58.36397"></scales>
<clustering>
<clus scale="   58.364">  2  9  1 -1</clus>
<clus scale="   80.419">  5  6 -1 -1</clus>
<clus scale="   89.459">  7  8 -1 -1</clus>
<clus scale="  141.675">  2  5  1 -1</clus>
<clus scale="   58.364">  2  5  1 -1</clus>
</clustering>
</event>
<event>
 9    2  0.2984928E-005  0.1305139E+03  0.7546771E-02  0.1228422E+00
          2   -1    0    0  502    0  0.00000000000E+00  0.00000000000E+00  0.13078492599E+03  0.13078492599E+03  0.00000000000E+00 0. -1.
         -1   -1    0    0    0  501 -0.00000000000E+00 -0.00000000000E+00 -0.21192705098E+03  0.21192705098E+03  0.00000000000E+00 0.  1.
         23    2    1    2    0    0 -0.37268495084E+02  0.75907861159E+02 -0.54056707670E+02  0.13304839171E+03  0.87343017930E+02 0.  0.
         24    2    1    2    0    0  0.33996703556E+02 -0.10492561438E+03 -0.73383275080E+02  0.15492578977E+03  0.80322692115E+02 0.  0.
        -11    1    4    4    0    0  0.21690964616E+01 -0.99225506275E+02 -0.71902971114E+02  0.12255791827E+03  0.00000000000E+00 0.  1.
         12    1    4    4    0    0  0.31827607095E+02 -0.57001081060E+01 -0.14803039658E+01  0.32367871503E+02  0.00000000000E+00 0. -1.
        -13    1    3    3    0    0 -0.59419116501E+02  0.49701260820E+02 -0.60304228715E+02  0.98170498286E+02  0.00000000000E+00 0.  1.
         13    1    3    3    0    0  0.22150621417E+02  0.26206600339E+02  0.62475210449E+01  0.34877893424E+02  0.00000000000E+00 0. -1.
         21    1    1    2  502  501  0.32717915272E+01  0.29017753222E+02  0.46297857761E+02  0.54737795490E+02  0.00000000000E+00 0. -1.
<scales pt_clust_5="13000.00000" pt_clust_6="13000.00000" pt_clust_7="13000.00000" pt_clust_8="13000.00000" pt_clust_9="29.20162"></scales>
<clustering>
<clus scale="   29.202">  1  9  2 -1</clus>
<clus scale="   80.323">  5  6 -1 -1</clus>
<clus scale="   87.343">  7  8 -1 -1</clus>
<clus scale="  125.924">  1  5  2 -1</clus>
<clus scale="   29.202">  1  5  2 -1</clus>
</clustering>
</event>
<event>
 9    2  0.2984928E-005  0.9415950E+02  0.7546771E-02  0.1298007E+00
         -1   -1    0    0    0  501 -0.00000000000E+00  0.00000000000E+00  0.69779019223E+02  0.69779019223E+02  0.00000000000E+00 0.  1.
          2   -1    0    0  502    0  0.00000000000E+00 -0.00000000000E+00 -0.41946885922E+03  0.41946885922E+03  0.00000000000E+00 0. -1.
         23    2    1    2    0    0 -0.23844409850E+02 -0.25945960642E+01  0.22167523439E+02  0.96508855068E+02  0.90814493344E+02 0.  0.
         24    2    1    2    0    0  0.34402279208E+02 -0.20781921773E+02 -0.33849676212E+03  0.35065743700E+03  0.82250684309E+02 0.  0.
        -13    1    4    4    0    0 -0.27360160260E+02 -0.66364837514E+01 -0.10000863467E+03  0.10389585311E+03  0.00000000000E+00 0.  1.
         14    1    4    4    0    0  0.61762439468E+02 -0.14145438022E+02 -0.23848812746E+03  0.24676158389E+03  0.00000000000E+00 0. -1.
        -13    1    3    3    0    0 -0.53918840142E+02 -0.21363902420E+02  0.18463527416E+02  0.60865092570E+02  0.00000000000E+00 0.  1.
         13    1    3    3    0    0  0.30074430292E+02  0.18769306356E+02  0.37039960236E+01  0.35643762498E+02  0.00000000000E+00 0. -1.
         21    1    1    2  502  501 -0.10557869358E+02  0.23376517838E+02 -0.33360601309E+02  0.42081586368E+02  0.00000000000E+00 0.  1.
<scales pt_clust_5="13000.00000" pt_clust_6="13000.00000" pt_clust_7="13000.00000" pt_clust_8="13000.00000" pt_clust_9="25.65015"></scales>
<clustering>
<clus scale="   25.650">  2  9  1 -1</clus>
<clus scale="   82.251">  5  6 -1 -1</clus>
<clus scale="   85.930">  2  5  1 -1</clus>
<clus scale="   90.814">  7  8 -1 -1</clus>
<clus scale="   25.650">  2  5  1 -1</clus>
</clustering>
</event>
<event>
 9    2  0.2984928E-005  0.3082125E+03  0.7546771E-02  0.1081926E+00
         -1   -1    0    0    0  501 -0.00000000000E+00  0.00000000000E+00  0.28537942192E+03  0.28537942192E+03  0.00000000000E+00 0.  1.
          2   -1    0    0  502    0  0.00000000000E+00 -0.00000000000E+00 -0.82138441157E+03  0.82138441157E+03  0.00000000000E+00 0. -1.
         23    2    1    2    0    0  0.18463122334E+03  0.24342806394E+03  0.14601098979E+03  0.35061913200E+03  0.90932148562E+02 0.  0.
         24    2    1    2    0    0 -0.11581481004E+03 -0.20979860935E+03 -0.49940040178E+03  0.55811670306E+03  0.68300558044E+02 0.  0.
        -13    1    4    4    0    0 -0.89353181221E+02 -0.10188425120E+03 -0.31360222077E+03  0.34162954279E+03  0.00000000000E+00 0.  1.
         14    1    4    4    0    0 -0.26461628816E+02 -0.10791435815E+03 -0.18579818101E+03  0.21648716027E+03  0.00000000000E+00 0. -1.
        -11    1    3    3    0    0  0.99708852251E+02  0.18638118969E+03  0.12690685223E+03  0.24654645045E+03  0.00000000000E+00 0.  1.
         11    1    3    3    0    0  0.84922371093E+02  0.57046874250E+02  0.19104137557E+02  0.10407268155E+03  0.00000000000E+00 0. -1.
         21    1    1    2  502  501 -0.68816413307E+02 -0.33629454590E+02 -0.18261557767E+03  0.19802799843E+03  0.00000000000E+00 0. -1.
<scales pt_clust_5="13000.00000" pt_clust_6="13000.00000" pt_clust_7="13000.00000" pt_clust_8="13000.00000" pt_clust_9="76.59399"></scales>
<clustering>
<clus scale="   68.301">  5  6 -1 -1</clus>
<clus scale="   76.594">  2  9  1 -1</clus>
<clus scale="   90.932">  7  8 -1 -1</clus>
<clus scale="  302.310">  2  5  1 -1</clus>
<clus scale="   76.594">  2  5  1 -1</clus>
</clustering>
</event>
<event>
 9    2  0.2984928E-005  0.1026218E+03  0.7546771E-02  0.1280573E+00
         -1   -1    0    0    0  501 -0.00000000000E+00  0.00000000000E+00  0.38791893608E+02  0.38791893608E+02  0.00000000000E+00 0.  1.
          2   -1    0    0  502    0  0.00000000000E+00 -0.00000000000E+00 -0.56105163336E+03  0.56105163336E+03  0.00000000000E+00 0. -1.
         23    2    1    2    0    0  0.22384423042E+02  0.35132010773E+02 -0.54736222700E+02  0.11519282517E+03  0.92401365354E+02 0.  0.
         24    2    1    2    0    0 -0.48988116518E+02 -0.36465060952E+02 -0.37420248539E+03  0.38760252572E+03  0.80490258060E+02 0.  0.
        -11    1    4    4    0    0 -0.59812352497E+02 -0.26939921977E+02 -0.16014250922E+03  0.17305750537E+03  0.00000000000E+00 0.  1.
         12    1    4    4    0    0  0.10824235979E+02 -0.95251389747E+01 -0.21405997617E+03  0.21454502035E+03  0.00000000000E+00 0. -1.
        -13    1    3    3    0    0 -0.35708330924E+01  0.26670844045E+02  0.21354821455E+02  0.34352775294E+02  0.00000000000E+00 0.  1.
         13    1    3    3    0    0  0.25955256135E+02  0.84611667284E+01 -0.76091044155E+02  0.80840049876E+02  0.00000000000E+00 0. -1.
         21    1    1    2  502  501  0.26603693476E+02  0.13330501789E+01 -0.93321031655E+02  0.97048176070E+02  0.00000000000E+00 0. -1.
<scales pt_clust_5="13000.00000" pt_clust_6="13000.00000" pt_clust_7="13000.00000" pt_clust_8="13000.00000" pt_clust_9="26.63707"></scales>
<clustering>
<clus scale="   26.637">  2  9  1 -1</clus>
<clus scale="   80.490">  5  6 -1 -1</clus>
<clus scale="   92.043">  2  5  1 -1</clus>
<clus scale="   92.401">  7  8 -1 -1</clus>
<clus scale="   26.637">  2  5  1 -1</clus>
</clustering>
</event>
<event>
 9    2  0.2984928E-005  0.9298884E+02  0.7546771E-02  0.1303492E+00
          2   -1    0    0  502    0  0.00000000000E+00  0.00000000000E+00  0.56851308089E+03  0.56851308089E+03  0.00000000000E+00 0. -1.
         -1   -1    0    0    0  501 -0.00000000000E+00 -0.00000000000E+00 -0.67533012047E+02  0.67533012047E+02  0.00000000000E+00 0.  1.
         24    2    1    2    0    0 -0.17475965248E+02 -0.54624497248E+01 -0.27100785452E+02  0.85524667454E+02  0.79023847367E+02 0.  0.
         23    2    1    2    0    0 -0.24374359310E+02  0.10383400629E+02  0.46491250117E+03  0.47458786070E+03  0.91586458522E+02 0.  0.
        -13    1    3    3    0    0  0.67692666105E+01 -0.21499616074E+02 -0.45740496699E+02  0.50992641626E+02  0.00000000000E+00 0.  1.
         14    1    3    3    0    0 -0.24245231858E+02  0.16037166350E+02  0.18639711247E+02  0.34532025827E+02  0.00000000000E+00 0. -1.
        -11    1    4    4    0    0 -0.57510085115E+02 -0.45314465369E+01  0.32207863291E+03  0.32720420179E+03  0.00000000000E+00 0.  1.
         11    1    4    4    0    0  0.33135725805E+02  0.14914847166E+02  0.14283386826E+03  0.14738365891E+03  0.00000000000E+00 0. -1.
         21    1    1    2  502  501  0.41850324558E+02 -0.49209509044E+01  0.63168353127E+02  0.75933564780E+02  0.00000000000E+00 0. -1.
<scales pt_clust_5="13000.00000" pt_clust_6="13000.00000" pt_clust_7="13000.00000" pt_clust_8="13000.00000" pt_clust_9="42.13865"></scales>
<clustering>
<clus scale="   42.139">  1  9  2 -1</clus>
<clus scale="   79.024">  5  6 -1 -1</clus>
<clus scale="   80.645">  2  5  1 -1</clus>
<clus scale="   91.586">  7  8 -1 -1</clus>
<clus scale="   42.139">  1  5  2 -1</clus>
</clustering>
</event>
<event>
 9    2  0.2984928E-005  0.9789890E+02  0.7546771E-02  0.1289132E+00
          2   -1    0    0  502    0  0.00000000000E+00  0.00000000000E+00  0.23744625512E+03  0.23744625512E+03  0.00000000000E+00 0. -1.
         -1   -1    0    0    0  501 -0.00000000000E+00 -0.00000000000E+00 -0.96493429052E+02  0.96493429052E+02  0.00000000000E+00 0.  1.
         24    2    1    2    0    0 -0.70424659669E+01  0.11608941554E+02 -0.44222885509E+02  0.10691852034E+03  0.96392647741E+02 0.  0.
         23    2    1    2    0    0  0.38794514260E+02 -0.91438313560E+01  0.11912927958E+03  0.15369722150E+03  0.88557476563E+02 0.  0.
        -13    1    3    3    0    0  0.43264337466E+02 -0.66613459169E+01 -0.18221923639E+02  0.47415344846E+02  0.00000000000E+00 0.  1.
         14    1    3    3    0    0 -0.50306803433E+02  0.18270287471E+02 -0.26000961870E+02  0.59503175496E+02  0.00000000000E+00 0. -1.
        -13    1    4    4    0    0  0.13442094541E+02  0.38632930988E+02  0.67486432332E+02  0.78915219136E+02  0.00000000000E+00 0. -1.
         13    1    4    4    0    0  0.25352419719E+02 -0.47776762344E+02  0.51642847244E+02  0.74782002361E+02  0.00000000000E+00 0.  1.
         21    1    1    2  502  501 -0.31752048293E+02 -0.24651101977E+01  0.66046431999E+02  0.73323942330E+02  0.00000000000E+00 0. -1.
<scales pt_clust_5="13000.00000" pt_clust_6="13000.00000" pt_clust_7="13000.00000" pt_clust_8="13000.00000" pt_clust_9="31.84760"></scales>
<clustering>
<clus scale="   31.848">  1  9  2 -1</clus>
<clus scale="   88.557">  7  8 -1 -1</clus>
<clus scale="   90.195">  1  7  2 -1</clus>
<clus scale="   96.393">  5  6 -1 -1</clus>
<clus scale="   31.848">  1  5  2 -1</clus>
</clustering>
</event>
<event>
 9    2  0.2984928E-005  0.2370900E+03  0.7546771E-02  0.1122400E+00
          2   -1    0    0  502    0  0.00000000000E+00  0.00000000000E+00  0.94354548834E+02  0.94354548834E+02  0.00000000000E+00 0. -1.
         -1   -1    0    0    0  501 -0.00000000000E+00 -0.00000000000E+00 -0.79671730912E+03  0.79671730912E+03  0.00000000000E+00 0.  1.
         24    2    1    2    0    0 -0.48747349278E+02 -0.20795604654E+03 -0.44408723829E+03  0.49941658384E+03  0.81125998588E+02 0.  0.
         23    2    1    2    0    0  0.93703497652E+02  0.21167245524E+03 -0.22563410755E+03  0.33597467689E+03  0.91556863432E+02 0.  0.
        -13    1    3    3    0    0 -0.36087973443E+02 -0.13971950533E+03 -0.20667344399E+03  0.25206704356E+03  0.00000000000E+00 0.  1.
         14    1    3    3    0    0 -0.12659375835E+02 -0.68236541207E+02 -0.23741379430E+03  0.24734954028E+03  0.00000000000E+00 0. -1.
        -13    1    4    4    0    0  0.94361335094E+02  0.10967366680E+03 -0.10976808890E+03  0.18160784149E+03  0.00000000000E+00 0.  1.
         13    1    4    4    0    0 -0.65783744160E+00  0.10199878844E+03 -0.11586601865E+03  0.15436683540E+03  0.00000000000E+00 0. -1.
         21    1    1    2  502  501 -0.44956148374E+02 -0.37164087025E+01 -0.32641414455E+02  0.55680597230E+02  0.00000000000E+00 0.  1.
<scales pt_clust_5="13000.00000" pt_clust_6="13000.00000" pt_clust_7="13000.00000" pt_clust_8="13000.00000" pt_clust_9="45.10950"></scales>
<clustering>
<clus scale="   45.109">  1  9  2 -1</clus>
<clus scale="   81.126">  5  6 -1 -1</clus>
<clus scale="   91.557">  7  8 -1 -1</clus>
<clus scale="  233.260">  2  5  1 -1</clus>
<clus scale="   45.109">  1  5  2 -1</clus>
</clustering>
</event>
<event>
 9    2  0.2984928E-005  0.8837457E+02  0.7546771E-02  0.1310394E+00
         -1   -1    0    0    0  501 -0.00000000000E+00  0.00000000000E+00  0.33354302656E+03  0.33354302656E+03  0.00000000000E+00 0.  1.
          2   -1    0    0  502    0  0.00000000000E+00 -0.00000000000E+00 -0.16362688090E+03  0.16362688090E+03  0.00000000000E+00 0. -1.
         23    2    1    2    0    0 -0.15455882018E+02 -0.19555248492E+02  0.29339235083E+03  0.30638249741E+03  0.84675091707E+02 0.  0.
         24    2    1    2    0    0 -0.22540846602E+01  0.36880318551E+02 -0.27016375724E+02  0.91196749493E+02  0.78877904173E+02 0.  0.
        -11    1    4    4    0    0 -0.24014552968E+02  0.45700954070E+02  0.45823055449E+01  0.51829272436E+02  0.00000000000E+00 0.  1.
         12    1    4    4    0    0  0.21760468308E+02 -0.88206355184E+01 -0.31598681269E+02  0.39367477057E+02  0.00000000000E+00 0. -1.
        -13    1    3    3    0    0 -0.27247958900E+01  0.32539669872E+02  0.14401000056E+03  0.14766561851E+03  0.00000000000E+00 0.  1.
         13    1    3    3    0    0 -0.12731086128E+02 -0.52094918364E+02  0.14938235028E+03  0.15871687890E+03  0.00000000000E+00 0. -1.
         21    1    1    2  502  501  0.17709966679E+02 -0.17325070059E+02 -0.96459829453E+02  0.99590660559E+02  0.00000000000E+00 0. -1.
<scales pt_clust_5="13000.00000" pt_clust_6="13000.00000" pt_clust_7="13000.00000" pt_clust_8="13000.00000" pt_clust_9="24.77501"></scales>
<clustering>
<clus scale="   24.775">  2  9  1 -1</clus>
<clus scale="   78.878">  5  6 -1 -1</clus>
<clus scale="   82.837">  2  5  1 -1</clus>
<clus scale="   84.675">  7  8 -1 -1</clus>
<clus scale="   24.775">  2  5  1 -1</clus>
</clustering>
</event>
<event>
 9    2  0.2984928E-005  0.4441680E+03  0.7546771E-02  0.1029675E+00
          2   -1    0    0  502    0  0.00000000000E+00  0.00000000000E+00  0.69078546793E+03  0.69078546793E+03  0.00000000000E+00 0. -1.
         -1   -1    0    0    0  501 -0.00000000000E+00 -0.00000000000E+00 -0.69765518127E+03  0.69765518127E+03  0.00000000000E+00 0.  1.
         23    2    1    2    0    0 -0.43007835320E+03  0.89312997670E+02 -0.51772013024E+03  0.68498402270E+03  0.90690554380E+02 0.  0.
         24    2    1    2    0    0  0.40953637935E+03 -0.26498254008E+02  0.44263519309E+03  0.60847777899E+03  0.76792511961E+02 0.  0.
        -11    1    4    4    0    0  0.98326445807E+02  0.12269178004E+02  0.69401151599E+02  0.12097579310E+03  0.00000000000E+00 0.  1.
         12    1    4    4    0    0  0.31120993354E+03 -0.38767432011E+02  0.37323404149E+03  0.48750198589E+03  0.00000000000E+00 0. -1.
        -11    1    3    3    0    0 -0.30402039690E+03  0.90122059042E+02 -0.41556600623E+03  0.52272889033E+03  0.00000000000E+00 0.  1.
         11    1    3    3    0    0 -0.12605795630E+03 -0.80906137161E+00 -0.10215412402E+03  0.16225513237E+03  0.00000000000E+00 0. -1.
         21    1    1    2  502  501  0.20541973854E+02 -0.62814743662E+02  0.68215223823E+02  0.94978847500E+02  0.00000000000E+00 0. -1.
<scales pt_clust_5="13000.00000" pt_clust_6="13000.00000" pt_clust_7="13000.00000" pt_clust_8="13000.00000" pt_clust_9="66.08831"></scales>
<clustering>
<clus scale="   66.088">  1  9  2 -1</clus>
<clus scale="   76.793">  5  6 -1 -1</clus>
<clus scale="   90.691">  7  8 -1 -1</clus>
<clus scale="  441.540">  1  5  2 -1</clus>
<clus scale="   66.088">  1  5  2 -1</clus>
</clustering>
</event>
<event>
 9    2  0.2984928E-005  0.2296926E+03  0.7546771E-02  0.1161769E+00
         -1   -1    0    0    0  501 -0.00000000000E+00  0.00000000000E+00  0.80982006581E+03  0.80982006581E+03  0.00000000000E+00 0.  1.
          2   -1    0    0  502    0  0.00000000000E+00 -0.00000000000E+00 -0.33000772729E+03  0.33000772729E+03  0.00000000000E+00 0. -1.
         24    2    1    2    0    0 -0.50110583285E+02  0.20743702665E+03  0.69397771885E+03  0.73047536677E+03  0.80299418537E+02 0.  0.
         23    2    1    2    0    0  0.10244905227E+02  0.29510266463E+02 -0.22720846824E+02  0.10213214475E+03  0.94545884106E+02 0.  0.
        -11    1    3    3    0    0 -0.46086721388E+02  0.20774968878E+03  0.60370040077E+03  0.64010787604E+03  0.00000000000E+00 0.  1.
         12    1    3    3    0    0 -0.40238618963E+01 -0.31266212231E+00  0.90277318077E+02  0.90367490732E+02  0.00000000000E+00 0. -1.
        -13    1    4    4    0    0 -0.32166978774E+02 -0.17964348195E+01 -0.35449542058E+02  0.47902105732E+02  0.00000000000E+00 0.  1.
         13    1    4    4    0    0  0.42411884001E+02  0.31306701282E+02  0.12728695233E+02  0.54230039019E+02  0.00000000000E+00 0. -1.
         21    1    1    2  502  501  0.39865678057E+02 -0.23694729312E+03 -0.19144453351E+03  0.30722028158E+03  0.00000000000E+00 0. -1.
<scales pt_clust_5="13000.00000" pt_clust_6="13000.00000" pt_clust_7="13000.00000" pt_clust_8="13000.00000" pt_clust_9="215.19914"></scales>
<clustering>
<clus scale="   80.299">  5  6 -1 -1</clus>
<clus scale="   94.546">  7  8 -1 -1</clus>
<clus scale="   99.573">  2  7  1 -1</clus>
<clus scale="  215.199">  2  9  1 -1</clus>
<clus scale="   99.573">  2  5  1 -1</clus>
</clustering>
</event>
<event>
 9    2  0.2984928E-005  0.1440184E+03  0.7546771E-02  0.1210190E+00
          4   -1    0    0  502    0  0.00000000000E+00  0.00000000000E+00  0.10897718102E+03  0.10897718102E+03  0.00000000000E+00 0. -1.
         -3   -1    0    0    0  501 -0.00000000000E+00 -0.00000000000E+00 -0.44678881583E+03  0.44678881583E+03  0.00000000000E+00 0.  1.
         24    2    1    2    0    0  0.10783417895E+03 -0.33596407614E+02 -0.36274297195E+03  0.38813680533E+03  0.79440463225E+02 0.  0.
         23    2    1    2    0    0 -0.96327962281E+02  0.52253393197E+02  0.12736101281E+02  0.14254533395E+03  0.90263339946E+02 0.  0.
        -13    1    3    3    0    0  0.43593369256E+02  0.44568791535E+01 -0.24375346200E+03  0.24766105033E+03  0.00000000000E+00 0.  1.
         14    1    3    3    0    0  0.64240809690E+02 -0.38053286768E+02 -0.11898950995E+03  0.14047575500E+03  0.00000000000E+00 0. -1.
        -13    1    4    4    0    0 -0.67711386674E+02  0.25114193016E+02 -0.35307138809E+02  0.80387490488E+02  0.00000000000E+00 0.  1.
         13    1    4    4    0    0 -0.28616575607E+02  0.27139200181E+02  0.48043240090E+02  0.62157843465E+02  0.00000000000E+00 0. -1.
         21    1    1    2  502  501 -0.11506216665E+02 -0.18656985582E+02  0.12195235857E+02  0.25083857570E+02  0.00000000000E+00 0.  1.
<scales pt_clust_5="13000.00000" pt_clust_6="13000.00000" pt_clust_7="13000.00000" pt_clust_8="13000.00000" pt_clust_9="21.91977"></scales>
<clustering>
<clus scale="   21.920">  1  9  2 -1</clus>
<clus scale="   79.440">  5  6 -1 -1</clus>
<clus scale="   90.263">  7  8 -1 -1</clus>
<clus scale="  137.494">  2  5  1 -1</clus>
<clus scale="   21.920">  1  5  2 -1</clus>
</clustering>
</event>
<event>
 9    2  0.2984928E-005  0.1171249E+03  0.7546771E-02  0.1251742E+00
          2   -1    0    0  502    0  0.00000000000E+00  0.00000000000E+00  0.50778229330E+03  0.50778229330E+03  0.00000000000E+00 0. -1.
         -1   -1    0    0    0  501 -0.00000000000E+00 -0.00000000000E+00 -0.13782721637E+03  0.13782721637E+03  0.00000000000E+00 0.  1.
         23    2    1    2    0    0 -0.71113751880E+02  0.18808762224E+02 -0.10279225042E+03  0.15612047796E+03  0.91631990309E+02 0.  0.
         24    2    1    2    0    0  0.66887560513E+02  0.30568798197E+01  0.38282128862E+03  0.39684638798E+03  0.80322016661E+02 0.  0.
        -11    1    4    4    0    0  0.15646508723E+02  0.31131789767E+02  0.65498716473E+02  0.74189510235E+02  0.00000000000E+00 0.  1.
         12    1    4    4    0    0  0.51241051790E+02 -0.28074909947E+02  0.31732257215E+03  0.32265687774E+03  0.00000000000E+00 0. -1.
        -11    1    3    3    0    0 -0.34558403663E+02  0.48854023719E+02 -0.88235518072E+02  0.10661381499E+03  0.00000000000E+00 0.  1.
         11    1    3    3    0    0 -0.36555348217E+02 -0.30045261495E+02 -0.14556732352E+02  0.49506662969E+02  0.00000000000E+00 0. -1.
         21    1    1    2  502  501  0.42261913666E+01 -0.21865642043E+02  0.89926038737E+02  0.92642643736E+02  0.00000000000E+00 0.  1.
<scales pt_clust_5="13000.00000" pt_clust_6="13000.00000" pt_clust_7="13000.00000" pt_clust_8="13000.00000" pt_clust_9="22.27032"></scales>
<clustering>
<clus scale="   22.270">  1  9  2 -1</clus>
<clus scale="   80.322">  5  6 -1 -1</clus>
<clus scale="   91.632">  7  8 -1 -1</clus>
<clus scale="  108.506">  1  5  2 -1</clus>
<clus scale="   22.270">  1  5  2 -1</clus>
</clustering>
</event>
<event>
 9    2  0.2984928E-005  0.9845774E+02  0.7546771E-02  0.1290104E+00
         -1   -1    0    0    0  501 -0.00000000000E+00  0.00000000000E+00  0.49750447452E+02  0.49750447452E+02  0.00000000000E+00 0.  1.
          2   -1    0    0  502    0  0.00000000000E+00 -0.00000000000E+00 -0.40942251909E+03  0.40942251909E+03  0.00000000000E+00 0. -1.
         23    2    1    2    0    0 -0.55988010387E+00  0.39418311334E+02 -0.26667409889E+02  0.10393496697E+03  0.92397023080E+02 0.  0.
         24    2    1    2    0    0 -0.25671615588E+02 -0.11553335853E+02 -0.24359044811E+03  0.25797829659E+03  0.80149757847E+02 0.  0.
        -11    1    4    4    0    0 -0.81511648522E+00 -0.42783962488E+02 -0.96380282097E+02  0.10545278867E+03  0.00000000000E+00 0.  1.
         12    1    4    4    0    0 -0.24856499103E+02  0.31230626635E+02 -0.14721016602E+03  0.15252550792E+03  0.00000000000E+00 0. -1.
        -11    1    3    3    0    0  0.13873112162E+02  0.66312135475E+02 -0.81529723408E+01  0.68236599492E+02  0.00000000000E+00 0.  1.
         11    1    3    3    0    0 -0.14432992266E+02 -0.26893824140E+02 -0.18514437549E+02  0.35698367475E+02  0.00000000000E+00 0. -1.
         21    1    1    2  502  501  0.26231495692E+02 -0.27864975481E+02 -0.89414213633E+02  0.97259702984E+02  0.00000000000E+00 0.  1.
<scales pt_clust_5="13000.00000" pt_clust_6="13000.00000" pt_clust_7="13000.00000" pt_clust_8="13000.00000" pt_clust_9="38.26942"></scales>
<clustering>
<clus scale="   38.269">  2  9  1 -1</clus>
<clus scale="   80.150">  5  6 -1 -1</clus>
<clus scale="   87.067">  2  5  1 -1</clus>
<clus scale="   92.397">  7  8 -1 -1</clus>
<clus scale="   38.269">  2  5  1 -1</clus>
</clustering>
</event>
<event>
 9    2  0.2984928E-005  0.9416540E+02  0.7546771E-02  0.1296359E+00
         -1   -1    0    0    0  501 -0.00000000000E+00  0.00000000000E+00  0.24203041107E+03  0.24203041107E+03  0.00000000000E+00 0.  1.
          2   -1    0    0  502    0  0.00000000000E+00 -0.00000000000E+00 -0.32158394224E+03  0.32158394224E+03  0.00000000000E+00 0. -1.
         23    2    1    2    0    0 -0.22406136406E+02 -0.18374681558E+02  0.21876546036E+03  0.23824607336E+03  0.89795328125E+02 0.  0.
         24    2    1    2    0    0  0.21154052015E+02 -0.99835919529E+01 -0.27550872776E+03  0.28895306988E+03  0.83914548771E+02 0.  0.
        -13    1    4    4    0    0 -0.25448162644E+02 -0.15597557167E+02 -0.47026102144E+02  0.55698716811E+02  0.00000000000E+00 0.  1.
         14    1    4    4    0    0  0.46602214659E+02  0.56139652144E+01 -0.22848262562E+03  0.23325435307E+03  0.00000000000E+00 0. -1.
        -13    1    3    3    0    0  0.33540680215E+02 -0.58923853037E+01  0.11203649122E+03  0.11709770621E+03  0.00000000000E+00 0.  1.
         13    1    3    3    0    0 -0.55946816621E+02 -0.12482296254E+02  0.10672896914E+03  0.12114836715E+03  0.00000000000E+00 0. -1.
         21    1    1    2  502  501  0.12520843915E+01  0.28358273511E+02 -0.22810263760E+02  0.36415210073E+02  0.00000000000E+00 0. -1.
<scales pt_clust_5="13000.00000" pt_clust_6="13000.00000" pt_clust_7="13000.00000" pt_clust_8="13000.00000" pt_clust_9="28.38590"></scales>
<clustering>
<clus scale="   28.386">  2  9  1 -1</clus>
<clus scale="   83.915">  5  6 -1 -1</clus>
<clus scale="   88.575">  2  5  1 -1</clus>
<clus scale="   89.795">  7  8 -1 -1</clus>
<clus scale="   28.386">  2  5  1 -1</clus>
</clustering>
</event>
<event>
 9    2  0.2984928E-005  0.1872611E+03  0.7546771E-02  0.1162591E+00
         -1   -1    0    0    0  501 -0.00000000000E+00  0.00000000000E+00  0.11209619682E+04  0.11209619682E+04  0.00000000000E+00 0.  1.
          2   -1    0    0  502    0  0.00000000000E+00 -0.00000000000E+00 -0.74768326605E+02  0.74768326605E+02  0.00000000000E+00 0. -1.
         23    2    1    2    0    0 -0.45823245775E+02  0.15472999859E+03  0.90606714430E+03  0.92492882406E+03  0.92165705530E+02 0.  0.
         24    2    1    2    0    0  0.66615719231E+02 -0.15806776185E+03  0.15609409422E+03  0.24437361111E+03  0.77006650185E+02 0.  0.
        -13    1    4    4    0    0 -0.12713369800E+02 -0.26785673488E+02  0.49091553331E+02  0.57350524708E+02  0.00000000000E+00 0.  1.
         14    1    4    4    0    0  0.79329089031E+02 -0.13128208836E+03  0.10700254088E+03  0.18702308640E+03  0.00000000000E+00 0. -1.
        -13    1    3    3    0    0  0.17320644394E+02  0.10015577922E+03  0.53809790205E+03  0.54761349237E+03  0.00000000000E+00 0.  1.
         13    1    3    3    0    0 -0.63143890170E+02  0.54574219367E+02  0.36796924225E+03  0.37731533169E+03  0.00000000000E+00 0. -1.
         21    1    1    2  502  501 -0.20792473455E+02  0.33377632562E+01 -0.15967596893E+02  0.26427859665E+02  0.00000000000E+00 0. -1.
<scales pt_clust_5="13000.00000" pt_clust_6="13000.00000" pt_clust_7="13000.00000" pt_clust_8="13000.00000" pt_clust_9="21.05867"></scales>
<clustering>
<clus scale="   21.059">  2  9  1 -1</clus>
<clus scale="   77.007">  5  6 -1 -1</clus>
<clus scale="   92.166">  7  8 -1 -1</clus>
<clus scale="  180.284">  2  5  1 -1</clus>
<clus scale="   21.059">  2  5  1 -1</clus>
</clustering>
</event>
<event>
 9    2  0.2984928E-005  0.1524572E+03  0.7546771E-02  0.1199181E+00
         -1   -1    0    0    0  501 -0.00000000000E+00  0.00000000000E+00  0.11203886357E+03  0.11203886357E+03  0.00000000000E+00 0.  1.
          2   -1    0    0  502    0  0.00000000000E+00 -0.00000000000E+00 -0.46440086131E+03  0.46440086131E+03  0.00000000000E+00 0. -1.
         23    2    1    2    0    0 -0.79350545642E+02 -0.93045659735E+02  0.27309749281E+02  0.15488571407E+03  0.91048108865E+02 0.  0.
         24    2    1    2    0    0  0.98537685188E+02  0.76015414853E+02 -0.26348430280E+03  0.30256788657E+03  0.81457531671E+02 0.  0.
        -11    1    4    4    0    0  0.23194321522E+02 -0.93622801021E+01 -0.10169043437E+03  0.10472140794E+03  0.00000000000E+00 0.  1.
         12    1    4    4    0    0  0.75343363666E+02  0.85377694955E+02 -0.16179386843E+03  0.19784647863E+03  0.00000000000E+00 0. -1.
        -11    1    3    3    0    0 -0.69734114615E+01 -0.66959247550E+02 -0.12170050382E+02  0.68412567751E+02  0.00000000000E+00 0. -1.
         11    1    3    3    0    0 -0.72377134180E+02 -0.26086412185E+02  0.39479799663E+02  0.86473146319E+02  0.00000000000E+00 0.  1.
         21    1    1    2  502  501 -0.19187139547E+02  0.17030244882E+02 -0.11618744422E+03  0.11898612423E+03  0.00000000000E+00 0.  1.
<scales pt_clust_5="13000.00000" pt_clust_6="13000.00000" pt_clust_7="13000.00000" pt_clust_8="13000.00000" pt_clust_9="25.65493"></scales>
<clustering>
<clus scale="   25.655">  2  9  1 -1</clus>
<clus scale="   81.458">  5  6 -1 -1</clus>
<clus scale="   91.048">  7  8 -1 -1</clus>
<clus scale="  146.931">  2  5  1 -1</clus>
<clus scale="   25.655">  2  5  1 -1</clus>
</clustering>
</event>
<event>
 9    2  0.2984928E-005  0.1452335E+03  0.7546771E-02  0.1208520E+00
          2   -1    0    0  502    0  0.00000000000E+00  0.00000000000E+00  0.57777646623E+03  0.57777646623E+03  0.00000000000E+00 0. -1.
         -1   -1    0    0    0  501 -0.00000000000E+00 -0.00000000000E+00 -0.11475493224E+03  0.11475493224E+03  0.00000000000E+00 0.  1.
         23    2    1    2    0    0  0.12086458715E+03  0.10227963357E+02 -0.32116439198E+02  0.15413632506E+03  0.89519167644E+02 0.  0.
         24    2    1    2    0    0 -0.11245292588E+03  0.18688435502E+02  0.48818256199E+03  0.50748727645E+03  0.78906297383E+02 0.  0.
        -13    1    4    4    0    0 -0.48736179467E+02 -0.27018192312E+02  0.26870406378E+03  0.27442133991E+03  0.00000000000E+00 0.  1.
         14    1    4    4    0    0 -0.63716746413E+02  0.45706627814E+02  0.21947849821E+03  0.23306593654E+03  0.00000000000E+00 0. -1.
        -11    1    3    3    0    0  0.33307483573E+02  0.18780002202E+01 -0.54024470620E+02  0.63494557031E+02  0.00000000000E+00 0.  1.
         11    1    3    3    0    0  0.87557103575E+02  0.83499631368E+01  0.21908031422E+02  0.90641768030E+02  0.00000000000E+00 0. -1.
         21    1    1    2  502  501 -0.84116612689E+01 -0.28916398859E+02  0.69554111989E+01  0.30907796965E+02  0.00000000000E+00 0.  1.
<scales pt_clust_5="13000.00000" pt_clust_6="13000.00000" pt_clust_7="13000.00000" pt_clust_8="13000.00000" pt_clust_9="30.11502"></scales>
<clustering>
<clus scale="   30.115">  2  9  1 -1</clus>
<clus scale="   78.906">  5  6 -1 -1</clus>
<clus scale="   89.519">  7  8 -1 -1</clus>
<clus scale="  138.943">  1  5  2 -1</clus>
<clus scale="  138.943">  1  5  2 -1</clus>
</clustering>
</event>
<event>
 9    2  0.2984928E-005  0.2241413E+03  0.7546771E-02  0.1132784E+00
          2   -1    0    0  502    0  0.00000000000E+00  0.00000000000E+00  0.16529630250E+04  0.16529630250E+04  0.00000000000E+00 0. -1.
         -1   -1    0    0    0  501 -0.00000000000E+00 -0.00000000000E+00 -0.41138980488E+02  0.41138980488E+02  0.00000000000E+00 0.  1.
         23    2    1    2    0    0 -0.19657623048E+03 -0.74974508000E+02  0.43830607864E+03  0.49741278827E+03  0.10508982885E+03 0.  0.
         24    2    1    2    0    0  0.16553687789E+03  0.45163019305E+02  0.10087128969E+04  0.10263575495E+04  0.80411160886E+02 0.  0.
        -13    1    4    4    0    0  0.12881306720E+03 -0.93773580999E+00  0.62417718889E+03  0.63733103546E+03  0.00000000000E+00 0.  1.
         14    1    4    4    0    0  0.36723810690E+02  0.46100755115E+02  0.38453570801E+03  0.38902651405E+03  0.00000000000E+00 0. -1.
        -13    1    3    3    0    0 -0.14444776159E+03 -0.55639414013E+02  0.40260899638E+03  0.43134082138E+03  0.00000000000E+00 0. -1.
         13    1    3    3    0    0 -0.52128468882E+02 -0.19335093987E+02  0.35697082258E+02  0.66071966894E+02  0.00000000000E+00 0.  1.
         21    1    1    2  502  501  0.31039352589E+02  0.29811488695E+02  0.16480506900E+03  0.17033166774E+03  0.00000000000E+00 0.  1.
<scales pt_clust_5="13000.00000" pt_clust_6="13000.00000" pt_clust_7="13000.00000" pt_clust_8="13000.00000" pt_clust_9="43.03680"></scales>
<clustering>
<clus scale="   43.037">  1  9  2 -1</clus>
<clus scale="   80.411">  5  6 -1 -1</clus>
<clus scale="  105.090">  7  8 -1 -1</clus>
<clus scale="  213.685">  1  5  2 -1</clus>
<clus scale="   43.037">  1  5  2 -1</clus>
</clustering>
</event>
<event>
 9    2  0.2984928E-005  0.1141545E+03  0.7546771E-02  0.1256681E+00
          2   -1    0    0  502    0  0.00000000000E+00  0.00000000000E+00  0.40744836651E+03  0.40744836651E+03  0.00000000000E+00 0. -1.
         -1   -1    0    0    0  501 -0.00000000000E+00 -0.00000000000E+00 -0.69463432510E+02  0.69463432510E+02  0.00000000000E+00 0.  1.
         24    2    1    2    0    0 -0.45409577160E+02 -0.54837044650E+02 -0.75725495783E+00  0.10730943489E+03  0.80284557777E+02 0.  0.
         23    2    1    2    0    0  0.21814517601E+02  0.62777224612E+02  0.20655187325E+03  0.23508822785E+03  0.90476214671E+02 0.  0.
        -11    1    3    3    0    0 -0.15373001358E+02 -0.20154263255E+02 -0.39718325107E+02  0.47117606554E+02  0.00000000000E+00 0.  1.
         12    1    3    3    0    0 -0.30036575801E+02 -0.34682781395E+02  0.38961070149E+02  0.60191828335E+02  0.00000000000E+00 0. -1.
        -11    1    4    4    0    0  0.30461895903E+02  0.68285175087E+01  0.15630783699E+03  0.15939477927E+03  0.00000000000E+00 0. -1.
         11    1    4    4    0    0 -0.86473783027E+01  0.55948707103E+02  0.50244036258E+02  0.75693448578E+02  0.00000000000E+00 0.  1.
         21    1    1    2  502  501  0.23595059559E+02 -0.79401799625E+01  0.13219031571E+03  0.13451413628E+03  0.00000000000E+00 0. -1.
<scales pt_clust_5="13000.00000" pt_clust_6="13000.00000" pt_clust_7="13000.00000" pt_clust_8="13000.00000" pt_clust_9="24.89525"></scales>
<clustering>
<clus scale="   24.895">  1  9  2 -1</clus>
<clus scale="   80.285">  5  6 -1 -1</clus>
<clus scale="   90.476">  7  8 -1 -1</clus>
<clus scale="  106.259">  2  5  1 -1</clus>
<clus scale="   24.895">  1  5  2 -1</clus>
</clustering>
</event>
<event>
 9    2  0.2984928E-005  0.9427660E+02  0.7546771E-02  0.1301057E+00
          2   -1    0    0  502    0  0.00000000000E+00  0.00000000000E+00  0.26671938327E+03  0.26671938327E+03  0.00000000000E+00 0. -1.
         -1   -1    0    0    0  501 -0.00000000000E+00 -0.00000000000E+00 -0.56069588090E+02  0.56069588090E+02  0.00000000000E+00 0.  1.
         23    2    1    2    0    0 -0.23056428332E+01  0.19674671092E+02  0.11299781008E+02  0.96056884756E+02  0.93310403422E+02 0.  0.
         24    2    1    2    0    0  0.70640016716E+01  0.73286726710E+01  0.15375971944E+03  0.17353154594E+03  0.79796845495E+02 0.  0.
        -13    1    4    4    0    0 -0.13845636752E+02  0.38664212499E+02  0.97803835388E+02  0.10607644980E+03  0.00000000000E+00 0.  1.
         14    1    4    4    0    0  0.20909638423E+02 -0.31335539828E+02  0.55955884057E+02  0.67455096145E+02  0.00000000000E+00 0. -1.
        -11    1    3    3    0    0  0.15379123896E+02 -0.14816020692E+02  0.41664860797E+02  0.46818720040E+02  0.00000000000E+00 0. -1.
         11    1    3    3    0    0 -0.17684766729E+02  0.34490691785E+02 -0.30365079789E+02  0.49238164716E+02  0.00000000000E+00 0.  1.
         21    1    1    2  502  501 -0.47583588384E+01 -0.27003343763E+02  0.45590294722E+02  0.53200540656E+02  0.00000000000E+00 0.  1.
<scales pt_clust_5="13000.00000" pt_clust_6="13000.00000" pt_clust_7="13000.00000" pt_clust_8="13000.00000" pt_clust_9="27.41938"></scales>
<clustering>
<clus scale="   27.419">  1  9  2 -1</clus>
<clus scale="   79.797">  5  6 -1 -1</clus>
<clus scale="   80.925">  1  5  2 -1</clus>
<clus scale="   93.310">  7  8 -1 -1</clus>
<clus scale="   27.419">  1  5  2 -1</clus>
</clustering>
</event>
<event>
 9    2  0.2984928E-005  0.1162164E+03  0.7546771E-02  0.1254849E+00
          2   -1    0    0  502    0  0.00000000000E+00  0.00000000000E+00  0.33135101756E+03  0.33135101756E+03  0.00000000000E+00 0. -1.
         -1   -1    0    0    0  501 -0.00000000000E+00 -0.00000000000E+00 -0.11011714995E+03  0.11011714995E+03  0.00000000000E+00 0.  1.
         24    2    1    2    0    0  0.26655065704E+02 -0.16263807952E+02 -0.50589990558E+02  0.99171589101E+02  0.79376652508E+02 0.  0.
         23    2    1    2    0    0 -0.68184846903E+02 -0.38480223961E+02  0.23320759548E+03  0.26347496018E+03  0.94357676242E+02 0.  0.
        -11    1    3    3    0    0  0.40623058452E+02 -0.37769146033E+02 -0.48079504491E+02  0.73405585769E+02  0.00000000000E+00 0.  1.
         12    1    3    3    0    0 -0.13967992748E+02  0.21505338081E+02 -0.25104860672E+01  0.25766003332E+02  0.00000000000E+00 0. -1.
        -11    1    4    4    0    0 -0.26476346574E+00 -0.52119220452E+02  0.11876307748E+03  0.12969638319E+03  0.00000000000E+00 0.  1.
         11    1    4    4    0    0 -0.67920083438E+02  0.13638996491E+02  0.11444451800E+03  0.13377857699E+03  0.00000000000E+00 0. -1.
         21    1    1    2  502  501  0.41529781199E+02  0.54744031913E+02  0.38616262690E+02  0.78821618232E+02  0.00000000000E+00 0.  1.
<scales pt_clust_5="13000.00000" pt_clust_6="13000.00000" pt_clust_7="13000.00000" pt_clust_8="13000.00000" pt_clust_9="68.71413"></scales>
<clustering>
<clus scale="   68.714">  2  9  1 -1</clus>
<clus scale="   79.377">  5  6 -1 -1</clus>
<clus scale="   94.358">  7  8 -1 -1</clus>
<clus scale="  104.420">  2  5  1 -1</clus>
<clus scale="  116.216">  1  5  2 -1</clus>
</clustering>
</event>
<event>
 9    2  0.2984928E-005  0.9798044E+02  0.7546771E-02  0.1293437E+00
          2   -1    0    0  502    0  0.00000000000E+00  0.00000000000E+00  0.52994854140E+03  0.52994854140E+03  0.00000000000E+00 0. -1.
         -1   -1    0    0    0  501 -0.00000000000E+00 -0.00000000000E+00 -0.71227119687E+02  0.71227119687E+02  0.00000000000E+00 0.  1.
         23    2    1    2    0    0 -0.34579751999E+02  0.11890642359E+01 -0.11037998287E+02  0.10199215795E+03  0.95306819040E+02 0.  0.
         24    2    1    2    0    0 -0.10172747936E+02 -0.84405246173E+01  0.10991377167E+03  0.13649319371E+03  0.79841264207E+02 0.  0.
        -11    1    4    4    0    0 -0.37792564368E+02 -0.27860870278E+02  0.68759607454E+02  0.83260973039E+02  0.00000000000E+00 0.  1.
         12    1    4    4    0    0  0.27619816432E+02  0.19420345660E+02  0.41154164216E+02  0.53232220672E+02  0.00000000000E+00 0. -1.
        -11    1    3    3    0    0  0.35124863049E+01  0.26101691339E+02 -0.40110408162E+02  0.47984171283E+02  0.00000000000E+00 0.  1.
         11    1    3    3    0    0 -0.38092238304E+02 -0.24912627103E+02  0.29072409875E+02  0.54007986669E+02  0.00000000000E+00 0. -1.
         21    1    1    2  502  501  0.44752499935E+02  0.72514603814E+01  0.35984564832E+03  0.36269030942E+03  0.00000000000E+00 0. -1.
<scales pt_clust_5="13000.00000" pt_clust_6="13000.00000" pt_clust_7="13000.00000" pt_clust_8="13000.00000" pt_clust_9="45.33619"></scales>
<clustering>
<clus scale="   45.336">  1  9  2 -1</clus>
<clus scale="   79.841">  5  6 -1 -1</clus>
<clus scale="   83.014">  1  5  2 -1</clus>
<clus scale="   95.307">  7  8 -1 -1</clus>
<clus scale="   45.336">  1  5  2 -1</clus>
</clustering>
</event>
<event>
 9    2  0.2984928E-005  0.1072844E+03  0.7546771E-02  0.1270142E+00
          4   -1    0    0  502    0  0.00000000000E+00  0.00000000000E+00  0.33911908347E+03  0.33911908347E+03  0.00000000000E+00 0. -1.
         -3   -1    0    0    0  501 -0.00000000000E+00 -0.00000000000E+00 -0.16289034761E+03  0.16289034761E+03  0.00000000000E+00 0.  1.
         23    2    1    2    0    0  0.12591800011E+02 -0.60297387316E+02 -0.11490407407E+03  0.15879542030E+03  0.90657106313E+02 0.  0.
         24    2    1    2    0    0 -0.55021861004E+02 -0.48462660136E+00  0.22011427164E+03  0.24055732044E+03  0.79936798701E+02 0.  0.
        -13    1    4    4    0    0 -0.56267464211E+02 -0.32505681395E+02  0.14950907878E+03  0.16302027938E+03  0.00000000000E+00 0.  1.
         14    1    4    4    0    0  0.12456032071E+01  0.32021054794E+02  0.70605192854E+02  0.77537041054E+02  0.00000000000E+00 0. -1.
        -11    1    3    3    0    0 -0.28304352224E+02 -0.30691655494E+02 -0.96349399636E+02  0.10500628973E+03  0.00000000000E+00 0.  1.
         11    1    3    3    0    0  0.40896152235E+02 -0.29605731822E+02 -0.18554674434E+02  0.53789130572E+02  0.00000000000E+00 0. -1.
         21    1    1    2  502  501  0.42430060994E+02  0.60782013918E+02  0.71018538294E+02  0.10265669035E+03  0.00000000000E+00 0. -1.
<scales pt_clust_5="13000.00000" pt_clust_6="13000.00000" pt_clust_7="13000.00000" pt_clust_8="13000.00000" pt_clust_9="74.12667"></scales>
<clustering>
<clus scale="   74.127">  1  9  2 -1</clus>
<clus scale="   79.937">  5  6 -1 -1</clus>
<clus scale="   90.657">  7  8 -1 -1</clus>
<clus scale="   98.393">  1  5  2 -1</clus>
<clus scale="   74.127">  1  5  2 -1</clus>
</clustering>
</event>
<event>
 9    2  0.2984928E-005  0.1042488E+03  0.7546771E-02  0.1272371E+00
         -1   -1    0    0    0  501 -0.00000000000E+00  0.00000000000E+00  0.14602505115E+03  0.14602505115E+03  0.00000000000E+00 0.  1.
          2   -1    0    0  502    0  0.00000000000E+00 -0.00000000000E+00 -0.59291753386E+03  0.59291753386E+03  0.00000000000E+00 0. -1.
         24    2    1    2    0    0 -0.19289120399E+02 -0.48014214114E+02  0.11366430401E+03  0.15558500786E+03  0.92788392269E+02 0.  0.
         23    2    1    2    0    0  0.78676880851E+00 -0.17961333427E+02 -0.31005270080E+03  0.32365119112E+03  0.91072431248E+02 0.  0.
        -13    1    3    3    0    0  0.18734541984E+02 -0.33638124644E+02  0.10785470762E+03  0.11452137115E+03  0.00000000000E+00 0.  1.
         14    1    3    3    0    0 -0.38023662382E+02 -0.14376089470E+02  0.58095963885E+01  0.41063636707E+02  0.00000000000E+00 0. -1.
        -13    1    4    4    0    0 -0.29698658887E+02  0.21367639578E+02 -0.19337296177E+03  0.19680368062E+03  0.00000000000E+00 0.  1.
         13    1    4    4    0    0  0.30485427695E+02 -0.39328973006E+02 -0.11667973903E+03  0.12684751050E+03  0.00000000000E+00 0. -1.
         21    1    1    2  502  501  0.18502351590E+02  0.65975547541E+02 -0.25050408591E+03  0.25970638603E+03  0.00000000000E+00 0. -1.
<scales pt_clust_5="13000.00000" pt_clust_6="13000.00000" pt_clust_7="13000.00000" pt_clust_8="13000.00000" pt_clust_9="68.52087"></scales>
<clustering>
<clus scale="   68.521">  2  9  1 -1</clus>
<clus scale="   91.072">  7  8 -1 -1</clus>
<clus scale="   92.788">  5  6 -1 -1</clus>
<clus scale="  102.724">  2  7  1 -1</clus>
<clus scale="   68.521">  2  5  1 -1</clus>
</clustering>
</event>
<event>
 9    2  0.2984928E-005  0.9407614E+02  0.7546771E-02  0.1298912E+00
         -3   -1    0    0    0  501 -0.00000000000E+00  0.00000000000E+00  0.25471116489E+03  0.25471116489E+03  0.00000000000E+00 0.  1.
          4   -1    0    0  502    0  0.00000000000E+00 -0.00000000000E+00 -0.19046058929E+03  0.19046058929E+03  0.00000000000E+00 0. -1.
         23    2    1    2    0    0 -0.14348228410E+02  0.25176752019E+02  0.22821249584E+03  0.24705037222E+03  0.90073318228E+02 0.  0.
         24    2    1    2    0    0 -0.52223697647E+01 -0.94065553090E+01 -0.95611368529E+02  0.12529621230E+03  0.80261140007E+02 0.  0.
        -11    1    4    4    0    0 -0.48009156244E+01  0.25097585182E+02 -0.21204435822E+01  0.25640472964E+02  0.00000000000E+00 0.  1.
         12    1    4    4    0    0 -0.42145414031E+00 -0.34504140491E+02 -0.93490924947E+02  0.99655739333E+02  0.00000000000E+00 0. -1.
        -11    1    3    3    0    0  0.18700575861E+02  0.34557028376E+02  0.41293057449E+02  0.57000143344E+02  0.00000000000E+00 0.  1.
         11    1    3    3    0    0 -0.33048804270E+02 -0.93802763567E+01  0.18691943839E+03  0.19005022888E+03  0.00000000000E+00 0. -1.
         21    1    1    2  502  501  0.19570598174E+02 -0.15770196710E+02 -0.68350551711E+02  0.72825169663E+02  0.00000000000E+00 0. -1.
<scales pt_clust_5="13000.00000" pt_clust_6="13000.00000" pt_clust_7="13000.00000" pt_clust_8="13000.00000" pt_clust_9="25.13379"></scales>
<clustering>
<clus scale="   25.134">  2  9  1 -1</clus>
<clus scale="   80.261">  5  6 -1 -1</clus>
<clus scale="   84.729">  2  5  1 -1</clus>
<clus scale="   90.073">  7  8 -1 -1</clus>
<clus scale="   25.134">  2  5  1 -1</clus>
</clustering>
</event>
<event>
 9    2  0.2984928E-005  0.1103858E+03  0.7546771E-02  0.1265928E+00
          2   -1    0    0  502    0  0.00000000000E+00  0.00000000000E+00  0.37223682851E+03  0.37223682851E+03  0.00000000000E+00 0. -1.
         -1   -1    0    0    0  501 -0.00000000000E+00 -0.00000000000E+00 -0.78566505989E+02  0.78566505989E+02  0.00000000000E+00 0.  1.
         24    2    1    2    0    0  0.55033241917E+02 -0.21906848692E+02 -0.19707884825E+02  0.99125881121E+02  0.76999817196E+02 0.  0.
         23    2    1    2    0    0 -0.49524452144E+02  0.56185304357E+02  0.19526362338E+03  0.22856606384E+03  0.92223116080E+02 0.  0.
        -11    1    3    3    0    0  0.36459016056E+02 -0.47844932205E+02  0.25806879137E+01  0.60208449071E+02  0.00000000000E+00 0.  1.
         12    1    3    3    0    0  0.18574225862E+02  0.25938083512E+02 -0.22288572739E+02  0.38917432050E+02  0.00000000000E+00 0. -1.
        -13    1    4    4    0    0 -0.43007950341E+02 -0.24964089347E+01  0.14422461077E+03  0.15052127492E+03  0.00000000000E+00 0. -1.
         13    1    4    4    0    0 -0.65165018026E+01  0.58681713292E+02  0.51039012606E+02  0.78044788925E+02  0.00000000000E+00 0.  1.
         21    1    1    2  502  501 -0.55087897738E+01 -0.34278455665E+02  0.11811458397E+03  0.12311138954E+03  0.00000000000E+00 0. -1.
<scales pt_clust_5="13000.00000" pt_clust_6="13000.00000" pt_clust_7="13000.00000" pt_clust_8="13000.00000" pt_clust_9="34.71828"></scales>
<clustering>
<clus scale="   34.718">  1  9  2 -1</clus>
<clus scale="   77.000">  5  6 -1 -1</clus>
<clus scale="   92.223">  7  8 -1 -1</clus>
<clus scale="   98.025">  2  5  1 -1</clus>
<clus scale="   34.718">  1  5  2 -1</clus>
</clustering>
</event>
<event>
 9    2  0.2984928E-005  0.9671960E+02  0.7546771E-02  0.1292618E+00
          4   -1    0    0  502    0  0.00000000000E+00  0.00000000000E+00  0.91495053224E+02  0.91495053224E+02  0.00000000000E+00 0. -1.
         -3   -1    0    0    0  501 -0.00000000000E+00 -0.00000000000E+00 -0.28360897262E+03  0.28360897262E+03  0.00000000000E+00 0.  1.
         23    2    1    2    0    0 -0.20878475507E+02 -0.14937229523E+02 -0.22909523766E+03  0.24772850101E+03  0.90695924548E+02 0.  0.
         24    2    1    2    0    0  0.10929707621E+02  0.33178183306E+02  0.51440017203E+02  0.10206220122E+03  0.80934338765E+02 0.  0.
        -11    1    4    4    0    0  0.39594399752E+02 -0.21568754443E+01  0.37239084605E+02  0.54397775925E+02  0.00000000000E+00 0.  1.
         12    1    4    4    0    0 -0.28664692131E+02  0.35335058750E+02  0.14200932598E+02  0.47664425292E+02  0.00000000000E+00 0. -1.
        -11    1    3    3    0    0  0.28607175607E+02 -0.99987356923E+01 -0.15852510740E+03  0.16139564706E+03  0.00000000000E+00 0.  1.
         11    1    3    3    0    0 -0.49485651114E+02 -0.49384938307E+01 -0.70570130257E+02  0.86332853955E+02  0.00000000000E+00 0. -1.
         21    1    1    2  502  501  0.99487678862E+01 -0.18240953783E+02 -0.14458698937E+02  0.25313323612E+02  0.00000000000E+00 0.  1.
<scales pt_clust_5="13000.00000" pt_clust_6="13000.00000" pt_clust_7="13000.00000" pt_clust_8="13000.00000" pt_clust_9="20.77764"></scales>
<clustering>
<clus scale="   20.778">  2  9  1 -1</clus>
<clus scale="   80.934">  5  6 -1 -1</clus>
<clus scale="   87.632">  1  5  2 -1</clus>
<clus scale="   90.696">  7  8 -1 -1</clus>
<clus scale="   87.632">  1  5  2 -1</clus>
</clustering>
</event>
<event>
 9    2  0.2984928E-005  0.1265991E+03  0.7546771E-02  0.1238368E+00
         -1   -1    0    0    0  501 -0.00000000000E+00  0.00000000000E+00  0.31794569954E+03  0.31794569954E+03  0.00000000000E+00 0.  1.
          2   -1    0    0  502    0  0.00000000000E+00 -0.00000000000E+00 -0.10477691518E+03  0.10477691518E+03  0.00000000000E+00 0. -1.
         24    2    1    2    0    0  0.62900948198E+02  0.51629119778E+02  0.20285356069E+03  0.22959035172E+03  0.70285611806E+02 0.  0.
         23    2    1    2    0    0 -0.93060558853E+02 -0.78644662984E+02  0.11573632624E+02  0.15262269273E+03  0.91183807420E+02 0.  0.
        -11    1    3    3    0    0  0.46044168920E+02 -0.55299758698E+01  0.10847232156E+03  0.11796987187E+03  0.00000000000E+00 0.  1.
         12    1    3    3    0    0  0.16856779278E+02  0.57159095648E+02  0.94381239130E+02  0.11162047985E+03  0.00000000000E+00 0. -1.
        -11    1    4    4    0    0 -0.63090562187E+02 -0.20701454559E+02 -0.32467522650E+02  0.73912849255E+02  0.00000000000E+00 0. -1.
         11    1    4    4    0    0 -0.29969996666E+02 -0.57943208425E+02  0.44041155274E+02  0.78709843480E+02  0.00000000000E+00 0.  1.
         21    1    1    2  502  501  0.30159610656E+02  0.27015543206E+02 -0.12584089521E+01  0.40509570261E+02  0.00000000000E+00 0.  1.
<scales pt_clust_5="13000.00000" pt_clust_6="13000.00000" pt_clust_7="13000.00000" pt_clust_8="13000.00000" pt_clust_9="40.49002"></scales>
<clustering>
<clus scale="   40.490">  2  9  1 -1</clus>
<clus scale="   70.286">  5  6 -1 -1</clus>
<clus scale="   91.184">  7  8 -1 -1</clus>
<clus scale="  112.485">  1  5  2 -1</clus>
<clus scale="   40.490">  2  5  1 -1</clus>
</clustering>
</event>
<event>
 9    2  0.2984928E-005  0.1814820E+03  0.7546771E-02  0.1202634E+00
         -1   -1    0    0    0  501 -0.00000000000E+00  0.00000000000E+00  0.15556288586E+03  0.15556288586E+03  0.00000000000E+00 0.  1.
          2   -1    0    0  502    0  0.00000000000E+00 -0.00000000000E+00 -0.43465419472E+03  0.43465419472E+03  0.00000000000E+00 0. -1.
         23    2    1    2    0    0 -0.17286207457E+01 -0.42676783308E+01  0.64799852359E+02  0.10359249766E+03  0.80691904784E+02 0.  0.
         24    2    1    2    0    0  0.48142840392E+02  0.15797597729E+03 -0.18026710667E+03  0.25737940372E+03  0.80459836131E+02 0.  0.
        -11    1    4    4    0    0  0.44682451724E+02  0.31667933151E+02 -0.35694858165E+02  0.65372030575E+02  0.00000000000E+00 0.  1.
         12    1    4    4    0    0  0.34603886678E+01  0.12630804414E+03 -0.14457224850E+03  0.19200737315E+03  0.00000000000E+00 0. -1.
        -11    1    3    3    0    0 -0.32294993664E+02  0.17350042761E+02  0.52797553094E+02  0.64277307133E+02  0.00000000000E+00 0.  1.
         11    1    3    3    0    0  0.30566372918E+02 -0.21617721092E+02  0.12002299265E+02  0.39315190527E+02  0.00000000000E+00 0. -1.
         21    1    1    2  502  501 -0.46414219646E+02 -0.15370829896E+03 -0.16362405455E+03  0.22924517919E+03  0.00000000000E+00 0.  1.
<scales pt_clust_5="13000.00000" pt_clust_6="13000.00000" pt_clust_7="13000.00000" pt_clust_8="13000.00000" pt_clust_9="162.67127"></scales>
<clustering>
<clus scale="   80.460">  5  6 -1 -1</clus>
<clus scale="   80.692">  7  8 -1 -1</clus>
<clus scale="   80.823">  1  7  2 -1</clus>
<clus scale="  162.671">  2  9  1 -1</clus>
<clus scale="  162.671">  2  5  1 -1</clus>
</clustering>
</event>
<event>
 9    2  0.2984928E-005  0.9703410E+02  0.7546771E-02  0.1293250E+00
          2   -1    0    0  502    0  0.00000000000E+00  0.00000000000E+00  0.46774813584E+03  0.46774813584E+03  0.00000000000E+00 0. -1.
         -1   -1    0    0    0  501 -0.00000000000E+00 -0.00000000000E+00 -0.50050188875E+02  0.50050188875E+02  0.00000000000E+00 0.  1.
         23    2    1    2    0    0 -0.25674201177E+02 -0.37679324003E+01  0.17691087448E+02  0.97424669645E+02  0.92223802566E+02 0.  0.
         24    2    1    2    0    0  0.24069702130E+02 -0.20617635111E+02  0.37719110296E+03  0.38694030245E+03  0.80282202695E+02 0.  0.
        -11    1    4    4    0    0  0.32945253032E+02 -0.43157017451E+02  0.17306682273E+03  0.18138368996E+03  0.00000000000E+00 0.  1.
         12    1    4    4    0    0 -0.88755509020E+01  0.22539382340E+02  0.20412428023E+03  0.20555661249E+03  0.00000000000E+00 0. -1.
        -11    1    3    3    0    0 -0.30563768118E+02  0.37726686108E+02 -0.67481643357E+01  0.49020245697E+02  0.00000000000E+00 0. -1.
         11    1    3    3    0    0  0.48895669416E+01 -0.41494618508E+02  0.24439251784E+02  0.48404423948E+02  0.00000000000E+00 0.  1.
         21    1    1    2  502  501  0.16044990466E+01  0.24385567512E+02  0.22815756556E+02  0.33433352618E+02  0.00000000000E+00 0.  1.
<scales pt_clust_5="13000.00000" pt_clust_6="13000.00000" pt_clust_7="13000.00000" pt_clust_8="13000.00000" pt_clust_9="24.43830"></scales>
<clustering>
<clus scale="   24.438">  2  9  1 -1</clus>
<clus scale="   80.282">  5  6 -1 -1</clus>
<clus scale="   85.765">  1  5  2 -1</clus>
<clus scale="   92.224">  7  8 -1 -1</clus>
<clus scale="   85.765">  1  5  2 -1</clus>
</clustering>
</event>
<event>
 9    2  0.2984928E-005  0.1821035E+03  0.7546771E-02  0.1194552E+00
          2   -1    0    0  502    0  0.00000000000E+00  0.00000000000E+00  0.12196212131E+04  0.12196212131E+04  0.00000000000E+00 0. -1.
         -1   -1    0    0    0  501 -0.00000000000E+00 -0.00000000000E+00 -0.93332256891E+02  0.93332256891E+02  0.00000000000E+00 0.  1.
         23    2    1    2    0    0 -0.91332628036E+01  0.22040104261E+02  0.14228115112E+03  0.17129760262E+03  0.92356699890E+02 0.  0.
         24    2    1    2    0    0 -0.14168846650E+03 -0.86801574003E+02  0.46221483963E+02  0.18961362772E+03  0.78783040364E+02 0.  0.
        -11    1    4    4    0    0 -0.14191403335E+03 -0.94261760798E+02  0.31706495285E+02  0.17329216443E+03  0.00000000000E+00 0.  1.
         12    1    4    4    0    0  0.22556685447E+00  0.74601867951E+01  0.14514988678E+02  0.16321463285E+02  0.00000000000E+00 0. -1.
        -13    1    3    3    0    0 -0.29061261392E+02 -0.74744650310E+01  0.13032033994E+03  0.13373038377E+03  0.00000000000E+00 0. -1.
         13    1    3    3    0    0  0.19927998588E+02  0.29514569292E+02  0.11960811182E+02  0.37567218853E+02  0.00000000000E+00 0.  1.
         21    1    1    2  502  501  0.15082172930E+03  0.64761469741E+02  0.93778632116E+03  0.95204223969E+03  0.00000000000E+00 0. -1.
<scales pt_clust_5="13000.00000" pt_clust_6="13000.00000" pt_clust_7="13000.00000" pt_clust_8="13000.00000" pt_clust_9="164.17951"></scales>
<clustering>
<clus scale="   78.783">  5  6 -1 -1</clus>
<clus scale="   92.357">  7  8 -1 -1</clus>
<clus scale="   95.388">  2  7  1 -1</clus>
<clus scale="  164.180">  1  9  2 -1</clus>
<clus scale="  164.180">  1  5  2 -1</clus>
</clustering>
</event>
<event>
 9    2  0.2984928E-005  0.9154209E+02  0.7546771E-02  0.1306658E+00
          2   -1    0    0  502    0  0.00000000000E+00  0.00000000000E+00  0.34788466635E+03  0.34788466635E+03  0.00000000000E+00 0. -1.
         -1   -1    0    0    0  501 -0.00000000000E+00 -0.00000000000E+00 -0.70072274679E+02  0.70072274679E+02  0.00000000000E+00 0.  1.
         24    2    1    2    0    0  0.41635340045E+02 -0.20862853005E+02 -0.25918152431E+02  0.93870355739E+02  0.77273105832E+02 0.  0.
         23    2    1    2    0    0 -0.60419655610E+02  0.29220825703E+02  0.23540752178E+03  0.25273715223E+03  0.62888594895E+02 0.  0.
        -11    1    3    3    0    0  0.49182881128E+02  0.14522266227E+02 -0.26415962007E+02  0.57685830679E+02  0.00000000000E+00 0.  1.
         12    1    3    3    0    0 -0.75475410826E+01 -0.35385119232E+02  0.49780957573E+00  0.36184525060E+02  0.00000000000E+00 0. -1.
        -13    1    4    4    0    0 -0.19540473301E+02  0.23912831823E+02  0.29373843167E+02  0.42620139430E+02  0.00000000000E+00 0.  1.
         13    1    4    4    0    0 -0.40879182309E+02  0.53079938802E+01  0.20603367861E+03  0.21011701280E+03  0.00000000000E+00 0. -1.
         21    1    1    2  502  501  0.18784315565E+02 -0.83579726974E+01  0.68323022321E+02  0.71349433059E+02  0.00000000000E+00 0.  1.
<scales pt_clust_5="13000.00000" pt_clust_6="13000.00000" pt_clust_7="13000.00000" pt_clust_8="13000.00000" pt_clust_9="20.55982"></scales>
<clustering>
<clus scale="   20.560">  1  9  2 -1</clus>
<clus scale="   62.889">  7  8 -1 -1</clus>
<clus scale="   77.273">  5  6 -1 -1</clus>
<clus scale="   79.773">  1  7  2 -1</clus>
<clus scale="   20.560">  1  5  2 -1</clus>
</clustering>
</event>
<event>
 9    2  0.2984928E-005  0.1069620E+03  0.7546771E-02  0.1266944E+00
         -3   -1    0    0    0  501 -0.00000000000E+00  0.00000000000E+00  0.79021544916E+02  0.79021544916E+02  0.00000000000E+00 0.  1.
          4   -1    0    0  502    0  0.00000000000E+00 -0.00000000000E+00 -0.28777779998E+03  0.28777779998E+03  0.00000000000E+00 0. -1.
         24    2    1    2    0    0  0.39343208601E+01  0.58577557707E+02 -0.41487205970E-01  0.10881902792E+03  0.91622977295E+02 0.  0.
         23    2    1    2    0    0  0.19050880335E+02 -0.48567080877E+02 -0.20692581318E+03  0.23284608775E+03  0.93152085506E+02 0.  0.
        -11    1    3    3    0    0 -0.49747804667E+00 -0.24251213386E+02  0.78557207062E+01  0.25496689646E+02  0.00000000000E+00 0.  1.
         12    1    3    3    0    0  0.44317989067E+01  0.82828771094E+02 -0.78972079122E+01  0.83322338273E+02  0.00000000000E+00 0. -1.
        -13    1    4    4    0    0 -0.24338513556E+02 -0.48763490922E+02 -0.15955855744E+03  0.16860953278E+03  0.00000000000E+00 0. -1.
         13    1    4    4    0    0  0.43389393890E+02  0.19641004536E+00 -0.47367255732E+02  0.64236554972E+02  0.00000000000E+00 0.  1.
         21    1    1    2  502  501 -0.22985201195E+02 -0.10010476830E+02 -0.17889546859E+01  0.25134229234E+02  0.00000000000E+00 0. -1.
<scales pt_clust_5="13000.00000" pt_clust_6="13000.00000" pt_clust_7="13000.00000" pt_clust_8="13000.00000" pt_clust_9="25.07048"></scales>
<clustering>
<clus scale="   25.070">  1  9  2 -1</clus>
<clus scale="   91.623">  5  6 -1 -1</clus>
<clus scale="   93.152">  7  8 -1 -1</clus>
<clus scale="  105.633">  1  5  2 -1</clus>
<clus scale="  106.962">  2  5  1 -1</clus>
</clustering>
</event>
<event>
 9    2  0.2984928E-005  0.2560319E+03  0.7546771E-02  0.1132534E+00
          2   -1    0    0  502    0  0.00000000000E+00  0.00000000000E+00  0.74508428969E+03  0.74508428969E+03  0.00000000000E+00 0. -1.
         -1   -1    0    0    0  501 -0.00000000000E+00 -0.00000000000E+00 -0.77554426043E+03  0.77554426043E+03  0.00000000000E+00 0.  1.
         23    2    1    2    0    0  0.20792016761E+03  0.12687162463E+03 -0.69145312109E+03  0.73859961142E+03  0.89970895716E+02 0.  0.
         24    2    1    2    0    0 -0.11697485851E+03 -0.11831307997E+02  0.48436561563E+02  0.15216316080E+03  0.83572900132E+02 0.  0.
        -11    1    4    4    0    0 -0.40524342727E+02  0.23648898916E+02 -0.12025555110E+02  0.48436626112E+02  0.00000000000E+00 0.  1.
         12    1    4    4    0    0 -0.76450515785E+02 -0.35480206913E+02  0.60462116673E+02  0.10372653469E+03  0.00000000000E+00 0. -1.
        -11    1    3    3    0    0  0.18578685158E+03  0.91565383961E+02 -0.47535253925E+03  0.51851809065E+03  0.00000000000E+00 0.  1.
         11    1    3    3    0    0  0.22133316028E+02  0.35306240674E+02 -0.21610058184E+03  0.22008152077E+03  0.00000000000E+00 0. -1.
         21    1    1    2  502  501 -0.90945309096E+02 -0.11504031664E+03  0.61255658880E+03  0.62986577790E+03  0.00000000000E+00 0. -1.
<scales pt_clust_5="13000.00000" pt_clust_6="13000.00000" pt_clust_7="13000.00000" pt_clust_8="13000.00000" pt_clust_9="239.70304"></scales>
<clustering>
<clus scale="   83.573">  5  6 -1 -1</clus>
<clus scale="   89.971">  7  8 -1 -1</clus>
<clus scale="  144.248">  1  5  2 -1</clus>
<clus scale="  239.703">  1  9  2 -1</clus>
<clus scale="  144.248">  1  5  2 -1</clus>
</clustering>
</event>
<event>
 9    2  0.2984928E-005  0.1028952E+03  0.7546771E-02  0.1278931E+00
          2   -1    0    0  502    0  0.00000000000E+00  0.00000000000E+00  0.48067671113E+03  0.48067671113E+03  0.00000000000E+00 0. -1.
         -1   -1    0    0    0  501 -0.00000000000E+00 -0.00000000000E+00 -0.62164082495E+02  0.62164082495E+02  0.00000000000E+00 0.  1.
         23    2    1    2    0    0  0.31418062328E+02  0.50102512884E+02  0.65075542525E+01  0.10645868852E+03  0.88282204672E+02 0.  0.
         24    2    1    2    0    0 -0.65068028142E+00 -0.15340171611E+02  0.35007178043E+03  0.35898194316E+03  0.77987433691E+02 0.  0.
        -11    1    4    4    0    0 -0.13093480927E+02  0.29368797926E+02  0.17081643665E+03  0.17381662914E+03  0.00000000000E+00 0.  1.
         12    1    4    4    0    0  0.12442800645E+02 -0.44708969537E+02  0.17925534377E+03  0.18516531402E+03  0.00000000000E+00 0. -1.
        -13    1    3    3    0    0 -0.18248642602E+02  0.50721768985E+02 -0.84993953852E+01  0.54570601313E+02  0.00000000000E+00 0.  1.
         13    1    3    3    0    0  0.49666704931E+02 -0.61925610050E+00  0.15006949638E+02  0.51888087209E+02  0.00000000000E+00 0. -1.
         21    1    1    2  502  501 -0.30767382047E+02 -0.34762341273E+02  0.61933293958E+02  0.77400161946E+02  0.00000000000E+00 0. -1.
<scales pt_clust_5="13000.00000" pt_clust_6="13000.00000" pt_clust_7="13000.00000" pt_clust_8="13000.00000" pt_clust_9="46.42254"></scales>
<clustering>
<clus scale="   46.423">  1  9  2 -1</clus>
<clus scale="   77.987">  5  6 -1 -1</clus>
<clus scale="   88.282">  7  8 -1 -1</clus>
<clus scale="   94.211">  1  5  2 -1</clus>
<clus scale="   46.423">  1  5  2 -1</clus>
</clustering>
</event>
<event>
 9    2  0.2984928E-005  0.1488311E+03  0.7546771E-02  0.1232732E+00
         -1   -1    0    0    0  501 -0.00000000000E+00  0.00000000000E+00  0.10315227827E+03  0.10315227827E+03  0.00000000000E+00 0.  1.
          2   -1    0    0  502    0  0.00000000000E+00 -0.00000000000E+00 -0.81486478202E+03  0.81486478202E+03  0.00000000000E+00 0. -1.
         24    2    1    2    0    0  0.19734919302E+02  0.23223130377E+02  0.58627956041E+02  0.97332071467E+02  0.71466874020E+02 0.  0.
         23    2    1    2    0    0  0.33124823675E+02 -0.12093849241E+03 -0.58187999738E+03  0.60191618325E+03  0.89416930223E+02 0.  0.
        -13    1    3    3    0    0  0.24679241686E+02  0.37698238663E+02  0.97288187582E+01  0.46096334811E+02  0.00000000000E+00 0.  1.
         14    1    3    3    0    0 -0.49443223840E+01 -0.14475108287E+02  0.48899137283E+02  0.51235736656E+02  0.00000000000E+00 0. -1.
        -13    1    4    4    0    0  0.10318314238E+02 -0.11782945377E+03 -0.55012287224E+03  0.56269478614E+03  0.00000000000E+00 0. -1.
         13    1    4    4    0    0  0.22806509437E+02 -0.31090386446E+01 -0.31757125144E+02  0.39221397112E+02  0.00000000000E+00 0.  1.
         21    1    1    2  502  501 -0.52859742977E+02  0.97715362036E+02 -0.18846046240E+03  0.21876880558E+03  0.00000000000E+00 0. -1.
<scales pt_clust_5="13000.00000" pt_clust_6="13000.00000" pt_clust_7="13000.00000" pt_clust_8="13000.00000" pt_clust_9="118.97604"></scales>
<clustering>
<clus scale="   71.467">  5  6 -1 -1</clus>
<clus scale="   77.694">  1  5  2 -1</clus>
<clus scale="   89.417">  7  8 -1 -1</clus>
<clus scale="  118.976">  1  9  2 -1</clus>
<clus scale="  148.831">  2  5  1 -1</clus>
</clustering>
</event>
<event>
 9    2  0.2984928E-005  0.1788515E+03  0.7546771E-02  0.1174550E+00
          4   -1    0    0  502    0  0.00000000000E+00  0.00000000000E+00  0.51441892759E+03  0.51441892759E+03  0.00000000000E+00 0. -1.
         -3   -1    0    0    0  501 -0.00000000000E+00 -0.00000000000E+00 -0.15433990089E+03  0.15433990089E+03  0.00000000000E+00 0.  1.
         23    2    1    2    0    0  0.14219484585E+03  0.28273646878E+02  0.17392192531E+01  0.18605098374E+03  0.11658975243E+03 0.  0.
         24    2    1    2    0    0 -0.12846444429E+03  0.34601674432E+02  0.43082715872E+02  0.16094882972E+03  0.79674437930E+02 0.  0.
        -11    1    4    4    0    0 -0.49499835014E+02  0.30000198377E-01  0.54923977248E+02  0.73938338114E+02  0.00000000000E+00 0.  1.
         12    1    4    4    0    0 -0.78964609279E+02  0.34571674233E+02 -0.11841261376E+02  0.87010491603E+02  0.00000000000E+00 0. -1.
        -11    1    3    3    0    0  0.12664440489E+03 -0.18729732254E+02 -0.23998261380E+02  0.13025177431E+03  0.00000000000E+00 0.  1.
         11    1    3    3    0    0  0.15550440957E+02  0.47003379132E+02  0.25737480633E+02  0.55799209431E+02  0.00000000000E+00 0. -1.
         21    1    1    2  502  501 -0.13730401555E+02 -0.62875321310E+02  0.31525709158E+03  0.32175901502E+03  0.00000000000E+00 0. -1.
<scales pt_clust_5="13000.00000" pt_clust_6="13000.00000" pt_clust_7="13000.00000" pt_clust_8="13000.00000" pt_clust_9="64.35705"></scales>
<clustering>
<clus scale="   64.357">  1  9  2 -1</clus>
<clus scale="   79.674">  5  6 -1 -1</clus>
<clus scale="  116.590">  7  8 -1 -1</clus>
<clus scale="  157.298">  1  5  2 -1</clus>
<clus scale="   64.357">  1  5  2 -1</clus>
</clustering>
</event>
<event>
 9    2  0.2984928E-005  0.1088894E+03  0.7546771E-02  0.1267717E+00
          4   -1    0    0  502    0  0.00000000000E+00  0.00000000000E+00  0.68912420347E+02  0.68912420347E+02  0.00000000000E+00 0. -1.
         -3   -1    0    0    0  501 -0.00000000000E+00 -0.00000000000E+00 -0.27896659057E+03  0.27896659057E+03  0.00000000000E+00 0.  1.
         24    2    1    2    0    0  0.54191046600E+02  0.12233203313E+01 -0.14387658715E+03  0.17296546192E+03  0.79236435074E+02 0.  0.
         23    2    1    2    0    0 -0.69055829390E+02 -0.37378558816E+02 -0.37426528613E+02  0.12638740996E+03  0.91690610861E+02 0.  0.
        -11    1    3    3    0    0  0.28749316099E+02 -0.19778602478E+01 -0.14447022205E+03  0.14731625900E+03  0.00000000000E+00 0.  1.
         12    1    3    3    0    0  0.25441730501E+02  0.32011805791E+01  0.59363489966E+00  0.25649202918E+02  0.00000000000E+00 0. -1.
        -11    1    4    4    0    0 -0.16299615837E+02 -0.53425289967E+02  0.60276508798E+01  0.56180705403E+02  0.00000000000E+00 0.  1.
         11    1    4    4    0    0 -0.52756213553E+02  0.16046731151E+02 -0.43454179492E+02  0.70206704555E+02  0.00000000000E+00 0. -1.
         21    1    1    2  502  501  0.14864782790E+02  0.36155238485E+02 -0.28751054458E+02  0.48526139036E+02  0.00000000000E+00 0.  1.
<scales pt_clust_5="13000.00000" pt_clust_6="13000.00000" pt_clust_7="13000.00000" pt_clust_8="13000.00000" pt_clust_9="39.09173"></scales>
<clustering>
<clus scale="   39.092">  1  9  2 -1</clus>
<clus scale="   79.236">  5  6 -1 -1</clus>
<clus scale="   91.691">  7  8 -1 -1</clus>
<clus scale="   98.631">  2  5  1 -1</clus>
<clus scale="   39.092">  1  5  2 -1</clus>
</clustering>
</event>
<event>
 9    2  0.2984928E-005  0.1837415E+03  0.7546771E-02  0.1192649E+00
         -1   -1    0    0    0  501 -0.00000000000E+00  0.00000000000E+00  0.25278400486E+03  0.25278400486E+03  0.00000000000E+00 0.  1.
          2   -1    0    0  502    0  0.00000000000E+00 -0.00000000000E+00 -0.68504881662E+03  0.68504881662E+03  0.00000000000E+00 0. -1.
         23    2    1    2    0    0 -0.42918731050E+01 -0.37716397681E+02  0.17831825335E+03  0.20290923820E+03  0.89071952056E+02 0.  0.
         24    2    1    2    0    0  0.16831403589E+03  0.39563202472E+02 -0.13979593529E+03  0.23637849788E+03  0.80231097898E+02 0.  0.
        -11    1    4    4    0    0  0.59345927755E+02  0.51266600930E-02 -0.64636303352E+01  0.59696881698E+02  0.00000000000E+00 0.  1.
         12    1    4    4    0    0  0.10896810813E+03  0.39558075812E+02 -0.13333230496E+03  0.17668161618E+03  0.00000000000E+00 0. -1.
        -13    1    3    3    0    0  0.16082951067E+01  0.25204184225E+02  0.19275833993E+02  0.31770981913E+02  0.00000000000E+00 0. -1.
         13    1    3    3    0    0 -0.59001682116E+01 -0.62920581907E+02  0.15904241935E+03  0.17113825629E+03  0.00000000000E+00 0.  1.
         21    1    1    2  502  501 -0.16402216278E+03 -0.18468047910E+01 -0.47078712981E+03  0.49854508539E+03  0.00000000000E+00 0. -1.
<scales pt_clust_5="13000.00000" pt_clust_6="13000.00000" pt_clust_7="13000.00000" pt_clust_8="13000.00000" pt_clust_9="165.29942"></scales>
<clustering>
<clus scale="   80.231">  5  6 -1 -1</clus>
<clus scale="   89.072">  7  8 -1 -1</clus>
<clus scale="   96.823">  1  7  2 -1</clus>
<clus scale="  165.299">  2  9  1 -1</clus>
<clus scale="  165.299">  2  5  1 -1</clus>
</clustering>
</event>
<event>
 9    2  0.4464706E-005  0.1196964E+03  0.7546771E-02  0.1247980E+00
          2   -1    0    0  502    0  0.00000000000E+00  0.00000000000E+00  0.86673597612E+03  0.86673597612E+03  0.00000000000E+00 0. -1.
         -1   -1    0    0    0  501 -0.00000000000E+00 -0.00000000000E+00 -0.24069617597E+03  0.24069617597E+03  0.00000000000E+00 0.  1.
         23    2    1    2    0    0  0.56474235968E+02  0.43587057902E+02 -0.21335480203E+03  0.24305363888E+03  0.92008852186E+02 0.  0.
         24    2    1    2    0    0 -0.74895554967E+02 -0.16773711594E+02  0.81825960609E+03  0.82558433074E+03  0.78421952624E+02 0.  0.
        -13    1    4    4    0    0 -0.69918336860E+02  0.48744919022E+01  0.35841707417E+03  0.36520560450E+03  0.00000000000E+00 0.  1.
         14    1    4    4    0    0 -0.49772181069E+01 -0.21648203496E+02  0.45984253192E+03  0.46037872624E+03  0.00000000000E+00 0. -1.
        -13    1    3    3    0    0  0.80472600872E+02  0.27444586732E+02 -0.13512976830E+03  0.15965305858E+03  0.00000000000E+00 0. -1.
         13    1    3    3    0    0 -0.23998364904E+02  0.16142471169E+02 -0.78225033728E+02  0.83400580305E+02  0.00000000000E+00 0.  1.
         21    1    1    2  502  501  0.18421318999E+02 -0.26813346308E+02  0.21134996089E+02  0.38794182471E+02  0.00000000000E+00 0. -1.
<scales pt_clust_5="13000.00000" pt_clust_6="13000.00000" pt_clust_7="13000.00000" pt_clust_8="13000.00000" pt_clust_9="32.53153"></scales>
<clustering>
<clus scale="   32.532">  2  9  1 -1</clus>
<clus scale="   78.422">  5  6 -1 -1</clus>
<clus scale="   92.009">  7  8 -1 -1</clus>
<clus scale="  109.597">  1  5  2 -1</clus>
<clus scale="  109.597">  1  5  2 -1</clus>
</clustering>
</event>
<event>
 9    2  0.2984928E-005  0.9343259E+02  0.7546771E-02  0.1298282E+00
          2   -1    0    0  502    0  0.00000000000E+00  0.00000000000E+00  0.14566454844E+03  0.14566454844E+03  0.00000000000E+00 0. -1.
         -1   -1    0    0    0  501 -0.00000000000E+00 -0.00000000000E+00 -0.84184853338E+02  0.84184853338E+02  0.00000000000E+00 0.  1.
         23    2    1    2    0    0  0.44712062612E+02  0.18137413871E+01 -0.19019476720E+02  0.97759197432E+02  0.84809563063E+02 0.  0.
         24    2    1    2    0    0 -0.27571912170E+02  0.10164631574E+02  0.60636441866E+02  0.10324936148E+03  0.78231211726E+02 0.  0.
        -11    1    4    4    0    0  0.33035183333E+01 -0.28158735381E+02  0.46889398589E+01  0.28736975635E+02  0.00000000000E+00 0.  1.
         12    1    4    4    0    0 -0.30875430503E+02  0.38323366955E+02  0.55947502007E+02  0.74512385845E+02  0.00000000000E+00 0. -1.
        -11    1    3    3    0    0  0.43646287083E+02 -0.27295540879E+02  0.14372876458E+02  0.53447399428E+02  0.00000000000E+00 0.  1.
         11    1    3    3    0    0  0.10657755292E+01  0.29109282266E+02 -0.33392353178E+02  0.44311798003E+02  0.00000000000E+00 0. -1.
         21    1    1    2  502  501 -0.17140150442E+02 -0.11978372961E+02  0.19862729955E+02  0.28840842866E+02  0.00000000000E+00 0.  1.
<scales pt_clust_5="13000.00000" pt_clust_6="13000.00000" pt_clust_7="13000.00000" pt_clust_8="13000.00000" pt_clust_9="20.91091"></scales>
<clustering>
<clus scale="   20.911">  1  9  2 -1</clus>
<clus scale="   78.231">  5  6 -1 -1</clus>
<clus scale="   84.810">  7  8 -1 -1</clus>
<clus scale="   87.505">  1  5  2 -1</clus>
<clus scale="   20.911">  1  5  2 -1</clus>
</clustering>
</event>
<event>
 9    2  0.2984928E-005  0.4471553E+03  0.7546771E-02  0.1028696E+00
         -1   -1    0    0    0  501 -0.00000000000E+00  0.00000000000E+00  0.22217711610E+03  0.22217711610E+03  0.00000000000E+00 0.  1.
          2   -1    0    0  502    0  0.00000000000E+00 -0.00000000000E+00 -0.10534634962E+04  0.10534634962E+04  0.00000000000E+00 0. -1.
         24    2    1    2    0    0 -0.71643757798E+02  0.41959453215E+03 -0.27734373016E+03  0.51731345617E+03  0.97474447095E+02 0.  0.
         23    2    1    2    0    0  0.52984146565E+02 -0.44790389419E+03 -0.42911825899E+03  0.62897983436E+03  0.89710275988E+02 0.  0.
        -11    1    3    3    0    0 -0.65896534825E+02  0.28368954336E+03 -0.23683397942E+03  0.37538306318E+03  0.00000000000E+00 0.  1.
         12    1    3    3    0    0 -0.57472229727E+01  0.13590498879E+03 -0.40509750735E+02  0.14193039299E+03  0.00000000000E+00 0. -1.
        -13    1    4    4    0    0  0.18094938356E+00 -0.32006639499E+03 -0.32226248989E+03  0.45419780089E+03  0.00000000000E+00 0.  1.
         13    1    4    4    0    0  0.52803197181E+02 -0.12783749920E+03 -0.10685576910E+03  0.17478203347E+03  0.00000000000E+00 0. -1.
         21    1    1    2  502  501  0.18659611233E+02  0.28309362045E+02 -0.12482439098E+03  0.12934732179E+03  0.00000000000E+00 0. -1.
<scales pt_clust_5="13000.00000" pt_clust_6="13000.00000" pt_clust_7="13000.00000" pt_clust_8="13000.00000" pt_clust_9="33.90577"></scales>
<clustering>
<clus scale="   33.906">  2  9  1 -1</clus>
<clus scale="   89.710">  7  8 -1 -1</clus>
<clus scale="   97.474">  5  6 -1 -1</clus>
<clus scale="  445.527">  2  7  1 -1</clus>
<clus scale="   33.906">  2  5  1 -1</clus>
</clustering>
</event>
<event>
 9    2  0.2984928E-005  0.2137263E+03  0.7546771E-02  0.1139961E+00
         -1   -1    0    0    0  501 -0.00000000000E+00  0.00000000000E+00  0.28479297720E+02  0.28479297720E+02  0.00000000000E+00 0.  1.
          2   -1    0    0  502    0  0.00000000000E+00 -0.00000000000E+00 -0.17459243054E+04  0.17459243054E+04  0.00000000000E+00 0. -1.
         24    2    1    2    0    0 -0.61714186372E+02 -0.17009814031E+03 -0.78041549534E+03  0.80478288511E+03  0.76714592230E+02 0.  0.
         23    2    1    2    0    0  0.75540561932E+02  0.19009438185E+03 -0.83439070468E+03  0.86414207953E+03  0.93227866329E+02 0.  0.
        -13    1    3    3    0    0 -0.69482814586E+02 -0.14936660515E+03 -0.57364903881E+03  0.59683453652E+03  0.00000000000E+00 0.  1.
         14    1    3    3    0    0  0.77686282146E+01 -0.20731535162E+02 -0.20676645653E+03  0.20794834859E+03  0.00000000000E+00 0. -1.
        -13    1    4    4    0    0  0.51363379468E+02  0.62064909500E+02 -0.18453998919E+03  0.20135852938E+03  0.00000000000E+00 0. -1.
         13    1    4    4    0    0  0.24177182464E+02  0.12802947235E+03 -0.64985071548E+03  0.66278355016E+03  0.00000000000E+00 0.  1.
         21    1    1    2  502  501 -0.13826375560E+02 -0.19996241541E+02 -0.10263880771E+03  0.10547863852E+03  0.00000000000E+00 0. -1.
<scales pt_clust_5="13000.00000" pt_clust_6="13000.00000" pt_clust_7="13000.00000" pt_clust_8="13000.00000" pt_clust_9="24.31087"></scales>
<clustering>
<clus scale="   24.311">  2  9  1 -1</clus>
<clus scale="   76.715">  5  6 -1 -1</clus>
<clus scale="   93.228">  7  8 -1 -1</clus>
<clus scale="  207.057">  1  5  2 -1</clus>
<clus scale="   24.311">  2  5  1 -1</clus>
</clustering>
</event>
<event>
 9    2  0.2984928E-005  0.9363769E+02  0.7546771E-02  0.1300622E+00
          2   -1    0    0  502    0  0.00000000000E+00  0.00000000000E+00  0.80554821473E+03  0.80554821473E+03  0.00000000000E+00 0. -1.
         -1   -1    0    0    0  501 -0.00000000000E+00 -0.00000000000E+00 -0.27689796956E+02  0.27689796956E+02  0.00000000000E+00 0.  1.
         23    2    1    2    0    0 -0.24952357868E+01  0.21172938026E+02  0.72163171666E+02  0.11790853817E+03  0.90776541700E+02 0.  0.
         24    2    1    2    0    0  0.20629624098E+02 -0.31297214815E+02  0.64823870714E+03  0.65423437641E+03  0.80025625871E+02 0.  0.
        -11    1    4    4    0    0  0.11785050286E+02 -0.40363363730E+02  0.14858536593E+03  0.15442052814E+03  0.00000000000E+00 0.  1.
         12    1    4    4    0    0  0.88445738123E+01  0.90661489149E+01  0.49965334120E+03  0.49981384827E+03  0.00000000000E+00 0. -1.
        -11    1    3    3    0    0 -0.39080945957E+02  0.33706291129E+02  0.55533645618E+02  0.75811741797E+02  0.00000000000E+00 0.  1.
         11    1    3    3    0    0  0.36585710170E+02 -0.12533353103E+02  0.16629526048E+02  0.42096796377E+02  0.00000000000E+00 0. -1.
         21    1    1    2  502  501 -0.18134388311E+02  0.10124276789E+02  0.57456538974E+02  0.61095097109E+02  0.00000000000E+00 0. -1.
<scales pt_clust_5="13000.00000" pt_clust_6="13000.00000" pt_clust_7="13000.00000" pt_clust_8="13000.00000" pt_clust_9="20.76914"></scales>
<clustering>
<clus scale="   20.769">  1  9  2 -1</clus>
<clus scale="   80.026">  5  6 -1 -1</clus>
<clus scale="   83.257">  1  5  2 -1</clus>
<clus scale="   90.777">  7  8 -1 -1</clus>
<clus scale="   20.769">  1  5  2 -1</clus>
</clustering>
</event>
<event>
 9    2  0.3471248E-005  0.2704178E+03  0.7546771E-02  0.1101557E+00
         -1   -1    0    0    0  501 -0.00000000000E+00  0.00000000000E+00  0.67220486563E+02  0.67220486563E+02  0.00000000000E+00 0.  1.
          2   -1    0    0  502    0  0.00000000000E+00 -0.00000000000E+00 -0.22718746526E+04  0.22718746526E+04  0.00000000000E+00 0. -1.
         23    2    1    2    0    0 -0.25302621641E+03 -0.30916923577E+02 -0.27509368074E+03  0.38604700308E+03  0.91529410842E+02 0.  0.
         24    2    1    2    0    0  0.24594190407E+03  0.62239118926E+02 -0.18002180600E+04  0.18197787458E+04  0.80302503307E+02 0.  0.
        -11    1    4    4    0    0  0.25174907266E+02  0.47975617615E+01 -0.69176036419E+02  0.73770702650E+02  0.00000000000E+00 0.  1.
         12    1    4    4    0    0  0.22076699681E+03  0.57441557165E+02 -0.17310420236E+04  0.17460080432E+04  0.00000000000E+00 0. -1.
        -11    1    3    3    0    0 -0.59379738802E+02 -0.21353189448E+01 -0.12817268301E+03  0.14127543890E+03  0.00000000000E+00 0. -1.
         11    1    3    3    0    0 -0.19364647761E+03 -0.28781604632E+02 -0.14692099773E+03  0.24477156418E+03  0.00000000000E+00 0.  1.
         21    1    1    2  502  501  0.70843123397E+01 -0.31322195349E+02 -0.12934242532E+03  0.13326939029E+03  0.00000000000E+00 0. -1.
<scales pt_clust_5="13000.00000" pt_clust_6="13000.00000" pt_clust_7="13000.00000" pt_clust_8="13000.00000" pt_clust_9="32.11335"></scales>
<clustering>
<clus scale="   32.113">  2  9  1 -1</clus>
<clus scale="   80.303">  5  6 -1 -1</clus>
<clus scale="   91.529">  7  8 -1 -1</clus>
<clus scale="  266.827">  2  5  1 -1</clus>
<clus scale="   32.113">  2  5  1 -1</clus>
</clustering>
</event>
<event>
 9    2  0.2984928E-005  0.1087855E+03  0.7546771E-02  0.1269643E+00
         -1   -1    0    0    0  501 -0.00000000000E+00  0.00000000000E+00  0.21623177121E+03  0.21623177121E+03  0.00000000000E+00 0.  1.
          2   -1    0    0  502    0  0.00000000000E+00 -0.00000000000E+00 -0.11445342649E+03  0.11445342649E+03  0.00000000000E+00 0. -1.
         23    2    1    2    0    0 -0.12784611781E+01  0.84171750837E+02  0.12989155340E+03  0.18035982502E+03  0.92581492403E+02 0.  0.
         24    2    1    2    0    0 -0.23659712105E+02 -0.47848686686E+02 -0.44670395160E+02  0.10325714666E+03  0.76271327102E+02 0.  0.
        -11    1    4    4    0    0 -0.18960974146E+02  0.15514135053E+02  0.17617145264E+01  0.24562381095E+02  0.00000000000E+00 0.  1.
         12    1    4    4    0    0 -0.46987379590E+01 -0.63362821739E+02 -0.46432109687E+02  0.78694765564E+02  0.00000000000E+00 0. -1.
        -11    1    3    3    0    0  0.26651368209E+02 -0.66543188062E+01  0.46128943157E+02  0.53688497678E+02  0.00000000000E+00 0.  1.
         11    1    3    3    0    0 -0.27929829387E+02  0.90826069644E+02  0.83762610246E+02  0.12667132735E+03  0.00000000000E+00 0. -1.
         21    1    1    2  502  501  0.24938173283E+02 -0.36323064151E+02  0.16557186480E+02  0.47068226014E+02  0.00000000000E+00 0.  1.
<scales pt_clust_5="13000.00000" pt_clust_6="13000.00000" pt_clust_7="13000.00000" pt_clust_8="13000.00000" pt_clust_9="44.05993"></scales>
<clustering>
<clus scale="   44.060">  1  9  2 -1</clus>
<clus scale="   76.271">  5  6 -1 -1</clus>
<clus scale="   92.581">  7  8 -1 -1</clus>
<clus scale="   95.290">  2  5  1 -1</clus>
<clus scale="   95.290">  2  5  1 -1</clus>
</clustering>
</event>
<event>
 9    2  0.2984928E-005  0.1639529E+03  0.7546771E-02  0.1185862E+00
         -3   -1    0    0    0  501 -0.00000000000E+00  0.00000000000E+00  0.17922621715E+03  0.17922621715E+03  0.00000000000E+00 0.  1.
          4   -1    0    0  502    0  0.00000000000E+00 -0.00000000000E+00 -0.75243047725E+03  0.75243047725E+03  0.00000000000E+00 0. -1.
         23    2    1    2    0    0 -0.95479452503E+02 -0.89703982099E+02  0.10397610982E+03  0.19140662344E+03  0.93071659643E+02 0.  0.
         24    2    1    2    0    0  0.76834585366E+02  0.17669053298E+03 -0.45982885982E+03  0.50539698912E+03  0.82827763092E+02 0.  0.
        -13    1    4    4    0    0  0.40980464494E+02  0.42509762180E+02 -0.70069092516E+02  0.91630541179E+02  0.00000000000E+00 0.  1.
         14    1    4    4    0    0  0.35854120872E+02  0.13418077080E+03 -0.38975976730E+03  0.41376644794E+03  0.00000000000E+00 0. -1.
        -13    1    3    3    0    0 -0.11707625929E+02 -0.73696017624E+02  0.39065935189E+02  0.84227779329E+02  0.00000000000E+00 0.  1.
         13    1    3    3    0    0 -0.83771826575E+02 -0.16007964475E+02  0.64910174635E+02  0.10717884411E+03  0.00000000000E+00 0. -1.
         21    1    1    2  502  501  0.18644867137E+02 -0.86986550883E+02 -0.21735151010E+03  0.23485308184E+03  0.00000000000E+00 0.  1.
<scales pt_clust_5="13000.00000" pt_clust_6="13000.00000" pt_clust_7="13000.00000" pt_clust_8="13000.00000" pt_clust_9="88.96230"></scales>
<clustering>
<clus scale="   82.828">  5  6 -1 -1</clus>
<clus scale="   88.962">  2  9  1 -1</clus>
<clus scale="   93.072">  7  8 -1 -1</clus>
<clus scale="  158.362">  2  5  1 -1</clus>
<clus scale="   88.962">  2  5  1 -1</clus>
</clustering>
</event>
<event>
 9    2  0.2984928E-005  0.9291422E+02  0.7546771E-02  0.1303501E+00
          2   -1    0    0  502    0  0.00000000000E+00  0.00000000000E+00  0.30355425130E+03  0.30355425130E+03  0.00000000000E+00 0. -1.
         -1   -1    0    0    0  501 -0.00000000000E+00 -0.00000000000E+00 -0.72433314269E+02  0.72433314269E+02  0.00000000000E+00 0.  1.
         24    2    1    2    0    0 -0.91305768188E+01  0.39284452711E+01 -0.32903617927E+02  0.87204810252E+02  0.80145060628E+02 0.  0.
         23    2    1    2    0    0  0.19828860585E+02  0.14582605348E+02  0.21201953435E+03  0.23255434222E+03  0.92322278191E+02 0.  0.
        -11    1    3    3    0    0 -0.23468240592E+02 -0.28295972411E+02 -0.36434952061E+02  0.51758343317E+02  0.00000000000E+00 0.  1.
         12    1    3    3    0    0  0.14337663773E+02  0.32224417682E+02  0.35313341341E+01  0.35446466935E+02  0.00000000000E+00 0. -1.
        -11    1    4    4    0    0  0.22614792169E+02 -0.33286888422E+02  0.53526640900E+02  0.66966760798E+02  0.00000000000E+00 0.  1.
         11    1    4    4    0    0 -0.27859315840E+01  0.47869493770E+02  0.15849289345E+03  0.16558758142E+03  0.00000000000E+00 0. -1.
         21    1    1    2  502  501 -0.10698283766E+02 -0.18511050619E+02  0.52005020610E+02  0.56228413095E+02  0.00000000000E+00 0. -1.
<scales pt_clust_5="13000.00000" pt_clust_6="13000.00000" pt_clust_7="13000.00000" pt_clust_8="13000.00000" pt_clust_9="21.38018"></scales>
<clustering>
<clus scale="   21.380">  1  9  2 -1</clus>
<clus scale="   80.145">  5  6 -1 -1</clus>
<clus scale="   80.826">  2  5  1 -1</clus>
<clus scale="   92.322">  7  8 -1 -1</clus>
<clus scale="   21.380">  1  5  2 -1</clus>
</clustering>
</event>
<event>
 9    2  0.2984928E-005  0.1001179E+03  0.7546771E-02  0.1286357E+00
          2   -1    0    0  502    0  0.00000000000E+00  0.00000000000E+00  0.10374123594E+04  0.10374123594E+04  0.00000000000E+00 0. -1.
         -1   -1    0    0    0  501 -0.00000000000E+00 -0.00000000000E+00 -0.72782468075E+02  0.72782468075E+02  0.00000000000E+00 0.  1.
         23    2    1    2    0    0  0.12330663910E+02  0.42615183036E+02 -0.25968195360E+02  0.10532282668E+03  0.91926337635E+02 0.  0.
         24    2    1    2    0    0 -0.29870581075E+02  0.32943664502E+02  0.51706050744E+03  0.52502345480E+03  0.79501717571E+02 0.  0.
        -13    1    4    4    0    0 -0.57272672748E+02  0.24546587378E+02  0.34125515288E+03  0.34689735277E+03  0.00000000000E+00 0.  1.
         14    1    4    4    0    0  0.27402091673E+02  0.83970771238E+01  0.17580535456E+03  0.17812610203E+03  0.00000000000E+00 0. -1.
        -13    1    3    3    0    0 -0.24578682339E+02  0.54872058265E+02 -0.28111557454E+02  0.66372540001E+02  0.00000000000E+00 0.  1.
         13    1    3    3    0    0  0.36909346249E+02 -0.12256875228E+02  0.21433620937E+01  0.38950286674E+02  0.00000000000E+00 0. -1.
         21    1    1    2  502  501  0.17539917165E+02 -0.75558847538E+02  0.47353757928E+03  0.47984854603E+03  0.00000000000E+00 0.  1.
<scales pt_clust_5="13000.00000" pt_clust_6="13000.00000" pt_clust_7="13000.00000" pt_clust_8="13000.00000" pt_clust_9="77.56796"></scales>
<clustering>
<clus scale="   77.568">  1  9  2 -1</clus>
<clus scale="   79.502">  5  6 -1 -1</clus>
<clus scale="   88.846">  1  5  2 -1</clus>
<clus scale="   91.926">  7  8 -1 -1</clus>
<clus scale="   77.568">  1  5  2 -1</clus>
</clustering>
</event>
<event>
 9    2  0.2984928E-005  0.1732240E+03  0.7546771E-02  0.1196364E+00
          2   -1    0    0  502    0  0.00000000000E+00  0.00000000000E+00  0.17448935616E+04  0.17448935616E+04  0.00000000000E+00 0. -1.
         -1   -1    0    0    0  501 -0.00000000000E+00 -0.00000000000E+00 -0.16856203604E+03  0.16856203604E+03  0.00000000000E+00 0.  1.
         24    2    1    2    0    0 -0.43081359028E+02 -0.55550684153E+02 -0.13352906314E+03  0.17080684593E+03  0.80019284593E+02 0.  0.
         23    2    1    2    0    0 -0.11122492566E+03 -0.10801785070E+02  0.47671405913E+03  0.49811532786E+03  0.91514605587E+02 0.  0.
        -13    1    3    3    0    0 -0.84062837347E+01 -0.67909201847E+02 -0.73770835298E+02  0.10062038284E+03  0.00000000000E+00 0.  1.
         14    1    3    3    0    0 -0.34675075293E+02  0.12358517694E+02 -0.59758227846E+02  0.70186463093E+02  0.00000000000E+00 0. -1.
        -13    1    4    4    0    0 -0.12045354294E+03  0.98957120973E+01  0.41993296568E+03  0.43697903473E+03  0.00000000000E+00 0.  1.
         13    1    4    4    0    0  0.92286172772E+01 -0.20697497168E+02  0.56781093443E+02  0.61136293136E+02  0.00000000000E+00 0. -1.
         21    1    1    2  502  501  0.15430628469E+03  0.66352469224E+02  0.12331465295E+04  0.12445334238E+04  0.00000000000E+00 0. -1.
<scales pt_clust_5="13000.00000" pt_clust_6="13000.00000" pt_clust_7="13000.00000" pt_clust_8="13000.00000" pt_clust_9="147.07696"></scales>
<clustering>
<clus scale="   80.019">  5  6 -1 -1</clus>
<clus scale="   91.515">  7  8 -1 -1</clus>
<clus scale="  106.513">  2  5  1 -1</clus>
<clus scale="  147.077">  1  9  2 -1</clus>
<clus scale="  147.077">  1  5  2 -1</clus>
</clustering>
</event>
<event>
 9    2  0.2984928E-005  0.9807460E+02  0.7546771E-02  0.1287331E+00
         -1   -1    0    0    0  501 -0.00000000000E+00  0.00000000000E+00  0.26400856804E+03  0.26400856804E+03  0.00000000000E+00 0.  1.
          2   -1    0    0  502    0  0.00000000000E+00 -0.00000000000E+00 -0.66845912469E+03  0.66845912469E+03  0.00000000000E+00 0. -1.
         23    2    1    2    0    0 -0.53714214295E+01  0.46655780711E+02  0.24967987256E+03  0.26834503238E+03  0.86390992569E+02 0.  0.
         24    2    1    2    0    0 -0.11042493584E+02 -0.22214635130E+02 -0.43840164366E+03  0.44639417090E+03  0.80351278575E+02 0.  0.
        -11    1    4    4    0    0 -0.30900912070E+02 -0.22324424459E+02 -0.94216257966E+02  0.10163635944E+03  0.00000000000E+00 0.  1.
         12    1    4    4    0    0  0.19858418486E+02  0.10978932921E+00 -0.34418538569E+03  0.34475781146E+03  0.00000000000E+00 0. -1.
        -11    1    3    3    0    0  0.16799298764E+02  0.63921931758E+02  0.20656524347E+03  0.21688114166E+03  0.00000000000E+00 0.  1.
         11    1    3    3    0    0 -0.22170720194E+02 -0.17266151046E+02  0.43114629093E+02  0.51463890717E+02  0.00000000000E+00 0. -1.
         21    1    1    2  502  501  0.16413915013E+02 -0.24441145581E+02 -0.21572878555E+03  0.21772848945E+03  0.00000000000E+00 0.  1.
<scales pt_clust_5="13000.00000" pt_clust_6="13000.00000" pt_clust_7="13000.00000" pt_clust_8="13000.00000" pt_clust_9="29.44123"></scales>
<clustering>
<clus scale="   29.441">  2  9  1 -1</clus>
<clus scale="   80.351">  5  6 -1 -1</clus>
<clus scale="   86.391">  7  8 -1 -1</clus>
<clus scale="   92.798">  2  5  1 -1</clus>
<clus scale="   29.441">  2  5  1 -1</clus>
</clustering>
</event>
<event>
 9    2  0.2984928E-005  0.9547187E+02  0.7546771E-02  0.1292721E+00
          2   -1    0    0  502    0  0.00000000000E+00  0.00000000000E+00  0.74835206237E+02  0.74835206237E+02  0.00000000000E+00 0. -1.
         -1   -1    0    0    0  501 -0.00000000000E+00 -0.00000000000E+00 -0.28276413418E+03  0.28276413418E+03  0.00000000000E+00 0.  1.
         23    2    1    2    0    0  0.29269800092E+01 -0.22647550268E+02 -0.14093497373E+03  0.16925170428E+03  0.90895510537E+02 0.  0.
         24    2    1    2    0    0 -0.42633495387E+02  0.21232898893E+02 -0.97288733107E+02  0.13838382693E+03  0.86119307020E+02 0.  0.
        -11    1    4    4    0    0  0.25534686266E+02  0.15768203841E+02 -0.28583894538E+02  0.41445089963E+02  0.00000000000E+00 0.  1.
         12    1    4    4    0    0 -0.68168181652E+02  0.54646950524E+01 -0.68704838569E+02  0.96938736966E+02  0.00000000000E+00 0. -1.
        -11    1    3    3    0    0  0.95484676909E+01 -0.55374142359E+02 -0.62730329047E+02  0.84217356048E+02  0.00000000000E+00 0. -1.
         11    1    3    3    0    0 -0.66214876817E+01  0.32726592091E+02 -0.78204644686E+02  0.85034348234E+02  0.00000000000E+00 0.  1.
         21    1    1    2  502  501  0.39706515377E+02  0.14146513748E+01  0.30294778898E+02  0.49963809206E+02  0.00000000000E+00 0. -1.
<scales pt_clust_5="13000.00000" pt_clust_6="13000.00000" pt_clust_7="13000.00000" pt_clust_8="13000.00000" pt_clust_9="39.73171"></scales>
<clustering>
<clus scale="   39.732">  1  9  2 -1</clus>
<clus scale="   86.119">  5  6 -1 -1</clus>
<clus scale="   90.896">  7  8 -1 -1</clus>
<clus scale="   90.936">  1  5  2 -1</clus>
<clus scale="   39.732">  1  5  2 -1</clus>
</clustering>
</event>
<event>
 9    2  0.2984928E-005  0.1519618E+03  0.7546771E-02  0.1220669E+00
          2   -1    0    0  502    0  0.00000000000E+00  0.00000000000E+00  0.73164548453E+03  0.73164548453E+03  0.00000000000E+00 0. -1.
         -1   -1    0    0    0  501 -0.00000000000E+00 -0.00000000000E+00 -0.12967817216E+03  0.12967817216E+03  0.00000000000E+00 0.  1.
         24    2    1    2    0    0  0.24076521273E+02 -0.39624799610E+02 -0.67550758459E+02  0.11556374416E+03  0.81498898001E+02 0.  0.
         23    2    1    2    0    0 -0.42694491505E+02 -0.83259420897E+02  0.11193145593E+03  0.17448940430E+03  0.95723302356E+02 0.  0.
        -13    1    3    3    0    0  0.26162736782E+02 -0.85294116383E+01 -0.77985384644E+02  0.82698004068E+02  0.00000000000E+00 0.  1.
         14    1    3    3    0    0 -0.20862155094E+01 -0.31095387972E+02  0.10434626184E+02  0.32865740093E+02  0.00000000000E+00 0. -1.
        -11    1    4    4    0    0 -0.26621049608E+02 -0.10370181352E+03  0.97183079369E+02  0.14459355907E+03  0.00000000000E+00 0.  1.
         11    1    4    4    0    0 -0.16073441898E+02  0.20442392626E+02  0.14748376564E+02  0.29895845229E+02  0.00000000000E+00 0. -1.
         21    1    1    2  502  501  0.18617970232E+02  0.12288422051E+03  0.55758661490E+03  0.57127050823E+03  0.00000000000E+00 0. -1.
<scales pt_clust_5="13000.00000" pt_clust_6="13000.00000" pt_clust_7="13000.00000" pt_clust_8="13000.00000" pt_clust_9="118.02308"></scales>
<clustering>
<clus scale="   81.499">  5  6 -1 -1</clus>
<clus scale="   93.765">  2  5  1 -1</clus>
<clus scale="   95.723">  7  8 -1 -1</clus>
<clus scale="  118.023">  1  9  2 -1</clus>
<clus scale="  118.023">  1  5  2 -1</clus>
</clustering>
</event>
<event>
 9    2  0.2984928E-005  0.1676790E+03  0.7546771E-02  0.1212966E+00
         -1   -1    0    0    0  501 -0.00000000000E+00  0.00000000000E+00  0.10765647855E+03  0.10765647855E+03  0.00000000000E+00 0.  1.
          2   -1    0    0  502    0  0.00000000000E+00 -0.00000000000E+00 -0.90882460350E+03  0.90882460350E+03  0.00000000000E+00 0. -1.
         24    2    1    2    0    0  0.15003141714E+02 -0.74159837823E+01  0.44706756184E+02  0.93496424945E+02  0.80391519156E+02 0.  0.
         23    2    1    2    0    0  0.65231185134E+02 -0.11154529660E+03 -0.17073887733E+03  0.23276877997E+03  0.91280227809E+02 0.  0.
        -11    1    3    3    0    0  0.25597265431E+02 -0.81842672219E+01  0.65140825077E+02  0.70466512041E+02  0.00000000000E+00 0.  1.
         12    1    3    3    0    0 -0.10594123717E+02  0.76828343958E+00 -0.20434068894E+02  0.23029912903E+02  0.00000000000E+00 0. -1.
        -13    1    4    4    0    0  0.17843019587E+02 -0.84571027693E+02 -0.15246546602E+03  0.17526080680E+03  0.00000000000E+00 0.  1.
         13    1    4    4    0    0  0.47388165546E+02 -0.26974268906E+02 -0.18273411316E+02  0.57507973169E+02  0.00000000000E+00 0. -1.
         21    1    1    2  502  501 -0.80234326848E+02  0.11896128038E+03 -0.67513600380E+03  0.69021587714E+03  0.00000000000E+00 0. -1.
<scales pt_clust_5="13000.00000" pt_clust_6="13000.00000" pt_clust_7="13000.00000" pt_clust_8="13000.00000" pt_clust_9="140.65618"></scales>
<clustering>
<clus scale="   80.392">  5  6 -1 -1</clus>
<clus scale="   82.115">  1  5  2 -1</clus>
<clus scale="   91.280">  7  8 -1 -1</clus>
<clus scale="  140.656">  2  9  1 -1</clus>
<clus scale="  140.656">  2  5  1 -1</clus>
</clustering>
</event>
<event>
 9    2  0.2984928E-005  0.1856042E+03  0.7546771E-02  0.1163997E+00
          2   -1    0    0  502    0  0.00000000000E+00  0.00000000000E+00  0.58618886283E+03  0.58618886283E+03  0.00000000000E+00 0. -1.
         -1   -1    0    0    0  501 -0.00000000000E+00 -0.00000000000E+00 -0.19191631109E+03  0.19191631109E+03  0.00000000000E+00 0.  1.
         24    2    1    2    0    0  0.94798115488E+02  0.13681721355E+03 -0.12494054234E+03  0.22207709635E+03  0.77475576663E+02 0.  0.
         23    2    1    2    0    0 -0.67456529237E+02 -0.10353334761E+03  0.36739798027E+03  0.39822057822E+03  0.91262344961E+02 0.  0.
        -11    1    3    3    0    0  0.25392658858E+02  0.77462636246E+02 -0.21936384692E+02  0.84418316208E+02  0.00000000000E+00 0.  1.
         12    1    3    3    0    0  0.69405456630E+02  0.59354577302E+02 -0.10300415765E+03  0.13765878014E+03  0.00000000000E+00 0. -1.
        -11    1    4    4    0    0 -0.30781255033E+02 -0.10941882521E+03  0.30638691346E+03  0.32679183850E+03  0.00000000000E+00 0. -1.
         11    1    4    4    0    0 -0.36675274204E+02  0.58854775997E+01  0.61011066809E+02  0.71428739718E+02  0.00000000000E+00 0.  1.
         21    1    1    2  502  501 -0.27341586251E+02 -0.33283865936E+02  0.15181511381E+03  0.15780749935E+03  0.00000000000E+00 0. -1.
<scales pt_clust_5="13000.00000" pt_clust_6="13000.00000" pt_clust_7="13000.00000" pt_clust_8="13000.00000" pt_clust_9="43.07410"></scales>
<clustering>
<clus scale="   43.074">  1  9  2 -1</clus>
<clus scale="   77.476">  5  6 -1 -1</clus>
<clus scale="   91.262">  7  8 -1 -1</clus>
<clus scale="  179.228">  2  5  1 -1</clus>
<clus scale="   43.074">  1  5  2 -1</clus>
</clustering>
</event>
<event>
 9    2  0.2984928E-005  0.1622382E+03  0.7546771E-02  0.1187503E+00
         -1   -1    0    0    0  501 -0.00000000000E+00  0.00000000000E+00  0.93759965912E+02  0.93759965912E+02  0.00000000000E+00 0.  1.
          2   -1    0    0  502    0  0.00000000000E+00 -0.00000000000E+00 -0.46741617060E+03  0.46741617060E+03  0.00000000000E+00 0. -1.
         23    2    1    2    0    0 -0.33263806103E+02 -0.12397994695E+03 -0.90359033210E+02  0.18097710386E+03  0.90058032376E+02 0.  0.
         24    2    1    2    0    0  0.94448943417E+02  0.11660877760E+03 -0.12873815811E+03  0.21380659359E+03  0.81372822134E+02 0.  0.
        -13    1    4    4    0    0  0.73636832779E+02  0.28428550504E+02 -0.47550403769E+02  0.92149913315E+02  0.00000000000E+00 0.  1.
         14    1    4    4    0    0  0.20812110638E+02  0.88180227095E+02 -0.81187754345E+02  0.12165668027E+03  0.00000000000E+00 0. -1.
        -13    1    3    3    0    0  0.16364364741E+01 -0.29845597662E+02 -0.73276566264E+02  0.79138440644E+02  0.00000000000E+00 0. -1.
         13    1    3    3    0    0 -0.34900242577E+02 -0.94134349291E+02 -0.17082466946E+02  0.10183866321E+03  0.00000000000E+00 0.  1.
         21    1    1    2  502  501 -0.61185137314E+02  0.73711693531E+01 -0.15455901337E+03  0.16639243907E+03  0.00000000000E+00 0. -1.
<scales pt_clust_5="13000.00000" pt_clust_6="13000.00000" pt_clust_7="13000.00000" pt_clust_8="13000.00000" pt_clust_9="61.62755"></scales>
<clustering>
<clus scale="   61.628">  2  9  1 -1</clus>
<clus scale="   81.373">  5  6 -1 -1</clus>
<clus scale="   90.058">  7  8 -1 -1</clus>
<clus scale="  157.583">  2  5  1 -1</clus>
<clus scale="   61.628">  2  5  1 -1</clus>
</clustering>
</event>
<event>
 9    2  0.2984928E-005  0.1575926E+03  0.7546771E-02  0.1194166E+00
         -1   -1    0    0    0  501 -0.00000000000E+00  0.00000000000E+00  0.37115183509E+02  0.37115183509E+02  0.00000000000E+00 0.  1.
          2   -1    0    0  502    0  0.00000000000E+00 -0.00000000000E+00 -0.10328958185E+04  0.10328958185E+04  0.00000000000E+00 0. -1.
         23    2    1    2    0    0  0.26098605925E+02 -0.14814915624E+03 -0.29630027997E+03  0.34541098486E+03  0.94263369492E+02 0.  0.
         24    2    1    2    0    0 -0.43280737645E+02  0.11074040627E+03 -0.60597311111E+03  0.62243228795E+03  0.77986421007E+02 0.  0.
        -13    1    4    4    0    0 -0.38055916728E+02  0.11307968163E+03 -0.60496682915E+03  0.61661992473E+03  0.00000000000E+00 0.  1.
         14    1    4    4    0    0 -0.52248209176E+01 -0.23392753587E+01 -0.10062819545E+01  0.58123632196E+01  0.00000000000E+00 0. -1.
        -11    1    3    3    0    0 -0.54854715806E+01 -0.60891667271E+02 -0.20988345982E+03  0.21860684401E+03  0.00000000000E+00 0. -1.
         11    1    3    3    0    0  0.31584077505E+02 -0.87257488968E+02 -0.86416820150E+02  0.12680414085E+03  0.00000000000E+00 0.  1.
         21    1    1    2  502  501  0.17182131721E+02  0.37408749968E+02 -0.93507243871E+02  0.10216772916E+03  0.00000000000E+00 0. -1.
<scales pt_clust_5="13000.00000" pt_clust_6="13000.00000" pt_clust_7="13000.00000" pt_clust_8="13000.00000" pt_clust_9="41.16601"></scales>
<clustering>
<clus scale="   41.166">  1  9  2 -1</clus>
<clus scale="   77.986">  5  6 -1 -1</clus>
<clus scale="   94.263">  7  8 -1 -1</clus>
<clus scale="  148.431">  2  5  1 -1</clus>
<clus scale="  148.431">  2  5  1 -1</clus>
</clustering>
</event>
<event>
 9    2  0.2984928E-005  0.1615525E+03  0.7546771E-02  0.1190796E+00
          2   -1    0    0  502    0  0.00000000000E+00  0.00000000000E+00  0.48287832037E+03  0.48287832037E+03  0.00000000000E+00 0. -1.
         -1   -1    0    0    0  501 -0.00000000000E+00 -0.00000000000E+00 -0.15731191073E+03  0.15731191073E+03  0.00000000000E+00 0.  1.
         23    2    1    2    0    0  0.91596731317E+02  0.81519844261E+02 -0.88767720765E+02  0.18513434731E+03  0.10658129342E+03 0.  0.
         24    2    1    2    0    0 -0.10904196566E+03 -0.47364336771E+02  0.28820298111E+03  0.32322264931E+03  0.85313492676E+02 0.  0.
        -11    1    4    4    0    0 -0.39348321241E+02 -0.23394615860E+02  0.21323847943E+03  0.21809687652E+03  0.00000000000E+00 0.  1.
         12    1    4    4    0    0 -0.69693644423E+02 -0.23969720911E+02  0.74964501677E+02  0.10512577279E+03  0.00000000000E+00 0. -1.
        -13    1    3    3    0    0  0.29984471574E+02  0.64582508475E+02 -0.97405001894E+02  0.12065530792E+03  0.00000000000E+00 0.  1.
         13    1    3    3    0    0  0.61612259743E+02  0.16937335786E+02  0.86372811290E+01  0.64479039381E+02  0.00000000000E+00 0. -1.
         21    1    1    2  502  501  0.17445234347E+02 -0.34155507490E+02  0.12613114929E+03  0.13183323448E+03  0.00000000000E+00 0. -1.
<scales pt_clust_5="13000.00000" pt_clust_6="13000.00000" pt_clust_7="13000.00000" pt_clust_8="13000.00000" pt_clust_9="38.35277"></scales>
<clustering>
<clus scale="   38.353">  1  9  2 -1</clus>
<clus scale="   85.313">  5  6 -1 -1</clus>
<clus scale="  106.581">  7  8 -1 -1</clus>
<clus scale="  148.385">  1  5  2 -1</clus>
<clus scale="   38.353">  1  5  2 -1</clus>
</clustering>
</event>
<event>
 9    2  0.3251635E-005  0.2732553E+03  0.7546771E-02  0.1099941E+00
          2   -1    0    0  502    0  0.00000000000E+00  0.00000000000E+00  0.23416400300E+04  0.23416400300E+04  0.00000000000E+00 0. -1.
         -1   -1    0    0    0  501 -0.00000000000E+00 -0.00000000000E+00 -0.17517152955E+03  0.17517152955E+03  0.00000000000E+00 0.  1.
         23    2    1    2    0    0 -0.20953875750E+03 -0.15308130801E+03 -0.52638329724E+02  0.28008241383E+03  0.91296150109E+02 0.  0.
         24    2    1    2    0    0  0.16884302027E+03  0.14941689243E+03  0.19212487102E+04  0.19360814605E+04  0.79883929242E+02 0.  0.
        -11    1    4    4    0    0  0.43868689195E+02  0.39583991499E+02  0.26556174197E+03  0.27205586388E+03  0.00000000000E+00 0.  1.
         12    1    4    4    0    0  0.12497433108E+03  0.10983290093E+03  0.16556869682E+04  0.16640255966E+04  0.00000000000E+00 0. -1.
        -11    1    3    3    0    0 -0.18425091031E+03 -0.10805517173E+03 -0.11236672083E+02  0.21389385425E+03  0.00000000000E+00 0.  1.
         11    1    3    3    0    0 -0.25287847194E+02 -0.45026136281E+02 -0.41401657641E+02  0.66188559582E+02  0.00000000000E+00 0. -1.
         21    1    1    2  502  501  0.40695737230E+02  0.36644155805E+01  0.29785811999E+03  0.30064768519E+03  0.00000000000E+00 0.  1.
<scales pt_clust_5="13000.00000" pt_clust_6="13000.00000" pt_clust_7="13000.00000" pt_clust_8="13000.00000" pt_clust_9="40.86038"></scales>
<clustering>
<clus scale="   40.860">  1  9  2 -1</clus>
<clus scale="   79.884">  5  6 -1 -1</clus>
<clus scale="   91.296">  7  8 -1 -1</clus>
<clus scale="  269.657">  1  5  2 -1</clus>
<clus scale="   40.860">  1  5  2 -1</clus>
</clustering>
</event>
<event>
 9    2  0.2984928E-005  0.1372379E+03  0.7546771E-02  0.1221985E+00
          2   -1    0    0  502    0  0.00000000000E+00  0.00000000000E+00  0.47347575179E+03  0.47347575179E+03  0.00000000000E+00 0. -1.
         -1   -1    0    0    0  501 -0.00000000000E+00 -0.00000000000E+00 -0.87418809051E+02  0.87418809051E+02  0.00000000000E+00 0.  1.
         23    2    1    2    0    0 -0.94507012220E+02 -0.29195299801E+01 -0.10649904276E+02  0.13742911247E+03  0.99162702058E+02 0.  0.
         24    2    1    2    0    0  0.96824230699E+02 -0.17908199168E+02  0.32617013256E+03  0.34988153783E+03  0.79589571543E+02 0.  0.
        -11    1    4    4    0    0  0.66600938470E+02 -0.48098155816E+02  0.18572835486E+03  0.20308653179E+03  0.00000000000E+00 0.  1.
         12    1    4    4    0    0  0.30223292229E+02  0.30189956648E+02  0.14044177770E+03  0.14679500604E+03  0.00000000000E+00 0. -1.
        -11    1    3    3    0    0 -0.35597784890E+01 -0.34509847389E+02 -0.21069107509E+02  0.40589516885E+02  0.00000000000E+00 0.  1.
         11    1    3    3    0    0 -0.90947233731E+02  0.31590317409E+02  0.10419203234E+02  0.96839595586E+02  0.00000000000E+00 0. -1.
         21    1    1    2  502  501 -0.23172184795E+01  0.20827729148E+02  0.70536714455E+02  0.73583910531E+02  0.00000000000E+00 0. -1.
<scales pt_clust_5="13000.00000" pt_clust_6="13000.00000" pt_clust_7="13000.00000" pt_clust_8="13000.00000" pt_clust_9="20.95624"></scales>
<clustering>
<clus scale="   20.956">  1  9  2 -1</clus>
<clus scale="   79.590">  5  6 -1 -1</clus>
<clus scale="   99.163">  7  8 -1 -1</clus>
<clus scale="  123.837">  1  5  2 -1</clus>
<clus scale="   20.956">  1  5  2 -1</clus>
</clustering>
</event>
<event>
 9    2  0.2984928E-005  0.1013316E+03  0.7546771E-02  0.1287762E+00
          2   -1    0    0  502    0  0.00000000000E+00  0.00000000000E+00  0.20840081451E+03  0.20840081451E+03  0.00000000000E+00 0. -1.
         -1   -1    0    0    0  501 -0.00000000000E+00 -0.00000000000E+00 -0.11045644985E+03  0.11045644985E+03  0.00000000000E+00 0.  1.
         23    2    1    2    0    0 -0.37461173728E+02  0.74795669090E+01 -0.60616789634E+02  0.11695415543E+03  0.92436983010E+02 0.  0.
         24    2    1    2    0    0  0.49693418868E+02 -0.34989840563E+02  0.11345933213E+03  0.14767564965E+03  0.72397186619E+02 0.  0.
        -13    1    4    4    0    0  0.32203578455E+02 -0.52506711278E+02  0.49263669378E+02  0.78872899751E+02  0.00000000000E+00 0.  1.
         14    1    4    4    0    0  0.17489840414E+02  0.17516870715E+02  0.64195662752E+02  0.68802749898E+02  0.00000000000E+00 0. -1.
        -13    1    3    3    0    0  0.13692964518E+02 -0.30694622950E+02 -0.88059737158E+01  0.34744817289E+02  0.00000000000E+00 0.  1.
         13    1    3    3    0    0 -0.51154138246E+02  0.38174189859E+02 -0.51810815918E+02  0.82209338139E+02  0.00000000000E+00 0. -1.
         21    1    1    2  502  501 -0.12232245140E+02  0.27510273654E+02  0.45101822165E+02  0.54227459284E+02  0.00000000000E+00 0.  1.
<scales pt_clust_5="13000.00000" pt_clust_6="13000.00000" pt_clust_7="13000.00000" pt_clust_8="13000.00000" pt_clust_9="30.10719"></scales>
<clustering>
<clus scale="   30.107">  1  9  2 -1</clus>
<clus scale="   72.397">  5  6 -1 -1</clus>
<clus scale="   83.456">  1  5  2 -1</clus>
<clus scale="   92.437">  7  8 -1 -1</clus>
<clus scale="   30.107">  1  5  2 -1</clus>
</clustering>
</event>
<event>
 9    2  0.2984928E-005  0.1157558E+03  0.7546771E-02  0.1254003E+00
         -1   -1    0    0    0  501 -0.00000000000E+00  0.00000000000E+00  0.36444153237E+02  0.36444153237E+02  0.00000000000E+00 0.  1.
          2   -1    0    0  502    0  0.00000000000E+00 -0.00000000000E+00 -0.50226073484E+03  0.50226073484E+03  0.00000000000E+00 0. -1.
         23    2    1    2    0    0  0.34144483696E+02  0.39444583832E+02 -0.99188240383E+02  0.14515035493E+03  0.92242059531E+02 0.  0.
         24    2    1    2    0    0 -0.51999906298E+02 -0.56798409459E+02 -0.33508767567E+03  0.35337014608E+03  0.81588358147E+02 0.  0.
        -13    1    4    4    0    0 -0.54457317773E+01 -0.46067872875E+02 -0.69760346574E+02  0.83775956335E+02  0.00000000000E+00 0.  1.
         14    1    4    4    0    0 -0.46554174520E+02 -0.10730536584E+02 -0.26532732909E+03  0.26959418975E+03  0.00000000000E+00 0. -1.
        -11    1    3    3    0    0  0.43012346591E+02 -0.15916554544E+02 -0.25236809172E+02  0.52347829037E+02  0.00000000000E+00 0.  1.
         11    1    3    3    0    0 -0.88678628942E+01  0.55361138376E+02 -0.73951431212E+02  0.92802525897E+02  0.00000000000E+00 0. -1.
         21    1    1    2  502  501  0.17855422601E+02  0.17353825627E+02 -0.31540665555E+02  0.40184387065E+02  0.00000000000E+00 0. -1.
<scales pt_clust_5="13000.00000" pt_clust_6="13000.00000" pt_clust_7="13000.00000" pt_clust_8="13000.00000" pt_clust_9="24.89922"></scales>
<clustering>
<clus scale="   24.899">  1  9  2 -1</clus>
<clus scale="   81.588">  5  6 -1 -1</clus>
<clus scale="   92.242">  7  8 -1 -1</clus>
<clus scale="  107.459">  2  5  1 -1</clus>
<clus scale="  107.459">  2  5  1 -1</clus>
</clustering>
</event>
<event>
 9    2  0.2984928E-005  0.9889625E+02  0.7546771E-02  0.1291790E+00
          2   -1    0    0  502    0  0.00000000000E+00  0.00000000000E+00  0.14038798148E+03  0.14038798148E+03  0.00000000000E+00 0. -1.
         -1   -1    0    0    0  501 -0.00000000000E+00 -0.00000000000E+00 -0.14593215018E+03  0.14593215018E+03  0.00000000000E+00 0.  1.
         23    2    1    2    0    0 -0.20725826025E+02  0.31873506097E+02 -0.55139104748E+02  0.11770732402E+03  0.96794695104E+02 0.  0.
         24    2    1    2    0    0 -0.29516343472E+02  0.82385234748E+00  0.63739671942E+02  0.10702168491E+03  0.80740336863E+02 0.  0.
        -13    1    4    4    0    0  0.19839686666E+02 -0.21235482187E+02  0.98409768621E+01  0.30682302657E+02  0.00000000000E+00 0.  1.
         14    1    4    4    0    0 -0.49356030139E+02  0.22059334535E+02  0.53898695080E+02  0.76339382252E+02  0.00000000000E+00 0. -1.
        -11    1    3    3    0    0 -0.23392565733E+02 -0.29438649063E+02 -0.39818094695E+01  0.37811387132E+02  0.00000000000E+00 0. -1.
         11    1    3    3    0    0  0.26667397080E+01  0.61312155160E+02 -0.51157295279E+02  0.79895936888E+02  0.00000000000E+00 0.  1.
         21    1    1    2  502  501  0.50242169497E+02 -0.32697358445E+02 -0.14144735893E+02  0.61591122725E+02  0.00000000000E+00 0.  1.
<scales pt_clust_5="13000.00000" pt_clust_6="13000.00000" pt_clust_7="13000.00000" pt_clust_8="13000.00000" pt_clust_9="59.94492"></scales>
<clustering>
<clus scale="   59.945">  2  9  1 -1</clus>
<clus scale="   80.740">  5  6 -1 -1</clus>
<clus scale="   83.248">  1  5  2 -1</clus>
<clus scale="   96.795">  7  8 -1 -1</clus>
<clus scale="   83.248">  1  5  2 -1</clus>
</clustering>
</event>
<event>
 9    2  0.2984928E-005  0.3003028E+03  0.7546771E-02  0.1086112E+00
         -1   -1    0    0    0  501 -0.00000000000E+00  0.00000000000E+00  0.14324124598E+04  0.14324124598E+04  0.00000000000E+00 0.  1.
          2   -1    0    0  502    0  0.00000000000E+00 -0.00000000000E+00 -0.25578082407E+03  0.25578082407E+03  0.00000000000E+00 0. -1.
         24    2    1    2    0    0  0.15553529433E+03 -0.24964389036E+03  0.98202095052E+03  0.10268046730E+04  0.58731503938E+02 0.  0.
         23    2    1    2    0    0  0.43222605078E+02  0.31353411945E+03  0.28349343666E+03  0.43448156503E+03  0.90740641783E+02 0.  0.
        -13    1    3    3    0    0  0.34112656598E+02 -0.68159791487E+02  0.34757716925E+03  0.35583608460E+03  0.00000000000E+00 0.  1.
         14    1    3    3    0    0  0.12142263774E+03 -0.18148409888E+03  0.63444378127E+03  0.67096858845E+03  0.00000000000E+00 0. -1.
        -11    1    4    4    0    0  0.29664506071E+01  0.59954375099E+02  0.12777591483E+02  0.61372581555E+02  0.00000000000E+00 0. -1.
         11    1    4    4    0    0  0.40256154471E+02  0.25357974435E+03  0.27071584518E+03  0.37310898348E+03  0.00000000000E+00 0.  1.
         21    1    1    2  502  501 -0.19875789941E+03 -0.63890229088E+02 -0.88882751403E+02  0.22690704583E+03  0.00000000000E+00 0. -1.
<scales pt_clust_5="13000.00000" pt_clust_6="13000.00000" pt_clust_7="13000.00000" pt_clust_8="13000.00000" pt_clust_9="208.77419"></scales>
<clustering>
<clus scale="   58.732">  5  6 -1 -1</clus>
<clus scale="   90.741">  7  8 -1 -1</clus>
<clus scale="  208.774">  2  9  1 -1</clus>
<clus scale="  292.228">  1  5  2 -1</clus>
<clus scale="  208.774">  2  5  1 -1</clus>
</clustering>
</event>
<event>
 9    2  0.2984928E-005  0.2738386E+03  0.7546771E-02  0.1099413E+00
         -1   -1    0    0    0  501 -0.00000000000E+00  0.00000000000E+00  0.12711768819E+03  0.12711768819E+03  0.00000000000E+00 0.  1.
          2   -1    0    0  502    0  0.00000000000E+00 -0.00000000000E+00 -0.18133396717E+04  0.18133396717E+04  0.00000000000E+00 0. -1.
         23    2    1    2    0    0  0.53553026418E+02  0.25759232743E+03 -0.55618163958E+02  0.28423637288E+03  0.92060858761E+02 0.  0.
         24    2    1    2    0    0 -0.29173180583E+02 -0.21155178234E+03 -0.14547411466E+04  0.14728040074E+04  0.85291321506E+02 0.  0.
        -11    1    4    4    0    0 -0.52758800774E+02 -0.84756696646E+02 -0.56270543144E+03  0.57149329939E+03  0.00000000000E+00 0.  1.
         12    1    4    4    0    0  0.23585620191E+02 -0.12679508569E+03 -0.89203571518E+03  0.90131070802E+03  0.00000000000E+00 0. -1.
        -11    1    3    3    0    0 -0.85681350093E+01  0.17543699360E+03 -0.38689579915E+02  0.17985670757E+03  0.00000000000E+00 0.  1.
         11    1    3    3    0    0  0.62121161427E+02  0.82155333825E+02 -0.16928584043E+02  0.10437966531E+03  0.00000000000E+00 0. -1.
         21    1    1    2  502  501 -0.24379845835E+02 -0.46040545089E+02 -0.17586267293E+03  0.18341697960E+03  0.00000000000E+00 0. -1.
<scales pt_clust_5="13000.00000" pt_clust_6="13000.00000" pt_clust_7="13000.00000" pt_clust_8="13000.00000" pt_clust_9="52.09711"></scales>
<clustering>
<clus scale="   52.097">  2  9  1 -1</clus>
<clus scale="   85.291">  5  6 -1 -1</clus>
<clus scale="   92.061">  7  8 -1 -1</clus>
<clus scale="  271.638">  2  5  1 -1</clus>
<clus scale="   52.097">  2  5  1 -1</clus>
</clustering>
</event>
<event>
 9    2  0.2984928E-005  0.9838743E+02  0.7546771E-02  0.1289717E+00
         -1   -1    0    0    0  501 -0.00000000000E+00  0.00000000000E+00  0.15171320845E+03  0.15171320845E+03  0.00000000000E+00 0.  1.
          2   -1    0    0  502    0  0.00000000000E+00 -0.00000000000E+00 -0.10987646714E+03  0.10987646714E+03  0.00000000000E+00 0. -1.
         23    2    1    2    0    0 -0.82198305033E+01 -0.18918337056E+02  0.93618014127E+02  0.13266378856E+03  0.91705393168E+02 0.  0.
         24    2    1    2    0    0 -0.28085350263E+01  0.39299961979E+02 -0.55732633413E+02  0.10541740492E+03  0.80338832152E+02 0.  0.
        -13    1    4    4    0    0  0.20554375229E+02 -0.15084241631E+02 -0.21660053923E+01  0.25587267654E+02  0.00000000000E+00 0.  1.
         14    1    4    4    0    0 -0.23362910255E+02  0.54384203609E+02 -0.53566628021E+02  0.79830137262E+02  0.00000000000E+00 0. -1.
        -13    1    3    3    0    0  0.19313523790E+02 -0.43428482979E+02  0.80599939748E+02  0.93570271040E+02  0.00000000000E+00 0.  1.
         13    1    3    3    0    0 -0.27533354293E+02  0.24510145923E+02  0.13018074379E+02  0.39093517523E+02  0.00000000000E+00 0. -1.
         21    1    1    2  502  501  0.11028365530E+02 -0.20381624922E+02  0.39513605940E+01  0.23508482113E+02  0.00000000000E+00 0.  1.
<scales pt_clust_5="13000.00000" pt_clust_6="13000.00000" pt_clust_7="13000.00000" pt_clust_8="13000.00000" pt_clust_9="23.17403"></scales>
<clustering>
<clus scale="   23.174">  1  9  2 -1</clus>
<clus scale="   80.339">  5  6 -1 -1</clus>
<clus scale="   87.889">  2  5  1 -1</clus>
<clus scale="   91.705">  7  8 -1 -1</clus>
<clus scale="   87.889">  2  5  1 -1</clus>
</clustering>
</event>
<event>
 9    2  0.2984928E-005  0.1160135E+03  0.7546771E-02  0.1255702E+00
          2   -1    0    0  502    0  0.00000000000E+00  0.00000000000E+00  0.77539303888E+02  0.77539303888E+02  0.00000000000E+00 0. -1.
         -1   -1    0    0    0  501 -0.00000000000E+00 -0.00000000000E+00 -0.28470680874E+03  0.28470680874E+03  0.00000000000E+00 0.  1.
         24    2    1    2    0    0  0.58102671327E+02 -0.16393396028E+01 -0.15071270662E+03  0.18057726056E+03  0.80716908049E+02 0.  0.
         23    2    1    2    0    0 -0.78422707378E+02 -0.10296663182E+02 -0.80084999939E+02  0.14829583212E+03  0.96550009336E+02 0.  0.
        -13    1    3    3    0    0 -0.87941474512E+00 -0.32422276769E+02 -0.41145881342E+02  0.52392374947E+02  0.00000000000E+00 0.  1.
         14    1    3    3    0    0  0.58982086072E+02  0.30782937166E+02 -0.10956682528E+03  0.12818488562E+03  0.00000000000E+00 0. -1.
        -11    1    4    4    0    0 -0.10471880029E+01  0.33531438847E+02 -0.35410199237E+02  0.48778439949E+02  0.00000000000E+00 0.  1.
         11    1    4    4    0    0 -0.77375519375E+02 -0.43828102029E+02 -0.44674800702E+02  0.99517392167E+02  0.00000000000E+00 0. -1.
         21    1    1    2  502  501  0.20320036051E+02  0.11936002785E+02  0.23630201710E+02  0.33373019948E+02  0.00000000000E+00 0. -1.
<scales pt_clust_5="13000.00000" pt_clust_6="13000.00000" pt_clust_7="13000.00000" pt_clust_8="13000.00000" pt_clust_9="23.56633"></scales>
<clustering>
<clus scale="   23.566">  1  9  2 -1</clus>
<clus scale="   80.717">  5  6 -1 -1</clus>
<clus scale="   96.550">  7  8 -1 -1</clus>
<clus scale="  103.211">  2  5  1 -1</clus>
<clus scale="   23.566">  1  5  2 -1</clus>
</clustering>
</event>
<event>
 9    2  0.2984928E-005  0.1699117E+03  0.7546771E-02  0.1196744E+00
          2   -1    0    0  502    0  0.00000000000E+00  0.00000000000E+00  0.42629902576E+03  0.42629902576E+03  0.00000000000E+00 0. -1.
         -1   -1    0    0    0  501 -0.00000000000E+00 -0.00000000000E+00 -0.11684001318E+03  0.11684001318E+03  0.00000000000E+00 0.  1.
         24    2    1    2    0    0 -0.10965389934E+02  0.17871804539E+03  0.14683135388E+03  0.24584345253E+03  0.82578309184E+02 0.  0.
         23    2    1    2    0    0  0.22316182220E+02 -0.46295556412E+02  0.10112756471E+03  0.15084826607E+03  0.99434020836E+02 0.  0.
        -13    1    3    3    0    0  0.19336955156E+02  0.10219998790E+03  0.12105218161E+03  0.15960070813E+03  0.00000000000E+00 0.  1.
         14    1    3    3    0    0 -0.30302345090E+02  0.76518057487E+02  0.25779172261E+02  0.86242744402E+02  0.00000000000E+00 0. -1.
        -13    1    4    4    0    0  0.60438055884E+02 -0.41350468201E+02  0.71119057565E+02  0.10208104706E+03  0.00000000000E+00 0.  1.
         13    1    4    4    0    0 -0.38121873664E+02 -0.49450882117E+01  0.30008507141E+02  0.48767219009E+02  0.00000000000E+00 0. -1.
         21    1    1    2  502  501 -0.11350792285E+02 -0.13242248898E+03  0.61500094001E+02  0.14644732034E+03  0.00000000000E+00 0.  1.
<scales pt_clust_5="13000.00000" pt_clust_6="13000.00000" pt_clust_7="13000.00000" pt_clust_8="13000.00000" pt_clust_9="148.49518"></scales>
<clustering>
<clus scale="   82.578">  5  6 -1 -1</clus>
<clus scale="   99.434">  7  8 -1 -1</clus>
<clus scale="  111.930">  1  7  2 -1</clus>
<clus scale="  148.495">  2  9  1 -1</clus>
<clus scale="  111.930">  1  5  2 -1</clus>
</clustering>
</event>
<event>
 9    2  0.2984928E-005  0.1349916E+03  0.7546771E-02  0.1223378E+00
          2   -1    0    0  502    0  0.00000000000E+00  0.00000000000E+00  0.47823481192E+03  0.47823481192E+03  0.00000000000E+00 0. -1.
         -1   -1    0    0    0  501 -0.00000000000E+00 -0.00000000000E+00 -0.15622154686E+03  0.15622154686E+03  0.00000000000E+00 0.  1.
         23    2    1    2    0    0 -0.62901916105E+02 -0.77578757392E+02 -0.10756195682E+03  0.17377537778E+03  0.93022538779E+02 0.  0.
         24    2    1    2    0    0  0.81323536015E+02  0.34210159719E+02  0.29802086689E+03  0.32094287001E+03  0.80025222088E+02 0.  0.
        -11    1    4    4    0    0  0.39703437998E+02  0.49304127713E+01  0.35349951732E+02  0.53388117090E+02  0.00000000000E+00 0.  1.
         12    1    4    4    0    0  0.41620098017E+02  0.29279746947E+02  0.26267091516E+03  0.26755475292E+03  0.00000000000E+00 0. -1.
        -11    1    3    3    0    0 -0.68698477373E+02 -0.11997925237E+02 -0.45291471669E+02  0.83154966234E+02  0.00000000000E+00 0.  1.
         11    1    3    3    0    0  0.57965612683E+01 -0.65580832155E+02 -0.62270485149E+02  0.90620411549E+02  0.00000000000E+00 0. -1.
         21    1    1    2  502  501 -0.18421619910E+02  0.43368597673E+02  0.13155435499E+03  0.13973811099E+03  0.00000000000E+00 0. -1.
<scales pt_clust_5="13000.00000" pt_clust_6="13000.00000" pt_clust_7="13000.00000" pt_clust_8="13000.00000" pt_clust_9="47.11891"></scales>
<clustering>
<clus scale="   47.119">  1  9  2 -1</clus>
<clus scale="   80.025">  5  6 -1 -1</clus>
<clus scale="   93.023">  7  8 -1 -1</clus>
<clus scale="  126.387">  1  5  2 -1</clus>
<clus scale="   47.119">  1  5  2 -1</clus>
</clustering>
</event>
<event>
 9    2  0.2984928E-005  0.1573089E+03  0.7546771E-02  0.1192506E+00
         -1   -1    0    0    0  501 -0.00000000000E+00  0.00000000000E+00  0.96985174914E+02  0.96985174914E+02  0.00000000000E+00 0.  1.
          2   -1    0    0  502    0  0.00000000000E+00 -0.00000000000E+00 -0.32892402917E+03  0.32892402917E+03  0.00000000000E+00 0. -1.
         23    2    1    2    0    0  0.44625115867E+02  0.10849040832E+03 -0.45931484671E+02  0.15597590099E+03  0.91963094454E+02 0.  0.
         24    2    1    2    0    0 -0.77704537697E+02 -0.11022417969E+03 -0.16661558382E+03  0.23154977190E+03  0.87562429890E+02 0.  0.
        -11    1    4    4    0    0 -0.89619581524E+02 -0.74862928128E+02 -0.93997138603E+02  0.14990526831E+03  0.00000000000E+00 0.  1.
         12    1    4    4    0    0  0.11915043827E+02 -0.35361251563E+02 -0.72618445214E+02  0.81644503592E+02  0.00000000000E+00 0. -1.
        -11    1    3    3    0    0  0.52964241342E+02  0.18349424167E+02 -0.39572915846E+01  0.56192280474E+02  0.00000000000E+00 0. -1.
         11    1    3    3    0    0 -0.83391254751E+01  0.90140984154E+02 -0.41974193087E+02  0.99783620515E+02  0.00000000000E+00 0.  1.
         21    1    1    2  502  501  0.33079421831E+02  0.17337713698E+01 -0.19391785768E+02  0.38383531196E+02  0.00000000000E+00 0. -1.
<scales pt_clust_5="13000.00000" pt_clust_6="13000.00000" pt_clust_7="13000.00000" pt_clust_8="13000.00000" pt_clust_9="33.12483"></scales>
<clustering>
<clus scale="   33.125">  1  9  2 -1</clus>
<clus scale="   87.562">  5  6 -1 -1</clus>
<clus scale="   91.963">  7  8 -1 -1</clus>
<clus scale="  154.777">  2  5  1 -1</clus>
<clus scale="  154.777">  2  5  1 -1</clus>
</clustering>
</event>
<event>
 9    2  0.2984928E-005  0.8603737E+02  0.7546771E-02  0.1312852E+00
         -1   -1    0    0    0  501 -0.00000000000E+00  0.00000000000E+00  0.63335133484E+02  0.63335133484E+02  0.00000000000E+00 0.  1.
          2   -1    0    0  502    0  0.00000000000E+00 -0.00000000000E+00 -0.20944585230E+03  0.20944585230E+03  0.00000000000E+00 0. -1.
         23    2    1    2    0    0 -0.19470034703E+02  0.18131698071E+01 -0.38673653703E+01  0.84352099123E+02  0.81963103135E+02 0.  0.
         24    2    1    2    0    0  0.39454863234E+02 -0.21522784915E+02 -0.93000648116E+02  0.13174814631E+03  0.81783476336E+02 0.  0.
        -11    1    4    4    0    0 -0.13427383167E+02  0.20766323185E+02 -0.33285528671E+02  0.41466386583E+02  0.00000000000E+00 0.  1.
         12    1    4    4    0    0  0.52882246401E+02 -0.42289108100E+02 -0.59715119445E+02  0.90281759723E+02  0.00000000000E+00 0. -1.
        -13    1    3    3    0    0 -0.35567867750E+02 -0.21884459412E+02 -0.25072580475E+02  0.48709722559E+02  0.00000000000E+00 0.  1.
         13    1    3    3    0    0  0.16097833048E+02  0.23697629220E+02  0.21205215105E+02  0.35642376564E+02  0.00000000000E+00 0. -1.
         21    1    1    2  502  501 -0.19984828531E+02  0.19709615108E+02 -0.49242705335E+02  0.56680740361E+02  0.00000000000E+00 0.  1.
<scales pt_clust_5="13000.00000" pt_clust_6="13000.00000" pt_clust_7="13000.00000" pt_clust_8="13000.00000" pt_clust_9="28.06888"></scales>
<clustering>
<clus scale="   28.069">  2  9  1 -1</clus>
<clus scale="   81.783">  5  6 -1 -1</clus>
<clus scale="   81.963">  7  8 -1 -1</clus>
<clus scale="   85.866">  2  5  1 -1</clus>
<clus scale="   28.069">  2  5  1 -1</clus>
</clustering>
</event>
<event>
 9    2  0.2984928E-005  0.1876159E+03  0.7546771E-02  0.1165968E+00
          2   -1    0    0  502    0  0.00000000000E+00  0.00000000000E+00  0.11682166810E+04  0.11682166810E+04  0.00000000000E+00 0. -1.
         -1   -1    0    0    0  501 -0.00000000000E+00 -0.00000000000E+00 -0.10356186382E+03  0.10356186382E+03  0.00000000000E+00 0.  1.
         23    2    1    2    0    0 -0.13509681789E+03  0.35733819200E+02  0.30180941209E+02  0.16853497274E+03  0.89247362910E+02 0.  0.
         24    2    1    2    0    0  0.10141708366E+03  0.14789240109E+03  0.51613858451E+03  0.55231309766E+03  0.80579974363E+02 0.  0.
        -11    1    4    4    0    0  0.38354966173E+02  0.77354685995E+01  0.66779309172E+02  0.77397784452E+02  0.00000000000E+00 0.  1.
         12    1    4    4    0    0  0.63062117483E+02  0.14015693249E+03  0.44935927534E+03  0.47491531321E+03  0.00000000000E+00 0. -1.
        -13    1    3    3    0    0 -0.40115316988E+02  0.54968090888E+02  0.40777248814E+01  0.68171530077E+02  0.00000000000E+00 0. -1.
         13    1    3    3    0    0 -0.94981500902E+02 -0.19234271688E+02  0.26103216328E+02  0.10036344267E+03  0.00000000000E+00 0.  1.
         21    1    1    2  502  501  0.33679734235E+02 -0.18362622029E+03  0.51833529149E+03  0.55093047445E+03  0.00000000000E+00 0.  1.
<scales pt_clust_5="13000.00000" pt_clust_6="13000.00000" pt_clust_7="13000.00000" pt_clust_8="13000.00000" pt_clust_9="169.43024"></scales>
<clustering>
<clus scale="   80.580">  5  6 -1 -1</clus>
<clus scale="   89.247">  7  8 -1 -1</clus>
<clus scale="  165.811">  2  7  1 -1</clus>
<clus scale="  169.430">  1  9  2 -1</clus>
<clus scale="  169.430">  1  5  2 -1</clus>
</clustering>
</event>
<event>
 9    2  0.2984928E-005  0.1602930E+03  0.7546771E-02  0.1190342E+00
          2   -1    0    0  502    0  0.00000000000E+00  0.00000000000E+00  0.98923251080E+03  0.98923251080E+03  0.00000000000E+00 0. -1.
         -1   -1    0    0    0  501 -0.00000000000E+00 -0.00000000000E+00 -0.10911339360E+03  0.10911339360E+03  0.00000000000E+00 0.  1.
         24    2    1    2    0    0 -0.81665941948E+02 -0.97569975468E+02 -0.10691205580E+01  0.15043074843E+03  0.80243634426E+02 0.  0.
         23    2    1    2    0    0  0.17158993191E+03  0.38547244401E+02  0.32157874076E+03  0.37806184512E+03  0.92676196769E+02 0.  0.
        -13    1    3    3    0    0 -0.36951889966E+02 -0.99018409009E+02 -0.52563330235E+00  0.10568994174E+03  0.00000000000E+00 0.  1.
         14    1    3    3    0    0 -0.44714051982E+02  0.14484335415E+01 -0.54348725567E+00  0.44740806684E+02  0.00000000000E+00 0. -1.
        -13    1    4    4    0    0  0.17417375509E+03  0.15924033707E+02  0.27024239787E+03  0.32190219853E+03  0.00000000000E+00 0. -1.
         13    1    4    4    0    0 -0.25838231839E+01  0.22623210693E+02  0.51336342891E+02  0.56159646595E+02  0.00000000000E+00 0.  1.
         21    1    1    2  502  501 -0.89923989958E+02  0.59022731067E+02  0.55960949700E+03  0.56985331085E+03  0.00000000000E+00 0. -1.
<scales pt_clust_5="13000.00000" pt_clust_6="13000.00000" pt_clust_7="13000.00000" pt_clust_8="13000.00000" pt_clust_9="107.56397"></scales>
<clustering>
<clus scale="   80.244">  5  6 -1 -1</clus>
<clus scale="   92.676">  7  8 -1 -1</clus>
<clus scale="  107.564">  1  9  2 -1</clus>
<clus scale="  153.441">  2  5  1 -1</clus>
<clus scale="  107.564">  1  5  2 -1</clus>
</clustering>
</event>
<event>
 9    2  0.2984928E-005  0.1235050E+03  0.7546771E-02  0.1239435E+00
         -1   -1    0    0    0  501 -0.00000000000E+00  0.00000000000E+00  0.58042570085E+02  0.58042570085E+02  0.00000000000E+00 0.  1.
          2   -1    0    0  502    0  0.00000000000E+00 -0.00000000000E+00 -0.33196879089E+03  0.33196879089E+03  0.00000000000E+00 0. -1.
         23    2    1    2    0    0  0.92420444440E+01  0.73708930101E+02 -0.82484813214E+02  0.14405485510E+03  0.91813044307E+02 0.  0.
         24    2    1    2    0    0  0.31489848017E+01 -0.96099240085E+02 -0.15207660890E+03  0.19900492483E+03  0.85033435074E+02 0.  0.
        -13    1    4    4    0    0  0.32527096253E+02 -0.13025781657E+02 -0.20335113292E+02  0.40511724365E+02  0.00000000000E+00 0.  1.
         14    1    4    4    0    0 -0.29378111451E+02 -0.83073458428E+02 -0.13174149561E+03  0.15849320046E+03  0.00000000000E+00 0. -1.
        -13    1    3    3    0    0  0.30781094832E+02  0.17040894168E+02  0.70929721438E+01  0.35891198461E+02  0.00000000000E+00 0.  1.
         13    1    3    3    0    0 -0.21539050388E+02  0.56668035933E+02 -0.89577785358E+02  0.10816365664E+03  0.00000000000E+00 0. -1.
         21    1    1    2  502  501 -0.12391029246E+02  0.22390309984E+02 -0.39364798695E+02  0.46951581052E+02  0.00000000000E+00 0.  1.
<scales pt_clust_5="13000.00000" pt_clust_6="13000.00000" pt_clust_7="13000.00000" pt_clust_8="13000.00000" pt_clust_9="25.59030"></scales>
<clustering>
<clus scale="   25.590">  2  9  1 -1</clus>
<clus scale="   85.033">  5  6 -1 -1</clus>
<clus scale="   91.813">  7  8 -1 -1</clus>
<clus scale="  118.552">  2  5  1 -1</clus>
<clus scale="   25.590">  2  5  1 -1</clus>
</clustering>
</event>
<event>
 9    2  0.2984928E-005  0.1157428E+03  0.7546771E-02  0.1261391E+00
         -1   -1    0    0    0  501 -0.00000000000E+00  0.00000000000E+00  0.13909059622E+03  0.13909059622E+03  0.00000000000E+00 0.  1.
          2   -1    0    0  502    0  0.00000000000E+00 -0.00000000000E+00 -0.51163073710E+03  0.51163073710E+03  0.00000000000E+00 0. -1.
         23    2    1    2    0    0  0.46082902261E+02  0.18188188081E+02  0.10594490761E+03  0.15772773429E+03  0.10582660653E+03 0.  0.
         24    2    1    2    0    0 -0.10557049209E+02 -0.13666582493E+02 -0.30475573843E+03  0.31561151332E+03  0.80226806436E+02 0.  0.
        -13    1    4    4    0    0  0.32875702657E+02  0.74558530947E+01 -0.11951328428E+03  0.12417659478E+03  0.00000000000E+00 0.  1.
         14    1    4    4    0    0 -0.43432751866E+02 -0.21122435588E+02 -0.18524245415E+03  0.19143491854E+03  0.00000000000E+00 0. -1.
        -11    1    3    3    0    0 -0.17982736310E+02 -0.10285382540E+02 -0.93988196983E+01  0.22748751854E+02  0.00000000000E+00 0. -1.
         11    1    3    3    0    0  0.64065638571E+02  0.28473570621E+02  0.11534372731E+03  0.13497898244E+03  0.00000000000E+00 0.  1.
         21    1    1    2  502  501 -0.35525853052E+02 -0.45216055880E+01 -0.17372931007E+03  0.17738208571E+03  0.00000000000E+00 0. -1.
<scales pt_clust_5="13000.00000" pt_clust_6="13000.00000" pt_clust_7="13000.00000" pt_clust_8="13000.00000" pt_clust_9="35.81244"></scales>
<clustering>
<clus scale="   35.812">  2  9  1 -1</clus>
<clus scale="   80.227">  5  6 -1 -1</clus>
<clus scale="   92.916">  2  5  1 -1</clus>
<clus scale="  105.827">  7  8 -1 -1</clus>
<clus scale="   35.812">  2  5  1 -1</clus>
</clustering>
</event>
<event>
 9    2  0.2984928E-005  0.1098428E+03  0.7546771E-02  0.1265255E+00
          2   -1    0    0  502    0  0.00000000000E+00  0.00000000000E+00  0.11353179079E+03  0.11353179079E+03  0.00000000000E+00 0. -1.
         -1   -1    0    0    0  501 -0.00000000000E+00 -0.00000000000E+00 -0.21677766766E+03  0.21677766766E+03  0.00000000000E+00 0.  1.
         23    2    1    2    0    0  0.75015747704E+02  0.24968200700E+02 -0.13017492713E+03  0.17765642006E+03  0.91463208376E+02 0.  0.
         24    2    1    2    0    0 -0.15845016785E+02  0.86901041217E+00  0.31848029404E+02  0.87900175663E+02  0.80376141787E+02 0.  0.
        -13    1    4    4    0    0 -0.29042253622E+02 -0.10922800711E+02  0.52326217478E+02  0.60834144248E+02  0.00000000000E+00 0.  1.
         14    1    4    4    0    0  0.13197236837E+02  0.11791811123E+02 -0.20478188075E+02  0.27066031414E+02  0.00000000000E+00 0. -1.
        -13    1    3    3    0    0 -0.18064357070E+02  0.18536566952E+02 -0.41673324894E+02  0.49057021092E+02  0.00000000000E+00 0.  1.
         13    1    3    3    0    0  0.93080104773E+02  0.64316337480E+01 -0.88501602236E+02  0.12859939897E+03  0.00000000000E+00 0. -1.
         21    1    1    2  502  501 -0.59170730919E+02 -0.25837211112E+02 -0.49189791468E+01  0.64752862727E+02  0.00000000000E+00 0.  1.
<scales pt_clust_5="13000.00000" pt_clust_6="13000.00000" pt_clust_7="13000.00000" pt_clust_8="13000.00000" pt_clust_9="64.56576"></scales>
<clustering>
<clus scale="   64.566">  1  9  2 -1</clus>
<clus scale="   80.376">  5  6 -1 -1</clus>
<clus scale="   91.463">  7  8 -1 -1</clus>
<clus scale="  100.798">  1  5  2 -1</clus>
<clus scale="   64.566">  1  5  2 -1</clus>
</clustering>
</event>
<event>
 9    2  0.2984928E-005  0.9738570E+02  0.7546771E-02  0.1291997E+00
          2   -1    0    0  502    0  0.00000000000E+00  0.00000000000E+00  0.30714442680E+03  0.30714442680E+03  0.00000000000E+00 0. -1.
         -1   -1    0    0    0  501 -0.00000000000E+00 -0.00000000000E+00 -0.98993746242E+02  0.98993746242E+02  0.00000000000E+00 0.  1.
         23    2    1    2    0    0  0.20139207918E+02 -0.20209994237E+02 -0.55569526618E+02  0.11117782131E+03  0.91970126124E+02 0.  0.
         24    2    1    2    0    0 -0.29094165791E+02  0.50544113386E+02  0.18454079795E+03  0.20969764652E+03  0.80725578151E+02 0.  0.
        -13    1    4    4    0    0 -0.53041264778E+02  0.52792798073E+02  0.14966318405E+03  0.16733058285E+03  0.00000000000E+00 0.  1.
         14    1    4    4    0    0  0.23947098987E+02 -0.22486846873E+01  0.34877613903E+02  0.42367063673E+02  0.00000000000E+00 0. -1.
        -13    1    3    3    0    0  0.51259037065E+02  0.20620804917E+00 -0.53210034368E+02  0.73883957393E+02  0.00000000000E+00 0. -1.
         13    1    3    3    0    0 -0.31119829147E+02 -0.20416202286E+02 -0.23594922502E+01  0.37293863914E+02  0.00000000000E+00 0.  1.
         21    1    1    2  502  501  0.89549578728E+01 -0.30334119149E+02  0.79179409227E+02  0.85262705215E+02  0.00000000000E+00 0. -1.
<scales pt_clust_5="13000.00000" pt_clust_6="13000.00000" pt_clust_7="13000.00000" pt_clust_8="13000.00000" pt_clust_9="31.62831"></scales>
<clustering>
<clus scale="   31.628">  1  9  2 -1</clus>
<clus scale="   80.726">  5  6 -1 -1</clus>
<clus scale="   86.845">  1  5  2 -1</clus>
<clus scale="   91.970">  7  8 -1 -1</clus>
<clus scale="   31.628">  1  5  2 -1</clus>
</clustering>
</event>
<event>
 9    2  0.2984928E-005  0.1013682E+03  0.7546771E-02  0.1283221E+00
          2   -1    0    0  502    0  0.00000000000E+00  0.00000000000E+00  0.41148001695E+03  0.41148001695E+03  0.00000000000E+00 0. -1.
         -1   -1    0    0    0  501 -0.00000000000E+00 -0.00000000000E+00 -0.88048332272E+02  0.88048332272E+02  0.00000000000E+00 0.  1.
         23    2    1    2    0    0  0.34951188404E+02 -0.18393672399E+02 -0.45660622843E+02  0.11057267342E+03  0.92636444624E+02 0.  0.
         24    2    1    2    0    0 -0.45709679819E+02  0.37207667894E+02  0.31972208599E+03  0.33503786485E+03  0.80959083720E+02 0.  0.
        -11    1    4    4    0    0  0.20744372122E+02 -0.15559668900E+01  0.42188807555E+02  0.47038765828E+02  0.00000000000E+00 0.  1.
         12    1    4    4    0    0 -0.66454051941E+02  0.38763634784E+02  0.27753327843E+03  0.28799909902E+03  0.00000000000E+00 0. -1.
        -13    1    3    3    0    0  0.49438110449E+02  0.21746034734E+01 -0.62930988563E+02  0.80057260673E+02  0.00000000000E+00 0.  1.
         13    1    3    3    0    0 -0.14486922044E+02 -0.20568275873E+02  0.17270365720E+02  0.30515412742E+02  0.00000000000E+00 0. -1.
         21    1    1    2  502  501  0.10758491415E+02 -0.18813995495E+02  0.49370221529E+02  0.53917810952E+02  0.00000000000E+00 0.  1.
<scales pt_clust_5="13000.00000" pt_clust_6="13000.00000" pt_clust_7="13000.00000" pt_clust_8="13000.00000" pt_clust_9="21.67283"></scales>
<clustering>
<clus scale="   21.673">  1  9  2 -1</clus>
<clus scale="   80.959">  5  6 -1 -1</clus>
<clus scale="   90.821">  1  5  2 -1</clus>
<clus scale="   92.636">  7  8 -1 -1</clus>
<clus scale="   21.673">  1  5  2 -1</clus>
</clustering>
</event>
<event>
 9    2  0.2984928E-005  0.1289275E+03  0.7546771E-02  0.1232060E+00
          2   -1    0    0  502    0  0.00000000000E+00  0.00000000000E+00  0.63155055161E+03  0.63155055161E+03  0.00000000000E+00 0. -1.
         -1   -1    0    0    0  501 -0.00000000000E+00 -0.00000000000E+00 -0.63179076707E+02  0.63179076707E+02  0.00000000000E+00 0.  1.
         23    2    1    2    0    0  0.58761038392E+02  0.65484113582E+02  0.26188915912E+02  0.12952083483E+03  0.91371541383E+02 0.  0.
         24    2    1    2    0    0 -0.70163346949E+02 -0.84736157893E+02  0.48730045366E+03  0.50594076385E+03  0.80070048595E+02 0.  0.
        -13    1    4    4    0    0  0.17498002821E+02 -0.20571780079E+02  0.81949741222E+02  0.86285214983E+02  0.00000000000E+00 0.  1.
         14    1    4    4    0    0 -0.87661349771E+02 -0.64164377814E+02  0.40535071244E+03  0.41965554887E+03  0.00000000000E+00 0. -1.
        -13    1    3    3    0    0  0.42856405570E+02  0.33416706870E+02 -0.30618442799E+02  0.62376572813E+02  0.00000000000E+00 0.  1.
         13    1    3    3    0    0  0.15904632822E+02  0.32067406712E+02  0.56807358711E+02  0.67144262020E+02  0.00000000000E+00 0. -1.
         21    1    1    2  502  501  0.11402308558E+02  0.19252044311E+02  0.54882105333E+02  0.59268029631E+02  0.00000000000E+00 0.  1.
<scales pt_clust_5="13000.00000" pt_clust_6="13000.00000" pt_clust_7="13000.00000" pt_clust_8="13000.00000" pt_clust_9="22.37530"></scales>
<clustering>
<clus scale="   22.375">  1  9  2 -1</clus>
<clus scale="   80.070">  5  6 -1 -1</clus>
<clus scale="   91.372">  7  8 -1 -1</clus>
<clus scale="  121.181">  1  5  2 -1</clus>
<clus scale="   22.375">  1  5  2 -1</clus>
</clustering>
</event>
<event>
 9    2  0.2984928E-005  0.1006739E+03  0.7546771E-02  0.1280845E+00
          2   -1    0    0  502    0  0.00000000000E+00  0.00000000000E+00  0.47835682262E+03  0.47835682262E+03  0.00000000000E+00 0. -1.
         -1   -1    0    0    0  501 -0.00000000000E+00 -0.00000000000E+00 -0.52550314177E+02  0.52550314177E+02  0.00000000000E+00 0.  1.
         23    2    1    2    0    0  0.77882486929E+02 -0.12072900445E+01  0.40131507728E+02  0.11792565320E+03  0.78922635862E+02 0.  0.
         24    2    1    2    0    0 -0.52620553834E+02  0.45681676296E+01  0.37026163003E+03  0.38319838842E+03  0.83411865929E+02 0.  0.
        -11    1    4    4    0    0 -0.27551671094E+02  0.28324868784E+02  0.65572983111E+02  0.76558532417E+02  0.00000000000E+00 0.  1.
         12    1    4    4    0    0 -0.25068882740E+02 -0.23756701155E+02  0.30468864692E+03  0.30663985601E+03  0.00000000000E+00 0. -1.
        -11    1    3    3    0    0  0.13284790707E+02  0.27027280734E+02 -0.96480994388E+01  0.31623494285E+02  0.00000000000E+00 0.  1.
         11    1    3    3    0    0  0.64597696222E+02 -0.28234570779E+02  0.49779607167E+02  0.86302158918E+02  0.00000000000E+00 0. -1.
         21    1    1    2  502  501 -0.25261933095E+02 -0.33608775851E+01  0.15413370683E+02  0.29783095166E+02  0.00000000000E+00 0.  1.
<scales pt_clust_5="13000.00000" pt_clust_6="13000.00000" pt_clust_7="13000.00000" pt_clust_8="13000.00000" pt_clust_9="25.48452"></scales>
<clustering>
<clus scale="   25.485">  2  9  1 -1</clus>
<clus scale="   78.923">  7  8 -1 -1</clus>
<clus scale="   83.412">  5  6 -1 -1</clus>
<clus scale="   96.987">  2  7  1 -1</clus>
<clus scale="  100.674">  1  5  2 -1</clus>
</clustering>
</event>
<event>
 9    2  0.2984928E-005  0.1469327E+03  0.7546771E-02  0.1206179E+00
         -1   -1    0    0    0  501 -0.00000000000E+00  0.00000000000E+00  0.33698931402E+02  0.33698931402E+02  0.00000000000E+00 0.  1.
          2   -1    0    0  502    0  0.00000000000E+00 -0.00000000000E+00 -0.11801090621E+04  0.11801090621E+04  0.00000000000E+00 0. -1.
         23    2    1    2    0    0 -0.12113633491E+03  0.17409918314E+01 -0.18445667328E+03  0.23877539329E+03  0.91172262435E+02 0.  0.
         24    2    1    2    0    0  0.92909051886E+02  0.16907130174E+02 -0.79051450731E+03  0.80028751279E+03  0.81418510735E+02 0.  0.
        -13    1    4    4    0    0  0.14897276284E+02 -0.28014992429E+02 -0.13851154213E+03  0.14209931718E+03  0.00000000000E+00 0.  1.
         14    1    4    4    0    0  0.78011775602E+02  0.44922122603E+02 -0.65200296519E+03  0.65818819561E+03  0.00000000000E+00 0. -1.
        -13    1    3    3    0    0 -0.63346888986E+02 -0.16669648303E+02 -0.16087802208E+03  0.17370216898E+03  0.00000000000E+00 0. -1.
         13    1    3    3    0    0 -0.57789445925E+02  0.18410640135E+02 -0.23578651195E+02  0.65073224314E+02  0.00000000000E+00 0.  1.
         21    1    1    2  502  501  0.28227283025E+02 -0.18648122005E+02 -0.17143895009E+03  0.17474508740E+03  0.00000000000E+00 0. -1.
<scales pt_clust_5="13000.00000" pt_clust_6="13000.00000" pt_clust_7="13000.00000" pt_clust_8="13000.00000" pt_clust_9="33.83093"></scales>
<clustering>
<clus scale="   33.831">  2  9  1 -1</clus>
<clus scale="   81.419">  5  6 -1 -1</clus>
<clus scale="   91.172">  7  8 -1 -1</clus>
<clus scale="  141.088">  2  5  1 -1</clus>
<clus scale="   33.831">  2  5  1 -1</clus>
</clustering>
</event>
<event>
 9    2  0.2984928E-005  0.1112637E+03  0.7546771E-02  0.1262671E+00
         -1   -1    0    0    0  501 -0.00000000000E+00  0.00000000000E+00  0.12816975004E+03  0.12816975004E+03  0.00000000000E+00 0.  1.
          2   -1    0    0  502    0  0.00000000000E+00 -0.00000000000E+00 -0.20287328985E+03  0.20287328985E+03  0.00000000000E+00 0. -1.
         23    2    1    2    0    0 -0.71647864086E+02  0.59898390424E+01  0.41987800541E+02  0.12281970536E+03  0.90290697359E+02 0.  0.
         24    2    1    2    0    0  0.49274735612E+02  0.47319185519E+02 -0.10752278987E+03  0.14968726621E+03  0.78600397163E+02 0.  0.
        -11    1    4    4    0    0  0.53117137919E+02  0.10666537073E+02 -0.25733532070E+02  0.59978496369E+02  0.00000000000E+00 0.  1.
         12    1    4    4    0    0 -0.38424023068E+01  0.36652648447E+02 -0.81789257804E+02  0.89708769838E+02  0.00000000000E+00 0. -1.
        -13    1    3    3    0    0  0.20463769974E+02 -0.53483596510E+01  0.15762891627E+02  0.26378771483E+02  0.00000000000E+00 0. -1.
         13    1    3    3    0    0 -0.92111634059E+02  0.11338198693E+02  0.26224908914E+02  0.96440933873E+02  0.00000000000E+00 0.  1.
         21    1    1    2  502  501  0.22373128473E+02 -0.53309024561E+02 -0.91685504818E+01  0.58536068328E+02  0.00000000000E+00 0.  1.
<scales pt_clust_5="13000.00000" pt_clust_6="13000.00000" pt_clust_7="13000.00000" pt_clust_8="13000.00000" pt_clust_9="57.81357"></scales>
<clustering>
<clus scale="   57.814">  1  9  2 -1</clus>
<clus scale="   78.600">  5  6 -1 -1</clus>
<clus scale="   90.291">  7  8 -1 -1</clus>
<clus scale="  102.006">  2  5  1 -1</clus>
<clus scale="  102.006">  2  5  1 -1</clus>
</clustering>
</event>
<event>
 9    2  0.2984928E-005  0.1001112E+03  0.7546771E-02  0.1284497E+00
          2   -1    0    0  502    0  0.00000000000E+00  0.00000000000E+00  0.47152636891E+03  0.47152636891E+03  0.00000000000E+00 0. -1.
         -1   -1    0    0    0  501 -0.00000000000E+00 -0.00000000000E+00 -0.93407307273E+02  0.93407307273E+02  0.00000000000E+00 0.  1.
         24    2    1    2    0    0 -0.49358855977E+01  0.49577307566E+02 -0.48946241314E+02  0.10688177917E+03  0.80905548562E+02 0.  0.
         23    2    1    2    0    0 -0.93824181531E+01 -0.14488224088E+02  0.13270932454E+03  0.16126628478E+03  0.89983950675E+02 0.  0.
        -13    1    3    3    0    0 -0.55422586304E+01  0.72153523084E+02 -0.35599770709E+02  0.80648566005E+02  0.00000000000E+00 0.  1.
         14    1    3    3    0    0  0.60637303270E+00 -0.22576215519E+02 -0.13346470605E+02  0.26233213166E+02  0.00000000000E+00 0. -1.
        -11    1    4    4    0    0 -0.39938424073E+02 -0.10150242965E+02  0.12171913166E+03  0.12850545577E+03  0.00000000000E+00 0. -1.
         11    1    4    4    0    0  0.30556005919E+02 -0.43379811235E+01  0.10990192877E+02  0.32760829010E+02  0.00000000000E+00 0.  1.
         21    1    1    2  502  501  0.14318303751E+02 -0.35089083477E+02  0.29435597841E+03  0.29678561223E+03  0.00000000000E+00 0. -1.
<scales pt_clust_5="13000.00000" pt_clust_6="13000.00000" pt_clust_7="13000.00000" pt_clust_8="13000.00000" pt_clust_9="37.89799"></scales>
<clustering>
<clus scale="   37.898">  1  9  2 -1</clus>
<clus scale="   80.906">  5  6 -1 -1</clus>
<clus scale="   89.984">  7  8 -1 -1</clus>
<clus scale="   92.037">  2  5  1 -1</clus>
<clus scale="   37.898">  1  5  2 -1</clus>
</clustering>
</event>
<event>
 9    2  0.2984928E-005  0.1047235E+03  0.7546771E-02  0.1274867E+00
          4   -1    0    0  502    0  0.00000000000E+00  0.00000000000E+00  0.11914581898E+03  0.11914581898E+03  0.00000000000E+00 0. -1.
         -3   -1    0    0    0  501 -0.00000000000E+00 -0.00000000000E+00 -0.13345080582E+03  0.13345080582E+03  0.00000000000E+00 0.  1.
         23    2    1    2    0    0  0.47001571789E+02 -0.64868077881E+01 -0.57805235536E+02  0.11825889306E+03  0.91610556745E+02 0.  0.
         24    2    1    2    0    0 -0.53764776861E+02  0.29826067843E+02  0.37813765331E+02  0.10938180868E+03  0.82184266542E+02 0.  0.
        -11    1    4    4    0    0 -0.20648934919E+02  0.54299316202E+02  0.35624161469E+02  0.68145983988E+02  0.00000000000E+00 0.  1.
         12    1    4    4    0    0 -0.33115841941E+02 -0.24473248359E+02  0.21896038616E+01  0.41235824689E+02  0.00000000000E+00 0. -1.
        -11    1    3    3    0    0 -0.18406348977E+01  0.20182755273E+02 -0.59219918135E+02  0.62591774629E+02  0.00000000000E+00 0.  1.
         11    1    3    3    0    0  0.48842206687E+02 -0.26669563061E+02  0.14146825991E+01  0.55667118434E+02  0.00000000000E+00 0. -1.
         21    1    1    2  502  501  0.67632050719E+01 -0.23339260055E+02  0.56864833699E+01  0.24955923062E+02  0.00000000000E+00 0.  1.
<scales pt_clust_5="13000.00000" pt_clust_6="13000.00000" pt_clust_7="13000.00000" pt_clust_8="13000.00000" pt_clust_9="24.29942"></scales>
<clustering>
<clus scale="   24.299">  1  9  2 -1</clus>
<clus scale="   82.184">  5  6 -1 -1</clus>
<clus scale="   91.611">  7  8 -1 -1</clus>
<clus scale="   96.586">  1  5  2 -1</clus>
<clus scale="   24.299">  1  5  2 -1</clus>
</clustering>
</event>
<event>
 9    2  0.2984928E-005  0.2049318E+03  0.7546771E-02  0.1146517E+00
         -1   -1    0    0    0  501 -0.00000000000E+00  0.00000000000E+00  0.10090719564E+03  0.10090719564E+03  0.00000000000E+00 0.  1.
          2   -1    0    0  502    0  0.00000000000E+00 -0.00000000000E+00 -0.11137887460E+04  0.11137887460E+04  0.00000000000E+00 0. -1.
         24    2    1    2    0    0 -0.18092013892E+03 -0.49619498341E+02 -0.57877817220E+02  0.21220269466E+03  0.80535399749E+02 0.  0.
         23    2    1    2    0    0  0.13277332792E+03  0.13118538125E+03 -0.59045082671E+03  0.62583699752E+03  0.90561624570E+02 0.  0.
        -13    1    3    3    0    0 -0.15018761970E+03 -0.37662331503E+02 -0.78202345627E+02  0.17346578679E+03  0.00000000000E+00 0.  1.
         14    1    3    3    0    0 -0.30732519215E+02 -0.11957166838E+02  0.20324528406E+02  0.38736907866E+02  0.00000000000E+00 0. -1.
        -11    1    4    4    0    0  0.22252142146E+02  0.84545312477E+02 -0.24055973303E+03  0.25595322394E+03  0.00000000000E+00 0. -1.
         11    1    4    4    0    0  0.11052118578E+03  0.46640068777E+02 -0.34989109368E+03  0.36988377358E+03  0.00000000000E+00 0.  1.
         21    1    1    2  502  501  0.48146810996E+02 -0.81565882912E+02 -0.36455290646E+03  0.37665624948E+03  0.00000000000E+00 0. -1.
<scales pt_clust_5="13000.00000" pt_clust_6="13000.00000" pt_clust_7="13000.00000" pt_clust_8="13000.00000" pt_clust_9="94.71594"></scales>
<clustering>
<clus scale="   80.535">  5  6 -1 -1</clus>
<clus scale="   90.562">  7  8 -1 -1</clus>
<clus scale="   94.716">  2  9  1 -1</clus>
<clus scale="  200.703">  1  5  2 -1</clus>
<clus scale="   94.716">  2  5  1 -1</clus>
</clustering>
</event>
<event>
 9    2  0.2984928E-005  0.1757583E+03  0.7546771E-02  0.1191999E+00
          2   -1    0    0  502    0  0.00000000000E+00  0.00000000000E+00  0.34694956117E+03  0.34694956117E+03  0.00000000000E+00 0. -1.
         -1   -1    0    0    0  501 -0.00000000000E+00 -0.00000000000E+00 -0.48718477288E+03  0.48718477288E+03  0.00000000000E+00 0.  1.
         23    2    1    2    0    0  0.13782458432E+03 -0.49429384844E+02  0.91892682772E+02  0.19559492762E+03  0.91510821394E+02 0.  0.
         24    2    1    2    0    0  0.11728117433E+02  0.77632676709E+02  0.17275207161E+03  0.20600128878E+03  0.80180243830E+02 0.  0.
        -13    1    4    4    0    0  0.38669069814E+02  0.22358040244E+02  0.10714315892E+03  0.11608115880E+03  0.00000000000E+00 0.  1.
         14    1    4    4    0    0 -0.26940952380E+02  0.55274636465E+02  0.65608912689E+02  0.89920129981E+02  0.00000000000E+00 0. -1.
        -11    1    3    3    0    0  0.71189605486E+02 -0.62584277034E+02  0.85013222311E+02  0.12732635088E+03  0.00000000000E+00 0.  1.
         11    1    3    3    0    0  0.66634978837E+02  0.13154892190E+02  0.68794604614E+01  0.68268576735E+02  0.00000000000E+00 0. -1.
         21    1    1    2  502  501 -0.14955270176E+03 -0.28203291865E+02 -0.40487996609E+03  0.43253811765E+03  0.00000000000E+00 0.  1.
<scales pt_clust_5="13000.00000" pt_clust_6="13000.00000" pt_clust_7="13000.00000" pt_clust_8="13000.00000" pt_clust_9="150.05577"></scales>
<clustering>
<clus scale="   80.180">  5  6 -1 -1</clus>
<clus scale="   91.511">  7  8 -1 -1</clus>
<clus scale="  112.220">  1  5  2 -1</clus>
<clus scale="  150.056">  2  9  1 -1</clus>
<clus scale="  112.220">  1  5  2 -1</clus>
</clustering>
</event>
<event>
 9    2  0.2984928E-005  0.1824065E+03  0.7546771E-02  0.1186281E+00
         -1   -1    0    0    0  501 -0.00000000000E+00  0.00000000000E+00  0.23488640344E+03  0.23488640344E+03  0.00000000000E+00 0.  1.
          2   -1    0    0  502    0  0.00000000000E+00 -0.00000000000E+00 -0.15038287860E+04  0.15038287860E+04  0.00000000000E+00 0. -1.
         23    2    1    2    0    0  0.68020505399E+02 -0.30624337537E+01  0.17844886478E+03  0.21171721059E+03  0.91345565104E+02 0.  0.
         24    2    1    2    0    0  0.10141442502E+03  0.31187564723E+02 -0.97101521546E+02  0.16582878943E+03  0.82540487770E+02 0.  0.
        -11    1    4    4    0    0  0.10342501323E+03  0.49213282451E+02 -0.92213309493E+02  0.14704412596E+03  0.00000000000E+00 0.  1.
         12    1    4    4    0    0 -0.20105882127E+01 -0.18025717728E+02 -0.48882120525E+01  0.18784663468E+02  0.00000000000E+00 0. -1.
        -13    1    3    3    0    0  0.88701574192E+02  0.83121563760E+01  0.15268730406E+03  0.17677803605E+03  0.00000000000E+00 0.  1.
         13    1    3    3    0    0 -0.20681068793E+02 -0.11374590130E+02  0.25761560715E+02  0.34939174540E+02  0.00000000000E+00 0. -1.
         21    1    1    2  502  501 -0.16943493042E+03 -0.28125130970E+02 -0.13502897258E+04  0.13611691894E+04  0.00000000000E+00 0. -1.
<scales pt_clust_5="13000.00000" pt_clust_6="13000.00000" pt_clust_7="13000.00000" pt_clust_8="13000.00000" pt_clust_9="162.66287"></scales>
<clustering>
<clus scale="   82.540">  5  6 -1 -1</clus>
<clus scale="   91.346">  7  8 -1 -1</clus>
<clus scale="  113.931">  1  7  2 -1</clus>
<clus scale="  162.663">  2  9  1 -1</clus>
<clus scale="  162.663">  2  5  1 -1</clus>
</clustering>
</event>
<event>
 9    2  0.2984928E-005  0.1451689E+03  0.7546771E-02  0.1209135E+00
          2   -1    0    0  502    0  0.00000000000E+00  0.00000000000E+00  0.24024121741E+03  0.24024121741E+03  0.00000000000E+00 0. -1.
         -1   -1    0    0    0  501 -0.00000000000E+00 -0.00000000000E+00 -0.41701341491E+03  0.41701341491E+03  0.00000000000E+00 0.  1.
         23    2    1    2    0    0 -0.10495094305E+03 -0.45543879286E+02 -0.37063765921E+03  0.39898722752E+03  0.93432263744E+02 0.  0.
         24    2    1    2    0    0  0.52736386217E+02  0.49540648475E+02  0.16784336724E+03  0.19979105480E+03  0.80682509682E+02 0.  0.
        -11    1    4    4    0    0 -0.19797525777E+02  0.43302141796E+01  0.17157874718E+02  0.26553445098E+02  0.00000000000E+00 0.  1.
         12    1    4    4    0    0  0.72533911994E+02  0.45210434296E+02  0.15068549252E+03  0.17323760970E+03  0.00000000000E+00 0. -1.
        -13    1    3    3    0    0 -0.84798842580E+02  0.23127566744E+01 -0.15004186546E+03  0.17236227527E+03  0.00000000000E+00 0. -1.
         13    1    3    3    0    0 -0.20152100471E+02 -0.47856635961E+02 -0.22059579376E+03  0.22662495225E+03  0.00000000000E+00 0.  1.
         21    1    1    2  502  501  0.52214556834E+02 -0.39967691891E+01  0.26022094474E+02  0.58476350007E+02  0.00000000000E+00 0. -1.
<scales pt_clust_5="13000.00000" pt_clust_6="13000.00000" pt_clust_7="13000.00000" pt_clust_8="13000.00000" pt_clust_9="52.36730"></scales>
<clustering>
<clus scale="   52.367">  1  9  2 -1</clus>
<clus scale="   80.683">  5  6 -1 -1</clus>
<clus scale="   93.432">  7  8 -1 -1</clus>
<clus scale="  137.310">  1  5  2 -1</clus>
<clus scale="   52.367">  1  5  2 -1</clus>
</clustering>
</event>
<event>
 9    2  0.2984928E-005  0.1284413E+03  0.7546771E-02  0.1230371E+00
         -1   -1    0    0    0  501 -0.00000000000E+00  0.00000000000E+00  0.26523882802E+03  0.26523882802E+03  0.00000000000E+00 0.  1.
          2   -1    0    0  502    0  0.00000000000E+00 -0.00000000000E+00 -0.14014012748E+03  0.14014012748E+03  0.00000000000E+00 0. -1.
         23    2    1    2    0    0  0.11564099523E+03  0.68480989735E+02  0.12786282959E+03  0.20137398576E+03  0.78358746904E+02 0.  0.
         24    2    1    2    0    0 -0.74996082755E+02 -0.52751669444E+02 -0.56632679183E+02  0.13471398101E+03  0.80829730115E+02 0.  0.
        -13    1    4    4    0    0 -0.84528360424E+02 -0.40215515274E+02 -0.21256185938E+02  0.95990399652E+02  0.00000000000E+00 0.  1.
         14    1    4    4    0    0  0.95322776682E+01 -0.12536154169E+02 -0.35376493245E+02  0.38723581359E+02  0.00000000000E+00 0. -1.
        -13    1    3    3    0    0  0.79210373747E+02  0.60135427082E+02  0.13030433627E+03  0.16392001998E+03  0.00000000000E+00 0.  1.
         13    1    3    3    0    0  0.36430621480E+02  0.83455626533E+01 -0.24415066811E+01  0.37453965775E+02  0.00000000000E+00 0. -1.
         21    1    1    2  502  501 -0.40644912471E+02 -0.15729320291E+02  0.53868550125E+02  0.69290988730E+02  0.00000000000E+00 0. -1.
<scales pt_clust_5="13000.00000" pt_clust_6="13000.00000" pt_clust_7="13000.00000" pt_clust_8="13000.00000" pt_clust_9="43.58234"></scales>
<clustering>
<clus scale="   43.582">  1  9  2 -1</clus>
<clus scale="   78.359">  7  8 -1 -1</clus>
<clus scale="   80.830">  5  6 -1 -1</clus>
<clus scale="  126.901">  1  7  2 -1</clus>
<clus scale="  128.441">  2  5  1 -1</clus>
</clustering>
</event>
<event>
 9    2  0.2984928E-005  0.1360241E+03  0.7546771E-02  0.1226866E+00
         -1   -1    0    0    0  501 -0.00000000000E+00  0.00000000000E+00  0.63707280091E+02  0.63707280091E+02  0.00000000000E+00 0.  1.
          2   -1    0    0  502    0  0.00000000000E+00 -0.00000000000E+00 -0.33689222722E+03  0.33689222722E+03  0.00000000000E+00 0. -1.
         23    2    1    2    0    0 -0.91383843376E+02  0.16389071127E+02 -0.76460902403E+02  0.16239254243E+03  0.10911214304E+03 0.  0.
         24    2    1    2    0    0  0.66046738314E+02 -0.34062954177E+01 -0.14128347571E+03  0.17588379061E+03  0.81242309179E+02 0.  0.
        -13    1    4    4    0    0  0.56574582935E+02 -0.17088224055E+02 -0.35801616042E+02  0.69097370042E+02  0.00000000000E+00 0.  1.
         14    1    4    4    0    0  0.94721553800E+01  0.13681928637E+02 -0.10548185967E+03  0.10678642057E+03  0.00000000000E+00 0. -1.
        -11    1    3    3    0    0 -0.34740765693E+02 -0.46107402550E+02 -0.41445432310E+02  0.71067131855E+02  0.00000000000E+00 0. -1.
         11    1    3    3    0    0 -0.56643077683E+02  0.62496473676E+02 -0.35015470093E+02  0.91325410578E+02  0.00000000000E+00 0.  1.
         21    1    1    2  502  501  0.25337105062E+02 -0.12982775709E+02 -0.55440569016E+02  0.62323174268E+02  0.00000000000E+00 0.  1.
<scales pt_clust_5="13000.00000" pt_clust_6="13000.00000" pt_clust_7="13000.00000" pt_clust_8="13000.00000" pt_clust_9="28.46966"></scales>
<clustering>
<clus scale="   28.470">  2  9  1 -1</clus>
<clus scale="   81.242">  5  6 -1 -1</clus>
<clus scale="  109.112">  7  8 -1 -1</clus>
<clus scale="  114.880">  2  5  1 -1</clus>
<clus scale="   28.470">  2  5  1 -1</clus>
</clustering>
</event>
<event>
 9    2  0.2984928E-005  0.1031656E+03  0.7546771E-02  0.1279377E+00
         -1   -1    0    0    0  501 -0.00000000000E+00  0.00000000000E+00  0.17107919316E+03  0.17107919316E+03  0.00000000000E+00 0.  1.
          2   -1    0    0  502    0  0.00000000000E+00 -0.00000000000E+00 -0.16927077127E+03  0.16927077127E+03  0.00000000000E+00 0. -1.
         24    2    1    2    0    0  0.17323594194E+01  0.43689980180E+02  0.12660799333E+03  0.15636540205E+03  0.80676759627E+02 0.  0.
         23    2    1    2    0    0 -0.10607271682E+02 -0.62748439436E+02 -0.11517031230E+03  0.16086073120E+03  0.92531579162E+02 0.  0.
        -13    1    3    3    0    0  0.26579406482E+02  0.40613408517E+02  0.12146766247E+03  0.13080637150E+03  0.00000000000E+00 0.  1.
         14    1    3    3    0    0 -0.24847047063E+02  0.30765716632E+01  0.51403308667E+01  0.25559030544E+02  0.00000000000E+00 0. -1.
        -13    1    4    4    0    0 -0.20646386609E+02 -0.81575870371E+02 -0.11071521876E+03  0.13906385430E+03  0.00000000000E+00 0. -1.
         13    1    4    4    0    0  0.10039114928E+02  0.18827430935E+02 -0.44550935379E+01  0.21796876900E+02  0.00000000000E+00 0.  1.
         21    1    1    2  502  501  0.88749122621E+01  0.19058459256E+02 -0.96292591579E+01  0.23123831188E+02  0.00000000000E+00 0. -1.
<scales pt_clust_5="13000.00000" pt_clust_6="13000.00000" pt_clust_7="13000.00000" pt_clust_8="13000.00000" pt_clust_9="21.02353"></scales>
<clustering>
<clus scale="   21.024">  2  9  1 -1</clus>
<clus scale="   80.677">  5  6 -1 -1</clus>
<clus scale="   92.532">  7  8 -1 -1</clus>
<clus scale="   92.681">  1  5  2 -1</clus>
<clus scale="   21.024">  2  5  1 -1</clus>
</clustering>
</event>
<event>
 9    2  0.2984928E-005  0.1048930E+03  0.7546771E-02  0.1279065E+00
          2   -1    0    0  502    0  0.00000000000E+00  0.00000000000E+00  0.38617982417E+03  0.38617982417E+03  0.00000000000E+00 0. -1.
         -1   -1    0    0    0  501 -0.00000000000E+00 -0.00000000000E+00 -0.99815410102E+02  0.99815410102E+02  0.00000000000E+00 0.  1.
         23    2    1    2    0    0 -0.47242960970E+02 -0.39074784409E+02  0.15935403732E+03  0.19729357802E+03  0.98854997750E+02 0.  0.
         24    2    1    2    0    0  0.28167744319E+02 -0.10479467025E+02  0.18845010999E+03  0.20749618510E+03  0.81473810687E+02 0.  0.
        -11    1    4    4    0    0  0.42393369876E+02 -0.10031234449E+02  0.18828861542E+03  0.19326258347E+03  0.00000000000E+00 0.  1.
         12    1    4    4    0    0 -0.14225625557E+02 -0.44823257554E+00  0.16149457291E+00  0.14233601632E+02  0.00000000000E+00 0. -1.
        -13    1    3    3    0    0  0.13457509142E+02 -0.42648046931E+02  0.11078743893E+03  0.11947308100E+03  0.00000000000E+00 0. -1.
         13    1    3    3    0    0 -0.60700470112E+02  0.35732625223E+01  0.48566598383E+02  0.77820497013E+02  0.00000000000E+00 0.  1.
         21    1    1    2  502  501  0.19075216651E+02  0.49554251433E+02 -0.61439733235E+02  0.81205471154E+02  0.00000000000E+00 0.  1.
<scales pt_clust_5="13000.00000" pt_clust_6="13000.00000" pt_clust_7="13000.00000" pt_clust_8="13000.00000" pt_clust_9="53.09885"></scales>
<clustering>
<clus scale="   53.099">  2  9  1 -1</clus>
<clus scale="   81.474">  5  6 -1 -1</clus>
<clus scale="   88.703">  1  5  2 -1</clus>
<clus scale="   98.855">  7  8 -1 -1</clus>
<clus scale="   88.703">  1  5  2 -1</clus>
</clustering>
</event>
<event>
 9    2  0.2984928E-005  0.1035709E+03  0.7546771E-02  0.1276814E+00
          2   -1    0    0  502    0  0.00000000000E+00  0.00000000000E+00  0.45740269902E+03  0.45740269902E+03  0.00000000000E+00 0. -1.
         -1   -1    0    0    0  501 -0.00000000000E+00 -0.00000000000E+00 -0.25386149766E+03  0.25386149766E+03  0.00000000000E+00 0.  1.
         23    2    1    2    0    0 -0.59967722347E+02  0.25983013067E+02 -0.20071477377E+03  0.22964748809E+03  0.90445031288E+02 0.  0.
         24    2    1    2    0    0 -0.31714637492E+02 -0.27745186000E+02  0.30864369413E+02  0.97129970737E+02  0.81890221263E+02 0.  0.
        -13    1    4    4    0    0 -0.49326611750E+02  0.26565497908E+00 -0.34675516657E+01  0.49449055743E+02  0.00000000000E+00 0.  1.
         14    1    4    4    0    0  0.17611974258E+02 -0.28010840979E+02  0.34331921079E+02  0.47680914994E+02  0.00000000000E+00 0. -1.
        -13    1    3    3    0    0 -0.51776590347E+02  0.58327837117E+02 -0.14712654070E+03  0.16652078210E+03  0.00000000000E+00 0.  1.
         13    1    3    3    0    0 -0.81911320005E+01 -0.32344824050E+02 -0.53588233065E+02  0.63126705991E+02  0.00000000000E+00 0. -1.
         21    1    1    2  502  501  0.91682359839E+02  0.17621729338E+01  0.37339160572E+03  0.38448673785E+03  0.00000000000E+00 0. -1.
<scales pt_clust_5="13000.00000" pt_clust_6="13000.00000" pt_clust_7="13000.00000" pt_clust_8="13000.00000" pt_clust_9="91.69929"></scales>
<clustering>
<clus scale="   81.890">  5  6 -1 -1</clus>
<clus scale="   90.445">  7  8 -1 -1</clus>
<clus scale="   91.699">  1  9  2 -1</clus>
<clus scale="   96.191">  1  5  2 -1</clus>
<clus scale="   91.699">  1  5  2 -1</clus>
</clustering>
</event>
<event>
 9    2  0.2984928E-005  0.1014644E+03  0.7546771E-02  0.1283125E+00
          2   -1    0    0  502    0  0.00000000000E+00  0.00000000000E+00  0.41452527643E+03  0.41452527643E+03  0.00000000000E+00 0. -1.
         -1   -1    0    0    0  501 -0.00000000000E+00 -0.00000000000E+00 -0.13554443386E+03  0.13554443386E+03  0.00000000000E+00 0.  1.
         23    2    1    2    0    0  0.16450703328E+02 -0.50646383405E+02 -0.94592383920E+02  0.14196503143E+03  0.91491361670E+02 0.  0.
         24    2    1    2    0    0  0.17259642543E+02  0.22807716069E+01  0.10320603936E+03  0.13138453919E+03  0.79418596044E+02 0.  0.
        -13    1    4    4    0    0 -0.36882948025E+01  0.38574695330E+02  0.41343101809E+02  0.56664474811E+02  0.00000000000E+00 0.  1.
         14    1    4    4    0    0  0.20947937346E+02 -0.36293923723E+02  0.61862937547E+02  0.74720064375E+02  0.00000000000E+00 0. -1.
        -13    1    3    3    0    0 -0.35372003617E+02 -0.39146917321E+02 -0.48401818253E+02  0.71598853244E+02  0.00000000000E+00 0. -1.
         13    1    3    3    0    0  0.51822706945E+02 -0.11499466084E+02 -0.46190565667E+02  0.70366178182E+02  0.00000000000E+00 0.  1.
         21    1    1    2  502  501 -0.33710345871E+02  0.48365611798E+02  0.27036718713E+03  0.27672013967E+03  0.00000000000E+00 0. -1.
<scales pt_clust_5="13000.00000" pt_clust_6="13000.00000" pt_clust_7="13000.00000" pt_clust_8="13000.00000" pt_clust_9="58.95439"></scales>
<clustering>
<clus scale="   58.954">  1  9  2 -1</clus>
<clus scale="   79.419">  5  6 -1 -1</clus>
<clus scale="   90.729">  1  5  2 -1</clus>
<clus scale="   91.491">  7  8 -1 -1</clus>
<clus scale="   58.954">  1  5  2 -1</clus>
</clustering>
</event>
<event>
 9    2  0.2984928E-005  0.1090296E+03  0.7546771E-02  0.1268673E+00
         -1   -1    0    0    0  501 -0.00000000000E+00  0.00000000000E+00  0.19398720824E+03  0.19398720824E+03  0.00000000000E+00 0.  1.
          2   -1    0    0  502    0  0.00000000000E+00 -0.00000000000E+00 -0.12972827134E+03  0.12972827134E+03  0.00000000000E+00 0. -1.
         24    2    1    2    0    0  0.12696042515E+02 -0.47001043871E+02  0.77319404326E+02  0.12235859793E+03  0.81382114636E+02 0.  0.
         23    2    1    2    0    0  0.43685384049E+01  0.58085729293E+02  0.58762123619E+02  0.12670733538E+03  0.95962104979E+02 0.  0.
        -13    1    3    3    0    0  0.46115432116E+02 -0.29052494201E+02  0.31791456852E+02  0.63098155498E+02  0.00000000000E+00 0.  1.
         14    1    3    3    0    0 -0.33419389600E+02 -0.17948549671E+02  0.45527947474E+02  0.59260442436E+02  0.00000000000E+00 0. -1.
        -11    1    4    4    0    0 -0.24694023676E+01 -0.26438696798E+02  0.74024509934E+01  0.27566264113E+02  0.00000000000E+00 0. -1.
         11    1    4    4    0    0  0.68379407725E+01  0.84524426091E+02  0.51359672625E+02  0.99141071268E+02  0.00000000000E+00 0.  1.
         21    1    1    2  502  501 -0.17064580920E+02 -0.11084685422E+02 -0.71822591048E+02  0.74649546266E+02  0.00000000000E+00 0.  1.
<scales pt_clust_5="13000.00000" pt_clust_6="13000.00000" pt_clust_7="13000.00000" pt_clust_8="13000.00000" pt_clust_9="20.34871"></scales>
<clustering>
<clus scale="   20.349">  2  9  1 -1</clus>
<clus scale="   81.382">  5  6 -1 -1</clus>
<clus scale="   95.962">  7  8 -1 -1</clus>
<clus scale="   96.446">  1  5  2 -1</clus>
<clus scale="   20.349">  2  5  1 -1</clus>
</clustering>
</event>
<event>
 9    2  0.2984928E-005  0.9410693E+02  0.7546771E-02  0.1299109E+00
         -1   -1    0    0    0  501 -0.00000000000E+00  0.00000000000E+00  0.80383138961E+02  0.80383138961E+02  0.00000000000E+00 0.  1.
          2   -1    0    0  502    0  0.00000000000E+00 -0.00000000000E+00 -0.71899190742E+03  0.71899190742E+03  0.00000000000E+00 0. -1.
         24    2    1    2    0    0 -0.14503481495E+02  0.18669003972E+02  0.39870505983E+02  0.94398761458E+02  0.82234945326E+02 0.  0.
         23    2    1    2    0    0 -0.23286220995E+02  0.53869272491E+02 -0.40911653048E+03  0.42346935605E+03  0.92226966756E+02 0.  0.
        -11    1    3    3    0    0 -0.22666126608E+02  0.48262409954E+02  0.16493203336E+02  0.55812536819E+02  0.00000000000E+00 0.  1.
         12    1    3    3    0    0  0.81626451125E+01 -0.29593405982E+02  0.23377302647E+02  0.38586224639E+02  0.00000000000E+00 0. -1.
        -13    1    4    4    0    0 -0.58452335176E+02  0.33439109340E+02 -0.28550000468E+03  0.29333445449E+03  0.00000000000E+00 0.  1.
         13    1    4    4    0    0  0.35166114181E+02  0.20430163151E+02 -0.12361652580E+03  0.13013490156E+03  0.00000000000E+00 0. -1.
         21    1    1    2  502  501  0.37789702491E+02 -0.72538276463E+02 -0.26936274396E+03  0.28150692887E+03  0.00000000000E+00 0. -1.
<scales pt_clust_5="13000.00000" pt_clust_6="13000.00000" pt_clust_7="13000.00000" pt_clust_8="13000.00000" pt_clust_9="81.79158"></scales>
<clustering>
<clus scale="   81.792">  2  9  1 -1</clus>
<clus scale="   82.235">  5  6 -1 -1</clus>
<clus scale="   84.338">  1  5  2 -1</clus>
<clus scale="   92.227">  7  8 -1 -1</clus>
<clus scale="   81.792">  2  5  1 -1</clus>
</clustering>
</event>
<event>
 9    2  0.2984928E-005  0.9751572E+02  0.7546771E-02  0.1292171E+00
          2   -1    0    0  502    0  0.00000000000E+00  0.00000000000E+00  0.10595186934E+03  0.10595186934E+03  0.00000000000E+00 0. -1.
         -1   -1    0    0    0  501 -0.00000000000E+00 -0.00000000000E+00 -0.38954522303E+03  0.38954522303E+03  0.00000000000E+00 0.  1.
         23    2    1    2    0    0  0.21528318472E+02  0.24493584145E+02 -0.25911111098E+03  0.27647635452E+03  0.90759035993E+02 0.  0.
         24    2    1    2    0    0 -0.64098802472E+02  0.15554560514E+02 -0.86251172454E+02  0.13398250715E+03  0.78494882903E+02 0.  0.
        -13    1    4    4    0    0 -0.68625508121E+02  0.36805854465E+02 -0.79366501269E+02  0.11118980534E+03  0.00000000000E+00 0.  1.
         14    1    4    4    0    0  0.45267056493E+01 -0.21251293950E+02 -0.68846711850E+01  0.22792701813E+02  0.00000000000E+00 0. -1.
        -13    1    3    3    0    0  0.12383727425E+02 -0.30455030108E+02 -0.48282518046E+02  0.58412901937E+02  0.00000000000E+00 0. -1.
         13    1    3    3    0    0  0.91445910474E+01  0.54948614253E+02 -0.21082859293E+03  0.21806345258E+03  0.00000000000E+00 0.  1.
         21    1    1    2  502  501  0.42570484000E+02 -0.40048144659E+02  0.61768929739E+02  0.85038230695E+02  0.00000000000E+00 0. -1.
<scales pt_clust_5="13000.00000" pt_clust_6="13000.00000" pt_clust_7="13000.00000" pt_clust_8="13000.00000" pt_clust_9="58.44741"></scales>
<clustering>
<clus scale="   58.447">  1  9  2 -1</clus>
<clus scale="   78.495">  5  6 -1 -1</clus>
<clus scale="   86.218">  1  5  2 -1</clus>
<clus scale="   90.759">  7  8 -1 -1</clus>
<clus scale="   58.447">  1  5  2 -1</clus>
</clustering>
</event>
<event>
 9    2  0.2984928E-005  0.1454693E+03  0.7546771E-02  0.1220440E+00
          2   -1    0    0  502    0  0.00000000000E+00  0.00000000000E+00  0.15627150714E+04  0.15627150714E+04  0.00000000000E+00 0. -1.
         -1   -1    0    0    0  501 -0.00000000000E+00 -0.00000000000E+00 -0.11744492656E+03  0.11744492656E+03  0.00000000000E+00 0.  1.
         23    2    1    2    0    0 -0.10330820058E+01 -0.11123531792E+03 -0.45500513062E+02  0.15077571933E+03  0.91042065226E+02 0.  0.
         24    2    1    2    0    0  0.40338721904E+02 -0.56966129172E+02  0.19915799479E+03  0.22627264426E+03  0.81627509420E+02 0.  0.
        -13    1    4    4    0    0  0.52132866992E+02 -0.55223254339E+01  0.76476128198E+02  0.92719631595E+02  0.00000000000E+00 0.  1.
         14    1    4    4    0    0 -0.11794145088E+02 -0.51443803738E+02  0.12268186659E+03  0.13355301266E+03  0.00000000000E+00 0. -1.
        -11    1    3    3    0    0  0.13496046588E+02 -0.74753948860E+02 -0.70981501558E+02  0.10396475223E+03  0.00000000000E+00 0. -1.
         11    1    3    3    0    0 -0.14529128594E+02 -0.36481369055E+02  0.25480988495E+02  0.46810967097E+02  0.00000000000E+00 0.  1.
         21    1    1    2  502  501 -0.39305639898E+02  0.16820144709E+03  0.12916126631E+04  0.13031116344E+04  0.00000000000E+00 0. -1.
<scales pt_clust_5="13000.00000" pt_clust_6="13000.00000" pt_clust_7="13000.00000" pt_clust_8="13000.00000" pt_clust_9="113.45776"></scales>
<clustering>
<clus scale="   81.628">  5  6 -1 -1</clus>
<clus scale="   91.042">  7  8 -1 -1</clus>
<clus scale="  107.403">  1  5  2 -1</clus>
<clus scale="  113.458">  1  9  2 -1</clus>
<clus scale="  107.403">  1  5  2 -1</clus>
</clustering>
</event>
<event>
 9    2  0.2984928E-005  0.1315877E+03  0.7546771E-02  0.1230792E+00
         -1   -1    0    0    0  501 -0.00000000000E+00  0.00000000000E+00  0.20843794840E+03  0.20843794840E+03  0.00000000000E+00 0.  1.
          2   -1    0    0  502    0  0.00000000000E+00 -0.00000000000E+00 -0.21018701633E+03  0.21018701633E+03  0.00000000000E+00 0. -1.
         24    2    1    2    0    0 -0.11767676797E+02 -0.88031519115E+02  0.12784132197E+03  0.17211318475E+03  0.73426958177E+02 0.  0.
         23    2    1    2    0    0  0.67092254095E+02  0.92138938505E+02 -0.66737471662E+02  0.16267760391E+03  0.94969248393E+02 0.  0.
        -11    1    3    3    0    0 -0.28194049396E+02 -0.92598839337E+02  0.11724572722E+03  0.15203950151E+03  0.00000000000E+00 0.  1.
         12    1    3    3    0    0  0.16426372599E+02  0.45673202218E+01  0.10595594751E+02  0.20073683242E+02  0.00000000000E+00 0. -1.
        -11    1    4    4    0    0  0.11811295556E+02  0.61834505869E+02 -0.76296134797E+02  0.98914675371E+02  0.00000000000E+00 0. -1.
         11    1    4    4    0    0  0.55280958539E+02  0.30304432635E+02  0.95586631349E+01  0.63762928534E+02  0.00000000000E+00 0.  1.
         21    1    1    2  502  501 -0.55324577297E+02 -0.41074193898E+01 -0.62852918240E+02  0.83834176077E+02  0.00000000000E+00 0.  1.
<scales pt_clust_5="13000.00000" pt_clust_6="13000.00000" pt_clust_7="13000.00000" pt_clust_8="13000.00000" pt_clust_9="55.47684"></scales>
<clustering>
<clus scale="   55.477">  2  9  1 -1</clus>
<clus scale="   73.427">  5  6 -1 -1</clus>
<clus scale="   94.969">  7  8 -1 -1</clus>
<clus scale="  116.994">  1  5  2 -1</clus>
<clus scale="   55.477">  2  5  1 -1</clus>
</clustering>
</event>
<event>
 9    2  0.2984928E-005  0.1025243E+03  0.7546771E-02  0.1275946E+00
          4   -1    0    0  502    0  0.00000000000E+00  0.00000000000E+00  0.30837809998E+03  0.30837809998E+03  0.00000000000E+00 0. -1.
         -3   -1    0    0    0  501 -0.00000000000E+00 -0.00000000000E+00 -0.10973101559E+03  0.10973101559E+03  0.00000000000E+00 0.  1.
         23    2    1    2    0    0  0.46716436529E+01  0.33244870757E+02 -0.24836282470E+02  0.10117826804E+03  0.92158316551E+02 0.  0.
         24    2    1    2    0    0  0.57943062621E+02 -0.72913328939E+02  0.72143032519E+02  0.14841353444E+03  0.90267425021E+02 0.  0.
        -13    1    4    4    0    0  0.44511593183E+02 -0.42017775673E+02 -0.77581174829E+01  0.61700597948E+02  0.00000000000E+00 0.  1.
         14    1    4    4    0    0  0.13431469438E+02 -0.30895553265E+02  0.79901150002E+02  0.86712936488E+02  0.00000000000E+00 0. -1.
        -11    1    3    3    0    0 -0.82886426572E+01  0.62151670358E+02 -0.31377817355E+01  0.62780390248E+02  0.00000000000E+00 0.  1.
         11    1    3    3    0    0  0.12960286310E+02 -0.28906799602E+02 -0.21698500735E+02  0.38397877787E+02  0.00000000000E+00 0. -1.
         21    1    1    2  502  501 -0.62614706274E+02  0.39668458182E+02  0.15134033434E+03  0.16851731310E+03  0.00000000000E+00 0.  1.
<scales pt_clust_5="13000.00000" pt_clust_6="13000.00000" pt_clust_7="13000.00000" pt_clust_8="13000.00000" pt_clust_9="74.12279"></scales>
<clustering>
<clus scale="   74.123">  1  9  2 -1</clus>
<clus scale="   90.267">  5  6 -1 -1</clus>
<clus scale="   92.158">  7  8 -1 -1</clus>
<clus scale="  100.828">  1  5  2 -1</clus>
<clus scale="   74.123">  1  5  2 -1</clus>
</clustering>
</event>
<event>
 9    2  0.2984928E-005  0.9790920E+02  0.7546771E-02  0.1291643E+00
          2   -1    0    0  502    0  0.00000000000E+00  0.00000000000E+00  0.18740627060E+03  0.18740627060E+03  0.00000000000E+00 0. -1.
         -1   -1    0    0    0  501 -0.00000000000E+00 -0.00000000000E+00 -0.18014376247E+03  0.18014376247E+03  0.00000000000E+00 0.  1.
         24    2    1    2    0    0 -0.15638769944E+02 -0.82142007036E+01 -0.10944375520E+03  0.13829696327E+03  0.82680531445E+02 0.  0.
         23    2    1    2    0    0  0.68484773225E+02 -0.29101136975E+02  0.36195418293E+02  0.12597126764E+03  0.94982164787E+02 0.  0.
        -13    1    3    3    0    0 -0.41051109879E+02 -0.30183343088E+02 -0.65595757905E+02  0.83060407400E+02  0.00000000000E+00 0.  1.
         14    1    3    3    0    0  0.25412339935E+02  0.21969142385E+02 -0.43847997293E+02  0.55236555873E+02  0.00000000000E+00 0. -1.
        -13    1    4    4    0    0  0.67713611098E+02 -0.59422577449E+02  0.23606865434E+02  0.93131412178E+02  0.00000000000E+00 0.  1.
         13    1    4    4    0    0  0.77116212654E+00  0.30321440474E+02  0.12588552859E+02  0.32839855458E+02  0.00000000000E+00 0. -1.
         21    1    1    2  502  501 -0.52846003281E+02  0.37315337678E+02  0.80510845037E+02  0.10328180216E+03  0.00000000000E+00 0. -1.
<scales pt_clust_5="13000.00000" pt_clust_6="13000.00000" pt_clust_7="13000.00000" pt_clust_8="13000.00000" pt_clust_9="64.69262"></scales>
<clustering>
<clus scale="   64.693">  1  9  2 -1</clus>
<clus scale="   82.681">  5  6 -1 -1</clus>
<clus scale="   86.027">  2  5  1 -1</clus>
<clus scale="   94.982">  7  8 -1 -1</clus>
<clus scale="   64.693">  1  5  2 -1</clus>
</clustering>
</event>
<event>
 9    2  0.2984928E-005  0.9484427E+02  0.7546771E-02  0.1294902E+00
          2   -1    0    0  502    0  0.00000000000E+00  0.00000000000E+00  0.32222239408E+03  0.32222239408E+03  0.00000000000E+00 0. -1.
         -1   -1    0    0    0  501 -0.00000000000E+00 -0.00000000000E+00 -0.43855309233E+02  0.43855309233E+02  0.00000000000E+00 0.  1.
         24    2    1    2    0    0 -0.13016176068E+02  0.19145482774E+02  0.58812849897E+02  0.10541766043E+03  0.84368012107E+02 0.  0.
         23    2    1    2    0    0  0.34168792397E+02 -0.18310071488E+02  0.10397882985E+03  0.14316193502E+03  0.90448756144E+02 0.  0.
        -13    1    3    3    0    0 -0.29790959360E+02  0.15949881358E+01 -0.10772316545E+02  0.31718891066E+02  0.00000000000E+00 0.  1.
         14    1    3    3    0    0  0.16774783292E+02  0.17550494638E+02  0.69585166442E+02  0.73698769361E+02  0.00000000000E+00 0. -1.
        -13    1    4    4    0    0  0.30106366150E+02  0.33720388905E+02  0.38121113359E+02  0.59132708329E+02  0.00000000000E+00 0.  1.
         13    1    4    4    0    0  0.40624262475E+01 -0.52030460393E+02  0.65857716496E+02  0.84029226688E+02  0.00000000000E+00 0. -1.
         21    1    1    2  502  501 -0.21152616329E+02 -0.83541128584E+00  0.11557540509E+03  0.11749810786E+03  0.00000000000E+00 0. -1.
<scales pt_clust_5="13000.00000" pt_clust_6="13000.00000" pt_clust_7="13000.00000" pt_clust_8="13000.00000" pt_clust_9="21.16911"></scales>
<clustering>
<clus scale="   21.169">  1  9  2 -1</clus>
<clus scale="   84.368">  5  6 -1 -1</clus>
<clus scale="   89.064">  2  5  1 -1</clus>
<clus scale="   90.449">  7  8 -1 -1</clus>
<clus scale="   21.169">  1  5  2 -1</clus>
</clustering>
</event>
<event>
 9    2  0.2984928E-005  0.1432127E+03  0.7546771E-02  0.1210087E+00
          2   -1    0    0  502    0  0.00000000000E+00  0.00000000000E+00  0.76205348878E+03  0.76205348878E+03  0.00000000000E+00 0. -1.
         -1   -1    0    0    0  501 -0.00000000000E+00 -0.00000000000E+00 -0.12215627952E+03  0.12215627952E+03  0.00000000000E+00 0.  1.
         24    2    1    2    0    0  0.10816319642E+03  0.24227922337E+02 -0.50447517647E+02  0.14587712631E+03  0.80305134718E+02 0.  0.
         23    2    1    2    0    0 -0.13883550880E+03 -0.92075262580E+02  0.48466287663E+03  0.51958832582E+03  0.85561509190E+02 0.  0.
        -13    1    3    3    0    0  0.89970971701E+02  0.30191188034E+02 -0.70447496088E+02  0.11819108803E+03  0.00000000000E+00 0.  1.
         14    1    3    3    0    0  0.18192224719E+02 -0.59632656975E+01  0.19999978441E+02  0.27686038280E+02  0.00000000000E+00 0. -1.
        -13    1    4    4    0    0 -0.56344872533E+02  0.54085637351E+01  0.10912954534E+03  0.12293597882E+03  0.00000000000E+00 0.  1.
         13    1    4    4    0    0 -0.82490636269E+02 -0.97483826315E+02  0.37553333130E+03  0.39665234700E+03  0.00000000000E+00 0. -1.
         21    1    1    2  502  501  0.30672312381E+02  0.67847340243E+02  0.20568185028E+03  0.21874431618E+03  0.00000000000E+00 0. -1.
<scales pt_clust_5="13000.00000" pt_clust_6="13000.00000" pt_clust_7="13000.00000" pt_clust_8="13000.00000" pt_clust_9="74.45839"></scales>
<clustering>
<clus scale="   74.458">  1  9  2 -1</clus>
<clus scale="   80.305">  5  6 -1 -1</clus>
<clus scale="   85.562">  7  8 -1 -1</clus>
<clus scale="  140.136">  2  5  1 -1</clus>
<clus scale="   74.458">  1  5  2 -1</clus>
</clustering>
</event>
<event>
 9    2  0.2984928E-005  0.9536202E+02  0.7546771E-02  0.1297827E+00
         -1   -1    0    0    0  501 -0.00000000000E+00  0.00000000000E+00  0.45496374931E+02  0.45496374931E+02  0.00000000000E+00 0.  1.
          2   -1    0    0  502    0  0.00000000000E+00 -0.00000000000E+00 -0.66838244352E+03  0.66838244352E+03  0.00000000000E+00 0. -1.
         23    2    1    2    0    0  0.54174513962E+02  0.48736913449E+01 -0.42438955466E+02  0.11520037706E+03  0.92257417602E+02 0.  0.
         24    2    1    2    0    0 -0.21076399471E+02 -0.46190172189E+01 -0.54082934208E+03  0.54705366223E+03  0.79408955179E+02 0.  0.
        -13    1    4    4    0    0 -0.62168848618E+01 -0.41087879769E+02 -0.22807422833E+03  0.23182906882E+03  0.00000000000E+00 0.  1.
         14    1    4    4    0    0 -0.14859514609E+02  0.36468862550E+02 -0.31275511375E+03  0.31522459340E+03  0.00000000000E+00 0. -1.
        -11    1    3    3    0    0  0.76587563032E+02  0.14750378939E+02 -0.16880601809E+02  0.79800897285E+02  0.00000000000E+00 0.  1.
         11    1    3    3    0    0 -0.22413049070E+02 -0.98766875937E+01 -0.25558353657E+02  0.35399479772E+02  0.00000000000E+00 0. -1.
         21    1    1    2  502  501 -0.33098114492E+02 -0.25467412603E+00 -0.39617771037E+02  0.51624779164E+02  0.00000000000E+00 0. -1.
<scales pt_clust_5="13000.00000" pt_clust_6="13000.00000" pt_clust_7="13000.00000" pt_clust_8="13000.00000" pt_clust_9="33.09909"></scales>
<clustering>
<clus scale="   33.099">  1  9  2 -1</clus>
<clus scale="   79.409">  5  6 -1 -1</clus>
<clus scale="   82.996">  2  5  1 -1</clus>
<clus scale="   92.257">  7  8 -1 -1</clus>
<clus scale="   82.996">  2  5  1 -1</clus>
</clustering>
</event>
<event>
 9    2  0.2984928E-005  0.2069849E+03  0.7546771E-02  0.1145395E+00
         -1   -1    0    0    0  501 -0.00000000000E+00  0.00000000000E+00  0.70488036147E+02  0.70488036147E+02  0.00000000000E+00 0.  1.
          2   -1    0    0  502    0  0.00000000000E+00 -0.00000000000E+00 -0.11595061372E+04  0.11595061372E+04  0.00000000000E+00 0. -1.
         24    2    1    2    0    0 -0.97667595308E+02 -0.16197873628E+03 -0.12242156198E+03  0.23772299418E+03  0.75822905129E+02 0.  0.
         23    2    1    2    0    0  0.10179209871E+03  0.13447467542E+03 -0.76746104564E+03  0.79120295782E+03  0.92523479215E+02 0.  0.
        -13    1    3    3    0    0 -0.10153199073E+03 -0.12561312417E+03 -0.75658134704E+02  0.17835794194E+03  0.00000000000E+00 0.  1.
         14    1    3    3    0    0  0.38643954270E+01 -0.36365612110E+02 -0.46763427281E+02  0.59365052238E+02  0.00000000000E+00 0. -1.
        -11    1    4    4    0    0  0.51980932208E+02  0.37964397127E+02 -0.13591967575E+03  0.15039106030E+03  0.00000000000E+00 0.  1.
         11    1    4    4    0    0  0.49811166497E+02  0.96510278297E+02 -0.63154136989E+03  0.64081189753E+03  0.00000000000E+00 0. -1.
         21    1    1    2  502  501 -0.41245033974E+01  0.27504060855E+02 -0.19913549344E+03  0.20106822136E+03  0.00000000000E+00 0.  1.
<scales pt_clust_5="13000.00000" pt_clust_6="13000.00000" pt_clust_7="13000.00000" pt_clust_8="13000.00000" pt_clust_9="27.81160"></scales>
<clustering>
<clus scale="   27.812">  2  9  1 -1</clus>
<clus scale="   75.823">  5  6 -1 -1</clus>
<clus scale="   92.523">  7  8 -1 -1</clus>
<clus scale="  200.078">  1  5  2 -1</clus>
<clus scale="   27.812">  2  5  1 -1</clus>
</clustering>
</event>
<event>
 9    2  0.2984928E-005  0.1198931E+03  0.7546771E-02  0.1246460E+00
          2   -1    0    0  502    0  0.00000000000E+00  0.00000000000E+00  0.45541773688E+03  0.45541773688E+03  0.00000000000E+00 0. -1.
         -1   -1    0    0    0  501 -0.00000000000E+00 -0.00000000000E+00 -0.78073582287E+02  0.78073582287E+02  0.00000000000E+00 0.  1.
         23    2    1    2    0    0 -0.35848966709E+02  0.98315677039E+02  0.27922901531E+02  0.14138254467E+03  0.90874720043E+02 0.  0.
         24    2    1    2    0    0 -0.14173263981E+02 -0.40274433838E+02  0.12405452001E+03  0.15407269773E+03  0.80783419196E+02 0.  0.
        -11    1    4    4    0    0  0.33728810187E+02 -0.20953163068E+02  0.52632847991E+02  0.65930906006E+02  0.00000000000E+00 0.  1.
         12    1    4    4    0    0 -0.47902074168E+02 -0.19321270771E+02  0.71421672017E+02  0.88141791719E+02  0.00000000000E+00 0. -1.
        -11    1    3    3    0    0 -0.46433645951E+02  0.13073117747E+02 -0.68326487693E+01  0.48720375339E+02  0.00000000000E+00 0.  1.
         11    1    3    3    0    0  0.10584679243E+02  0.85242559292E+02  0.34755550300E+02  0.92662169335E+02  0.00000000000E+00 0. -1.
         21    1    1    2  502  501  0.50022230689E+02 -0.58041243200E+02  0.22536673305E+03  0.23803607677E+03  0.00000000000E+00 0. -1.
<scales pt_clust_5="13000.00000" pt_clust_6="13000.00000" pt_clust_7="13000.00000" pt_clust_8="13000.00000" pt_clust_9="76.62251"></scales>
<clustering>
<clus scale="   76.623">  1  9  2 -1</clus>
<clus scale="   80.783">  5  6 -1 -1</clus>
<clus scale="   90.875">  7  8 -1 -1</clus>
<clus scale="  112.437">  1  5  2 -1</clus>
<clus scale="   76.623">  1  5  2 -1</clus>
</clustering>
</event>
<event>
 9    2  0.2984928E-005  0.1046836E+03  0.7546771E-02  0.1277150E+00
          2   -1    0    0  502    0  0.00000000000E+00  0.00000000000E+00  0.61146533828E+03  0.61146533828E+03  0.00000000000E+00 0. -1.
         -1   -1    0    0    0  501 -0.00000000000E+00 -0.00000000000E+00 -0.82883849309E+02  0.82883849309E+02  0.00000000000E+00 0.  1.
         23    2    1    2    0    0 -0.52368574390E+02 -0.40157223818E+02 -0.19836375413E+02  0.11626509815E+03  0.93643051268E+02 0.  0.
         24    2    1    2    0    0 -0.51817726242E+01 -0.11383878464E+02  0.13373576348E+03  0.15626686304E+03  0.79860093895E+02 0.  0.
        -11    1    4    4    0    0 -0.26997155103E+02 -0.33902397151E+02  0.46484014887E+02  0.63552990144E+02  0.00000000000E+00 0.  1.
         12    1    4    4    0    0  0.21815382478E+02  0.22518518686E+02  0.87251748589E+02  0.92713872901E+02  0.00000000000E+00 0. -1.
        -11    1    3    3    0    0 -0.14400243130E+02 -0.39278276799E+02 -0.51829739075E+02  0.66606845618E+02  0.00000000000E+00 0.  1.
         11    1    3    3    0    0 -0.37968331260E+02 -0.87894701925E+00  0.31993363662E+02  0.49658252536E+02  0.00000000000E+00 0. -1.
         21    1    1    2  502  501  0.57550347014E+02  0.51541102283E+02  0.41468210091E+03  0.42181722639E+03  0.00000000000E+00 0. -1.
<scales pt_clust_5="13000.00000" pt_clust_6="13000.00000" pt_clust_7="13000.00000" pt_clust_8="13000.00000" pt_clust_9="77.25625"></scales>
<clustering>
<clus scale="   77.256">  1  9  2 -1</clus>
<clus scale="   79.860">  5  6 -1 -1</clus>
<clus scale="   92.560">  1  5  2 -1</clus>
<clus scale="   93.643">  7  8 -1 -1</clus>
<clus scale="   77.256">  1  5  2 -1</clus>
</clustering>
</event>
<event>
 9    2  0.2984928E-005  0.1110156E+03  0.7546771E-02  0.1263044E+00
         -1   -1    0    0    0  501 -0.00000000000E+00  0.00000000000E+00  0.98299270797E+02  0.98299270797E+02  0.00000000000E+00 0.  1.
          2   -1    0    0  502    0  0.00000000000E+00 -0.00000000000E+00 -0.20119502140E+03  0.20119502140E+03  0.00000000000E+00 0. -1.
         23    2    1    2    0    0  0.51329476928E+02  0.98214911254E+01 -0.21150312028E+02  0.10679161133E+03  0.90696944060E+02 0.  0.
         24    2    1    2    0    0 -0.63735256669E+02 -0.44666845721E+02 -0.95039688927E+01  0.11154276435E+03  0.79335696909E+02 0.  0.
        -11    1    4    4    0    0 -0.55295436285E+02 -0.25583548953E+02  0.29207189560E+02  0.67565991245E+02  0.00000000000E+00 0.  1.
         12    1    4    4    0    0 -0.84398203843E+01 -0.19083296768E+02 -0.38711158453E+02  0.43976773101E+02  0.00000000000E+00 0. -1.
        -13    1    3    3    0    0  0.28197387855E+02  0.26176401311E+02  0.29685079881E+02  0.48595273793E+02  0.00000000000E+00 0.  1.
         13    1    3    3    0    0  0.23132089073E+02 -0.16354910186E+02 -0.50835391910E+02  0.58196337537E+02  0.00000000000E+00 0. -1.
         21    1    1    2  502  501  0.12405779741E+02  0.34845354595E+02 -0.72241469678E+02  0.81159916517E+02  0.00000000000E+00 0.  1.
<scales pt_clust_5="13000.00000" pt_clust_6="13000.00000" pt_clust_7="13000.00000" pt_clust_8="13000.00000" pt_clust_9="36.98786"></scales>
<clustering>
<clus scale="   36.988">  2  9  1 -1</clus>
<clus scale="   79.336">  5  6 -1 -1</clus>
<clus scale="   90.697">  7  8 -1 -1</clus>
<clus scale="  101.945">  2  5  1 -1</clus>
<clus scale="   36.988">  2  5  1 -1</clus>
</clustering>
</event>
<event>
 9    2  0.2984928E-005  0.1221734E+03  0.7546771E-02  0.1242105E+00
          2   -1    0    0  502    0  0.00000000000E+00  0.00000000000E+00  0.74346644623E+03  0.74346644623E+03  0.00000000000E+00 0. -1.
         -1   -1    0    0    0  501 -0.00000000000E+00 -0.00000000000E+00 -0.37831044898E+03  0.37831044898E+03  0.00000000000E+00 0.  1.
         24    2    1    2    0    0  0.81506075520E+02  0.18115308055E+02 -0.34558691358E+03  0.36428369838E+03  0.79378166584E+02 0.  0.
         23    2    1    2    0    0 -0.15652395371E+03 -0.23313416054E+01  0.56419170933E+03  0.59210253717E+03  0.88135954112E+02 0.  0.
        -11    1    3    3    0    0  0.49145909917E+02  0.49638554706E+02 -0.21960987108E+03  0.23045130082E+03  0.00000000000E+00 0.  1.
         12    1    3    3    0    0  0.32360165603E+02 -0.31523246651E+02 -0.12597704250E+03  0.13383239755E+03  0.00000000000E+00 0. -1.
        -11    1    4    4    0    0 -0.88894612624E+02  0.38032209854E+02  0.24627007239E+03  0.26457068941E+03  0.00000000000E+00 0. -1.
         11    1    4    4    0    0 -0.67629341084E+02 -0.40363551459E+02  0.31792163694E+03  0.32753184776E+03  0.00000000000E+00 0.  1.
         21    1    1    2  502  501  0.75017878188E+02 -0.15783966450E+02  0.14655120149E+03  0.16539065966E+03  0.00000000000E+00 0.  1.
<scales pt_clust_5="13000.00000" pt_clust_6="13000.00000" pt_clust_7="13000.00000" pt_clust_8="13000.00000" pt_clust_9="76.66039"></scales>
<clustering>
<clus scale="   76.660">  1  9  2 -1</clus>
<clus scale="   79.378">  5  6 -1 -1</clus>
<clus scale="   88.136">  7  8 -1 -1</clus>
<clus scale="  116.014">  2  5  1 -1</clus>
<clus scale="   76.660">  1  5  2 -1</clus>
</clustering>
</event>
<event>
 9    2  0.2984928E-005  0.3023502E+03  0.7546771E-02  0.1084387E+00
          2   -1    0    0  502    0  0.00000000000E+00  0.00000000000E+00  0.80822473479E+03  0.80822473479E+03  0.00000000000E+00 0. -1.
         -1   -1    0    0    0  501 -0.00000000000E+00 -0.00000000000E+00 -0.23138767930E+03  0.23138767930E+03  0.00000000000E+00 0.  1.
         23    2    1    2    0    0 -0.20337849517E+03  0.18514621187E+03  0.21967134941E+02  0.28983914691E+03  0.88782002663E+02 0.  0.
         24    2    1    2    0    0  0.25278588022E+03 -0.18736612517E+03  0.17902420167E+03  0.37068749573E+03  0.79704382575E+02 0.  0.
        -11    1    4    4    0    0  0.17384122822E+03 -0.92839864626E+02  0.13909262140E+03  0.24121934090E+03  0.00000000000E+00 0.  1.
         12    1    4    4    0    0  0.78944651997E+02 -0.94526260547E+02  0.39931580270E+02  0.12946815483E+03  0.00000000000E+00 0. -1.
        -11    1    3    3    0    0 -0.89462457606E+02  0.65128464650E+02 -0.33003291518E+02  0.11547495607E+03  0.00000000000E+00 0.  1.
         11    1    3    3    0    0 -0.11391603757E+03  0.12001774722E+03  0.54970426459E+02  0.17436419084E+03  0.00000000000E+00 0. -1.
         21    1    1    2  502  501 -0.49407385048E+02  0.22199133047E+01  0.37584571888E+03  0.37908577144E+03  0.00000000000E+00 0. -1.
<scales pt_clust_5="13000.00000" pt_clust_6="13000.00000" pt_clust_7="13000.00000" pt_clust_8="13000.00000" pt_clust_9="49.45723"></scales>
<clustering>
<clus scale="   49.457">  1  9  2 -1</clus>
<clus scale="   79.704">  5  6 -1 -1</clus>
<clus scale="   88.782">  7  8 -1 -1</clus>
<clus scale="  299.810">  1  5  2 -1</clus>
<clus scale="   49.457">  1  5  2 -1</clus>
</clustering>
</event>
<event>
 9    2  0.2984928E-005  0.1008892E+03  0.7546771E-02  0.1283658E+00
          2   -1    0    0  502    0  0.00000000000E+00  0.00000000000E+00  0.65135312736E+03  0.65135312736E+03  0.00000000000E+00 0. -1.
         -1   -1    0    0    0  501 -0.00000000000E+00 -0.00000000000E+00 -0.37533362119E+02  0.37533362119E+02  0.00000000000E+00 0.  1.
         23    2    1    2    0    0 -0.16842298461E+02 -0.48124342873E+02  0.52200691557E+02  0.11378741040E+03  0.87310063410E+02 0.  0.
         24    2    1    2    0    0  0.38422804950E+02  0.36433970454E+02  0.50422497942E+03  0.51267740717E+03  0.76102219451E+02 0.  0.
        -13    1    4    4    0    0 -0.23135265175E+02  0.10011502326E+02  0.11508281808E+03  0.11781139882E+03  0.00000000000E+00 0.  1.
         14    1    4    4    0    0  0.61558070125E+02  0.26422468128E+02  0.38914216134E+03  0.39486600835E+03  0.00000000000E+00 0. -1.
        -13    1    3    3    0    0 -0.88070385419E+01 -0.72471875542E+02  0.49056611639E+02  0.87956169868E+02  0.00000000000E+00 0. -1.
         13    1    3    3    0    0 -0.80352599193E+01  0.24347532668E+02  0.31440799184E+01  0.25831240534E+02  0.00000000000E+00 0.  1.
         21    1    1    2  502  501 -0.21580506489E+02  0.11690372419E+02  0.57394094263E+02  0.62421671909E+02  0.00000000000E+00 0. -1.
<scales pt_clust_5="13000.00000" pt_clust_6="13000.00000" pt_clust_7="13000.00000" pt_clust_8="13000.00000" pt_clust_9="24.54349"></scales>
<clustering>
<clus scale="   24.543">  1  9  2 -1</clus>
<clus scale="   76.102">  5  6 -1 -1</clus>
<clus scale="   87.310">  7  8 -1 -1</clus>
<clus scale="   91.363">  1  5  2 -1</clus>
<clus scale="   24.543">  1  5  2 -1</clus>
</clustering>
</event>
<event>
 9    2  0.2984928E-005  0.2927924E+03  0.7546771E-02  0.1089180E+00
          2   -1    0    0  502    0  0.00000000000E+00  0.00000000000E+00  0.56437621088E+03  0.56437621088E+03  0.00000000000E+00 0. -1.
         -1   -1    0    0    0  501 -0.00000000000E+00 -0.00000000000E+00 -0.29901653494E+03  0.29901653494E+03  0.00000000000E+00 0.  1.
         24    2    1    2    0    0 -0.22225522665E+03 -0.16975584819E+03 -0.15017946802E+03  0.32793949386E+03  0.82316494400E+02 0.  0.
         23    2    1    2    0    0  0.18979738722E+03  0.20238718374E+03  0.36290286689E+03  0.46553263222E+03  0.89657796802E+02 0.  0.
        -13    1    3    3    0    0 -0.19369767733E+03 -0.13000661427E+03 -0.15289198114E+03  0.27892018187E+03  0.00000000000E+00 0.  1.
         14    1    3    3    0    0 -0.28557549321E+02 -0.39749233920E+02  0.27125131247E+01  0.49019311990E+02  0.00000000000E+00 0. -1.
        -13    1    4    4    0    0  0.97851381842E+02  0.13991330769E+03  0.15904560844E+03  0.23333694984E+03  0.00000000000E+00 0.  1.
         13    1    4    4    0    0  0.91946005379E+02  0.62473876053E+02  0.20385725844E+03  0.23219568238E+03  0.00000000000E+00 0. -1.
         21    1    1    2  502  501  0.32457839428E+02 -0.32631335550E+02  0.52636277068E+02  0.69920619732E+02  0.00000000000E+00 0.  1.
<scales pt_clust_5="13000.00000" pt_clust_6="13000.00000" pt_clust_7="13000.00000" pt_clust_8="13000.00000" pt_clust_9="46.02516"></scales>
<clustering>
<clus scale="   46.025">  1  9  2 -1</clus>
<clus scale="   82.316">  5  6 -1 -1</clus>
<clus scale="   89.658">  7  8 -1 -1</clus>
<clus scale="  290.628">  2  5  1 -1</clus>
<clus scale="   46.025">  1  5  2 -1</clus>
</clustering>
</event>
<event>
 9    2  0.2984928E-005  0.1492094E+03  0.7546771E-02  0.1230112E+00
          2   -1    0    0  502    0  0.00000000000E+00  0.00000000000E+00  0.70239581821E+03  0.70239581821E+03  0.00000000000E+00 0. -1.
         -1   -1    0    0    0  501 -0.00000000000E+00 -0.00000000000E+00 -0.50035632212E+02  0.50035632212E+02  0.00000000000E+00 0.  1.
         24    2    1    2    0    0 -0.60206652669E+01 -0.64837348116E+01  0.84819335165E+02  0.11754614909E+03  0.80898024214E+02 0.  0.
         23    2    1    2    0    0 -0.12983469086E+02 -0.11219500965E+03  0.19262689390E+03  0.24117693640E+03  0.91131244586E+02 0.  0.
        -11    1    3    3    0    0  0.33887036629E+02 -0.70602687395E+01  0.16323738001E+02  0.38270655449E+02  0.00000000000E+00 0.  1.
         12    1    3    3    0    0 -0.39907701895E+02  0.57653392790E+00  0.68495597163E+02  0.79275493645E+02  0.00000000000E+00 0. -1.
        -13    1    4    4    0    0 -0.42017567449E+02 -0.53356098798E+02  0.14495050854E+03  0.16007185630E+03  0.00000000000E+00 0.  1.
         13    1    4    4    0    0  0.29034098363E+02 -0.58838910850E+02  0.47676385364E+02  0.81105080107E+02  0.00000000000E+00 0. -1.
         21    1    1    2  502  501  0.19004134353E+02  0.11867874446E+03  0.37491395693E+03  0.39370836492E+03  0.00000000000E+00 0.  1.
<scales pt_clust_5="13000.00000" pt_clust_6="13000.00000" pt_clust_7="13000.00000" pt_clust_8="13000.00000" pt_clust_9="118.14628"></scales>
<clustering>
<clus scale="   80.898">  5  6 -1 -1</clus>
<clus scale="   81.380">  2  5  1 -1</clus>
<clus scale="   91.131">  7  8 -1 -1</clus>
<clus scale="  118.146">  1  9  2 -1</clus>
<clus scale="  118.146">  1  5  2 -1</clus>
</clustering>
</event>
<event>
 9    2  0.2984928E-005  0.1153547E+03  0.7546771E-02  0.1254425E+00
         -1   -1    0    0    0  501 -0.00000000000E+00  0.00000000000E+00  0.10512343099E+03  0.10512343099E+03  0.00000000000E+00 0.  1.
          2   -1    0    0  502    0  0.00000000000E+00 -0.00000000000E+00 -0.35257550417E+03  0.35257550417E+03  0.00000000000E+00 0. -1.
         23    2    1    2    0    0  0.50031315379E+02  0.36203427067E+02  0.17800495394E+02  0.11102841814E+03  0.90535249208E+02 0.  0.
         24    2    1    2    0    0 -0.78817429765E+02 -0.45966411990E+02 -0.53823118834E+02  0.13306722005E+03  0.80528620160E+02 0.  0.
        -13    1    4    4    0    0 -0.27486253120E+02  0.20406832716E+02 -0.16719786184E+01  0.34274311730E+02  0.00000000000E+00 0.  1.
         14    1    4    4    0    0 -0.51331176645E+02 -0.66373244706E+02 -0.52151140215E+02  0.98792908320E+02  0.00000000000E+00 0. -1.
        -13    1    3    3    0    0  0.59138980762E+02 -0.57728983269E+01  0.29739740445E+02  0.66446952996E+02  0.00000000000E+00 0. -1.
         13    1    3    3    0    0 -0.91076653830E+01  0.41976325394E+02 -0.11939245051E+02  0.44581465148E+02  0.00000000000E+00 0.  1.
         21    1    1    2  502  501  0.28786114386E+02  0.97629849231E+01 -0.21142944974E+03  0.21360329696E+03  0.00000000000E+00 0. -1.
<scales pt_clust_5="13000.00000" pt_clust_6="13000.00000" pt_clust_7="13000.00000" pt_clust_8="13000.00000" pt_clust_9="30.39665"></scales>
<clustering>
<clus scale="   30.397">  2  9  1 -1</clus>
<clus scale="   80.529">  5  6 -1 -1</clus>
<clus scale="   90.535">  7  8 -1 -1</clus>
<clus scale="  107.680">  2  5  1 -1</clus>
<clus scale="   30.397">  2  5  1 -1</clus>
</clustering>
</event>
<event>
 9    2  0.2984928E-005  0.9681622E+02  0.7546771E-02  0.1294289E+00
         -1   -1    0    0    0  501 -0.00000000000E+00  0.00000000000E+00  0.21909978849E+03  0.21909978849E+03  0.00000000000E+00 0.  1.
          2   -1    0    0  502    0  0.00000000000E+00 -0.00000000000E+00 -0.11914520395E+03  0.11914520395E+03  0.00000000000E+00 0. -1.
         23    2    1    2    0    0  0.15296825158E+02 -0.13798515122E+02  0.12104874437E+03  0.15388108940E+03  0.92748041933E+02 0.  0.
         24    2    1    2    0    0 -0.80262386619E+01  0.42362193901E+02  0.52588732396E+02  0.10500450676E+03  0.80008722555E+02 0.  0.
        -13    1    4    4    0    0  0.20081508357E+02 -0.73700436437E+01  0.41676923714E+02  0.46846029623E+02  0.00000000000E+00 0.  1.
         14    1    4    4    0    0 -0.28107747019E+02  0.49732237545E+02  0.10911808682E+02  0.58158477133E+02  0.00000000000E+00 0. -1.
        -11    1    3    3    0    0 -0.33068049614E+01  0.38090210860E+02  0.64010163174E+02  0.74559373065E+02  0.00000000000E+00 0. -1.
         11    1    3    3    0    0  0.18603630120E+02 -0.51888725981E+02  0.57038581194E+02  0.79321716334E+02  0.00000000000E+00 0.  1.
         21    1    1    2  502  501 -0.72705864964E+01 -0.28563678779E+02 -0.73682892223E+02  0.79359396291E+02  0.00000000000E+00 0.  1.
<scales pt_clust_5="13000.00000" pt_clust_6="13000.00000" pt_clust_7="13000.00000" pt_clust_8="13000.00000" pt_clust_9="29.47448"></scales>
<clustering>
<clus scale="   29.474">  2  9  1 -1</clus>
<clus scale="   80.009">  5  6 -1 -1</clus>
<clus scale="   84.691">  2  5  1 -1</clus>
<clus scale="   92.748">  7  8 -1 -1</clus>
<clus scale="   29.474">  2  5  1 -1</clus>
</clustering>
</event>
<event>
 9    2  0.2984928E-005  0.1097582E+03  0.7546771E-02  0.1267578E+00
         -1   -1    0    0    0  501 -0.00000000000E+00  0.00000000000E+00  0.10039410276E+03  0.10039410276E+03  0.00000000000E+00 0.  1.
          2   -1    0    0  502    0  0.00000000000E+00 -0.00000000000E+00 -0.35306323733E+03  0.35306323733E+03  0.00000000000E+00 0. -1.
         23    2    1    2    0    0 -0.94252814531E+01  0.59492472806E+02  0.49763649779E+02  0.11884854695E+03  0.89556496263E+02 0.  0.
         24    2    1    2    0    0  0.24428894064E+00 -0.87332582540E+02 -0.23378431727E+03  0.25996313441E+03  0.72792064161E+02 0.  0.
        -13    1    4    4    0    0 -0.62806924200E+01 -0.52771085654E+02 -0.50419210452E+02  0.73255248010E+02  0.00000000000E+00 0.  1.
         14    1    4    4    0    0  0.65249813607E+01 -0.34561496886E+02 -0.18336510681E+03  0.18670788640E+03  0.00000000000E+00 0. -1.
        -13    1    3    3    0    0  0.37270991960E+02  0.16180528215E+02  0.48621660835E+01  0.40921595693E+02  0.00000000000E+00 0.  1.
         13    1    3    3    0    0 -0.46696273413E+02  0.43311944590E+02  0.44901483695E+02  0.77926951262E+02  0.00000000000E+00 0. -1.
         21    1    1    2  502  501  0.91809925125E+01  0.27840109734E+02 -0.68648467082E+02  0.74645658723E+02  0.00000000000E+00 0. -1.
<scales pt_clust_5="13000.00000" pt_clust_6="13000.00000" pt_clust_7="13000.00000" pt_clust_8="13000.00000" pt_clust_9="29.31488"></scales>
<clustering>
<clus scale="   29.315">  2  9  1 -1</clus>
<clus scale="   72.792">  5  6 -1 -1</clus>
<clus scale="   89.556">  7  8 -1 -1</clus>
<clus scale="   96.567">  2  5  1 -1</clus>
<clus scale="   29.315">  2  5  1 -1</clus>
</clustering>
</event>
<event>
 9    2  0.2984928E-005  0.9412432E+02  0.7546771E-02  0.1300035E+00
          2   -1    0    0  502    0  0.00000000000E+00  0.00000000000E+00  0.60996803444E+03  0.60996803444E+03  0.00000000000E+00 0. -1.
         -1   -1    0    0    0  501 -0.00000000000E+00 -0.00000000000E+00 -0.68621170153E+02  0.68621170153E+02  0.00000000000E+00 0.  1.
         23    2    1    2    0    0  0.52862662401E+01 -0.26482205864E+02 -0.20002675129E+02  0.99185482426E+02  0.93318814145E+02 0.  0.
         24    2    1    2    0    0 -0.12354317158E+02  0.13882504451E+01  0.53818064529E+03  0.54452591264E+03  0.81948192054E+02 0.  0.
        -11    1    4    4    0    0 -0.39240220414E+02  0.19000902547E+02  0.19354768432E+03  0.19839741758E+03  0.00000000000E+00 0.  1.
         12    1    4    4    0    0  0.26885903256E+02 -0.17612652102E+02  0.34463296097E+03  0.34612849507E+03  0.00000000000E+00 0. -1.
        -13    1    3    3    0    0 -0.36694869141E+02  0.12864101410E+02 -0.21571499357E+01  0.38944214233E+02  0.00000000000E+00 0. -1.
         13    1    3    3    0    0  0.41981135381E+02 -0.39346307274E+02 -0.17845525193E+02  0.60241268193E+02  0.00000000000E+00 0.  1.
         21    1    1    2  502  501  0.70680509180E+01  0.25093955419E+02  0.23168894126E+02  0.34877809526E+02  0.00000000000E+00 0.  1.
<scales pt_clust_5="13000.00000" pt_clust_6="13000.00000" pt_clust_7="13000.00000" pt_clust_8="13000.00000" pt_clust_9="26.07037"></scales>
<clustering>
<clus scale="   26.070">  2  9  1 -1</clus>
<clus scale="   81.948">  5  6 -1 -1</clus>
<clus scale="   82.864">  1  5  2 -1</clus>
<clus scale="   93.319">  7  8 -1 -1</clus>
<clus scale="   82.864">  1  5  2 -1</clus>
</clustering>
</event>
<event>
 9    2  0.2984928E-005  0.1104377E+03  0.7546771E-02  0.1262222E+00
         -1   -1    0    0    0  501 -0.00000000000E+00  0.00000000000E+00  0.27727694352E+03  0.27727694352E+03  0.00000000000E+00 0.  1.
          2   -1    0    0  502    0  0.00000000000E+00 -0.00000000000E+00 -0.97236196585E+02  0.97236196585E+02  0.00000000000E+00 0. -1.
         23    2    1    2    0    0  0.27895531642E+02  0.61039469536E+02  0.19574111735E+03  0.22452541596E+03  0.87138394885E+02 0.  0.
         24    2    1    2    0    0 -0.52614920791E+02 -0.44557088988E+02 -0.38303899001E+02  0.11265628200E+03  0.80439947328E+02 0.  0.
        -11    1    4    4    0    0 -0.66944127517E-01 -0.26306063650E+02  0.19262490588E+02  0.32604555049E+02  0.00000000000E+00 0.  1.
         12    1    4    4    0    0 -0.52547976664E+02 -0.18251025338E+02 -0.57566389589E+02  0.80051726950E+02  0.00000000000E+00 0. -1.
        -11    1    3    3    0    0  0.49733224835E+02  0.34086688941E+02  0.17259478772E+03  0.18282302033E+03  0.00000000000E+00 0.  1.
         11    1    3    3    0    0 -0.21837693193E+02  0.26952780594E+02  0.23146329635E+02  0.41702395631E+02  0.00000000000E+00 0. -1.
         21    1    1    2  502  501  0.24719389149E+02 -0.16482380548E+02  0.22603528589E+02  0.37331442151E+02  0.00000000000E+00 0. -1.
<scales pt_clust_5="13000.00000" pt_clust_6="13000.00000" pt_clust_7="13000.00000" pt_clust_8="13000.00000" pt_clust_9="29.71055"></scales>
<clustering>
<clus scale="   29.711">  1  9  2 -1</clus>
<clus scale="   80.440">  5  6 -1 -1</clus>
<clus scale="   87.138">  7  8 -1 -1</clus>
<clus scale="  105.233">  2  5  1 -1</clus>
<clus scale="  105.233">  2  5  1 -1</clus>
</clustering>
</event>
<event>
 9    2  0.2984928E-005  0.2813486E+03  0.7546771E-02  0.1095583E+00
         -1   -1    0    0    0  501 -0.00000000000E+00  0.00000000000E+00  0.12179229577E+04  0.12179229577E+04  0.00000000000E+00 0.  1.
          2   -1    0    0  502    0  0.00000000000E+00 -0.00000000000E+00 -0.10944162870E+03  0.10944162870E+03  0.00000000000E+00 0. -1.
         23    2    1    2    0    0  0.18565897918E+03 -0.18779979607E+03  0.90437077112E+03  0.94687418582E+03  0.94584418113E+02 0.  0.
         24    2    1    2    0    0 -0.16491156987E+03  0.21315095884E+03  0.20469477876E+03  0.34772643009E+03  0.79903445490E+02 0.  0.
        -13    1    4    4    0    0 -0.10368013524E+03  0.10450511900E+03  0.66364394889E+02  0.16147793425E+03  0.00000000000E+00 0.  1.
         14    1    4    4    0    0 -0.61231434629E+02  0.10864583984E+03  0.13833038387E+03  0.18624849584E+03  0.00000000000E+00 0. -1.
        -13    1    3    3    0    0  0.15159199262E+03 -0.93070507367E+02  0.62944028407E+03  0.65409274785E+03  0.00000000000E+00 0.  1.
         13    1    3    3    0    0  0.34066986558E+02 -0.94729288704E+02  0.27493048705E+03  0.29278143797E+03  0.00000000000E+00 0. -1.
         21    1    1    2  502  501 -0.20747409310E+02 -0.25351162765E+02 -0.58422090068E+00  0.32763970466E+02  0.00000000000E+00 0. -1.
<scales pt_clust_5="13000.00000" pt_clust_6="13000.00000" pt_clust_7="13000.00000" pt_clust_8="13000.00000" pt_clust_9="32.75876"></scales>
<clustering>
<clus scale="   32.759">  2  9  1 -1</clus>
<clus scale="   79.903">  5  6 -1 -1</clus>
<clus scale="   94.584">  7  8 -1 -1</clus>
<clus scale="  276.759">  2  5  1 -1</clus>
<clus scale="   32.759">  2  5  1 -1</clus>
</clustering>
</event>
<event>
 9    2  0.2984928E-005  0.9845183E+02  0.7546771E-02  0.1287175E+00
          2   -1    0    0  502    0  0.00000000000E+00  0.00000000000E+00  0.26662114388E+03  0.26662114388E+03  0.00000000000E+00 0. -1.
         -1   -1    0    0    0  501 -0.00000000000E+00 -0.00000000000E+00 -0.10154859373E+03  0.10154859373E+03  0.00000000000E+00 0.  1.
         23    2    1    2    0    0 -0.15024266758E+02  0.49169510298E+02 -0.43754521514E+02  0.11128087997E+03  0.88462459612E+02 0.  0.
         24    2    1    2    0    0  0.70041633955E+01  0.39991085729E+01  0.17569443493E+03  0.19373036091E+03  0.81227255896E+02 0.  0.
        -11    1    4    4    0    0  0.32140594619E+02  0.28972913665E+02  0.12154515605E+03  0.12901810922E+03  0.00000000000E+00 0.  1.
         12    1    4    4    0    0 -0.25136431224E+02 -0.24973805093E+02  0.54149278878E+02  0.64712251688E+02  0.00000000000E+00 0. -1.
        -11    1    3    3    0    0 -0.10465781628E+00  0.67320522453E+02 -0.53354271346E+02  0.85899604001E+02  0.00000000000E+00 0.  1.
         11    1    3    3    0    0 -0.14919608942E+02 -0.18151012155E+02  0.95997498322E+01  0.25381275974E+02  0.00000000000E+00 0. -1.
         21    1    1    2  502  501  0.80201033627E+01 -0.53168618870E+02  0.33132636739E+02  0.63158496719E+02  0.00000000000E+00 0. -1.
<scales pt_clust_5="13000.00000" pt_clust_6="13000.00000" pt_clust_7="13000.00000" pt_clust_8="13000.00000" pt_clust_9="53.77010"></scales>
<clustering>
<clus scale="   53.770">  1  9  2 -1</clus>
<clus scale="   81.227">  5  6 -1 -1</clus>
<clus scale="   88.462">  7  8 -1 -1</clus>
<clus scale="   92.006">  1  5  2 -1</clus>
<clus scale="   53.770">  1  5  2 -1</clus>
</clustering>
</event>
<event>
 9    2  0.2984928E-005  0.1082276E+03  0.7546771E-02  0.1270169E+00
         -1   -1    0    0    0  501 -0.00000000000E+00  0.00000000000E+00  0.43782478399E+03  0.43782478399E+03  0.00000000000E+00 0.  1.
          2   -1    0    0  502    0  0.00000000000E+00 -0.00000000000E+00 -0.39047169493E+02  0.39047169493E+02  0.00000000000E+00 0. -1.
         23    2    1    2    0    0  0.11833304729E+01  0.68493301589E+02  0.24577884062E+03  0.27218225799E+03  0.94779799730E+02 0.  0.
         24    2    1    2    0    0  0.23280635228E+02 -0.31771709183E+02  0.11966315418E+03  0.14938847934E+03  0.80288341684E+02 0.  0.
        -11    1    4    4    0    0  0.44475688032E+02 -0.27741799810E+02  0.11628148887E+03  0.12755029963E+03  0.00000000000E+00 0.  1.
         12    1    4    4    0    0 -0.21195052804E+02 -0.40299093737E+01  0.33816653174E+01  0.21838179714E+02  0.00000000000E+00 0. -1.
        -13    1    3    3    0    0  0.44335484921E+02  0.45276753283E+02  0.99993215271E+02  0.11838185128E+03  0.00000000000E+00 0.  1.
         13    1    3    3    0    0 -0.43152154448E+02  0.23216548306E+02  0.14578562535E+03  0.15380040672E+03  0.00000000000E+00 0. -1.
         21    1    1    2  502  501 -0.24463965701E+02 -0.36721592406E+02  0.33335619689E+02  0.55301216142E+02  0.00000000000E+00 0.  1.
<scales pt_clust_5="13000.00000" pt_clust_6="13000.00000" pt_clust_7="13000.00000" pt_clust_8="13000.00000" pt_clust_9="44.12438"></scales>
<clustering>
<clus scale="   44.124">  2  9  1 -1</clus>
<clus scale="   80.288">  5  6 -1 -1</clus>
<clus scale="   94.780">  7  8 -1 -1</clus>
<clus scale="   95.793">  2  5  1 -1</clus>
<clus scale="   44.124">  2  5  1 -1</clus>
</clustering>
</event>
<event>
 9    2  0.2984928E-005  0.9391677E+02  0.7546771E-02  0.1300792E+00
          2   -1    0    0  502    0  0.00000000000E+00  0.00000000000E+00  0.97300538373E+02  0.97300538373E+02  0.00000000000E+00 0. -1.
         -1   -1    0    0    0  501 -0.00000000000E+00 -0.00000000000E+00 -0.23931239550E+03  0.23931239550E+03  0.00000000000E+00 0.  1.
         23    2    1    2    0    0  0.40234413066E+01  0.16185905556E+02 -0.19097646029E+03  0.21299318742E+03  0.92821968757E+02 0.  0.
         24    2    1    2    0    0 -0.13845907271E+02  0.66657041741E+01  0.53566520506E+02  0.98324400080E+02  0.81007251352E+02 0.  0.
        -13    1    4    4    0    0 -0.13249556734E+02 -0.31508115867E+02  0.49184687014E+02  0.59895288260E+02  0.00000000000E+00 0.  1.
         14    1    4    4    0    0 -0.59635053723E+00  0.38173820041E+02  0.43818334928E+01  0.38429111820E+02  0.00000000000E+00 0. -1.
        -13    1    3    3    0    0  0.19967402888E+02 -0.23395933123E+02 -0.15238614969E+03  0.15545933707E+03  0.00000000000E+00 0.  1.
         13    1    3    3    0    0 -0.15943961581E+02  0.39581838678E+02 -0.38590310603E+02  0.57533850353E+02  0.00000000000E+00 0. -1.
         21    1    1    2  502  501  0.98224659648E+01 -0.22851609730E+02 -0.46019173427E+01  0.25295346372E+02  0.00000000000E+00 0.  1.
<scales pt_clust_5="13000.00000" pt_clust_6="13000.00000" pt_clust_7="13000.00000" pt_clust_8="13000.00000" pt_clust_9="24.87322"></scales>
<clustering>
<clus scale="   24.873">  1  9  2 -1</clus>
<clus scale="   81.007">  5  6 -1 -1</clus>
<clus scale="   82.259">  1  5  2 -1</clus>
<clus scale="   92.822">  7  8 -1 -1</clus>
<clus scale="   24.873">  1  5  2 -1</clus>
</clustering>
</event>
<event>
 9    2  0.2984928E-005  0.1656299E+03  0.7546771E-02  0.1183485E+00
          2   -1    0    0  502    0  0.00000000000E+00  0.00000000000E+00  0.34020813309E+03  0.34020813309E+03  0.00000000000E+00 0. -1.
         -1   -1    0    0    0  501 -0.00000000000E+00 -0.00000000000E+00 -0.24336947589E+03  0.24336947589E+03  0.00000000000E+00 0.  1.
         24    2    1    2    0    0 -0.64476094744E+02  0.12839461153E+03 -0.16608425313E+03  0.23443787811E+03  0.82065805872E+02 0.  0.
         23    2    1    2    0    0  0.67647082188E+02 -0.10384240734E+03  0.95826534846E+02  0.18021944023E+03  0.89089553632E+02 0.  0.
        -11    1    3    3    0    0 -0.50146056274E+02  0.32273361603E+02 -0.10159491985E+03  0.11780375448E+03  0.00000000000E+00 0.  1.
         12    1    3    3    0    0 -0.14330038470E+02  0.96121249924E+02 -0.64489333275E+02  0.11663412363E+03  0.00000000000E+00 0. -1.
        -11    1    4    4    0    0  0.83085047366E+02 -0.60765523270E+02  0.46545143398E+02  0.11296912980E+03  0.00000000000E+00 0. -1.
         11    1    4    4    0    0 -0.15437965178E+02 -0.43076884073E+02  0.49281391448E+02  0.67250310433E+02  0.00000000000E+00 0.  1.
         21    1    1    2  502  501 -0.31709874443E+01 -0.24552204185E+02  0.16709637548E+03  0.16892029064E+03  0.00000000000E+00 0. -1.
<scales pt_clust_5="13000.00000" pt_clust_6="13000.00000" pt_clust_7="13000.00000" pt_clust_8="13000.00000" pt_clust_9="24.75613"></scales>
<clustering>
<clus scale="   24.756">  1  9  2 -1</clus>
<clus scale="   82.066">  5  6 -1 -1</clus>
<clus scale="   89.090">  7  8 -1 -1</clus>
<clus scale="  161.960">  2  5  1 -1</clus>
<clus scale="   24.756">  1  5  2 -1</clus>
</clustering>
</event>
<event>
 9    2  0.2984928E-005  0.1613362E+03  0.7546771E-02  0.1188756E+00
          2   -1    0    0  502    0  0.00000000000E+00  0.00000000000E+00  0.80426946238E+03  0.80426946238E+03  0.00000000000E+00 0. -1.
         -1   -1    0    0    0  501 -0.00000000000E+00 -0.00000000000E+00 -0.46200092089E+02  0.46200092089E+02  0.00000000000E+00 0.  1.
         23    2    1    2    0    0 -0.14896251700E+03 -0.11567915389E+02  0.24293426795E+03  0.29899741647E+03  0.89770531786E+02 0.  0.
         24    2    1    2    0    0  0.12230642463E+03  0.39775181354E+02  0.45873397795E+03  0.48300839615E+03  0.79494161259E+02 0.  0.
        -13    1    4    4    0    0  0.63464693920E+02  0.60884753739E+02  0.29120909647E+03  0.30419970164E+03  0.00000000000E+00 0.  1.
         14    1    4    4    0    0  0.58841730705E+02 -0.21109572385E+02  0.16752488148E+03  0.17880869451E+03  0.00000000000E+00 0. -1.
        -11    1    3    3    0    0 -0.63122043677E+02  0.28505700717E+02  0.54652515891E+02  0.88226214157E+02  0.00000000000E+00 0. -1.
         11    1    3    3    0    0 -0.85840473324E+02 -0.40073616106E+02  0.18828175206E+03  0.21077120232E+03  0.00000000000E+00 0.  1.
         21    1    1    2  502  501  0.26656092375E+02 -0.28207265965E+02  0.56401124390E+02  0.68463741838E+02  0.00000000000E+00 0. -1.
<scales pt_clust_5="13000.00000" pt_clust_6="13000.00000" pt_clust_7="13000.00000" pt_clust_8="13000.00000" pt_clust_9="38.80976"></scales>
<clustering>
<clus scale="   38.810">  2  9  1 -1</clus>
<clus scale="   79.494">  5  6 -1 -1</clus>
<clus scale="   89.771">  7  8 -1 -1</clus>
<clus scale="  155.852">  1  5  2 -1</clus>
<clus scale="  155.852">  1  5  2 -1</clus>
</clustering>
</event>
<event>
 9    2  0.2984928E-005  0.1044898E+03  0.7546771E-02  0.1274681E+00
         -1   -1    0    0    0  501 -0.00000000000E+00  0.00000000000E+00  0.12654679288E+03  0.12654679288E+03  0.00000000000E+00 0.  1.
          2   -1    0    0  502    0  0.00000000000E+00 -0.00000000000E+00 -0.15240800039E+03  0.15240800039E+03  0.00000000000E+00 0. -1.
         24    2    1    2    0    0  0.39351962536E+02 -0.16105505854E+02  0.28313377318E+02  0.96705502952E+02  0.82111769508E+02 0.  0.
         23    2    1    2    0    0 -0.72083767550E+02  0.12703370539E+01  0.20756757071E+01  0.11549942063E+03  0.90211553780E+02 0.  0.
        -11    1    3    3    0    0  0.18434352191E+01  0.31611434494E+02  0.74948257626E+01  0.32540028540E+02  0.00000000000E+00 0.  1.
         12    1    3    3    0    0  0.37508527317E+02 -0.47716940347E+02  0.20818551556E+02  0.64165474412E+02  0.00000000000E+00 0. -1.
        -13    1    4    4    0    0 -0.45056361592E+02  0.31545498598E+02  0.33297222971E+02  0.64295406206E+02  0.00000000000E+00 0.  1.
         13    1    4    4    0    0 -0.27027405959E+02 -0.30275161544E+02 -0.31221547264E+02  0.51204014422E+02  0.00000000000E+00 0. -1.
         21    1    1    2  502  501  0.32731805014E+02  0.14835168800E+02 -0.56250260538E+02  0.66749869688E+02  0.00000000000E+00 0. -1.
<scales pt_clust_5="13000.00000" pt_clust_6="13000.00000" pt_clust_7="13000.00000" pt_clust_8="13000.00000" pt_clust_9="35.93680"></scales>
<clustering>
<clus scale="   35.937">  2  9  1 -1</clus>
<clus scale="   82.112">  5  6 -1 -1</clus>
<clus scale="   90.212">  7  8 -1 -1</clus>
<clus scale="   97.582">  1  5  2 -1</clus>
<clus scale="   35.937">  2  5  1 -1</clus>
</clustering>
</event>
<event>
 9    2  0.2984928E-005  0.9070845E+02  0.7546771E-02  0.1302156E+00
         -1   -1    0    0    0  501 -0.00000000000E+00  0.00000000000E+00  0.50745402796E+02  0.50745402796E+02  0.00000000000E+00 0.  1.
          2   -1    0    0  502    0  0.00000000000E+00 -0.00000000000E+00 -0.48245353569E+03  0.48245353569E+03  0.00000000000E+00 0. -1.
         23    2    1    2    0    0 -0.76420041156E+01  0.50444408874E+02 -0.25478621932E+02  0.96571042787E+02  0.77934379549E+02 0.  0.
         24    2    1    2    0    0  0.49310149414E+02  0.45751207865E+00 -0.22257625136E+03  0.24154904074E+03  0.79837655658E+02 0.  0.
        -13    1    4    4    0    0  0.32781150922E+02  0.14799251651E+02 -0.27568239679E+02  0.45316989575E+02  0.00000000000E+00 0.  1.
         14    1    4    4    0    0  0.16528998492E+02 -0.14341739572E+02 -0.19500801168E+03  0.19623205116E+03  0.00000000000E+00 0. -1.
        -11    1    3    3    0    0  0.12177470465E+02  0.53560931199E+02  0.99827035819E+01  0.55827578388E+02  0.00000000000E+00 0.  1.
         11    1    3    3    0    0 -0.19819474581E+02 -0.31165223244E+01 -0.35461325514E+02  0.40743464399E+02  0.00000000000E+00 0. -1.
         21    1    1    2  502  501 -0.41668145298E+02 -0.50901920953E+02 -0.18365325961E+03  0.19507885496E+03  0.00000000000E+00 0. -1.
<scales pt_clust_5="13000.00000" pt_clust_6="13000.00000" pt_clust_7="13000.00000" pt_clust_8="13000.00000" pt_clust_9="65.78176"></scales>
<clustering>
<clus scale="   65.782">  2  9  1 -1</clus>
<clus scale="   77.934">  7  8 -1 -1</clus>
<clus scale="   79.838">  5  6 -1 -1</clus>
<clus scale="   89.038">  1  7  2 -1</clus>
<clus scale="   65.782">  2  5  1 -1</clus>
</clustering>
</event>
<event>
 9    2  0.2984928E-005  0.1894410E+03  0.7546771E-02  0.1193669E+00
         -1   -1    0    0    0  501 -0.00000000000E+00  0.00000000000E+00  0.11355260224E+03  0.11355260224E+03  0.00000000000E+00 0.  1.
          2   -1    0    0  502    0  0.00000000000E+00 -0.00000000000E+00 -0.93893209369E+03  0.93893209369E+03  0.00000000000E+00 0. -1.
         23    2    1    2    0    0 -0.13223823027E+03 -0.10024106581E+03  0.36705514169E+00  0.19067515455E+03  0.93923687167E+02 0.  0.
         24    2    1    2    0    0  0.26758858588E+02 -0.17583603956E+02 -0.23929429557E+03  0.25440951389E+03  0.80232295403E+02 0.  0.
        -11    1    4    4    0    0 -0.28780546693E+02 -0.68731558093E+01 -0.91256323734E+02  0.95933710239E+02  0.00000000000E+00 0.  1.
         12    1    4    4    0    0  0.55539405281E+02 -0.10710448147E+02 -0.14803797184E+03  0.15847580365E+03  0.00000000000E+00 0. -1.
        -11    1    3    3    0    0 -0.29098279278E+02  0.16387534982E+02  0.94842786071E+01  0.34716173471E+02  0.00000000000E+00 0. -1.
         11    1    3    3    0    0 -0.10313995100E+03 -0.11662860080E+03 -0.91172234654E+01  0.15595898108E+03  0.00000000000E+00 0.  1.
         21    1    1    2  502  501  0.10547937168E+03  0.11782466977E+03 -0.58645225102E+03  0.60740002748E+03  0.00000000000E+00 0. -1.
<scales pt_clust_5="13000.00000" pt_clust_6="13000.00000" pt_clust_7="13000.00000" pt_clust_8="13000.00000" pt_clust_9="164.51824"></scales>
<clustering>
<clus scale="   80.232">  5  6 -1 -1</clus>
<clus scale="   86.385">  2  5  1 -1</clus>
<clus scale="   93.924">  7  8 -1 -1</clus>
<clus scale="  164.518">  2  9  1 -1</clus>
<clus scale="   86.385">  2  5  1 -1</clus>
</clustering>
</event>
<event>
 9    2  0.2984928E-005  0.1444135E+03  0.7546771E-02  0.1214754E+00
          2   -1    0    0  502    0  0.00000000000E+00  0.00000000000E+00  0.57053165661E+03  0.57053165661E+03  0.00000000000E+00 0. -1.
         -1   -1    0    0    0  501 -0.00000000000E+00 -0.00000000000E+00 -0.60314452939E+03  0.60314452939E+03  0.00000000000E+00 0.  1.
         24    2    1    2    0    0 -0.91187660983E+02 -0.26747664726E+02 -0.56222439315E+03  0.57612350408E+03  0.82409930284E+02 0.  0.
         23    2    1    2    0    0  0.24076234918E+02  0.59143248883E+02  0.10269194920E+03  0.16417785843E+03  0.11104568336E+03 0.  0.
        -13    1    3    3    0    0 -0.71224490160E+02  0.12839504212E+02 -0.23450738829E+03  0.24542105865E+03  0.00000000000E+00 0.  1.
         14    1    3    3    0    0 -0.19963170823E+02 -0.39587168938E+02 -0.32771700486E+03  0.33070244542E+03  0.00000000000E+00 0. -1.
        -13    1    4    4    0    0 -0.10670552465E+02 -0.28626627286E+02  0.10701746749E+02  0.32370848972E+02  0.00000000000E+00 0.  1.
         13    1    4    4    0    0  0.34746787383E+02  0.87769876169E+02  0.91990202450E+02  0.13180700946E+03  0.00000000000E+00 0. -1.
         21    1    1    2  502  501  0.67111426065E+02 -0.32395584157E+02  0.42691957118E+03  0.43337482349E+03  0.00000000000E+00 0. -1.
<scales pt_clust_5="13000.00000" pt_clust_6="13000.00000" pt_clust_7="13000.00000" pt_clust_8="13000.00000" pt_clust_9="74.52125"></scales>
<clustering>
<clus scale="   74.521">  1  9  2 -1</clus>
<clus scale="   82.410">  5  6 -1 -1</clus>
<clus scale="  111.046">  7  8 -1 -1</clus>
<clus scale="  123.756">  2  5  1 -1</clus>
<clus scale="   74.521">  1  5  2 -1</clus>
</clustering>
</event>
<event>
 9    2  0.2984928E-005  0.1146477E+03  0.7546771E-02  0.1257863E+00
          2   -1    0    0  502    0  0.00000000000E+00  0.00000000000E+00  0.17283911873E+03  0.17283911873E+03  0.00000000000E+00 0. -1.
         -1   -1    0    0    0  501 -0.00000000000E+00 -0.00000000000E+00 -0.16667971029E+03  0.16667971029E+03  0.00000000000E+00 0.  1.
         23    2    1    2    0    0  0.10761642667E+03 -0.47001657792E+02 -0.28006013546E+02  0.15110147250E+03  0.90867304750E+02 0.  0.
         24    2    1    2    0    0 -0.57491810851E+02  0.64449005571E+01  0.67086987191E+02  0.11602152015E+03  0.74923188859E+02 0.  0.
        -13    1    4    4    0    0 -0.53518382888E+02  0.31855428308E+02  0.65301849376E+02  0.90240329962E+02  0.00000000000E+00 0.  1.
         14    1    4    4    0    0 -0.39734279628E+01 -0.25410527751E+02  0.17851378147E+01  0.25781190185E+02  0.00000000000E+00 0. -1.
        -11    1    3    3    0    0  0.72912459023E+02 -0.42753858112E+02  0.24515984476E+02  0.88006548387E+02  0.00000000000E+00 0. -1.
         11    1    3    3    0    0  0.34703967645E+02 -0.42477996801E+01 -0.52521998021E+02  0.63094924111E+02  0.00000000000E+00 0.  1.
         21    1    1    2  502  501 -0.50124615816E+02  0.40556757235E+02 -0.32921565205E+02  0.72395836370E+02  0.00000000000E+00 0.  1.
<scales pt_clust_5="13000.00000" pt_clust_6="13000.00000" pt_clust_7="13000.00000" pt_clust_8="13000.00000" pt_clust_9="64.47734"></scales>
<clustering>
<clus scale="   64.477">  2  9  1 -1</clus>
<clus scale="   74.923">  5  6 -1 -1</clus>
<clus scale="   90.867">  7  8 -1 -1</clus>
<clus scale="  102.473">  1  5  2 -1</clus>
<clus scale="  102.473">  1  5  2 -1</clus>
</clustering>
</event>
<event>
 9    2  0.2984928E-005  0.2625495E+03  0.7546771E-02  0.1150657E+00
         -1   -1    0    0    0  501 -0.00000000000E+00  0.00000000000E+00  0.20218766193E+03  0.20218766193E+03  0.00000000000E+00 0.  1.
          2   -1    0    0  502    0  0.00000000000E+00 -0.00000000000E+00 -0.78803404081E+03  0.78803404081E+03  0.00000000000E+00 0. -1.
         23    2    1    2    0    0 -0.14606996519E+03  0.20580146094E+03  0.25299786873E+02  0.27156230215E+03  0.97032616583E+02 0.  0.
         24    2    1    2    0    0  0.19953589981E+02 -0.17987538135E+02 -0.39985704587E+03  0.40910730178E+03  0.82227914681E+02 0.  0.
        -13    1    4    4    0    0 -0.11259914081E+02 -0.20019289429E+02 -0.29286876253E+02  0.37219332813E+02  0.00000000000E+00 0.  1.
         14    1    4    4    0    0  0.31213504062E+02  0.20317512945E+01 -0.37057016962E+03  0.37188796897E+03  0.00000000000E+00 0. -1.
        -11    1    3    3    0    0 -0.42773199856E+02  0.17614267050E+02  0.32883534628E+02  0.56755051575E+02  0.00000000000E+00 0.  1.
         11    1    3    3    0    0 -0.10329676534E+03  0.18818719389E+03 -0.75837477549E+01  0.21480725058E+03  0.00000000000E+00 0. -1.
         21    1    1    2  502  501  0.12611637521E+03 -0.18781392280E+03 -0.21128911988E+03  0.30955209880E+03  0.00000000000E+00 0.  1.
<scales pt_clust_5="13000.00000" pt_clust_6="13000.00000" pt_clust_7="13000.00000" pt_clust_8="13000.00000" pt_clust_9="243.96084"></scales>
<clustering>
<clus scale="   82.228">  5  6 -1 -1</clus>
<clus scale="   86.505">  2  5  1 -1</clus>
<clus scale="   97.033">  7  8 -1 -1</clus>
<clus scale="  243.961">  2  9  1 -1</clus>
<clus scale="   86.505">  2  5  1 -1</clus>
</clustering>
</event>
<event>
 9    2  0.2984928E-005  0.1907169E+03  0.7546771E-02  0.1158932E+00
         -1   -1    0    0    0  501 -0.00000000000E+00  0.00000000000E+00  0.12626618184E+03  0.12626618184E+03  0.00000000000E+00 0.  1.
          2   -1    0    0  502    0  0.00000000000E+00 -0.00000000000E+00 -0.38148101931E+03  0.38148101931E+03  0.00000000000E+00 0. -1.
         24    2    1    2    0    0  0.88266375142E+02 -0.14638495207E+03 -0.23063876876E+02  0.19025061965E+03  0.80273586489E+02 0.  0.
         23    2    1    2    0    0 -0.57876856910E+02  0.15127003064E+03 -0.19825164300E+03  0.27170847667E+03  0.91046304722E+02 0.  0.
        -13    1    3    3    0    0  0.44742351474E+02 -0.68908131912E+02  0.29154403585E+02  0.87179056587E+02  0.00000000000E+00 0.  1.
         14    1    3    3    0    0  0.43524023668E+02 -0.77476820160E+02 -0.52218280461E+02  0.10307156306E+03  0.00000000000E+00 0. -1.
        -13    1    4    4    0    0  0.19158160380E+02  0.78152405771E+01 -0.10561363505E+02  0.23230486296E+02  0.00000000000E+00 0.  1.
         13    1    4    4    0    0 -0.77035017291E+02  0.14345479006E+03 -0.18769027950E+03  0.24847799037E+03  0.00000000000E+00 0. -1.
         21    1    1    2  502  501 -0.30389518231E+02 -0.48850785689E+01 -0.33899317598E+02  0.45788104837E+02  0.00000000000E+00 0. -1.
<scales pt_clust_5="13000.00000" pt_clust_6="13000.00000" pt_clust_7="13000.00000" pt_clust_8="13000.00000" pt_clust_9="30.77965"></scales>
<clustering>
<clus scale="   30.780">  2  9  1 -1</clus>
<clus scale="   80.274">  5  6 -1 -1</clus>
<clus scale="   91.046">  7  8 -1 -1</clus>
<clus scale="  185.815">  1  5  2 -1</clus>
<clus scale="   30.780">  2  5  1 -1</clus>
</clustering>
</event>
<event>
 9    2  0.2984928E-005  0.9212944E+02  0.7546771E-02  0.1298168E+00
         -3   -1    0    0    0  501 -0.00000000000E+00  0.00000000000E+00  0.12015297932E+03  0.12015297932E+03  0.00000000000E+00 0.  1.
          4   -1    0    0  502    0  0.00000000000E+00 -0.00000000000E+00 -0.35109047748E+03  0.35109047748E+03  0.00000000000E+00 0. -1.
         24    2    1    2    0    0 -0.33503669928E+02 -0.35662195381E+02  0.89916864309E+02  0.12965407083E+03  0.79566623136E+02 0.  0.
         23    2    1    2    0    0  0.51214801629E+01  0.15060589542E+02 -0.24861156998E+03  0.26128374530E+03  0.78793603239E+02 0.  0.
        -13    1    3    3    0    0 -0.35763842482E+02 -0.13793464977E+02  0.98774594257E+02  0.10595155769E+03  0.00000000000E+00 0.  1.
         14    1    3    3    0    0  0.22601725546E+01 -0.21868730404E+02 -0.88577299488E+01  0.23702513143E+02  0.00000000000E+00 0. -1.
        -13    1    4    4    0    0 -0.13783090362E+02 -0.28607399776E+02 -0.79565480344E+02  0.85668095369E+02  0.00000000000E+00 0.  1.
         13    1    4    4    0    0  0.18904570525E+02  0.43667989317E+02 -0.16904608964E+03  0.17561564993E+03  0.00000000000E+00 0. -1.
         21    1    1    2  502  501  0.28382189765E+02  0.20601605839E+02 -0.72242792483E+02  0.80305640678E+02  0.00000000000E+00 0. -1.
<scales pt_clust_5="13000.00000" pt_clust_6="13000.00000" pt_clust_7="13000.00000" pt_clust_8="13000.00000" pt_clust_9="35.07100"></scales>
<clustering>
<clus scale="   35.071">  2  9  1 -1</clus>
<clus scale="   78.794">  7  8 -1 -1</clus>
<clus scale="   79.567">  5  6 -1 -1</clus>
<clus scale="   91.463">  2  7  1 -1</clus>
<clus scale="   35.071">  2  5  1 -1</clus>
</clustering>
</event>
<event>
 9    2  0.2984928E-005  0.1017671E+03  0.7546771E-02  0.1282208E+00
         -1   -1    0    0    0  501 -0.00000000000E+00  0.00000000000E+00  0.54605797238E+02  0.54605797238E+02  0.00000000000E+00 0.  1.
          2   -1    0    0  502    0  0.00000000000E+00 -0.00000000000E+00 -0.63671348462E+03  0.63671348462E+03  0.00000000000E+00 0. -1.
         23    2    1    2    0    0  0.21992476918E+02  0.41908554180E+02 -0.52771351830E+01  0.10346207318E+03  0.91850729316E+02 0.  0.
         24    2    1    2    0    0 -0.62672417617E+01 -0.18950440415E+02 -0.36875972902E+03  0.37793382869E+03  0.80323369021E+02 0.  0.
        -11    1    4    4    0    0 -0.11304885415E+02 -0.36125930957E+02 -0.78781451015E+02  0.87403663229E+02  0.00000000000E+00 0.  1.
         12    1    4    4    0    0  0.50376436532E+01  0.17175490542E+02 -0.28997827801E+03  0.29053016547E+03  0.00000000000E+00 0. -1.
        -11    1    3    3    0    0 -0.34456707341E+02  0.29556448087E+01 -0.44858940114E+01  0.34872966064E+02  0.00000000000E+00 0. -1.
         11    1    3    3    0    0  0.56449184259E+02  0.38952909371E+02 -0.79124117164E+00  0.68589107113E+02  0.00000000000E+00 0.  1.
         21    1    1    2  502  501 -0.15725235156E+02 -0.22958113765E+02 -0.20807082317E+03  0.20992337998E+03  0.00000000000E+00 0. -1.
<scales pt_clust_5="13000.00000" pt_clust_6="13000.00000" pt_clust_7="13000.00000" pt_clust_8="13000.00000" pt_clust_9="27.82729"></scales>
<clustering>
<clus scale="   27.827">  2  9  1 -1</clus>
<clus scale="   80.323">  5  6 -1 -1</clus>
<clus scale="   91.498">  2  5  1 -1</clus>
<clus scale="   91.851">  7  8 -1 -1</clus>
<clus scale="   27.827">  2  5  1 -1</clus>
</clustering>
</event>
<event>
 9    2  0.2984928E-005  0.1302310E+03  0.7546771E-02  0.1229631E+00
         -1   -1    0    0    0  501 -0.00000000000E+00  0.00000000000E+00  0.15225845584E+03  0.15225845584E+03  0.00000000000E+00 0.  1.
          2   -1    0    0  502    0  0.00000000000E+00 -0.00000000000E+00 -0.74804805064E+03  0.74804805064E+03  0.00000000000E+00 0. -1.
         23    2    1    2    0    0  0.44025305716E+01  0.10439142304E+03  0.87660804279E+02  0.16471394536E+03  0.92354294495E+02 0.  0.
         24    2    1    2    0    0 -0.78028538046E+02 -0.28467489016E+02 -0.14317370278E+03  0.18506177968E+03  0.82766553944E+02 0.  0.
        -13    1    4    4    0    0 -0.96431605755E+01 -0.31287955198E+02 -0.82388724717E+01  0.33761008663E+02  0.00000000000E+00 0.  1.
         14    1    4    4    0    0 -0.68385377471E+02  0.28204661817E+01 -0.13493483031E+03  0.15130077102E+03  0.00000000000E+00 0. -1.
        -13    1    3    3    0    0  0.14827258217E+02  0.71706647650E+02  0.10361641673E+03  0.12687810181E+03  0.00000000000E+00 0.  1.
         13    1    3    3    0    0 -0.10424727646E+02  0.32684775387E+02 -0.15955612452E+02  0.37835843552E+02  0.00000000000E+00 0. -1.
         21    1    1    2  502  501  0.73626007475E+02 -0.75923934020E+02 -0.54027669630E+03  0.55053078143E+03  0.00000000000E+00 0. -1.
<scales pt_clust_5="13000.00000" pt_clust_6="13000.00000" pt_clust_7="13000.00000" pt_clust_8="13000.00000" pt_clust_9="105.76026"></scales>
<clustering>
<clus scale="   82.767">  5  6 -1 -1</clus>
<clus scale="   92.354">  7  8 -1 -1</clus>
<clus scale="  105.760">  2  9  1 -1</clus>
<clus scale="  123.617">  2  5  1 -1</clus>
<clus scale="  105.760">  2  5  1 -1</clus>
</clustering>
</event>
<event>
 9    2  0.2984928E-005  0.1120303E+03  0.7546771E-02  0.1261997E+00
          2   -1    0    0  502    0  0.00000000000E+00  0.00000000000E+00  0.43781118275E+03  0.43781118275E+03  0.00000000000E+00 0. -1.
         -1   -1    0    0    0  501 -0.00000000000E+00 -0.00000000000E+00 -0.16069342546E+03  0.16069342546E+03  0.00000000000E+00 0.  1.
         24    2    1    2    0    0  0.55013637974E+02 -0.89213486686E+00 -0.12462950327E+03  0.16007115864E+03  0.84041456886E+02 0.  0.
         23    2    1    2    0    0 -0.86526338256E+02 -0.20261945881E+02  0.35299555056E+03  0.37664935261E+03  0.96754960795E+02 0.  0.
        -11    1    3    3    0    0  0.26873685788E+02  0.40597098291E+02 -0.75801094478E+02  0.90089540467E+02  0.00000000000E+00 0.  1.
         12    1    3    3    0    0  0.28139952187E+02 -0.41489233158E+02 -0.48828408790E+02  0.69981618173E+02  0.00000000000E+00 0. -1.
        -11    1    4    4    0    0 -0.32198170239E+02  0.31759199822E+02  0.66338168277E+02  0.80287741969E+02  0.00000000000E+00 0.  1.
         11    1    4    4    0    0 -0.54328168017E+02 -0.52021145703E+02  0.28665738229E+03  0.29636161064E+03  0.00000000000E+00 0. -1.
         21    1    1    2  502  501  0.31512700282E+02  0.21154080748E+02  0.48751709994E+02  0.61784096972E+02  0.00000000000E+00 0.  1.
<scales pt_clust_5="13000.00000" pt_clust_6="13000.00000" pt_clust_7="13000.00000" pt_clust_8="13000.00000" pt_clust_9="37.95452"></scales>
<clustering>
<clus scale="   37.955">  1  9  2 -1</clus>
<clus scale="   84.041">  5  6 -1 -1</clus>
<clus scale="   96.755">  7  8 -1 -1</clus>
<clus scale="  101.253">  2  5  1 -1</clus>
<clus scale="   37.955">  1  5  2 -1</clus>
</clustering>
</event>
<event>
 9    2  0.2984928E-005  0.1768683E+03  0.7546771E-02  0.1172743E+00
         -1   -1    0    0    0  501 -0.00000000000E+00  0.00000000000E+00  0.42645349750E+02  0.42645349750E+02  0.00000000000E+00 0.  1.
          2   -1    0    0  502    0  0.00000000000E+00 -0.00000000000E+00 -0.14078628942E+04  0.14078628942E+04  0.00000000000E+00 0. -1.
         23    2    1    2    0    0  0.17482180779E+03  0.10933252726E+03 -0.43524792837E+03  0.49082098805E+03  0.94595016576E+02 0.  0.
         24    2    1    2    0    0 -0.10877095157E+03 -0.76512654012E+02 -0.73584577257E+03  0.75202424449E+03  0.79913435468E+02 0.  0.
        -13    1    4    4    0    0 -0.47314892729E+02  0.71917588214E+01 -0.16458301601E+03  0.17140008643E+03  0.00000000000E+00 0.  1.
         14    1    4    4    0    0 -0.61456058838E+02 -0.83704412833E+02 -0.57126275656E+03  0.58062415807E+03  0.00000000000E+00 0. -1.
        -13    1    3    3    0    0  0.14847916197E+03  0.61358902989E+02 -0.24597195397E+03  0.29379104591E+03  0.00000000000E+00 0.  1.
         13    1    3    3    0    0  0.26342645818E+02  0.47973624271E+02 -0.18927597439E+03  0.19702994213E+03  0.00000000000E+00 0. -1.
         21    1    1    2  502  501 -0.66050856225E+02 -0.32819873249E+02 -0.19412384352E+03  0.20766301142E+03  0.00000000000E+00 0. -1.
<scales pt_clust_5="13000.00000" pt_clust_6="13000.00000" pt_clust_7="13000.00000" pt_clust_8="13000.00000" pt_clust_9="73.75540"></scales>
<clustering>
<clus scale="   73.755">  1  9  2 -1</clus>
<clus scale="   79.913">  5  6 -1 -1</clus>
<clus scale="   94.595">  7  8 -1 -1</clus>
<clus scale="  169.471">  2  5  1 -1</clus>
<clus scale="  169.471">  2  5  1 -1</clus>
</clustering>
</event>
<event>
 9    2  0.2984928E-005  0.9904341E+02  0.7546771E-02  0.1282533E+00
         -1   -1    0    0    0  501 -0.00000000000E+00  0.00000000000E+00  0.11565912514E+03  0.11565912514E+03  0.00000000000E+00 0.  1.
          2   -1    0    0  502    0  0.00000000000E+00 -0.00000000000E+00 -0.41203666529E+03  0.41203666529E+03  0.00000000000E+00 0. -1.
         23    2    1    2    0    0  0.30086569974E+02 -0.47084509345E+02  0.57284047121E+02  0.11363904271E+03  0.80685917369E+02 0.  0.
         24    2    1    2    0    0 -0.73937047317E+02  0.18406398347E+02 -0.84297602535E+02  0.13964418480E+03  0.81172224858E+02 0.  0.
        -11    1    4    4    0    0 -0.42408978787E+02  0.26956104933E+02 -0.10996961109E+01  0.50262932729E+02  0.00000000000E+00 0.  1.
         12    1    4    4    0    0 -0.31528068530E+02 -0.85497065869E+01 -0.83197906425E+02  0.89381252069E+02  0.00000000000E+00 0. -1.
        -13    1    3    3    0    0  0.53914572473E+02 -0.47182957695E+02  0.53714980076E+02  0.89545026140E+02  0.00000000000E+00 0.  1.
         13    1    3    3    0    0 -0.23828002499E+02  0.98448350496E-01  0.35690670448E+01  0.24094016575E+02  0.00000000000E+00 0. -1.
         21    1    1    2  502  501  0.43850477343E+02  0.28678110998E+02 -0.26936398473E+03  0.27441256291E+03  0.00000000000E+00 0. -1.
<scales pt_clust_5="13000.00000" pt_clust_6="13000.00000" pt_clust_7="13000.00000" pt_clust_8="13000.00000" pt_clust_9="52.39560"></scales>
<clustering>
<clus scale="   52.396">  2  9  1 -1</clus>
<clus scale="   80.686">  7  8 -1 -1</clus>
<clus scale="   81.172">  5  6 -1 -1</clus>
<clus scale="   98.645">  1  7  2 -1</clus>
<clus scale="   52.396">  2  5  1 -1</clus>
</clustering>
</event>
<event>
 9    2  0.2984928E-005  0.3104414E+03  0.7546771E-02  0.1080443E+00
         -1   -1    0    0    0  501 -0.00000000000E+00  0.00000000000E+00  0.35284704641E+03  0.35284704641E+03  0.00000000000E+00 0.  1.
          2   -1    0    0  502    0  0.00000000000E+00 -0.00000000000E+00 -0.47033907352E+03  0.47033907352E+03  0.00000000000E+00 0. -1.
         23    2    1    2    0    0  0.30036431810E+03  0.36034309161E+02  0.20153955919E+03  0.37467599114E+03  0.90811394656E+02 0.  0.
         24    2    1    2    0    0 -0.27176311337E+03 -0.31872029847E+02 -0.29835481434E+03  0.41297307236E+03  0.81609724781E+02 0.  0.
        -11    1    4    4    0    0 -0.21339160085E+02  0.83586307072E+01 -0.21564406934E+01  0.23019050738E+02  0.00000000000E+00 0.  1.
         12    1    4    4    0    0 -0.25042395329E+03 -0.40230660555E+02 -0.29619837364E+03  0.38995402162E+03  0.00000000000E+00 0. -1.
        -13    1    3    3    0    0  0.70438185003E+02 -0.27955799668E+02  0.64167188684E+02  0.99300013823E+02  0.00000000000E+00 0. -1.
         13    1    3    3    0    0  0.22992613309E+03  0.63990108829E+02  0.13737237050E+03  0.27537597732E+03  0.00000000000E+00 0.  1.
         21    1    1    2  502  501 -0.28601204725E+02 -0.41622793135E+01 -0.20676771955E+02  0.35537056424E+02  0.00000000000E+00 0.  1.
<scales pt_clust_5="13000.00000" pt_clust_6="13000.00000" pt_clust_7="13000.00000" pt_clust_8="13000.00000" pt_clust_9="28.90248"></scales>
<clustering>
<clus scale="   28.902">  2  9  1 -1</clus>
<clus scale="   81.610">  5  6 -1 -1</clus>
<clus scale="   90.811">  7  8 -1 -1</clus>
<clus scale="  307.875">  2  5  1 -1</clus>
<clus scale="   28.902">  2  5  1 -1</clus>
</clustering>
</event>
<event>
 9    2  0.2984928E-005  0.2176304E+03  0.7546771E-02  0.1137414E+00
          2   -1    0    0  502    0  0.00000000000E+00  0.00000000000E+00  0.11416281416E+03  0.11416281416E+03  0.00000000000E+00 0. -1.
         -1   -1    0    0    0  501 -0.00000000000E+00 -0.00000000000E+00 -0.73455967743E+03  0.73455967743E+03  0.00000000000E+00 0.  1.
         23    2    1    2    0    0  0.33183635389E+01 -0.22930810701E+03 -0.33607009309E+03  0.41689009250E+03  0.90890165978E+02 0.  0.
         24    2    1    2    0    0  0.95074761898E+02  0.16653722889E+03 -0.14146305960E+03  0.24735630289E+03  0.66328609137E+02 0.  0.
        -13    1    4    4    0    0  0.27478865134E+02  0.11112484998E+03 -0.92480509556E+02  0.14716135688E+03  0.00000000000E+00 0.  1.
         14    1    4    4    0    0  0.67595896764E+02  0.55412378910E+02 -0.48982550048E+02  0.10019494601E+03  0.00000000000E+00 0. -1.
        -11    1    3    3    0    0  0.15590801437E+01 -0.20780336118E+03 -0.33628448770E+03  0.39531243886E+03  0.00000000000E+00 0. -1.
         11    1    3    3    0    0  0.17592833951E+01 -0.21504745832E+02  0.21439460913E+00  0.21577653635E+02  0.00000000000E+00 0.  1.
         21    1    1    2  502  501 -0.98393125437E+02  0.62770878124E+02 -0.14286371057E+03  0.18447609620E+03  0.00000000000E+00 0.  1.
<scales pt_clust_5="13000.00000" pt_clust_6="13000.00000" pt_clust_7="13000.00000" pt_clust_8="13000.00000" pt_clust_9="116.71071"></scales>
<clustering>
<clus scale="   66.329">  5  6 -1 -1</clus>
<clus scale="   90.890">  7  8 -1 -1</clus>
<clus scale="  116.711">  2  9  1 -1</clus>
<clus scale="  208.570">  1  5  2 -1</clus>
<clus scale="  208.570">  1  5  2 -1</clus>
</clustering>
</event>
<event>
 9    2  0.2984928E-005  0.1174156E+03  0.7546771E-02  0.1251316E+00
          2   -1    0    0  502    0  0.00000000000E+00  0.00000000000E+00  0.36689665065E+03  0.36689665065E+03  0.00000000000E+00 0. -1.
         -1   -1    0    0    0  501 -0.00000000000E+00 -0.00000000000E+00 -0.72187738695E+02  0.72187738695E+02  0.00000000000E+00 0.  1.
         24    2    1    2    0    0 -0.62469369042E+02 -0.47816763449E+02  0.22262215227E+01  0.11195691690E+03  0.79627446552E+02 0.  0.
         23    2    1    2    0    0  0.54610692545E+02  0.13289434739E+02  0.24873681438E+03  0.27084606436E+03  0.91261442763E+02 0.  0.
        -11    1    3    3    0    0 -0.44774078268E+02  0.10880287575E+02  0.16621126426E+02  0.48983268430E+02  0.00000000000E+00 0.  1.
         12    1    3    3    0    0 -0.17695290775E+02 -0.58697051025E+02 -0.14394904903E+02  0.62973648471E+02  0.00000000000E+00 0. -1.
        -13    1    4    4    0    0 -0.56309123797E+01  0.32907026196E+02  0.14895123415E+03  0.15264681360E+03  0.00000000000E+00 0. -1.
         13    1    4    4    0    0  0.60241604925E+02 -0.19617591456E+02  0.99785580234E+02  0.11819925076E+03  0.00000000000E+00 0.  1.
         21    1    1    2  502  501  0.78586764974E+01  0.34527328710E+02  0.43745876046E+02  0.56281408077E+02  0.00000000000E+00 0.  1.
<scales pt_clust_5="13000.00000" pt_clust_6="13000.00000" pt_clust_7="13000.00000" pt_clust_8="13000.00000" pt_clust_9="35.41038"></scales>
<clustering>
<clus scale="   35.410">  1  9  2 -1</clus>
<clus scale="   79.627">  5  6 -1 -1</clus>
<clus scale="   91.261">  7  8 -1 -1</clus>
<clus scale="  108.620">  2  5  1 -1</clus>
<clus scale="   35.410">  1  5  2 -1</clus>
</clustering>
</event>
<event>
 9    2  0.2984928E-005  0.1808925E+03  0.7546771E-02  0.1169040E+00
          2   -1    0    0  502    0  0.00000000000E+00  0.00000000000E+00  0.99420763128E+03  0.99420763128E+03  0.00000000000E+00 0. -1.
         -1   -1    0    0    0  501 -0.00000000000E+00 -0.00000000000E+00 -0.44600038000E+02  0.44600038000E+02  0.00000000000E+00 0.  1.
         24    2    1    2    0    0  0.16990666451E+03  0.48224755479E+02  0.27377561877E+03  0.33542443542E+03  0.79765661516E+02 0.  0.
         23    2    1    2    0    0 -0.13795625623E+03 -0.18095697330E+02  0.50658141611E+03  0.52852803590E+03  0.57946274179E+02 0.  0.
        -13    1    3    3    0    0  0.68723234312E+02  0.38014807180E+02  0.60480738370E+02  0.99125820112E+02  0.00000000000E+00 0.  1.
         14    1    3    3    0    0  0.10118343020E+03  0.10209948299E+02  0.21329488040E+03  0.23629861531E+03  0.00000000000E+00 0. -1.
        -11    1    4    4    0    0 -0.63186576150E+02 -0.37492281022E+02  0.24481371362E+03  0.25560119115E+03  0.00000000000E+00 0. -1.
         11    1    4    4    0    0 -0.74769680077E+02  0.19396583693E+02  0.26176770249E+03  0.27292684475E+03  0.00000000000E+00 0.  1.
         21    1    1    2  502  501 -0.31950408287E+02 -0.30129058149E+02  0.16925055840E+03  0.17485519796E+03  0.00000000000E+00 0. -1.
<scales pt_clust_5="13000.00000" pt_clust_6="13000.00000" pt_clust_7="13000.00000" pt_clust_8="13000.00000" pt_clust_9="43.91570"></scales>
<clustering>
<clus scale="   43.916">  1  9  2 -1</clus>
<clus scale="   57.946">  7  8 -1 -1</clus>
<clus scale="   79.766">  5  6 -1 -1</clus>
<clus scale="  172.387">  1  7  2 -1</clus>
<clus scale="   43.916">  1  5  2 -1</clus>
</clustering>
</event>
<event>
 9    2  0.2984928E-005  0.1557312E+03  0.7546771E-02  0.1211697E+00
          2   -1    0    0  502    0  0.00000000000E+00  0.00000000000E+00  0.11655335919E+04  0.11655335919E+04  0.00000000000E+00 0. -1.
         -1   -1    0    0    0  501 -0.00000000000E+00 -0.00000000000E+00 -0.47133898818E+02  0.47133898818E+02  0.00000000000E+00 0.  1.
         24    2    1    2    0    0  0.24393670106E+02 -0.71138122100E+02  0.11858771062E+03  0.15859616750E+03  0.73715776318E+02 0.  0.
         23    2    1    2    0    0  0.89914764914E+02  0.94790624998E+02  0.28961909172E+03  0.33434929266E+03  0.10411677903E+03 0.  0.
        -11    1    3    3    0    0  0.37964692412E+02 -0.37557412494E+02  0.26448163979E+02  0.59593476833E+02  0.00000000000E+00 0.  1.
         12    1    3    3    0    0 -0.13571022306E+02 -0.33580709606E+02  0.92139546637E+02  0.99002690664E+02  0.00000000000E+00 0. -1.
        -11    1    4    4    0    0  0.37272242589E+02  0.38665122085E+01  0.15079116699E+02  0.40392446629E+02  0.00000000000E+00 0.  1.
         11    1    4    4    0    0  0.52642522326E+02  0.90924112790E+02  0.27453997502E+03  0.29395684603E+03  0.00000000000E+00 0. -1.
         21    1    1    2  502  501 -0.11430843502E+03 -0.23652502898E+02  0.71019289073E+03  0.71972203054E+03  0.00000000000E+00 0. -1.
<scales pt_clust_5="13000.00000" pt_clust_6="13000.00000" pt_clust_7="13000.00000" pt_clust_8="13000.00000" pt_clust_9="115.80971"></scales>
<clustering>
<clus scale="   73.716">  5  6 -1 -1</clus>
<clus scale="  104.117">  7  8 -1 -1</clus>
<clus scale="  105.308">  2  5  1 -1</clus>
<clus scale="  115.810">  1  9  2 -1</clus>
<clus scale="  115.810">  1  5  2 -1</clus>
</clustering>
</event>
<event>
 9    2  0.2984928E-005  0.9680818E+02  0.7546771E-02  0.1293058E+00
          2   -1    0    0  502    0  0.00000000000E+00  0.00000000000E+00  0.23435678807E+03  0.23435678807E+03  0.00000000000E+00 0. -1.
         -1   -1    0    0    0  501 -0.00000000000E+00 -0.00000000000E+00 -0.71176105760E+02  0.71176105760E+02  0.00000000000E+00 0.  1.
         23    2    1    2    0    0  0.52516831720E+02 -0.27197967220E+02 -0.50003909520E+01  0.90441477499E+02  0.68241555578E+02 0.  0.
         24    2    1    2    0    0 -0.15615141350E+02  0.37738420754E+02  0.14292427074E+03  0.16914860420E+03  0.80721013967E+02 0.  0.
        -13    1    4    4    0    0  0.76810069162E+01  0.32339725465E+02  0.14132539866E+03  0.14518169312E+03  0.00000000000E+00 0.  1.
         14    1    4    4    0    0 -0.23296148266E+02  0.53986952892E+01  0.15988720797E+01  0.23966911082E+02  0.00000000000E+00 0. -1.
        -13    1    3    3    0    0  0.24350013554E+02 -0.18326974199E+02  0.31273245652E+02  0.43667116197E+02  0.00000000000E+00 0. -1.
         13    1    3    3    0    0  0.28166818166E+02 -0.88709930215E+01 -0.36273636603E+02  0.46774361302E+02  0.00000000000E+00 0.  1.
         21    1    1    2  502  501 -0.36901690370E+02 -0.10540453534E+02  0.25256802522E+02  0.45942812131E+02  0.00000000000E+00 0. -1.
<scales pt_clust_5="13000.00000" pt_clust_6="13000.00000" pt_clust_7="13000.00000" pt_clust_8="13000.00000" pt_clust_9="38.37754"></scales>
<clustering>
<clus scale="   38.378">  1  9  2 -1</clus>
<clus scale="   68.242">  7  8 -1 -1</clus>
<clus scale="   80.721">  5  6 -1 -1</clus>
<clus scale="   86.677">  2  7  1 -1</clus>
<clus scale="   38.378">  1  5  2 -1</clus>
</clustering>
</event>
<event>
 9    2  0.2984928E-005  0.9752221E+02  0.7546771E-02  0.1289978E+00
          2   -1    0    0  502    0  0.00000000000E+00  0.00000000000E+00  0.19514585243E+03  0.19514585243E+03  0.00000000000E+00 0. -1.
         -1   -1    0    0    0  501 -0.00000000000E+00 -0.00000000000E+00 -0.27498837816E+03  0.27498837816E+03  0.00000000000E+00 0.  1.
         23    2    1    2    0    0 -0.18674905410E+01  0.35222246951E+02 -0.24035442291E+03  0.25916645168E+03  0.90293448631E+02 0.  0.
         24    2    1    2    0    0  0.63406528107E+00 -0.63935961571E+02  0.14477152348E+03  0.17819953041E+03  0.81902804643E+02 0.  0.
        -11    1    4    4    0    0  0.21875731469E+02 -0.73958442827E+01  0.20007852599E+01  0.23178638476E+02  0.00000000000E+00 0.  1.
         12    1    4    4    0    0 -0.21241666188E+02 -0.56540117288E+02  0.14277073822E+03  0.15502089194E+03  0.00000000000E+00 0. -1.
        -13    1    3    3    0    0 -0.21457967333E+02 -0.21246207760E+02 -0.40198731266E+02  0.50277069342E+02  0.00000000000E+00 0. -1.
         13    1    3    3    0    0  0.19590476792E+02  0.56468454711E+02 -0.20015569164E+03  0.20888938234E+03  0.00000000000E+00 0.  1.
         21    1    1    2  502  501  0.12334252599E+01  0.28713714619E+02  0.15740373692E+02  0.32768248490E+02  0.00000000000E+00 0. -1.
<scales pt_clust_5="13000.00000" pt_clust_6="13000.00000" pt_clust_7="13000.00000" pt_clust_8="13000.00000" pt_clust_9="28.74019"></scales>
<clustering>
<clus scale="   28.740">  1  9  2 -1</clus>
<clus scale="   81.903">  5  6 -1 -1</clus>
<clus scale="   89.809">  1  5  2 -1</clus>
<clus scale="   90.293">  7  8 -1 -1</clus>
<clus scale="   28.740">  1  5  2 -1</clus>
</clustering>
</event>
<event>
 9    2  0.2984928E-005  0.2085006E+03  0.7546771E-02  0.1179103E+00
          2   -1    0    0  502    0  0.00000000000E+00  0.00000000000E+00  0.11231207262E+04  0.11231207262E+04  0.00000000000E+00 0. -1.
         -1   -1    0    0    0  501 -0.00000000000E+00 -0.00000000000E+00 -0.70420328723E+02  0.70420328723E+02  0.00000000000E+00 0.  1.
         23    2    1    2    0    0 -0.16508681090E+03 -0.68005944730E+02  0.17884476742E+03  0.26882755496E+03  0.91675186494E+02 0.  0.
         24    2    1    2    0    0 -0.18538477273E+02 -0.36851696068E+02  0.30252226681E+03  0.31550484667E+03  0.79510148490E+02 0.  0.
        -11    1    4    4    0    0  0.29634582582E+02 -0.33407809283E+01  0.80096690003E+02  0.85468409670E+02  0.00000000000E+00 0.  1.
         12    1    4    4    0    0 -0.48173059856E+02 -0.33510915140E+02  0.22242557680E+03  0.23003643700E+03  0.00000000000E+00 0. -1.
        -11    1    3    3    0    0 -0.12947831615E+03 -0.33617962110E+02  0.17343427676E+03  0.21903024924E+03  0.00000000000E+00 0.  1.
         11    1    3    3    0    0 -0.35608494752E+02 -0.34387982620E+02  0.54104906633E+01  0.49797305714E+02  0.00000000000E+00 0. -1.
         21    1    1    2  502  501  0.18362528818E+03  0.10485764080E+03  0.57133336322E+03  0.60920865327E+03  0.00000000000E+00 0. -1.
<scales pt_clust_5="13000.00000" pt_clust_6="13000.00000" pt_clust_7="13000.00000" pt_clust_8="13000.00000" pt_clust_9="187.26489"></scales>
<clustering>
<clus scale="   79.510">  5  6 -1 -1</clus>
<clus scale="   89.574">  1  5  2 -1</clus>
<clus scale="   91.675">  7  8 -1 -1</clus>
<clus scale="  187.265">  1  9  2 -1</clus>
<clus scale="   89.574">  1  5  2 -1</clus>
</clustering>
</event>
<event>
 9    2  0.2984928E-005  0.1375714E+03  0.7546771E-02  0.1218969E+00
          2   -1    0    0  502    0  0.00000000000E+00  0.00000000000E+00  0.40213740343E+03  0.40213740343E+03  0.00000000000E+00 0. -1.
         -1   -1    0    0    0  501 -0.00000000000E+00 -0.00000000000E+00 -0.78954227328E+02  0.78954227328E+02  0.00000000000E+00 0.  1.
         24    2    1    2    0    0  0.12993718936E+02 -0.11655028613E+03  0.44113347047E+02  0.14873650142E+03  0.80148322107E+02 0.  0.
         23    2    1    2    0    0 -0.20630513642E+02  0.79664544866E+02  0.12966889175E+03  0.17827878914E+03  0.90538651235E+02 0.  0.
        -13    1    3    3    0    0  0.34115902924E+02 -0.23199410805E+02 -0.42962536939E+01  0.41479697321E+02  0.00000000000E+00 0.  1.
         14    1    3    3    0    0 -0.21122183989E+02 -0.93350875328E+02  0.48409600740E+02  0.10725680410E+03  0.00000000000E+00 0. -1.
        -13    1    4    4    0    0 -0.39955229504E+02  0.37013530034E+02  0.18284154147E+02  0.57451997904E+02  0.00000000000E+00 0.  1.
         13    1    4    4    0    0  0.19324715863E+02  0.42651014832E+02  0.11138473760E+03  0.12082679123E+03  0.00000000000E+00 0. -1.
         21    1    1    2  502  501  0.76367947058E+01  0.36885741267E+02  0.14940093731E+03  0.15407634021E+03  0.00000000000E+00 0. -1.
<scales pt_clust_5="13000.00000" pt_clust_6="13000.00000" pt_clust_7="13000.00000" pt_clust_8="13000.00000" pt_clust_9="37.66800"></scales>
<clustering>
<clus scale="   37.668">  1  9  2 -1</clus>
<clus scale="   80.148">  5  6 -1 -1</clus>
<clus scale="   90.539">  7  8 -1 -1</clus>
<clus scale="  130.967">  2  5  1 -1</clus>
<clus scale="   37.668">  1  5  2 -1</clus>
</clustering>
</event>
<event>
 9    2  0.2984928E-005  0.1102538E+03  0.7546771E-02  0.1262238E+00
          2   -1    0    0  502    0  0.00000000000E+00  0.00000000000E+00  0.17859973598E+03  0.17859973598E+03  0.00000000000E+00 0. -1.
         -1   -1    0    0    0  501 -0.00000000000E+00 -0.00000000000E+00 -0.11959479570E+03  0.11959479570E+03  0.00000000000E+00 0.  1.
         23    2    1    2    0    0  0.16928249124E+02  0.51336965836E+02 -0.57974536195E+01  0.10411323663E+03  0.88791361597E+02 0.  0.
         24    2    1    2    0    0 -0.19640227682E+02 -0.74640763526E+02 -0.11743059558E+02  0.11402114103E+03  0.83101979708E+02 0.  0.
        -11    1    4    4    0    0 -0.49466653686E+02 -0.58289383464E+02 -0.19991930578E+02  0.79020752589E+02  0.00000000000E+00 0.  1.
         12    1    4    4    0    0  0.29826426004E+02 -0.16351380063E+02  0.82488710201E+01  0.35000388444E+02  0.00000000000E+00 0. -1.
        -11    1    3    3    0    0  0.30888574332E+02  0.16258739123E+02  0.34370513267E+02  0.48987578062E+02  0.00000000000E+00 0. -1.
         11    1    3    3    0    0 -0.13960325208E+02  0.35078226714E+02 -0.40167966886E+02  0.55125658573E+02  0.00000000000E+00 0.  1.
         21    1    1    2  502  501  0.27119785587E+01  0.23303797690E+02  0.76545453458E+02  0.80060154006E+02  0.00000000000E+00 0. -1.
<scales pt_clust_5="13000.00000" pt_clust_6="13000.00000" pt_clust_7="13000.00000" pt_clust_8="13000.00000" pt_clust_9="23.46107"></scales>
<clustering>
<clus scale="   23.461">  1  9  2 -1</clus>
<clus scale="   83.102">  5  6 -1 -1</clus>
<clus scale="   88.791">  7  8 -1 -1</clus>
<clus scale="  105.726">  1  5  2 -1</clus>
<clus scale="   23.461">  1  5  2 -1</clus>
</clustering>
</event>
<event>
 9    2  0.2984928E-005  0.1095289E+03  0.7546771E-02  0.1266339E+00
          2   -1    0    0  502    0  0.00000000000E+00  0.00000000000E+00  0.59696312832E+03  0.59696312832E+03  0.00000000000E+00 0. -1.
         -1   -1    0    0    0  501 -0.00000000000E+00 -0.00000000000E+00 -0.95761884020E+02  0.95761884020E+02  0.00000000000E+00 0.  1.
         23    2    1    2    0    0 -0.43938853159E+02 -0.45654963799E+02 -0.34886180599E+02  0.11815916637E+03  0.93432031259E+02 0.  0.
         24    2    1    2    0    0  0.45368067335E+02 -0.47158837556E+02  0.36795380634E+03  0.38251023406E+03  0.81497595465E+02 0.  0.
        -11    1    4    4    0    0  0.29907393319E+02 -0.17322094480E+02  0.40100354915E+02  0.52939074384E+02  0.00000000000E+00 0.  1.
         12    1    4    4    0    0  0.15460674015E+02 -0.29836743076E+02  0.32785345142E+03  0.32957115967E+03  0.00000000000E+00 0. -1.
        -13    1    3    3    0    0 -0.64262890511E+02 -0.58468571017E+02 -0.17822434187E+02  0.88690089942E+02  0.00000000000E+00 0.  1.
         13    1    3    3    0    0  0.20324037352E+02  0.12813607217E+02 -0.17063746412E+02  0.29469076433E+02  0.00000000000E+00 0. -1.
         21    1    1    2  502  501 -0.14292141757E+01  0.92813801356E+02  0.16813361857E+03  0.19205561191E+03  0.00000000000E+00 0.  1.
<scales pt_clust_5="13000.00000" pt_clust_6="13000.00000" pt_clust_7="13000.00000" pt_clust_8="13000.00000" pt_clust_9="92.82480"></scales>
<clustering>
<clus scale="   81.498">  5  6 -1 -1</clus>
<clus scale="   92.825">  1  9  2 -1</clus>
<clus scale="   93.432">  7  8 -1 -1</clus>
<clus scale="   99.543">  1  5  2 -1</clus>
<clus scale="   92.825">  1  5  2 -1</clus>
</clustering>
</event>
<event>
 9    2  0.2984928E-005  0.1204714E+03  0.7546771E-02  0.1246465E+00
          2   -1    0    0  502    0  0.00000000000E+00  0.00000000000E+00  0.30609940196E+03  0.30609940196E+03  0.00000000000E+00 0. -1.
         -1   -1    0    0    0  501 -0.00000000000E+00 -0.00000000000E+00 -0.91247264153E+02  0.91247264153E+02  0.00000000000E+00 0.  1.
         23    2    1    2    0    0 -0.68196456759E+02  0.24652386316E+02 -0.49402123350E+00  0.11789972822E+03  0.92960233392E+02 0.  0.
         24    2    1    2    0    0  0.84399140509E+02 -0.12524832999E+02  0.77990296658E+02  0.14060804766E+03  0.80050298769E+02 0.  0.
        -11    1    4    4    0    0  0.25393560351E+02  0.27704636599E+02  0.52948295269E+02  0.64929975884E+02  0.00000000000E+00 0.  1.
         12    1    4    4    0    0  0.59005580158E+02 -0.40229469597E+02  0.25042001388E+02  0.75678071774E+02  0.00000000000E+00 0. -1.
        -11    1    3    3    0    0  0.21721426694E+02  0.90046139690E+00 -0.10896016311E+02  0.24317779089E+02  0.00000000000E+00 0.  1.
         11    1    3    3    0    0 -0.89917883453E+02  0.23751924919E+02  0.10401995078E+02  0.93581949134E+02  0.00000000000E+00 0. -1.
         21    1    1    2  502  501 -0.16202683750E+02 -0.12127553317E+02  0.13735586239E+03  0.13883889024E+03  0.00000000000E+00 0. -1.
<scales pt_clust_5="13000.00000" pt_clust_6="13000.00000" pt_clust_7="13000.00000" pt_clust_8="13000.00000" pt_clust_9="20.23869"></scales>
<clustering>
<clus scale="   20.239">  1  9  2 -1</clus>
<clus scale="   80.050">  5  6 -1 -1</clus>
<clus scale="   92.960">  7  8 -1 -1</clus>
<clus scale="  110.814">  1  5  2 -1</clus>
<clus scale="   20.239">  1  5  2 -1</clus>
</clustering>
</event>
<event>
 9    2  0.2984928E-005  0.2645998E+03  0.7546771E-02  0.1148080E+00
          2   -1    0    0  502    0  0.00000000000E+00  0.00000000000E+00  0.28782898871E+04  0.28782898871E+04  0.00000000000E+00 0. -1.
         -1   -1    0    0    0  501 -0.00000000000E+00 -0.00000000000E+00 -0.41944311197E+02  0.41944311197E+02  0.00000000000E+00 0.  1.
         23    2    1    2    0    0 -0.89718628664E+01 -0.27495708762E+02  0.10784855600E+03  0.14036412830E+03  0.85054506977E+02 0.  0.
         24    2    1    2    0    0  0.22064598490E+03 -0.90001397866E+02  0.97525482480E+03  0.10099916282E+04  0.11034588125E+03 0.  0.
        -11    1    4    4    0    0  0.17413158230E+03 -0.22589331482E+02  0.75083813371E+03  0.77109661449E+03  0.00000000000E+00 0.  1.
         12    1    4    4    0    0  0.46514402591E+02 -0.67412066384E+02  0.22441669109E+03  0.23889501373E+03  0.00000000000E+00 0. -1.
        -11    1    3    3    0    0 -0.31284650969E+02 -0.33594244125E+02  0.10787146523E+03  0.11723291192E+03  0.00000000000E+00 0. -1.
         11    1    3    3    0    0  0.22312788102E+02  0.60985353625E+01 -0.22909230513E-01  0.23131216382E+02  0.00000000000E+00 0.  1.
         21    1    1    2  502  501 -0.21167412203E+03  0.11749710663E+03  0.17532421951E+04  0.17698784417E+04  0.00000000000E+00 0. -1.
<scales pt_clust_5="13000.00000" pt_clust_6="13000.00000" pt_clust_7="13000.00000" pt_clust_8="13000.00000" pt_clust_9="240.49288"></scales>
<clustering>
<clus scale="   85.055">  7  8 -1 -1</clus>
<clus scale="   89.838">  2  7  1 -1</clus>
<clus scale="  110.346">  5  6 -1 -1</clus>
<clus scale="  240.493">  1  9  2 -1</clus>
<clus scale="  240.493">  1  5  2 -1</clus>
</clustering>
</event>
<event>
 9    2  0.2984928E-005  0.1014474E+03  0.7546771E-02  0.1281712E+00
         -1   -1    0    0    0  501 -0.00000000000E+00  0.00000000000E+00  0.32112934596E+02  0.32112934596E+02  0.00000000000E+00 0.  1.
          2   -1    0    0  502    0  0.00000000000E+00 -0.00000000000E+00 -0.98199647199E+03  0.98199647199E+03  0.00000000000E+00 0. -1.
         23    2    1    2    0    0 -0.31525108808E+01  0.31935431692E+02 -0.11186999000E+03  0.14759460265E+03  0.90771482010E+02 0.  0.
         24    2    1    2    0    0  0.23021615109E+02 -0.10735778287E+03 -0.62198304648E+03  0.63683570239E+03  0.81493026885E+02 0.  0.
        -13    1    4    4    0    0  0.51984176748E+02 -0.53016348520E+02 -0.37610518331E+03  0.38336431335E+03  0.00000000000E+00 0.  1.
         14    1    4    4    0    0 -0.28962561639E+02 -0.54341434349E+02 -0.24587786317E+03  0.25347138904E+03  0.00000000000E+00 0. -1.
        -11    1    3    3    0    0 -0.94624766977E+01 -0.31243626933E+02 -0.41787986783E+02  0.53027714722E+02  0.00000000000E+00 0.  1.
         11    1    3    3    0    0  0.63099658169E+01  0.63179058625E+02 -0.70082003216E+02  0.94566887926E+02  0.00000000000E+00 0. -1.
         21    1    1    2  502  501 -0.19869104228E+02  0.75422351177E+02 -0.21603050091E+03  0.22967910154E+03  0.00000000000E+00 0. -1.
<scales pt_clust_5="13000.00000" pt_clust_6="13000.00000" pt_clust_7="13000.00000" pt_clust_8="13000.00000" pt_clust_9="77.99559"></scales>
<clustering>
<clus scale="   77.996">  2  9  1 -1</clus>
<clus scale="   81.493">  5  6 -1 -1</clus>
<clus scale="   90.771">  7  8 -1 -1</clus>
<clus scale="   93.238">  2  5  1 -1</clus>
<clus scale="   77.996">  2  5  1 -1</clus>
</clustering>
</event>
<event>
 9    2  0.2984928E-005  0.1514587E+03  0.7546771E-02  0.1199820E+00
          2   -1    0    0  502    0  0.00000000000E+00  0.00000000000E+00  0.46311634781E+03  0.46311634781E+03  0.00000000000E+00 0. -1.
         -1   -1    0    0    0  501 -0.00000000000E+00 -0.00000000000E+00 -0.10239181076E+03  0.10239181076E+03  0.00000000000E+00 0.  1.
         23    2    1    2    0    0 -0.12846785196E+03  0.43102385895E+02  0.41999840524E+02  0.16809511725E+03  0.90167495154E+02 0.  0.
         24    2    1    2    0    0  0.98457797324E+02 -0.39639487695E+02  0.80767720414E+02  0.15754616673E+03  0.83857874710E+02 0.  0.
        -11    1    4    4    0    0  0.29306591934E+02 -0.36680073112E+02  0.74484796719E+02  0.88047084203E+02  0.00000000000E+00 0.  1.
         12    1    4    4    0    0  0.69151205390E+02 -0.29594145827E+01  0.62829236947E+01  0.69499082524E+02  0.00000000000E+00 0. -1.
        -13    1    3    3    0    0 -0.57206347955E+02  0.65360984255E+02  0.32916639062E+02  0.92887725972E+02  0.00000000000E+00 0.  1.
         13    1    3    3    0    0 -0.71261504009E+02 -0.22258598360E+02  0.90832014620E+01  0.75207391282E+02  0.00000000000E+00 0. -1.
         21    1    1    2  502  501  0.30010054639E+02 -0.34628981997E+01  0.23795697611E+03  0.23986687459E+03  0.00000000000E+00 0.  1.
<scales pt_clust_5="13000.00000" pt_clust_6="13000.00000" pt_clust_7="13000.00000" pt_clust_8="13000.00000" pt_clust_9="30.20919"></scales>
<clustering>
<clus scale="   30.209">  1  9  2 -1</clus>
<clus scale="   83.858">  5  6 -1 -1</clus>
<clus scale="   90.167">  7  8 -1 -1</clus>
<clus scale="  147.789">  1  5  2 -1</clus>
<clus scale="   30.209">  1  5  2 -1</clus>
</clustering>
</event>
<event>
 9    2  0.2984928E-005  0.1738238E+03  0.7546771E-02  0.1174290E+00
         -1   -1    0    0    0  501 -0.00000000000E+00  0.00000000000E+00  0.16994793193E+03  0.16994793193E+03  0.00000000000E+00 0.  1.
          2   -1    0    0  502    0  0.00000000000E+00 -0.00000000000E+00 -0.21181324953E+03  0.21181324953E+03  0.00000000000E+00 0. -1.
         24    2    1    2    0    0 -0.88744148796E+02  0.10323956824E+03 -0.14933110393E+00  0.16408012495E+03  0.91587841484E+02 0.  0.
         23    2    1    2    0    0  0.10850944613E+03 -0.12190153768E+03 -0.30493989188E+02  0.18827239613E+03  0.88782470002E+02 0.  0.
        -13    1    3    3    0    0 -0.28654833758E+02  0.76249078540E+02  0.35868856169E+02  0.89003350043E+02  0.00000000000E+00 0.  1.
         14    1    3    3    0    0 -0.60089315037E+02  0.26990489698E+02 -0.36018187273E+02  0.75076774906E+02  0.00000000000E+00 0. -1.
        -11    1    4    4    0    0  0.41411771517E+02 -0.33327318020E+02  0.30732809553E+02  0.61401551525E+02  0.00000000000E+00 0.  1.
         11    1    4    4    0    0  0.67097674611E+02 -0.88574219655E+02 -0.61226798741E+02  0.12687084460E+03  0.00000000000E+00 0. -1.
         21    1    1    2  502  501 -0.19765297333E+02  0.18661969437E+02 -0.11221997315E+02  0.29408660385E+02  0.00000000000E+00 0.  1.
<scales pt_clust_5="13000.00000" pt_clust_6="13000.00000" pt_clust_7="13000.00000" pt_clust_8="13000.00000" pt_clust_9="27.18338"></scales>
<clustering>
<clus scale="   27.183">  2  9  1 -1</clus>
<clus scale="   88.782">  7  8 -1 -1</clus>
<clus scale="   91.588">  5  6 -1 -1</clus>
<clus scale="  172.362">  2  7  1 -1</clus>
<clus scale="   27.183">  2  5  1 -1</clus>
</clustering>
</event>
<event>
 9    2  0.2984928E-005  0.8929304E+02  0.7546771E-02  0.1305669E+00
         -3   -1    0    0    0  501 -0.00000000000E+00  0.00000000000E+00  0.95387256802E+02  0.95387256802E+02  0.00000000000E+00 0.  1.
          4   -1    0    0  502    0  0.00000000000E+00 -0.00000000000E+00 -0.18274985735E+03  0.18274985735E+03  0.00000000000E+00 0. -1.
         23    2    1    2    0    0 -0.18161456673E+02 -0.14924724273E+02  0.47096368822E+02  0.10006851266E+03  0.85106130015E+02 0.  0.
         24    2    1    2    0    0 -0.83732795188E+01  0.16484036843E+02 -0.11387707607E+03  0.14445107612E+03  0.86926921362E+02 0.  0.
        -13    1    4    4    0    0 -0.34300687477E+02 -0.15169646337E+02 -0.88963740313E+02  0.96546374462E+02  0.00000000000E+00 0.  1.
         14    1    4    4    0    0  0.25927407958E+02  0.31653683180E+02 -0.24913335756E+02  0.47904701656E+02  0.00000000000E+00 0. -1.
        -11    1    3    3    0    0 -0.35096031771E+02  0.24956185505E+02  0.13152705904E+02  0.45028172444E+02  0.00000000000E+00 0. -1.
         11    1    3    3    0    0  0.16934575098E+02 -0.39880909778E+02  0.33943662919E+02  0.55040340214E+02  0.00000000000E+00 0.  1.
         21    1    1    2  502  501  0.26534736192E+02 -0.15593125698E+01 -0.20581893302E+02  0.33617525376E+02  0.00000000000E+00 0. -1.
<scales pt_clust_5="13000.00000" pt_clust_6="13000.00000" pt_clust_7="13000.00000" pt_clust_8="13000.00000" pt_clust_9="26.58051"></scales>
<clustering>
<clus scale="   26.581">  2  9  1 -1</clus>
<clus scale="   85.106">  7  8 -1 -1</clus>
<clus scale="   86.927">  5  6 -1 -1</clus>
<clus scale="   87.521">  1  7  2 -1</clus>
<clus scale="   26.581">  2  5  1 -1</clus>
</clustering>
</event>
<event>
 9    2  0.2984928E-005  0.1281499E+03  0.7546771E-02  0.1243754E+00
          2   -1    0    0  502    0  0.00000000000E+00  0.00000000000E+00  0.10754765510E+03  0.10754765510E+03  0.00000000000E+00 0. -1.
         -1   -1    0    0    0  501 -0.00000000000E+00 -0.00000000000E+00 -0.21474189007E+03  0.21474189007E+03  0.00000000000E+00 0.  1.
         23    2    1    2    0    0  0.17175737759E+02  0.52689342433E+02 -0.14861244756E+03  0.19729514983E+03  0.11733943839E+03 0.  0.
         24    2    1    2    0    0  0.14664482314E+00 -0.41132784397E+02  0.46984284998E+02  0.10343981035E+03  0.82464197517E+02 0.  0.
        -13    1    4    4    0    0 -0.36674000971E+02 -0.12055609202E+02  0.40711771268E+02  0.56104976430E+02  0.00000000000E+00 0.  1.
         14    1    4    4    0    0  0.36820645794E+02 -0.29077175195E+02  0.62725137304E+01  0.47334833923E+02  0.00000000000E+00 0. -1.
        -13    1    3    3    0    0  0.47980358037E+02 -0.74522395482E+01 -0.10811292521E+03  0.11851605473E+03  0.00000000000E+00 0.  1.
         13    1    3    3    0    0 -0.30804620278E+02  0.60141581981E+02 -0.40499522347E+02  0.78779095095E+02  0.00000000000E+00 0. -1.
         21    1    1    2  502  501 -0.17322382582E+02 -0.11556558037E+02 -0.55660724151E+01  0.21554584991E+02  0.00000000000E+00 0.  1.
<scales pt_clust_5="13000.00000" pt_clust_6="13000.00000" pt_clust_7="13000.00000" pt_clust_8="13000.00000" pt_clust_9="20.82352"></scales>
<clustering>
<clus scale="   20.824">  1  9  2 -1</clus>
<clus scale="   82.464">  5  6 -1 -1</clus>
<clus scale="   97.233">  1  5  2 -1</clus>
<clus scale="  117.339">  7  8 -1 -1</clus>
<clus scale="   20.824">  1  5  2 -1</clus>
</clustering>
</event>
<event>
 9    2  0.2984928E-005  0.1101559E+03  0.7546771E-02  0.1263725E+00
         -1   -1    0    0    0  501 -0.00000000000E+00  0.00000000000E+00  0.15565298711E+03  0.15565298711E+03  0.00000000000E+00 0.  1.
          2   -1    0    0  502    0  0.00000000000E+00 -0.00000000000E+00 -0.23560762492E+03  0.23560762492E+03  0.00000000000E+00 0. -1.
         24    2    1    2    0    0  0.20869603997E+02  0.69376001104E+02  0.10459578614E+03  0.15019118350E+03  0.79803152971E+02 0.  0.
         23    2    1    2    0    0 -0.37629536071E+01 -0.13590478353E+02 -0.14472874431E+03  0.17042646564E+03  0.88881436971E+02 0.  0.
        -11    1    3    3    0    0  0.74677954115E+01  0.78526816380E+02  0.10787177630E+03  0.13363588208E+03  0.00000000000E+00 0.  1.
         12    1    3    3    0    0  0.13401808585E+02 -0.91508152763E+01 -0.32759901574E+01  0.16555301419E+02  0.00000000000E+00 0. -1.
        -13    1    4    4    0    0  0.90012715851E+01 -0.41706690567E+02 -0.31424977545E+02  0.52990566537E+02  0.00000000000E+00 0. -1.
         13    1    4    4    0    0 -0.12764225192E+02  0.28116212214E+02 -0.11330376677E+03  0.11743589910E+03  0.00000000000E+00 0.  1.
         21    1    1    2  502  501 -0.17106650389E+02 -0.55785522751E+02 -0.39821679640E+02  0.70642962887E+02  0.00000000000E+00 0. -1.
<scales pt_clust_5="13000.00000" pt_clust_6="13000.00000" pt_clust_7="13000.00000" pt_clust_8="13000.00000" pt_clust_9="58.34948"></scales>
<clustering>
<clus scale="   58.349">  2  9  1 -1</clus>
<clus scale="   79.803">  5  6 -1 -1</clus>
<clus scale="   88.881">  7  8 -1 -1</clus>
<clus scale="  102.971">  1  5  2 -1</clus>
<clus scale="   58.349">  2  5  1 -1</clus>
</clustering>
</event>
<event>
 9    2  0.2984928E-005  0.3014788E+03  0.7546771E-02  0.1084918E+00
          2   -1    0    0  502    0  0.00000000000E+00  0.00000000000E+00  0.71666134169E+03  0.71666134169E+03  0.00000000000E+00 0. -1.
         -1   -1    0    0    0  501 -0.00000000000E+00 -0.00000000000E+00 -0.22520223277E+03  0.22520223277E+03  0.00000000000E+00 0.  1.
         24    2    1    2    0    0 -0.29157331142E+03  0.28029030749E+02 -0.34043437528E+02  0.30466619441E+03  0.76563123505E+02 0.  0.
         23    2    1    2    0    0  0.27378048282E+03  0.35975044173E+02  0.46081297596E+03  0.54447280464E+03  0.88611960766E+02 0.  0.
        -11    1    3    3    0    0 -0.26701254407E+03  0.23743761508E+01 -0.33761523711E+02  0.26914898632E+03  0.00000000000E+00 0.  1.
         12    1    3    3    0    0 -0.24560767354E+02  0.25654654598E+02 -0.28191381713E+00  0.35517208097E+02  0.00000000000E+00 0. -1.
        -11    1    4    4    0    0  0.10429557162E+03 -0.27073342290E+02  0.14659664168E+03  0.18193709758E+03  0.00000000000E+00 0.  1.
         11    1    4    4    0    0  0.16948491120E+03  0.63048386464E+02  0.31421633428E+03  0.36253570706E+03  0.00000000000E+00 0. -1.
         21    1    1    2  502  501  0.17792828599E+02 -0.64004074922E+02  0.64689570487E+02  0.92724575416E+02  0.00000000000E+00 0.  1.
<scales pt_clust_5="13000.00000" pt_clust_6="13000.00000" pt_clust_7="13000.00000" pt_clust_8="13000.00000" pt_clust_9="66.43122"></scales>
<clustering>
<clus scale="   66.431">  1  9  2 -1</clus>
<clus scale="   76.563">  5  6 -1 -1</clus>
<clus scale="   88.612">  7  8 -1 -1</clus>
<clus scale="  298.160">  2  5  1 -1</clus>
<clus scale="   66.431">  1  5  2 -1</clus>
</clustering>
</event>
<event>
 9    2  0.2984928E-005  0.9678563E+02  0.7546771E-02  0.1293884E+00
         -1   -1    0    0    0  501 -0.00000000000E+00  0.00000000000E+00  0.37114312636E+02  0.37114312636E+02  0.00000000000E+00 0.  1.
          2   -1    0    0  502    0  0.00000000000E+00 -0.00000000000E+00 -0.36811944707E+03  0.36811944707E+03  0.00000000000E+00 0. -1.
         23    2    1    2    0    0 -0.32875740404E+02  0.77283717440E+01 -0.85123719061E+02  0.12885829480E+03  0.90652471318E+02 0.  0.
         24    2    1    2    0    0  0.34583009136E+02  0.28202951531E+02 -0.17796838457E+03  0.19952395541E+03  0.78394335758E+02 0.  0.
        -13    1    4    4    0    0  0.31091286899E+02  0.43342126966E+02 -0.17594902156E+03  0.18385664600E+03  0.00000000000E+00 0.  1.
         14    1    4    4    0    0  0.34917222369E+01 -0.15139175435E+02 -0.20193630096E+01  0.15667309405E+02  0.00000000000E+00 0. -1.
        -13    1    3    3    0    0  0.27032107178E+02  0.15258083619E+02 -0.10286865394E+02  0.32701124351E+02  0.00000000000E+00 0.  1.
         13    1    3    3    0    0 -0.59907847582E+02 -0.75297118747E+01 -0.74836853667E+02  0.96157170453E+02  0.00000000000E+00 0. -1.
         21    1    1    2  502  501 -0.17072687322E+01 -0.35931323275E+02 -0.67913030803E+02  0.76851509495E+02  0.00000000000E+00 0. -1.
<scales pt_clust_5="13000.00000" pt_clust_6="13000.00000" pt_clust_7="13000.00000" pt_clust_8="13000.00000" pt_clust_9="35.97186"></scales>
<clustering>
<clus scale="   35.972">  2  9  1 -1</clus>
<clus scale="   78.394">  5  6 -1 -1</clus>
<clus scale="   85.412">  2  5  1 -1</clus>
<clus scale="   90.652">  7  8 -1 -1</clus>
<clus scale="   35.972">  2  5  1 -1</clus>
</clustering>
</event>
<event>
 9    2  0.2984928E-005  0.9977354E+02  0.7546771E-02  0.1281993E+00
         -1   -1    0    0    0  501 -0.00000000000E+00  0.00000000000E+00  0.18415875781E+03  0.18415875781E+03  0.00000000000E+00 0.  1.
          2   -1    0    0  502    0  0.00000000000E+00 -0.00000000000E+00 -0.91372661383E+02  0.91372661383E+02  0.00000000000E+00 0. -1.
         23    2    1    2    0    0  0.75291357804E+01  0.28706212711E+02  0.92738752615E+02  0.13284207643E+03  0.90364852129E+02 0.  0.
         24    2    1    2    0    0 -0.26757527013E+02 -0.45322643383E+02  0.22180129063E+02  0.10898923919E+03  0.92825583102E+02 0.  0.
        -11    1    4    4    0    0  0.19776297796E+02 -0.35711376467E+02  0.41023334502E+02  0.57873295546E+02  0.00000000000E+00 0.  1.
         12    1    4    4    0    0 -0.46533824810E+02 -0.96112669162E+01 -0.18843205438E+02  0.51115943641E+02  0.00000000000E+00 0. -1.
        -13    1    3    3    0    0  0.36804629758E+02  0.16496704353E+02  0.63695774663E+01  0.40832505963E+02  0.00000000000E+00 0.  1.
         13    1    3    3    0    0 -0.29275493977E+02  0.12209508358E+02  0.86369175149E+02  0.92009570469E+02  0.00000000000E+00 0. -1.
         21    1    1    2  502  501  0.19228391233E+02  0.16616430672E+02 -0.22132785254E+02  0.33700103573E+02  0.00000000000E+00 0.  1.
<scales pt_clust_5="13000.00000" pt_clust_6="13000.00000" pt_clust_7="13000.00000" pt_clust_8="13000.00000" pt_clust_9="25.41332"></scales>
<clustering>
<clus scale="   25.413">  2  9  1 -1</clus>
<clus scale="   90.365">  7  8 -1 -1</clus>
<clus scale="   92.826">  5  6 -1 -1</clus>
<clus scale="   97.488">  1  7  2 -1</clus>
<clus scale="   25.413">  2  5  1 -1</clus>
</clustering>
</event>
<event>
 9    2  0.2984928E-005  0.1582776E+03  0.7546771E-02  0.1192317E+00
          4   -1    0    0  502    0  0.00000000000E+00  0.00000000000E+00  0.37525652735E+03  0.37525652735E+03  0.00000000000E+00 0. -1.
         -3   -1    0    0    0  501 -0.00000000000E+00 -0.00000000000E+00 -0.97539973178E+02  0.97539973178E+02  0.00000000000E+00 0.  1.
         24    2    1    2    0    0 -0.13345881462E+03 -0.44696178499E+02  0.31098507825E+02  0.16525958934E+03  0.80836941474E+02 0.  0.
         23    2    1    2    0    0  0.98547428419E+02  0.45478124673E+02  0.15776877211E+03  0.21207168266E+03  0.91123858901E+02 0.  0.
        -13    1    3    3    0    0 -0.51370675765E+02  0.10508868213E+02 -0.17187480145E+02  0.55179634951E+02  0.00000000000E+00 0.  1.
         14    1    3    3    0    0 -0.82088138853E+02 -0.55205046713E+02  0.48285987970E+02  0.11007995438E+03  0.00000000000E+00 0. -1.
        -11    1    4    4    0    0 -0.29239249528E+01  0.39877576252E+02  0.40913963291E+02  0.57207716411E+02  0.00000000000E+00 0.  1.
         11    1    4    4    0    0  0.10147135337E+03  0.56005484210E+01  0.11685480881E+03  0.15486396624E+03  0.00000000000E+00 0. -1.
         21    1    1    2  502  501  0.34911386198E+02 -0.78194617391E+00  0.88849274239E+02  0.95465228533E+02  0.00000000000E+00 0.  1.
<scales pt_clust_5="13000.00000" pt_clust_6="13000.00000" pt_clust_7="13000.00000" pt_clust_8="13000.00000" pt_clust_9="34.92014"></scales>
<clustering>
<clus scale="   34.920">  1  9  2 -1</clus>
<clus scale="   80.837">  5  6 -1 -1</clus>
<clus scale="   91.124">  7  8 -1 -1</clus>
<clus scale="  152.587">  2  5  1 -1</clus>
<clus scale="   34.920">  1  5  2 -1</clus>
</clustering>
</event>
<event>
 9    2  0.2984928E-005  0.9191829E+02  0.7546771E-02  0.1306231E+00
          2   -1    0    0  502    0  0.00000000000E+00  0.00000000000E+00  0.31656325833E+03  0.31656325833E+03  0.00000000000E+00 0. -1.
         -1   -1    0    0    0  501 -0.00000000000E+00 -0.00000000000E+00 -0.34349317468E+03  0.34349317468E+03  0.00000000000E+00 0.  1.
         23    2    1    2    0    0  0.23193242133E+01  0.17628831930E+01 -0.32206706241E+03  0.33493490479E+03  0.91900548064E+02 0.  0.
         24    2    1    2    0    0  0.42632862434E+02  0.30973106602E+01  0.17739425158E+03  0.19899575857E+03  0.79394188363E+02 0.  0.
        -13    1    4    4    0    0  0.60458630434E+02  0.72746926186E+01  0.16741105059E+03  0.17814215393E+03  0.00000000000E+00 0.  1.
         14    1    4    4    0    0 -0.17825768000E+02 -0.41773819584E+01  0.99832009862E+01  0.20853604646E+02  0.00000000000E+00 0. -1.
        -11    1    3    3    0    0  0.22901887865E+02 -0.39594947291E+02 -0.16258871431E+03  0.16890040361E+03  0.00000000000E+00 0.  1.
         11    1    3    3    0    0 -0.20582563652E+02  0.41357830484E+02 -0.15947834810E+03  0.16603450118E+03  0.00000000000E+00 0. -1.
         21    1    1    2  502  501 -0.44952186648E+02 -0.48601938531E+01  0.11774289448E+03  0.12612576965E+03  0.00000000000E+00 0. -1.
<scales pt_clust_5="13000.00000" pt_clust_6="13000.00000" pt_clust_7="13000.00000" pt_clust_8="13000.00000" pt_clust_9="45.21416"></scales>
<clustering>
<clus scale="   45.214">  1  9  2 -1</clus>
<clus scale="   79.394">  5  6 -1 -1</clus>
<clus scale="   79.415">  1  5  2 -1</clus>
<clus scale="   91.901">  7  8 -1 -1</clus>
<clus scale="   45.214">  1  5  2 -1</clus>
</clustering>
</event>
<event>
 9    2  0.2984928E-005  0.9765487E+02  0.7546771E-02  0.1292177E+00
         -1   -1    0    0    0  501 -0.00000000000E+00  0.00000000000E+00  0.24313913913E+02  0.24313913913E+02  0.00000000000E+00 0.  1.
          2   -1    0    0  502    0  0.00000000000E+00 -0.00000000000E+00 -0.10173999071E+04  0.10173999071E+04  0.00000000000E+00 0. -1.
         23    2    1    2    0    0  0.53995877128E-01 -0.33413517110E+02 -0.11262539779E+03  0.14889496472E+03  0.91480950208E+02 0.  0.
         24    2    1    2    0    0 -0.48436689474E+02  0.29950237837E+02 -0.50788356710E+03  0.51709752158E+03  0.78746425060E+02 0.  0.
        -11    1    4    4    0    0 -0.52009040048E+02 -0.71874588401E+01 -0.19309374698E+03  0.20010446005E+03  0.00000000000E+00 0.  1.
         12    1    4    4    0    0  0.35723505747E+01  0.37137696677E+02 -0.31478982012E+03  0.31699306153E+03  0.00000000000E+00 0. -1.
        -13    1    3    3    0    0 -0.19087442410E+02  0.14490355508E+02 -0.88974178783E+02  0.92145023471E+02  0.00000000000E+00 0. -1.
         13    1    3    3    0    0  0.19141438287E+02 -0.47903872618E+02 -0.23651219010E+02  0.56749941252E+02  0.00000000000E+00 0.  1.
         21    1    1    2  502  501  0.48382693596E+02  0.34632792735E+01 -0.37257702832E+03  0.37572133474E+03  0.00000000000E+00 0. -1.
<scales pt_clust_5="13000.00000" pt_clust_6="13000.00000" pt_clust_7="13000.00000" pt_clust_8="13000.00000" pt_clust_9="48.50649"></scales>
<clustering>
<clus scale="   48.506">  2  9  1 -1</clus>
<clus scale="   78.746">  5  6 -1 -1</clus>
<clus scale="   85.841">  2  5  1 -1</clus>
<clus scale="   91.481">  7  8 -1 -1</clus>
<clus scale="   48.506">  2  5  1 -1</clus>
</clustering>
</event>
<event>
 9    2  0.2984928E-005  0.9347390E+02  0.7546771E-02  0.1300833E+00
          2   -1    0    0  502    0  0.00000000000E+00  0.00000000000E+00  0.35730136261E+03  0.35730136261E+03  0.00000000000E+00 0. -1.
         -1   -1    0    0    0  501 -0.00000000000E+00 -0.00000000000E+00 -0.49253342363E+02  0.49253342363E+02  0.00000000000E+00 0.  1.
         23    2    1    2    0    0 -0.67946525636E+01 -0.21519189255E+02  0.20144901456E+02  0.95831157810E+02  0.90931572861E+02 0.  0.
         24    2    1    2    0    0 -0.21803173658E+02  0.21998117777E+02  0.23872946653E+03  0.25383670234E+03  0.80510978745E+02 0.  0.
        -11    1    4    4    0    0 -0.47397976959E+02  0.29483066518E+02  0.12298038025E+03  0.13505551954E+03  0.00000000000E+00 0.  1.
         12    1    4    4    0    0  0.25594803301E+02 -0.74849487409E+01  0.11574908627E+03  0.11878118280E+03  0.00000000000E+00 0. -1.
        -13    1    3    3    0    0  0.61375125212E+01  0.34800623286E+02  0.12782633556E+02  0.37578559867E+02  0.00000000000E+00 0.  1.
         13    1    3    3    0    0 -0.12932165085E+02 -0.56319812542E+02  0.73622678995E+01  0.58252597943E+02  0.00000000000E+00 0. -1.
         21    1    1    2  502  501  0.28597826222E+02 -0.47892852160E+00  0.49173652265E+02  0.56886844826E+02  0.00000000000E+00 0. -1.
<scales pt_clust_5="13000.00000" pt_clust_6="13000.00000" pt_clust_7="13000.00000" pt_clust_8="13000.00000" pt_clust_9="28.60184"></scales>
<clustering>
<clus scale="   28.602">  1  9  2 -1</clus>
<clus scale="   80.511">  5  6 -1 -1</clus>
<clus scale="   83.372">  1  5  2 -1</clus>
<clus scale="   90.932">  7  8 -1 -1</clus>
<clus scale="   28.602">  1  5  2 -1</clus>
</clustering>
</event>
<event>
 9    2  0.2984928E-005  0.9454634E+02  0.7546771E-02  0.1301023E+00
         -3   -1    0    0    0  501 -0.00000000000E+00  0.00000000000E+00  0.66041977493E+03  0.66041977493E+03  0.00000000000E+00 0.  1.
          4   -1    0    0  502    0  0.00000000000E+00 -0.00000000000E+00 -0.38500676500E+02  0.38500676500E+02  0.00000000000E+00 0. -1.
         23    2    1    2    0    0 -0.27682474763E+00 -0.12782277371E+02  0.45578345703E+03  0.46562845898E+03  0.94381348084E+02 0.  0.
         24    2    1    2    0    0 -0.27237998907E+02 -0.42735557626E+02  0.65845872564E+02  0.11540504127E+03  0.80090000299E+02 0.  0.
        -11    1    4    4    0    0  0.12240924419E+02 -0.46349709801E+02  0.57552628248E+02  0.74902876096E+02  0.00000000000E+00 0.  1.
         12    1    4    4    0    0 -0.39478923325E+02  0.36141521748E+01  0.82932443156E+01  0.40502165179E+02  0.00000000000E+00 0. -1.
        -13    1    3    3    0    0 -0.45196904598E+02 -0.20160632155E+02  0.22114060500E+03  0.22661063182E+03  0.00000000000E+00 0.  1.
         13    1    3    3    0    0  0.44920079850E+02  0.73783547838E+01  0.23464285203E+03  0.23901782716E+03  0.00000000000E+00 0. -1.
         21    1    1    2  502  501  0.27514823654E+02  0.55517834997E+02  0.10028976884E+03  0.11788695117E+03  0.00000000000E+00 0.  1.
<scales pt_clust_5="13000.00000" pt_clust_6="13000.00000" pt_clust_7="13000.00000" pt_clust_8="13000.00000" pt_clust_9="61.96205"></scales>
<clustering>
<clus scale="   61.962">  2  9  1 -1</clus>
<clus scale="   80.090">  5  6 -1 -1</clus>
<clus scale="   80.284">  2  5  1 -1</clus>
<clus scale="   94.381">  7  8 -1 -1</clus>
<clus scale="   61.962">  2  5  1 -1</clus>
</clustering>
</event>
<event>
 9    2  0.2984928E-005  0.1507436E+03  0.7546771E-02  0.1200134E+00
         -1   -1    0    0    0  501 -0.00000000000E+00  0.00000000000E+00  0.15187339717E+03  0.15187339717E+03  0.00000000000E+00 0.  1.
          2   -1    0    0  502    0  0.00000000000E+00 -0.00000000000E+00 -0.24925494486E+03  0.24925494486E+03  0.00000000000E+00 0. -1.
         23    2    1    2    0    0 -0.11929443906E+02  0.11359360987E+03  0.84538255394E+01  0.14227780263E+03  0.84413779203E+02 0.  0.
         24    2    1    2    0    0  0.92297584939E+01 -0.13837398356E+03 -0.11232069959E+02  0.16101833504E+03  0.81044414089E+02 0.  0.
        -13    1    4    4    0    0 -0.25661073358E+02 -0.11661173475E+03 -0.10867959546E+02  0.11989537069E+03  0.00000000000E+00 0.  1.
         14    1    4    4    0    0  0.34890831852E+02 -0.21762248806E+02 -0.36411041312E+00  0.41122964349E+02  0.00000000000E+00 0. -1.
        -11    1    3    3    0    0  0.25096622967E+02  0.29563022626E+02 -0.23152031176E+02  0.45164469871E+02  0.00000000000E+00 0. -1.
         11    1    3    3    0    0 -0.37026066873E+02  0.84030587240E+02  0.31605856716E+02  0.97113332755E+02  0.00000000000E+00 0.  1.
         21    1    1    2  502  501  0.26996854119E+01  0.24780373690E+02 -0.94603303271E+02  0.97832204367E+02  0.00000000000E+00 0. -1.
<scales pt_clust_5="13000.00000" pt_clust_6="13000.00000" pt_clust_7="13000.00000" pt_clust_8="13000.00000" pt_clust_9="24.92700"></scales>
<clustering>
<clus scale="   24.927">  2  9  1 -1</clus>
<clus scale="   81.044">  5  6 -1 -1</clus>
<clus scale="   84.414">  7  8 -1 -1</clus>
<clus scale="  148.883">  2  5  1 -1</clus>
<clus scale="   24.927">  2  5  1 -1</clus>
</clustering>
</event>
<event>
 9    2  0.2984928E-005  0.1318856E+03  0.7546771E-02  0.1227606E+00
          2   -1    0    0  502    0  0.00000000000E+00  0.00000000000E+00  0.53613295414E+03  0.53613295414E+03  0.00000000000E+00 0. -1.
         -1   -1    0    0    0  501 -0.00000000000E+00 -0.00000000000E+00 -0.95046688691E+02  0.95046688691E+02  0.00000000000E+00 0.  1.
         24    2    1    2    0    0  0.37071600485E+01 -0.29298229815E+02 -0.29514622822E+02  0.91009619542E+02  0.80867228114E+02 0.  0.
         23    2    1    2    0    0  0.28598305582E+02  0.10292718753E+03  0.42475665111E+03  0.44761430706E+03  0.92349803526E+02 0.  0.
        -13    1    3    3    0    0  0.12121503707E+02 -0.39949791917E+02 -0.50806547807E+02  0.65758817100E+02  0.00000000000E+00 0.  1.
         14    1    3    3    0    0 -0.84143436584E+01  0.10651562101E+02  0.21291924985E+02  0.25250802442E+02  0.00000000000E+00 0. -1.
        -13    1    4    4    0    0  0.87098308868E+01  0.61847440230E+02  0.37471652936E+03  0.37988609397E+03  0.00000000000E+00 0. -1.
         13    1    4    4    0    0  0.19888474695E+02  0.41079747304E+02  0.50040121754E+02  0.67728213098E+02  0.00000000000E+00 0.  1.
         21    1    1    2  502  501 -0.32305465630E+02 -0.73628957719E+02  0.45844237157E+02  0.92555716219E+02  0.00000000000E+00 0.  1.
<scales pt_clust_5="13000.00000" pt_clust_6="13000.00000" pt_clust_7="13000.00000" pt_clust_8="13000.00000" pt_clust_9="80.40439"></scales>
<clustering>
<clus scale="   80.404">  2  9  1 -1</clus>
<clus scale="   80.867">  5  6 -1 -1</clus>
<clus scale="   92.350">  7  8 -1 -1</clus>
<clus scale="  124.116">  2  5  1 -1</clus>
<clus scale="  131.886">  1  5  2 -1</clus>
</clustering>
</event>
<event>
 9    2  0.2984928E-005  0.1111419E+03  0.7546771E-02  0.1261137E+00
          4   -1    0    0  502    0  0.00000000000E+00  0.00000000000E+00  0.40551261979E+02  0.40551261979E+02  0.00000000000E+00 0. -1.
         -3   -1    0    0    0  501 -0.00000000000E+00 -0.00000000000E+00 -0.70911306866E+03  0.70911306866E+03  0.00000000000E+00 0.  1.
         23    2    1    2    0    0  0.36141450091E+02  0.75238839925E+02 -0.53503566914E+03  0.54824793378E+03  0.85706138603E+02 0.  0.
         24    2    1    2    0    0 -0.25483321220E+02 -0.36818811908E+02 -0.13407140917E+03  0.16154169830E+03  0.78202001020E+02 0.  0.
        -13    1    4    4    0    0 -0.40310600032E+02  0.57463965114E+01 -0.88637134329E+02  0.97542335065E+02  0.00000000000E+00 0.  1.
         14    1    4    4    0    0  0.14827278812E+02 -0.42565208419E+02 -0.45434274840E+02  0.63999363239E+02  0.00000000000E+00 0. -1.
        -11    1    3    3    0    0  0.16020051477E+02  0.91607395868E+02 -0.44110373722E+03  0.45080047029E+03  0.00000000000E+00 0.  1.
         11    1    3    3    0    0  0.20121398614E+02 -0.16368555943E+02 -0.93931931920E+02  0.97447463487E+02  0.00000000000E+00 0. -1.
         21    1    1    2  502  501 -0.10658128871E+02 -0.38420028017E+02  0.54527162608E+00  0.39874698557E+02  0.00000000000E+00 0. -1.
<scales pt_clust_5="13000.00000" pt_clust_6="13000.00000" pt_clust_7="13000.00000" pt_clust_8="13000.00000" pt_clust_9="39.87097"></scales>
<clustering>
<clus scale="   39.871">  1  9  2 -1</clus>
<clus scale="   78.202">  5  6 -1 -1</clus>
<clus scale="   85.706">  7  8 -1 -1</clus>
<clus scale="  105.463">  1  5  2 -1</clus>
<clus scale="   39.871">  1  5  2 -1</clus>
</clustering>
</event>
<event>
 9    2  0.2984928E-005  0.1060330E+03  0.7546771E-02  0.1272780E+00
         -1   -1    0    0    0  501 -0.00000000000E+00  0.00000000000E+00  0.49663532893E+03  0.49663532893E+03  0.00000000000E+00 0.  1.
          2   -1    0    0  502    0  0.00000000000E+00 -0.00000000000E+00 -0.91463279995E+02  0.91463279995E+02  0.00000000000E+00 0. -1.
         23    2    1    2    0    0  0.80328708747E+01  0.54726105098E+02  0.44330382135E+03  0.45592135651E+03  0.91030388910E+02 0.  0.
         24    2    1    2    0    0  0.15609934822E+02 -0.45407994442E+02 -0.47838737691E+02  0.10497367503E+03  0.80158415660E+02 0.  0.
        -11    1    4    4    0    0  0.25484115400E+02 -0.66329307118E+01 -0.57993974428E+02  0.63692519008E+02  0.00000000000E+00 0.  1.
         12    1    4    4    0    0 -0.98741805786E+01 -0.38775063730E+02  0.10155236738E+02  0.41281156023E+02  0.00000000000E+00 0. -1.
        -11    1    3    3    0    0  0.45333231491E+01  0.78802763455E+02  0.37982003024E+03  0.38793515169E+03  0.00000000000E+00 0.  1.
         11    1    3    3    0    0  0.34995477256E+01 -0.24076658357E+02  0.63483791117E+02  0.67986204825E+02  0.00000000000E+00 0. -1.
         21    1    1    2  502  501 -0.23642805696E+02 -0.93181106563E+01  0.97069652694E+01  0.27203577378E+02  0.00000000000E+00 0. -1.
<scales pt_clust_5="13000.00000" pt_clust_6="13000.00000" pt_clust_7="13000.00000" pt_clust_8="13000.00000" pt_clust_9="25.41278"></scales>
<clustering>
<clus scale="   25.413">  2  9  1 -1</clus>
<clus scale="   80.158">  5  6 -1 -1</clus>
<clus scale="   91.030">  7  8 -1 -1</clus>
<clus scale="   96.860">  2  5  1 -1</clus>
<clus scale="   25.413">  2  5  1 -1</clus>
</clustering>
</event>
<event>
 9    2  0.2984928E-005  0.1571038E+03  0.7546771E-02  0.1193853E+00
         -1   -1    0    0    0  501 -0.00000000000E+00  0.00000000000E+00  0.60056326603E+02  0.60056326603E+02  0.00000000000E+00 0.  1.
          2   -1    0    0  502    0  0.00000000000E+00 -0.00000000000E+00 -0.69115931083E+03  0.69115931083E+03  0.00000000000E+00 0. -1.
         23    2    1    2    0    0 -0.22725398393E+02 -0.13646456782E+03 -0.11969776602E+03  0.20480157806E+03  0.92071217999E+02 0.  0.
         24    2    1    2    0    0  0.57451009360E+02  0.92978290164E+02 -0.33964807811E+03  0.36586644910E+03  0.80943564872E+02 0.  0.
        -13    1    4    4    0    0  0.70495818855E+02  0.98939408700E+02 -0.30919261726E+03  0.33220286217E+03  0.00000000000E+00 0.  1.
         14    1    4    4    0    0 -0.13044809495E+02 -0.59611185352E+01 -0.30455460853E+02  0.33663586926E+02  0.00000000000E+00 0. -1.
        -11    1    3    3    0    0  0.18428675472E+02 -0.10816196355E+03 -0.54044202456E+02  0.12230863525E+03  0.00000000000E+00 0. -1.
         11    1    3    3    0    0 -0.41154073866E+02 -0.28302604268E+02 -0.65653563564E+02  0.82492942805E+02  0.00000000000E+00 0.  1.
         21    1    1    2  502  501 -0.34725610966E+02  0.43486277654E+02 -0.17175714010E+03  0.18054761027E+03  0.00000000000E+00 0.  1.
<scales pt_clust_5="13000.00000" pt_clust_6="13000.00000" pt_clust_7="13000.00000" pt_clust_8="13000.00000" pt_clust_9="55.65002"></scales>
<clustering>
<clus scale="   55.650">  2  9  1 -1</clus>
<clus scale="   80.944">  5  6 -1 -1</clus>
<clus scale="   92.071">  7  8 -1 -1</clus>
<clus scale="  150.852">  2  5  1 -1</clus>
<clus scale="   55.650">  2  5  1 -1</clus>
</clustering>
</event>
<event>
 9    2  0.2984928E-005  0.1175884E+03  0.7546771E-02  0.1251416E+00
         -1   -1    0    0    0  501 -0.00000000000E+00  0.00000000000E+00  0.14105782293E+03  0.14105782293E+03  0.00000000000E+00 0.  1.
          2   -1    0    0  502    0  0.00000000000E+00 -0.00000000000E+00 -0.14589917113E+03  0.14589917113E+03  0.00000000000E+00 0. -1.
         23    2    1    2    0    0 -0.55207982165E+02 -0.60205660197E+02  0.67337190314E+02  0.14081889621E+03  0.92860225697E+02 0.  0.
         24    2    1    2    0    0  0.30249935705E+02  0.40144963107E+02 -0.58459213887E+02  0.11130197407E+03  0.80274361233E+02 0.  0.
        -11    1    4    4    0    0  0.56004200690E+02  0.14205684487E+02 -0.30883051899E+02  0.65513623478E+02  0.00000000000E+00 0.  1.
         12    1    4    4    0    0 -0.25754264985E+02  0.25939278620E+02 -0.27576161988E+02  0.45788350595E+02  0.00000000000E+00 0. -1.
        -13    1    3    3    0    0 -0.40773673815E+01 -0.69449766885E+02  0.51308039316E+02  0.86443102348E+02  0.00000000000E+00 0.  1.
         13    1    3    3    0    0 -0.51130614784E+02  0.92441066876E+01  0.16029150997E+02  0.54375793864E+02  0.00000000000E+00 0. -1.
         21    1    1    2  502  501  0.24958046460E+02  0.20060697090E+02 -0.13719324629E+02  0.34836123767E+02  0.00000000000E+00 0.  1.
<scales pt_clust_5="13000.00000" pt_clust_6="13000.00000" pt_clust_7="13000.00000" pt_clust_8="13000.00000" pt_clust_9="32.02086"></scales>
<clustering>
<clus scale="   32.021">  2  9  1 -1</clus>
<clus scale="   80.274">  5  6 -1 -1</clus>
<clus scale="   92.860">  7  8 -1 -1</clus>
<clus scale="  107.926">  2  5  1 -1</clus>
<clus scale="   32.021">  2  5  1 -1</clus>
</clustering>
</event>
<event>
 9    2  0.2984928E-005  0.8941814E+02  0.7546771E-02  0.1309996E+00
         -1   -1    0    0    0  501 -0.00000000000E+00  0.00000000000E+00  0.18904159286E+03  0.18904159286E+03  0.00000000000E+00 0.  1.
          2   -1    0    0  502    0  0.00000000000E+00 -0.00000000000E+00 -0.26047141140E+03  0.26047141140E+03  0.00000000000E+00 0. -1.
         23    2    1    2    0    0 -0.71168052218E+01 -0.17224623588E+02  0.14706095513E+03  0.17215340586E+03  0.87535901502E+02 0.  0.
         24    2    1    2    0    0 -0.19339238258E+02  0.22151866852E+02 -0.33198559755E+02  0.90123371928E+02  0.78456143522E+02 0.  0.
        -13    1    4    4    0    0  0.29444821912E+02  0.38543087205E+01 -0.21666155447E+02  0.36759699740E+02  0.00000000000E+00 0.  1.
         14    1    4    4    0    0 -0.48784060170E+02  0.18297558131E+02 -0.11532404308E+02  0.53363672187E+02  0.00000000000E+00 0. -1.
        -13    1    3    3    0    0  0.28040328042E+02 -0.38316902584E+02  0.91707376673E+02  0.10326997607E+03  0.00000000000E+00 0.  1.
         13    1    3    3    0    0 -0.35157133263E+02  0.21092278996E+02  0.55353578455E+02  0.68883429795E+02  0.00000000000E+00 0. -1.
         21    1    1    2  502  501  0.26456043480E+02 -0.49272432642E+01 -0.18529221391E+03  0.18723622646E+03  0.00000000000E+00 0. -1.
<scales pt_clust_5="13000.00000" pt_clust_6="13000.00000" pt_clust_7="13000.00000" pt_clust_8="13000.00000" pt_clust_9="26.91096"></scales>
<clustering>
<clus scale="   26.911">  2  9  1 -1</clus>
<clus scale="   78.456">  5  6 -1 -1</clus>
<clus scale="   80.551">  2  5  1 -1</clus>
<clus scale="   87.536">  7  8 -1 -1</clus>
<clus scale="   26.911">  2  5  1 -1</clus>
</clustering>
</event>
<event>
 9    2  0.2984928E-005  0.1618384E+03  0.7546771E-02  0.1212552E+00
         -1   -1    0    0    0  501 -0.00000000000E+00  0.00000000000E+00  0.46577220470E+02  0.46577220470E+02  0.00000000000E+00 0.  1.
          2   -1    0    0  502    0  0.00000000000E+00 -0.00000000000E+00 -0.84105152199E+03  0.84105152199E+03  0.00000000000E+00 0. -1.
         24    2    1    2    0    0 -0.21142406374E+02 -0.39418008629E+02 -0.13051444359E+03  0.15976045481E+03  0.80551860208E+02 0.  0.
         23    2    1    2    0    0 -0.11120653278E+03  0.67250572900E+02 -0.31511659277E+03  0.35372591237E+03  0.94519953241E+02 0.  0.
        -13    1    3    3    0    0 -0.41517951361E+02 -0.51112754171E+02 -0.77008633890E+02  0.10132415121E+03  0.00000000000E+00 0.  1.
         14    1    3    3    0    0  0.20375544987E+02  0.11694745542E+02 -0.53505809697E+02  0.58436303598E+02  0.00000000000E+00 0. -1.
        -11    1    4    4    0    0 -0.34276206480E+02 -0.45248149658E+01 -0.18951374570E+02  0.39426981614E+02  0.00000000000E+00 0. -1.
         11    1    4    4    0    0 -0.76930326298E+02  0.71775387865E+02 -0.29616521820E+03  0.31429893076E+03  0.00000000000E+00 0.  1.
         21    1    1    2  502  501  0.13234893915E+03 -0.27832564271E+02 -0.34884326517E+03  0.37414237528E+03  0.00000000000E+00 0. -1.
<scales pt_clust_5="13000.00000" pt_clust_6="13000.00000" pt_clust_7="13000.00000" pt_clust_8="13000.00000" pt_clust_9="131.36836"></scales>
<clustering>
<clus scale="   80.552">  5  6 -1 -1</clus>
<clus scale="   92.138">  1  5  2 -1</clus>
<clus scale="   94.520">  7  8 -1 -1</clus>
<clus scale="  131.368">  2  9  1 -1</clus>
<clus scale="  131.368">  2  5  1 -1</clus>
</clustering>
</event>
<event>
 9    2  0.2984928E-005  0.2669396E+03  0.7546771E-02  0.1135902E+00
          2   -1    0    0  502    0  0.00000000000E+00  0.00000000000E+00  0.24410517488E+03  0.24410517488E+03  0.00000000000E+00 0. -1.
         -1   -1    0    0    0  501 -0.00000000000E+00 -0.00000000000E+00 -0.45169793843E+03  0.45169793843E+03  0.00000000000E+00 0.  1.
         24    2    1    2    0    0  0.48301450097E+01 -0.84208844913E+02 -0.38387194633E+02  0.12337158441E+03  0.81440231249E+02 0.  0.
         23    2    1    2    0    0  0.13000161421E+03 -0.15303935597E+03 -0.19708685827E+03  0.29812571705E+03  0.98560891262E+02 0.  0.
        -13    1    3    3    0    0 -0.28606220470E+02 -0.55191812402E+02 -0.47421829712E+02  0.78187479427E+02  0.00000000000E+00 0.  1.
         14    1    3    3    0    0  0.33436365480E+02 -0.29017032511E+02  0.90346350790E+01  0.45184104985E+02  0.00000000000E+00 0. -1.
        -11    1    4    4    0    0  0.10440250161E+03 -0.12649588776E+03 -0.94907045546E+02  0.18949522225E+03  0.00000000000E+00 0. -1.
         11    1    4    4    0    0  0.25599112603E+02 -0.26543468218E+02 -0.10217981272E+03  0.10863049479E+03  0.00000000000E+00 0.  1.
         21    1    1    2  502  501 -0.13483175922E+03  0.23724820089E+03  0.27881289356E+02  0.27430581185E+03  0.00000000000E+00 0.  1.
<scales pt_clust_5="13000.00000" pt_clust_6="13000.00000" pt_clust_7="13000.00000" pt_clust_8="13000.00000" pt_clust_9="248.07762"></scales>
<clustering>
<clus scale="   81.440">  5  6 -1 -1</clus>
<clus scale="   98.561">  7  8 -1 -1</clus>
<clus scale="  117.247">  2  5  1 -1</clus>
<clus scale="  248.078">  1  9  2 -1</clus>
<clus scale="  248.078">  1  5  2 -1</clus>
</clustering>
</event>
<event>
 9    2  0.2984928E-005  0.9570754E+02  0.7546771E-02  0.1296239E+00
         -1   -1    0    0    0  501 -0.00000000000E+00  0.00000000000E+00  0.63189251611E+02  0.63189251611E+02  0.00000000000E+00 0.  1.
          2   -1    0    0  502    0  0.00000000000E+00 -0.00000000000E+00 -0.24712423697E+03  0.24712423697E+03  0.00000000000E+00 0. -1.
         24    2    1    2    0    0 -0.93489351692E+01 -0.11887660776E+02 -0.34677464335E+02  0.88402309550E+02  0.79898202317E+02 0.  0.
         23    2    1    2    0    0 -0.15473061679E+02  0.59627816523E+02 -0.10065193436E+03  0.14940078630E+03  0.91623637327E+02 0.  0.
        -11    1    3    3    0    0  0.21459381730E+02 -0.73339800856E+01  0.16809982140E+02  0.28228847438E+02  0.00000000000E+00 0.  1.
         12    1    3    3    0    0 -0.30808316900E+02 -0.45536806901E+01 -0.51487446475E+02  0.60173462111E+02  0.00000000000E+00 0. -1.
        -13    1    4    4    0    0  0.28093913196E+02  0.55484537017E+02 -0.37682623634E+02  0.72717136430E+02  0.00000000000E+00 0.  1.
         13    1    4    4    0    0 -0.43566974875E+02  0.41432795063E+01 -0.62969310722E+02  0.76683649872E+02  0.00000000000E+00 0. -1.
         21    1    1    2  502  501  0.24821996849E+02 -0.47740155747E+02 -0.48605586665E+02  0.72510392727E+02  0.00000000000E+00 0.  1.
<scales pt_clust_5="13000.00000" pt_clust_6="13000.00000" pt_clust_7="13000.00000" pt_clust_8="13000.00000" pt_clust_9="53.80756"></scales>
<clustering>
<clus scale="   53.808">  2  9  1 -1</clus>
<clus scale="   79.898">  5  6 -1 -1</clus>
<clus scale="   84.550">  1  5  2 -1</clus>
<clus scale="   91.624">  7  8 -1 -1</clus>
<clus scale="   53.808">  2  5  1 -1</clus>
</clustering>
</event>
<event>
 9    2  0.2984928E-005  0.1058131E+03  0.7546771E-02  0.1274729E+00
          2   -1    0    0  502    0  0.00000000000E+00  0.00000000000E+00  0.13668656816E+03  0.13668656816E+03  0.00000000000E+00 0. -1.
         -1   -1    0    0    0  501 -0.00000000000E+00 -0.00000000000E+00 -0.18381834382E+03  0.18381834382E+03  0.00000000000E+00 0.  1.
         23    2    1    2    0    0 -0.46076412696E+02 -0.43380278548E+02 -0.10317992194E+03  0.15185101383E+03  0.91693782426E+02 0.  0.
         24    2    1    2    0    0  0.47306285170E+02 -0.92553711373E+01 -0.52592165206E+00  0.91370980451E+02  0.77619797497E+02 0.  0.
        -11    1    4    4    0    0  0.60595289914E+02 -0.97707034536E+01 -0.22760925474E+02  0.65462321485E+02  0.00000000000E+00 0.  1.
         12    1    4    4    0    0 -0.13289004744E+02  0.51533231626E+00  0.22235003821E+02  0.25908658966E+02  0.00000000000E+00 0. -1.
        -11    1    3    3    0    0 -0.22944255361E+02 -0.69834853352E+02 -0.84690780620E+02  0.11214220400E+03  0.00000000000E+00 0.  1.
         11    1    3    3    0    0 -0.23132157334E+02  0.26454574805E+02 -0.18489141323E+02  0.39708809827E+02  0.00000000000E+00 0. -1.
         21    1    1    2  502  501 -0.12298724745E+01  0.52635649685E+02  0.56574067943E+02  0.77282917697E+02  0.00000000000E+00 0. -1.
<scales pt_clust_5="13000.00000" pt_clust_6="13000.00000" pt_clust_7="13000.00000" pt_clust_8="13000.00000" pt_clust_9="52.65002"></scales>
<clustering>
<clus scale="   52.650">  1  9  2 -1</clus>
<clus scale="   77.620">  5  6 -1 -1</clus>
<clus scale="   91.694">  7  8 -1 -1</clus>
<clus scale="   93.880">  1  5  2 -1</clus>
<clus scale="   52.650">  1  5  2 -1</clus>
</clustering>
</event>
<event>
 9    2  0.2984928E-005  0.1247932E+03  0.7546771E-02  0.1239159E+00
          2   -1    0    0  502    0  0.00000000000E+00  0.00000000000E+00  0.45385700934E+03  0.45385700934E+03  0.00000000000E+00 0. -1.
         -1   -1    0    0    0  501 -0.00000000000E+00 -0.00000000000E+00 -0.77923243019E+02  0.77923243019E+02  0.00000000000E+00 0.  1.
         24    2    1    2    0    0 -0.42178564634E+02  0.63479212078E+02  0.41023919632E+01  0.11050417615E+03  0.79910585313E+02 0.  0.
         23    2    1    2    0    0  0.77133715628E+02 -0.90371532390E+02  0.25267336724E+03  0.29421825421E+03  0.92757353583E+02 0.  0.
        -11    1    3    3    0    0 -0.46355085018E+02  0.52873568017E+02 -0.28571229575E+02  0.75899428597E+02  0.00000000000E+00 0.  1.
         12    1    3    3    0    0  0.41765203844E+01  0.10605644061E+02  0.32673621538E+02  0.34604747549E+02  0.00000000000E+00 0. -1.
        -11    1    4    4    0    0 -0.12405211576E+02 -0.50315116369E+02  0.73174154893E+02  0.89665808164E+02  0.00000000000E+00 0.  1.
         11    1    4    4    0    0  0.89538927203E+02 -0.40056416020E+02  0.17949921235E+03  0.20455244604E+03  0.00000000000E+00 0. -1.
         21    1    1    2  502  501 -0.34955150994E+02  0.26892320312E+02  0.11915800711E+03  0.12705782200E+03  0.00000000000E+00 0.  1.
<scales pt_clust_5="13000.00000" pt_clust_6="13000.00000" pt_clust_7="13000.00000" pt_clust_8="13000.00000" pt_clust_9="44.10283"></scales>
<clustering>
<clus scale="   44.103">  1  9  2 -1</clus>
<clus scale="   79.911">  5  6 -1 -1</clus>
<clus scale="   92.757">  7  8 -1 -1</clus>
<clus scale="  115.564">  2  5  1 -1</clus>
<clus scale="   44.103">  1  5  2 -1</clus>
</clustering>
</event>
<event>
 9    2  0.2984928E-005  0.1038818E+03  0.7546771E-02  0.1279763E+00
         -1   -1    0    0    0  501 -0.00000000000E+00  0.00000000000E+00  0.38630133446E+02  0.38630133446E+02  0.00000000000E+00 0.  1.
          2   -1    0    0  502    0  0.00000000000E+00 -0.00000000000E+00 -0.10507049822E+04  0.10507049822E+04  0.00000000000E+00 0. -1.
         23    2    1    2    0    0  0.42678869913E+02  0.92775342277E+01 -0.54667163315E+02  0.11777440514E+03  0.94735173950E+02 0.  0.
         24    2    1    2    0    0 -0.19044460074E+02 -0.53878636595E+02 -0.80704339880E+03  0.81295029988E+03  0.79394858736E+02 0.  0.
        -11    1    4    4    0    0  0.32382638799E+00 -0.34288416429E+02 -0.10689503251E+03  0.11226018145E+03  0.00000000000E+00 0.  1.
         12    1    4    4    0    0 -0.19368286462E+02 -0.19590220166E+02 -0.70014836629E+03  0.70069011843E+03  0.00000000000E+00 0. -1.
        -13    1    3    3    0    0  0.35112649876E+02 -0.36519061922E+02 -0.68309639426E+01  0.51119488783E+02  0.00000000000E+00 0. -1.
         13    1    3    3    0    0  0.75662200369E+01  0.45796596150E+02 -0.47836199372E+02  0.66654916360E+02  0.00000000000E+00 0.  1.
         21    1    1    2  502  501 -0.23634409840E+02  0.44601102367E+02 -0.15036428666E+03  0.15861041064E+03  0.00000000000E+00 0.  1.
<scales pt_clust_5="13000.00000" pt_clust_6="13000.00000" pt_clust_7="13000.00000" pt_clust_8="13000.00000" pt_clust_9="50.47617"></scales>
<clustering>
<clus scale="   50.476">  2  9  1 -1</clus>
<clus scale="   79.395">  5  6 -1 -1</clus>
<clus scale="   90.112">  2  5  1 -1</clus>
<clus scale="   94.735">  7  8 -1 -1</clus>
<clus scale="   50.476">  2  5  1 -1</clus>
</clustering>
</event>
<event>
 9    2  0.2984928E-005  0.1090864E+03  0.7546771E-02  0.1268778E+00
         -1   -1    0    0    0  501 -0.00000000000E+00  0.00000000000E+00  0.20239214070E+03  0.20239214070E+03  0.00000000000E+00 0.  1.
          2   -1    0    0  502    0  0.00000000000E+00 -0.00000000000E+00 -0.80206317466E+02  0.80206317466E+02  0.00000000000E+00 0. -1.
         23    2    1    2    0    0  0.46948228206E+02 -0.88615090566E+01  0.11274130326E+03  0.15595419542E+03  0.96583886523E+02 0.  0.
         24    2    1    2    0    0 -0.50086328408E+02  0.33477897809E+02  0.66779906003E+01  0.10167492248E+03  0.81632005783E+02 0.  0.
        -13    1    4    4    0    0  0.12842625667E+01  0.46070167230E+02  0.14257922183E+02  0.48243113332E+02  0.00000000000E+00 0.  1.
         14    1    4    4    0    0 -0.51370590975E+02 -0.12592269421E+02 -0.75799315831E+01  0.53431809150E+02  0.00000000000E+00 0. -1.
        -13    1    3    3    0    0  0.48394886923E+02 -0.45743296956E+02  0.50434668466E+02  0.83535442059E+02  0.00000000000E+00 0.  1.
         13    1    3    3    0    0 -0.14466587167E+01  0.36881787899E+02  0.62306634789E+02  0.72418753364E+02  0.00000000000E+00 0. -1.
         21    1    1    2  502  501  0.31381002020E+01 -0.24616388753E+02  0.27665293738E+01  0.24969340257E+02  0.00000000000E+00 0.  1.
<scales pt_clust_5="13000.00000" pt_clust_6="13000.00000" pt_clust_7="13000.00000" pt_clust_8="13000.00000" pt_clust_9="24.81561"></scales>
<clustering>
<clus scale="   24.816">  2  9  1 -1</clus>
<clus scale="   81.632">  5  6 -1 -1</clus>
<clus scale="   96.100">  2  5  1 -1</clus>
<clus scale="   96.584">  7  8 -1 -1</clus>
<clus scale="   24.816">  2  5  1 -1</clus>
</clustering>
</event>
<event>
 9    2  0.2984928E-005  0.1359015E+03  0.7546771E-02  0.1221902E+00
         -1   -1    0    0    0  501 -0.00000000000E+00  0.00000000000E+00  0.15109743343E+03  0.15109743343E+03  0.00000000000E+00 0.  1.
          2   -1    0    0  502    0  0.00000000000E+00 -0.00000000000E+00 -0.47010537120E+03  0.47010537120E+03  0.00000000000E+00 0. -1.
         23    2    1    2    0    0 -0.63256091675E+02  0.29091632531E+02  0.10003627274E+02  0.11669256036E+03  0.93109746355E+02 0.  0.
         24    2    1    2    0    0  0.10972615901E+03 -0.11065241786E+03 -0.14292405064E+02  0.17609011924E+03  0.80744471666E+02 0.  0.
        -13    1    4    4    0    0  0.83924814233E+02 -0.56798631008E+02  0.25291063335E+02  0.10444662184E+03  0.00000000000E+00 0.  1.
         14    1    4    4    0    0  0.25801344773E+02 -0.53853786849E+02 -0.39583468399E+02  0.71643497407E+02  0.00000000000E+00 0. -1.
        -13    1    3    3    0    0 -0.30839204243E+02  0.26226132057E+02  0.50510939919E+02  0.64731920815E+02  0.00000000000E+00 0.  1.
         13    1    3    3    0    0 -0.32416887432E+02  0.28655004741E+01 -0.40507312644E+02  0.51960639540E+02  0.00000000000E+00 0. -1.
         21    1    1    2  502  501 -0.46470067332E+02  0.81560785326E+02 -0.31471915998E+03  0.32842012502E+03  0.00000000000E+00 0.  1.
<scales pt_clust_5="13000.00000" pt_clust_6="13000.00000" pt_clust_7="13000.00000" pt_clust_8="13000.00000" pt_clust_9="93.87028"></scales>
<clustering>
<clus scale="   80.744">  5  6 -1 -1</clus>
<clus scale="   93.110">  7  8 -1 -1</clus>
<clus scale="   93.870">  2  9  1 -1</clus>
<clus scale="  127.748">  2  5  1 -1</clus>
<clus scale="   93.870">  2  5  1 -1</clus>
</clustering>
</event>
<event>
 9    2  0.2984928E-005  0.1241258E+03  0.7546771E-02  0.1239015E+00
          2   -1    0    0  502    0  0.00000000000E+00  0.00000000000E+00  0.84243120557E+02  0.84243120557E+02  0.00000000000E+00 0. -1.
         -1   -1    0    0    0  501 -0.00000000000E+00 -0.00000000000E+00 -0.49541201715E+03  0.49541201715E+03  0.00000000000E+00 0.  1.
         23    2    1    2    0    0  0.46853432502E+02  0.71460770928E+02 -0.42811622389E+03  0.44627146765E+03  0.92589609355E+02 0.  0.
         24    2    1    2    0    0 -0.24288418025E+02 -0.59365660215E+02  0.20376938576E+02  0.10755280064E+03  0.83893840285E+02 0.  0.
        -13    1    4    4    0    0  0.26290949650E+02 -0.44685764444E+02  0.17823441182E+02  0.54824325194E+02  0.00000000000E+00 0.  1.
         14    1    4    4    0    0 -0.50579367676E+02 -0.14679895771E+02  0.25534973935E+01  0.52728475450E+02  0.00000000000E+00 0. -1.
        -11    1    3    3    0    0 -0.15919731259E+02  0.36981752397E+02 -0.67367792350E+02  0.78482528628E+02  0.00000000000E+00 0. -1.
         11    1    3    3    0    0  0.62773163761E+02  0.34479018531E+02 -0.36074843154E+03  0.36778893902E+03  0.00000000000E+00 0.  1.
         21    1    1    2  502  501 -0.22565014477E+02 -0.12095110713E+02 -0.34296112859E+01  0.25830869422E+02  0.00000000000E+00 0.  1.
<scales pt_clust_5="13000.00000" pt_clust_6="13000.00000" pt_clust_7="13000.00000" pt_clust_8="13000.00000" pt_clust_9="25.60218"></scales>
<clustering>
<clus scale="   25.602">  1  9  2 -1</clus>
<clus scale="   83.894">  5  6 -1 -1</clus>
<clus scale="   92.590">  7  8 -1 -1</clus>
<clus scale="  117.782">  1  5  2 -1</clus>
<clus scale="   25.602">  1  5  2 -1</clus>
</clustering>
</event>
<event>
 9    2  0.2984928E-005  0.9861432E+02  0.7546771E-02  0.1288461E+00
          4   -1    0    0  502    0  0.00000000000E+00  0.00000000000E+00  0.18894380034E+03  0.18894380034E+03  0.00000000000E+00 0. -1.
         -3   -1    0    0    0  501 -0.00000000000E+00 -0.00000000000E+00 -0.10295723237E+03  0.10295723237E+03  0.00000000000E+00 0.  1.
         23    2    1    2    0    0  0.23184964067E+02 -0.35008479202E+02 -0.50004260732E+02  0.11186244831E+03  0.90827556802E+02 0.  0.
         24    2    1    2    0    0 -0.28782734578E+02  0.12858455222E+02  0.73865310647E+02  0.11384539299E+03  0.80690171073E+02 0.  0.
        -11    1    4    4    0    0 -0.18126927152E+02 -0.30270182511E+02  0.11175553815E+02  0.37010301813E+02  0.00000000000E+00 0.  1.
         12    1    4    4    0    0 -0.10655807426E+02  0.43128637733E+02  0.62689756832E+02  0.76835091178E+02  0.00000000000E+00 0. -1.
        -11    1    3    3    0    0  0.16700324037E+02 -0.59030507899E+02 -0.64285864153E+01  0.61683291166E+02  0.00000000000E+00 0.  1.
         11    1    3    3    0    0  0.64846400294E+01  0.24022028697E+02 -0.43575674317E+02  0.50179157139E+02  0.00000000000E+00 0. -1.
         21    1    1    2  502  501  0.55977705118E+01  0.22150023980E+02  0.62125518053E+02  0.66193191420E+02  0.00000000000E+00 0. -1.
<scales pt_clust_5="13000.00000" pt_clust_6="13000.00000" pt_clust_7="13000.00000" pt_clust_8="13000.00000" pt_clust_9="22.84641"></scales>
<clustering>
<clus scale="   22.846">  1  9  2 -1</clus>
<clus scale="   80.690">  5  6 -1 -1</clus>
<clus scale="   89.365">  1  5  2 -1</clus>
<clus scale="   90.828">  7  8 -1 -1</clus>
<clus scale="   22.846">  1  5  2 -1</clus>
</clustering>
</event>
<event>
 9    2  0.2984928E-005  0.1611296E+03  0.7546771E-02  0.1196830E+00
          2   -1    0    0  502    0  0.00000000000E+00  0.00000000000E+00  0.91384528823E+03  0.91384528823E+03  0.00000000000E+00 0. -1.
         -1   -1    0    0    0  501 -0.00000000000E+00 -0.00000000000E+00 -0.55824391093E+02  0.55824391093E+02  0.00000000000E+00 0.  1.
         23    2    1    2    0    0  0.74091783617E+02  0.62322520217E+02  0.98965363724E+02  0.18558023923E+03  0.12358071471E+03 0.  0.
         24    2    1    2    0    0 -0.11253963077E+03 -0.72362092451E+02  0.62996948568E+03  0.64902561192E+03  0.80444086988E+02 0.  0.
        -11    1    4    4    0    0 -0.97146087826E+02 -0.17010782381E+02  0.40524143992E+03  0.41706996262E+03  0.00000000000E+00 0.  1.
         12    1    4    4    0    0 -0.15393542940E+02 -0.55351310071E+02  0.22472804576E+03  0.23195564930E+03  0.00000000000E+00 0. -1.
        -13    1    3    3    0    0  0.93355134729E+02  0.13636468434E+02  0.93680859531E+02  0.13295577420E+03  0.00000000000E+00 0. -1.
         13    1    3    3    0    0 -0.19263351112E+02  0.48686051783E+02  0.52845041931E+01  0.52624465022E+02  0.00000000000E+00 0.  1.
         21    1    1    2  502  501  0.38447847149E+02  0.10039572234E+02  0.12908604774E+03  0.13506382818E+03  0.00000000000E+00 0. -1.
<scales pt_clust_5="13000.00000" pt_clust_6="13000.00000" pt_clust_7="13000.00000" pt_clust_8="13000.00000" pt_clust_9="39.73701"></scales>
<clustering>
<clus scale="   39.737">  1  9  2 -1</clus>
<clus scale="   80.444">  5  6 -1 -1</clus>
<clus scale="  123.581">  7  8 -1 -1</clus>
<clus scale="  131.003">  1  5  2 -1</clus>
<clus scale="   39.737">  1  5  2 -1</clus>
</clustering>
</event>
<event>
 9    2  0.2984928E-005  0.1458341E+03  0.7546771E-02  0.1207375E+00
         -1   -1    0    0    0  501 -0.00000000000E+00  0.00000000000E+00  0.57362663397E+02  0.57362663397E+02  0.00000000000E+00 0.  1.
          2   -1    0    0  502    0  0.00000000000E+00 -0.00000000000E+00 -0.61810129622E+03  0.61810129622E+03  0.00000000000E+00 0. -1.
         24    2    1    2    0    0  0.12562090573E+03  0.72091197950E+01 -0.10408437983E+03  0.18198590617E+03  0.80328877460E+02 0.  0.
         23    2    1    2    0    0 -0.97480464983E+02  0.27986470638E+01 -0.23302343930E+03  0.26786160761E+03  0.89104680509E+02 0.  0.
        -11    1    3    3    0    0  0.11601174938E+03 -0.64549721076E+01 -0.52015000507E+02  0.12730260381E+03  0.00000000000E+00 0.  1.
         12    1    3    3    0    0  0.96091563483E+01  0.13664091903E+02 -0.52069379327E+02  0.54683302358E+02  0.00000000000E+00 0. -1.
        -13    1    4    4    0    0 -0.43445986947E+02  0.32524422345E+02 -0.46703339634E+02  0.71600235779E+02  0.00000000000E+00 0.  1.
         13    1    4    4    0    0 -0.54034478036E+02 -0.29725775281E+02 -0.18632009967E+03  0.19626137183E+03  0.00000000000E+00 0. -1.
         21    1    1    2  502  501 -0.28140440744E+02 -0.10007766859E+02 -0.22363081369E+03  0.22561644584E+03  0.00000000000E+00 0.  1.
<scales pt_clust_5="13000.00000" pt_clust_6="13000.00000" pt_clust_7="13000.00000" pt_clust_8="13000.00000" pt_clust_9="29.86704"></scales>
<clustering>
<clus scale="   29.867">  2  9  1 -1</clus>
<clus scale="   80.329">  5  6 -1 -1</clus>
<clus scale="   89.105">  7  8 -1 -1</clus>
<clus scale="  140.644">  1  5  2 -1</clus>
<clus scale="   29.867">  2  5  1 -1</clus>
</clustering>
</event>
<event>
 9    2  0.2984928E-005  0.1017480E+03  0.7546771E-02  0.1280586E+00
         -1   -1    0    0    0  501 -0.00000000000E+00  0.00000000000E+00  0.28125856405E+03  0.28125856405E+03  0.00000000000E+00 0.  1.
          2   -1    0    0  502    0  0.00000000000E+00 -0.00000000000E+00 -0.11103919885E+03  0.11103919885E+03  0.00000000000E+00 0. -1.
         23    2    1    2    0    0 -0.23788037714E+02 -0.29204075867E+02  0.20548512412E+03  0.22845625004E+03  0.92462820441E+02 0.  0.
         24    2    1    2    0    0  0.39014542905E+02  0.67149250146E+02 -0.42611842800E+02  0.12230059736E+03  0.84323843693E+02 0.  0.
        -11    1    4    4    0    0  0.31907157254E+02  0.87098627455E+02 -0.29256452804E+02  0.97263444413E+02  0.00000000000E+00 0.  1.
         12    1    4    4    0    0  0.71073856509E+01 -0.19949377309E+02 -0.13355389996E+02  0.25037152949E+02  0.00000000000E+00 0. -1.
        -11    1    3    3    0    0 -0.54196401222E+02 -0.21144287195E+02  0.17590458647E+03  0.18527480759E+03  0.00000000000E+00 0.  1.
         11    1    3    3    0    0  0.30408363508E+02 -0.80597886719E+01  0.29580537649E+02  0.43181442452E+02  0.00000000000E+00 0. -1.
         21    1    1    2  502  501 -0.15226505191E+02 -0.37945174278E+02  0.73460838806E+01  0.41540915490E+02  0.00000000000E+00 0.  1.
<scales pt_clust_5="13000.00000" pt_clust_6="13000.00000" pt_clust_7="13000.00000" pt_clust_8="13000.00000" pt_clust_9="40.88622"></scales>
<clustering>
<clus scale="   40.886">  2  9  1 -1</clus>
<clus scale="   84.324">  5  6 -1 -1</clus>
<clus scale="   92.463">  7  8 -1 -1</clus>
<clus scale="   94.413">  2  5  1 -1</clus>
<clus scale="   40.886">  2  5  1 -1</clus>
</clustering>
</event>
<event>
 9    2  0.2984928E-005  0.2349587E+03  0.7546771E-02  0.1151269E+00
          2   -1    0    0  502    0  0.00000000000E+00  0.00000000000E+00  0.11799498603E+03  0.11799498603E+03  0.00000000000E+00 0. -1.
         -1   -1    0    0    0  501 -0.00000000000E+00 -0.00000000000E+00 -0.11267676942E+04  0.11267676942E+04  0.00000000000E+00 0.  1.
         23    2    1    2    0    0  0.10093166860E+03  0.21565957703E+03 -0.91710828588E+03  0.95184749928E+03  0.90718239381E+02 0.  0.
         24    2    1    2    0    0 -0.18386326897E+02 -0.82890540579E+02 -0.18830850344E+02  0.12044466268E+03  0.83327169092E+02 0.  0.
        -13    1    4    4    0    0 -0.24035699459E+02  0.81130380266E+01  0.57481859284E+01  0.26011110625E+02  0.00000000000E+00 0.  1.
         14    1    4    4    0    0  0.56493725620E+01 -0.91003578606E+02 -0.24579036273E+02  0.94433552054E+02  0.00000000000E+00 0. -1.
        -13    1    3    3    0    0  0.27134378582E+02  0.13221524302E+03 -0.62052621250E+03  0.63503537334E+03  0.00000000000E+00 0.  1.
         13    1    3    3    0    0  0.73797290014E+02  0.83444334015E+02 -0.29658207338E+03  0.31681212594E+03  0.00000000000E+00 0. -1.
         21    1    1    2  502  501 -0.82545341699E+02 -0.13276903646E+03 -0.72833571983E+02  0.17247051831E+03  0.00000000000E+00 0. -1.
<scales pt_clust_5="13000.00000" pt_clust_6="13000.00000" pt_clust_7="13000.00000" pt_clust_8="13000.00000" pt_clust_9="216.73898"></scales>
<clustering>
<clus scale="   83.327">  5  6 -1 -1</clus>
<clus scale="   90.718">  7  8 -1 -1</clus>
<clus scale="  118.964">  1  5  2 -1</clus>
<clus scale="  216.739">  1  9  2 -1</clus>
<clus scale="  118.964">  1  5  2 -1</clus>
</clustering>
</event>
<event>
 9    2  0.2984928E-005  0.8989286E+02  0.7546771E-02  0.1308567E+00
         -1   -1    0    0    0  501 -0.00000000000E+00  0.00000000000E+00  0.14087963390E+03  0.14087963390E+03  0.00000000000E+00 0.  1.
          2   -1    0    0  502    0  0.00000000000E+00 -0.00000000000E+00 -0.15977198512E+03  0.15977198512E+03  0.00000000000E+00 0. -1.
         24    2    1    2    0    0 -0.11441980705E+02  0.24654377292E+01  0.84972478045E+02  0.11722880352E+03  0.79907903508E+02 0.  0.
         23    2    1    2    0    0  0.19922872328E+02 -0.27044846742E+02 -0.21621103136E+02  0.97166781766E+02  0.88575204210E+02 0.  0.
        -13    1    3    3    0    0  0.76985129197E+00 -0.28772668452E+02  0.77767907819E+02  0.82923498523E+02  0.00000000000E+00 0.  1.
         14    1    3    3    0    0 -0.12211831997E+02  0.31238106181E+02  0.72045702264E+01  0.34305304993E+02  0.00000000000E+00 0. -1.
        -11    1    4    4    0    0 -0.54781732526E+01  0.26899682057E+02 -0.25428808786E+02  0.37419615086E+02  0.00000000000E+00 0. -1.
         11    1    4    4    0    0  0.25401045581E+02 -0.53944528799E+02  0.38077056498E+01  0.59747166680E+02  0.00000000000E+00 0.  1.
         21    1    1    2  502  501 -0.84808916237E+01  0.24579409013E+02 -0.82243726123E+02  0.86256033741E+02  0.00000000000E+00 0. -1.
<scales pt_clust_5="13000.00000" pt_clust_6="13000.00000" pt_clust_7="13000.00000" pt_clust_8="13000.00000" pt_clust_9="26.00140"></scales>
<clustering>
<clus scale="   26.001">  2  9  1 -1</clus>
<clus scale="   79.908">  5  6 -1 -1</clus>
<clus scale="   81.366">  1  5  2 -1</clus>
<clus scale="   88.575">  7  8 -1 -1</clus>
<clus scale="   26.001">  2  5  1 -1</clus>
</clustering>
</event>
<event>
 9    2  0.2984928E-005  0.1331151E+03  0.7546771E-02  0.1225890E+00
         -1   -1    0    0    0  501 -0.00000000000E+00  0.00000000000E+00  0.54618501345E+02  0.54618501345E+02  0.00000000000E+00 0.  1.
          2   -1    0    0  502    0  0.00000000000E+00 -0.00000000000E+00 -0.63418505315E+03  0.63418505315E+03  0.00000000000E+00 0. -1.
         24    2    1    2    0    0  0.53397740888E+02 -0.87210797586E+02 -0.65906175903E+02  0.14507585329E+03  0.79033772771E+02 0.  0.
         23    2    1    2    0    0 -0.26147217658E+01  0.88295215726E+02 -0.34716233611E+03  0.36965390005E+03  0.91210944070E+02 0.  0.
        -11    1    3    3    0    0  0.50631480642E+02 -0.72123458024E+02 -0.11884766199E+02  0.88918995141E+02  0.00000000000E+00 0.  1.
         12    1    3    3    0    0  0.27662602462E+01 -0.15087339562E+02 -0.54021409704E+02  0.56156858149E+02  0.00000000000E+00 0. -1.
        -13    1    4    4    0    0 -0.40526571569E+02  0.76825490889E+02 -0.22262746989E+03  0.23897185902E+03  0.00000000000E+00 0. -1.
         13    1    4    4    0    0  0.37911849803E+02  0.11469724838E+02 -0.12453486622E+03  0.13068204103E+03  0.00000000000E+00 0.  1.
         21    1    1    2  502  501 -0.50783019122E+02 -0.10844181407E+01 -0.16649803979E+03  0.17407380115E+03  0.00000000000E+00 0. -1.
<scales pt_clust_5="13000.00000" pt_clust_6="13000.00000" pt_clust_7="13000.00000" pt_clust_8="13000.00000" pt_clust_9="50.79460"></scales>
<clustering>
<clus scale="   50.795">  2  9  1 -1</clus>
<clus scale="   79.034">  5  6 -1 -1</clus>
<clus scale="   91.211">  7  8 -1 -1</clus>
<clus scale="  125.086">  1  5  2 -1</clus>
<clus scale="   50.795">  2  5  1 -1</clus>
</clustering>
</event>
<event>
 9    2  0.2984928E-005  0.1169736E+03  0.7546771E-02  0.1251827E+00
         -1   -1    0    0    0  501 -0.00000000000E+00  0.00000000000E+00  0.16818016539E+02  0.16818016539E+02  0.00000000000E+00 0.  1.
          2   -1    0    0  502    0  0.00000000000E+00 -0.00000000000E+00 -0.11127501915E+04  0.11127501915E+04  0.00000000000E+00 0. -1.
         23    2    1    2    0    0  0.70411753888E+02 -0.34700467607E+02 -0.37846117865E+03  0.39773843129E+03  0.93813956554E+02 0.  0.
         24    2    1    2    0    0 -0.63674084949E+02 -0.38065395073E+01 -0.50398659921E+03  0.51479573890E+03  0.83326356980E+02 0.  0.
        -13    1    4    4    0    0 -0.41857898799E+02 -0.36515699443E+02 -0.17850086256E+03  0.18694394328E+03  0.00000000000E+00 0.  1.
         14    1    4    4    0    0 -0.21816186150E+02  0.32709159936E+02 -0.32548573665E+03  0.32785179561E+03  0.00000000000E+00 0. -1.
        -13    1    3    3    0    0  0.42395531388E+02  0.29896299885E+02 -0.16535264039E+03  0.17329935231E+03  0.00000000000E+00 0.  1.
         13    1    3    3    0    0  0.28016222500E+02 -0.64596767492E+02 -0.21310853826E+03  0.22443907898E+03  0.00000000000E+00 0. -1.
         21    1    1    2  502  501 -0.67376689389E+01  0.38507007114E+02 -0.21348439716E+03  0.21703403790E+03  0.00000000000E+00 0. -1.
<scales pt_clust_5="13000.00000" pt_clust_6="13000.00000" pt_clust_7="13000.00000" pt_clust_8="13000.00000" pt_clust_9="39.09202"></scales>
<clustering>
<clus scale="   39.092">  2  9  1 -1</clus>
<clus scale="   83.326">  5  6 -1 -1</clus>
<clus scale="   93.814">  7  8 -1 -1</clus>
<clus scale="  108.743">  2  5  1 -1</clus>
<clus scale="   39.092">  2  5  1 -1</clus>
</clustering>
</event>
<event>
 9    2  0.2984928E-005  0.9984412E+02  0.7546771E-02  0.1288143E+00
          2   -1    0    0  502    0  0.00000000000E+00  0.00000000000E+00  0.31056439505E+03  0.31056439505E+03  0.00000000000E+00 0. -1.
         -1   -1    0    0    0  501 -0.00000000000E+00 -0.00000000000E+00 -0.44077151089E+02  0.44077151089E+02  0.00000000000E+00 0.  1.
         23    2    1    2    0    0  0.44233456345E+02 -0.13006634594E+02  0.56767825227E+02  0.11635689940E+03  0.90501772652E+02 0.  0.
         24    2    1    2    0    0 -0.26749385853E+02  0.28767555285E+02  0.13248944177E+03  0.15754699329E+03  0.75660432429E+02 0.  0.
        -11    1    4    4    0    0 -0.44026414489E+02  0.43972526675E+02  0.97814915782E+02  0.11592957355E+03  0.00000000000E+00 0.  1.
         12    1    4    4    0    0  0.17277028636E+02 -0.15204971390E+02  0.34674525987E+02  0.41617419741E+02  0.00000000000E+00 0. -1.
        -11    1    3    3    0    0  0.33119058226E+02 -0.51506481151E+02  0.38365977592E+02  0.72261593222E+02  0.00000000000E+00 0. -1.
         11    1    3    3    0    0  0.11114398118E+02  0.38499846557E+02  0.18401847635E+02  0.44095306177E+02  0.00000000000E+00 0.  1.
         21    1    1    2  502  501 -0.17484070491E+02 -0.15760920691E+02  0.77229976967E+02  0.80737653448E+02  0.00000000000E+00 0. -1.
<scales pt_clust_5="13000.00000" pt_clust_6="13000.00000" pt_clust_7="13000.00000" pt_clust_8="13000.00000" pt_clust_9="23.53931"></scales>
<clustering>
<clus scale="   23.539">  1  9  2 -1</clus>
<clus scale="   75.660">  5  6 -1 -1</clus>
<clus scale="   86.619">  1  5  2 -1</clus>
<clus scale="   90.502">  7  8 -1 -1</clus>
<clus scale="   23.539">  1  5  2 -1</clus>
</clustering>
</event>
<event>
 9    2  0.2984928E-005  0.1017988E+03  0.7546771E-02  0.1284895E+00
          2   -1    0    0  502    0  0.00000000000E+00  0.00000000000E+00  0.17871474597E+03  0.17871474597E+03  0.00000000000E+00 0. -1.
         -1   -1    0    0    0  501 -0.00000000000E+00 -0.00000000000E+00 -0.76588448186E+02  0.76588448186E+02  0.00000000000E+00 0.  1.
         23    2    1    2    0    0 -0.46116694034E+02  0.62514091583E+01 -0.53796384712E+01  0.10275390336E+03  0.91452690287E+02 0.  0.
         24    2    1    2    0    0  0.36205208787E+02 -0.25233623447E+02  0.90055079384E+02  0.12492512738E+03  0.74490383482E+02 0.  0.
        -13    1    4    4    0    0  0.45723597995E+01 -0.35670295194E+02  0.86777850724E+01  0.36994329121E+02  0.00000000000E+00 0.  1.
         14    1    4    4    0    0  0.31632848988E+02  0.10436671747E+02  0.81377294312E+02  0.87930798255E+02  0.00000000000E+00 0. -1.
        -11    1    3    3    0    0 -0.23520156560E+02 -0.16770052188E+01 -0.48218969506E+02  0.53675684731E+02  0.00000000000E+00 0.  1.
         11    1    3    3    0    0 -0.22596537474E+02  0.79284143771E+01  0.42839331035E+02  0.49078218630E+02  0.00000000000E+00 0. -1.
         21    1    1    2  502  501  0.99114852464E+01  0.18982214289E+02  0.17450856872E+02  0.27624163420E+02  0.00000000000E+00 0.  1.
<scales pt_clust_5="13000.00000" pt_clust_6="13000.00000" pt_clust_7="13000.00000" pt_clust_8="13000.00000" pt_clust_9="21.41406"></scales>
<clustering>
<clus scale="   21.414">  1  9  2 -1</clus>
<clus scale="   74.490">  5  6 -1 -1</clus>
<clus scale="   86.880">  1  5  2 -1</clus>
<clus scale="   91.453">  7  8 -1 -1</clus>
<clus scale="   21.414">  1  5  2 -1</clus>
</clustering>
</event>
<event>
 9    2  0.2984928E-005  0.2183579E+03  0.7546771E-02  0.1136036E+00
          2   -1    0    0  502    0  0.00000000000E+00  0.00000000000E+00  0.69138411597E+03  0.69138411597E+03  0.00000000000E+00 0. -1.
         -1   -1    0    0    0  501 -0.00000000000E+00 -0.00000000000E+00 -0.92227503283E+02  0.92227503283E+02  0.00000000000E+00 0.  1.
         24    2    1    2    0    0  0.21587299637E+03 -0.26548099508E+02  0.16785177182E+03  0.28622872064E+03  0.80291413419E+02 0.  0.
         23    2    1    2    0    0 -0.16748857307E+03 -0.23705947796E+01  0.33728038414E+03  0.38775652514E+03  0.92406836516E+02 0.  0.
        -11    1    3    3    0    0  0.12239654194E+03 -0.24915346599E+02  0.47047538941E+02  0.13347343892E+03  0.00000000000E+00 0.  1.
         12    1    3    3    0    0  0.93476454425E+02 -0.16327529097E+01  0.12080423287E+03  0.15275528172E+03  0.00000000000E+00 0. -1.
        -13    1    4    4    0    0 -0.11510161007E+03 -0.39768989775E+02  0.26054552651E+03  0.28760028611E+03  0.00000000000E+00 0. -1.
         13    1    4    4    0    0 -0.52386962999E+02  0.37398394995E+02  0.76734857632E+02  0.10015623903E+03  0.00000000000E+00 0.  1.
         21    1    1    2  502  501 -0.48384423301E+02  0.28918694288E+02  0.94024456730E+02  0.10962637347E+03  0.00000000000E+00 0. -1.
<scales pt_clust_5="13000.00000" pt_clust_6="13000.00000" pt_clust_7="13000.00000" pt_clust_8="13000.00000" pt_clust_9="56.36793"></scales>
<clustering>
<clus scale="   56.368">  1  9  2 -1</clus>
<clus scale="   80.291">  5  6 -1 -1</clus>
<clus scale="   92.407">  7  8 -1 -1</clus>
<clus scale="  213.513">  2  5  1 -1</clus>
<clus scale="   56.368">  1  5  2 -1</clus>
</clustering>
</event>
<event>
 9    2  0.2984928E-005  0.2406582E+03  0.7546771E-02  0.1119960E+00
          2   -1    0    0  502    0  0.00000000000E+00  0.00000000000E+00  0.11724362606E+04  0.11724362606E+04  0.00000000000E+00 0. -1.
         -1   -1    0    0    0  501 -0.00000000000E+00 -0.00000000000E+00 -0.10135091473E+03  0.10135091473E+03  0.00000000000E+00 0.  1.
         24    2    1    2    0    0  0.11788087595E+03  0.19558423273E+03  0.11885163674E+03  0.27015617941E+03  0.81911883824E+02 0.  0.
         23    2    1    2    0    0 -0.35474095048E+02 -0.21046109444E+03  0.66408042856E+03  0.70355681899E+03  0.91853678503E+02 0.  0.
        -11    1    3    3    0    0  0.11530821540E+03  0.13422361399E+03  0.10934473918E+03  0.20801018022E+03  0.00000000000E+00 0.  1.
         12    1    3    3    0    0  0.25726605540E+01  0.61360618735E+02  0.95068975678E+01  0.62145999189E+02  0.00000000000E+00 0. -1.
        -13    1    4    4    0    0 -0.18843407270E+02 -0.45009166465E+02  0.29146392619E+03  0.29552008279E+03  0.00000000000E+00 0. -1.
         13    1    4    4    0    0 -0.16630687778E+02 -0.16545192797E+03  0.37261650237E+03  0.40803673620E+03  0.00000000000E+00 0.  1.
         21    1    1    2  502  501 -0.82406780903E+02  0.14876861706E+02  0.28815328054E+03  0.30007417690E+03  0.00000000000E+00 0. -1.
<scales pt_clust_5="13000.00000" pt_clust_6="13000.00000" pt_clust_7="13000.00000" pt_clust_8="13000.00000" pt_clust_9="83.73887"></scales>
<clustering>
<clus scale="   81.912">  5  6 -1 -1</clus>
<clus scale="   83.739">  1  9  2 -1</clus>
<clus scale="   91.854">  7  8 -1 -1</clus>
<clus scale="  237.042">  2  5  1 -1</clus>
<clus scale="   83.739">  1  5  2 -1</clus>
</clustering>
</event>
<event>
 9    2  0.2984928E-005  0.1715852E+03  0.7546771E-02  0.1177189E+00
          2   -1    0    0  502    0  0.00000000000E+00  0.00000000000E+00  0.10381762202E+04  0.10381762202E+04  0.00000000000E+00 0. -1.
         -1   -1    0    0    0  501 -0.00000000000E+00 -0.00000000000E+00 -0.23046883024E+03  0.23046883024E+03  0.00000000000E+00 0.  1.
         23    2    1    2    0    0  0.48637719214E+02 -0.14227713733E+03 -0.18226946926E+03  0.25246081667E+03  0.88915088663E+02 0.  0.
         24    2    1    2    0    0  0.43935576978E+01  0.70387859938E+02  0.78810913522E+03  0.79543332770E+03  0.81390513093E+02 0.  0.
        -13    1    4    4    0    0  0.63255779484E+01  0.22803680531E+02  0.45386905170E+02  0.51185856866E+02  0.00000000000E+00 0.  1.
         14    1    4    4    0    0 -0.19320202507E+01  0.47584179407E+02  0.74272223005E+03  0.74424747083E+03  0.00000000000E+00 0. -1.
        -13    1    3    3    0    0  0.51692140929E+02 -0.32760092584E+02 -0.40902915736E+02  0.73609439719E+02  0.00000000000E+00 0. -1.
         13    1    3    3    0    0 -0.30544217153E+01 -0.10951704475E+03 -0.14136655353E+03  0.17885137695E+03  0.00000000000E+00 0.  1.
         21    1    1    2  502  501 -0.53031276912E+02  0.71889277393E+02  0.20186772401E+03  0.22075090607E+03  0.00000000000E+00 0. -1.
<scales pt_clust_5="13000.00000" pt_clust_6="13000.00000" pt_clust_7="13000.00000" pt_clust_8="13000.00000" pt_clust_9="89.33300"></scales>
<clustering>
<clus scale="   81.391">  5  6 -1 -1</clus>
<clus scale="   88.915">  7  8 -1 -1</clus>
<clus scale="   89.333">  1  9  2 -1</clus>
<clus scale="  167.809">  1  5  2 -1</clus>
<clus scale="   89.333">  1  5  2 -1</clus>
</clustering>
</event>
<event>
 9    2  0.2984928E-005  0.1046206E+03  0.7546771E-02  0.1277836E+00
         -1   -1    0    0    0  501 -0.00000000000E+00  0.00000000000E+00  0.44895783720E+02  0.44895783720E+02  0.00000000000E+00 0.  1.
          2   -1    0    0  502    0  0.00000000000E+00 -0.00000000000E+00 -0.35639901291E+03  0.35639901291E+03  0.00000000000E+00 0. -1.
         23    2    1    2    0    0  0.55071186885E+02 -0.27116822274E+02 -0.69419330996E+02  0.13084204473E+03  0.92371204816E+02 0.  0.
         24    2    1    2    0    0 -0.29564430278E+02  0.36037915075E+02 -0.20970656599E+03  0.22828081609E+03  0.77217228079E+02 0.  0.
        -11    1    4    4    0    0 -0.38749578223E+02 -0.10893163148E+02 -0.71729852016E+02  0.82251823603E+02  0.00000000000E+00 0.  1.
         12    1    4    4    0    0  0.91851479451E+01  0.46931078223E+02 -0.13797671398E+03  0.14602899248E+03  0.00000000000E+00 0. -1.
        -13    1    3    3    0    0  0.51253259688E+02  0.15201169656E+02 -0.50289586298E+01  0.53696020453E+02  0.00000000000E+00 0.  1.
         13    1    3    3    0    0  0.38179271965E+01 -0.42317991929E+02 -0.64390372366E+02  0.77146024281E+02  0.00000000000E+00 0. -1.
         21    1    1    2  502  501 -0.25506756607E+02 -0.89210928015E+01 -0.32377332201E+02  0.42171935808E+02  0.00000000000E+00 0.  1.
<scales pt_clust_5="13000.00000" pt_clust_6="13000.00000" pt_clust_7="13000.00000" pt_clust_8="13000.00000" pt_clust_9="27.02185"></scales>
<clustering>
<clus scale="   27.022">  1  9  2 -1</clus>
<clus scale="   77.217">  5  6 -1 -1</clus>
<clus scale="   91.518">  2  5  1 -1</clus>
<clus scale="   92.371">  7  8 -1 -1</clus>
<clus scale="   91.518">  2  5  1 -1</clus>
</clustering>
</event>
<event>
 9    2  0.2984928E-005  0.1118690E+03  0.7546771E-02  0.1260412E+00
         -1   -1    0    0    0  501 -0.00000000000E+00  0.00000000000E+00  0.82495497368E+02  0.82495497368E+02  0.00000000000E+00 0.  1.
          2   -1    0    0  502    0  0.00000000000E+00 -0.00000000000E+00 -0.40686484570E+03  0.40686484570E+03  0.00000000000E+00 0. -1.
         24    2    1    2    0    0 -0.53277929713E+02 -0.41772337798E+02  0.29033538137E+02  0.10984030432E+03  0.81476868604E+02 0.  0.
         23    2    1    2    0    0  0.55992034673E+02  0.19238500933E+02 -0.23034166390E+03  0.25438329486E+03  0.90268215402E+02 0.  0.
        -13    1    3    3    0    0 -0.61446124178E+02 -0.51875381136E+02  0.42645209190E+02  0.91023597003E+02  0.00000000000E+00 0.  1.
         14    1    3    3    0    0  0.81681944654E+01  0.10103043338E+02 -0.13611671053E+02  0.18816707320E+02  0.00000000000E+00 0. -1.
        -11    1    4    4    0    0 -0.54131737936E+01 -0.25144465263E+02 -0.26560472409E+02  0.36973034478E+02  0.00000000000E+00 0.  1.
         11    1    4    4    0    0  0.61405208466E+02  0.44382966196E+02 -0.20378119149E+03  0.21741026038E+03  0.00000000000E+00 0. -1.
         21    1    1    2  502  501 -0.27141049598E+01  0.22533836864E+02 -0.12306122258E+03  0.12513674389E+03  0.00000000000E+00 0. -1.
<scales pt_clust_5="13000.00000" pt_clust_6="13000.00000" pt_clust_7="13000.00000" pt_clust_8="13000.00000" pt_clust_9="22.69670"></scales>
<clustering>
<clus scale="   22.697">  2  9  1 -1</clus>
<clus scale="   81.477">  5  6 -1 -1</clus>
<clus scale="   90.268">  7  8 -1 -1</clus>
<clus scale="  104.904">  1  5  2 -1</clus>
<clus scale="   22.697">  2  5  1 -1</clus>
</clustering>
</event>
<event>
 9    2  0.2984928E-005  0.1981799E+03  0.7546771E-02  0.1152101E+00
          2   -1    0    0  502    0  0.00000000000E+00  0.00000000000E+00  0.16463000642E+04  0.16463000642E+04  0.00000000000E+00 0. -1.
         -1   -1    0    0    0  501 -0.00000000000E+00 -0.00000000000E+00 -0.84129714441E+02  0.84129714441E+02  0.00000000000E+00 0.  1.
         23    2    1    2    0    0 -0.16634872892E+03  0.63221958652E+02  0.58905980783E+02  0.20793384049E+03  0.89986953381E+02 0.  0.
         24    2    1    2    0    0  0.13932152592E+03 -0.88155014473E+02  0.14148178402E+04  0.14267101593E+04  0.81305372448E+02 0.  0.
        -11    1    4    4    0    0  0.25229773121E+02  0.73507169154E+01  0.96211092561E+02  0.99735394032E+02  0.00000000000E+00 0.  1.
         12    1    4    4    0    0  0.11409175280E+03 -0.95505731388E+02  0.13186067476E+04  0.13269747652E+04  0.00000000000E+00 0. -1.
        -11    1    3    3    0    0 -0.13115827277E+03  0.72028140308E+02  0.76004003783E+02  0.16783073051E+03  0.00000000000E+00 0.  1.
         11    1    3    3    0    0 -0.35190456154E+02 -0.88061816554E+01 -0.17098023000E+02  0.40103109981E+02  0.00000000000E+00 0. -1.
         21    1    1    2  502  501  0.27027203002E+02  0.24933055821E+02  0.88446528821E+02  0.95785778877E+02  0.00000000000E+00 0.  1.
<scales pt_clust_5="13000.00000" pt_clust_6="13000.00000" pt_clust_7="13000.00000" pt_clust_8="13000.00000" pt_clust_9="36.77128"></scales>
<clustering>
<clus scale="   36.771">  1  9  2 -1</clus>
<clus scale="   81.305">  5  6 -1 -1</clus>
<clus scale="   89.987">  7  8 -1 -1</clus>
<clus scale="  194.392">  1  5  2 -1</clus>
<clus scale="   36.771">  1  5  2 -1</clus>
</clustering>
</event>
<event>
 9    2  0.2984928E-005  0.9950826E+02  0.7546771E-02  0.1284764E+00
          2   -1    0    0  502    0  0.00000000000E+00  0.00000000000E+00  0.87600971725E+03  0.87600971725E+03  0.00000000000E+00 0. -1.
         -1   -1    0    0    0  501 -0.00000000000E+00 -0.00000000000E+00 -0.31604180749E+02  0.31604180749E+02  0.00000000000E+00 0.  1.
         23    2    1    2    0    0 -0.24023569541E+02 -0.33413590303E+02  0.11757687964E+03  0.15194839644E+03  0.87008003340E+02 0.  0.
         24    2    1    2    0    0  0.37890239037E+02 -0.52177987328E+02  0.54053351134E+03  0.55018050471E+03  0.79774045306E+02 0.  0.
        -11    1    4    4    0    0  0.57413812159E+02 -0.43085845683E+02  0.29113612816E+03  0.29985493334E+03  0.00000000000E+00 0.  1.
         12    1    4    4    0    0 -0.19523573122E+02 -0.90921416442E+01  0.24939738317E+03  0.25032557137E+03  0.00000000000E+00 0. -1.
        -13    1    3    3    0    0 -0.53648688697E+02 -0.14594840994E+02  0.45736434447E+02  0.71993142857E+02  0.00000000000E+00 0.  1.
         13    1    3    3    0    0  0.29625119155E+02 -0.18818749309E+02  0.71840445190E+02  0.79955253584E+02  0.00000000000E+00 0. -1.
         21    1    1    2  502  501 -0.13866669496E+02  0.85591577631E+02  0.18629514553E+03  0.20548499686E+03  0.00000000000E+00 0.  1.
<scales pt_clust_5="13000.00000" pt_clust_6="13000.00000" pt_clust_7="13000.00000" pt_clust_8="13000.00000" pt_clust_9="86.70757"></scales>
<clustering>
<clus scale="   79.774">  5  6 -1 -1</clus>
<clus scale="   86.708">  2  9  1 -1</clus>
<clus scale="   87.008">  7  8 -1 -1</clus>
<clus scale="   93.249">  1  5  2 -1</clus>
<clus scale="   93.249">  1  5  2 -1</clus>
</clustering>
</event>
<event>
 9    2  0.2984928E-005  0.1421062E+03  0.7546771E-02  0.1211248E+00
          2   -1    0    0  502    0  0.00000000000E+00  0.00000000000E+00  0.66712314428E+02  0.66712314428E+02  0.00000000000E+00 0. -1.
         -1   -1    0    0    0  501 -0.00000000000E+00 -0.00000000000E+00 -0.41100232232E+03  0.41100232232E+03  0.00000000000E+00 0.  1.
         24    2    1    2    0    0 -0.34454462725E+02 -0.11144388309E+03 -0.21396060929E+03  0.26230887013E+03  0.97056436895E+02 0.  0.
         23    2    1    2    0    0  0.33636453010E+02  0.83491497017E+02 -0.13456416656E+03  0.18712258633E+03  0.93835528173E+02 0.  0.
        -11    1    3    3    0    0 -0.49745265590E+02 -0.20644383567E+02 -0.11584988914E+03  0.12775750011E+03  0.00000000000E+00 0.  1.
         12    1    3    3    0    0  0.15290802865E+02 -0.90799499523E+02 -0.98110720153E+02  0.13455137002E+03  0.00000000000E+00 0. -1.
        -11    1    4    4    0    0  0.17811378500E+01  0.95604596313E+02 -0.10488244573E+03  0.14192863950E+03  0.00000000000E+00 0.  1.
         11    1    4    4    0    0  0.31855315160E+02 -0.12113099296E+02 -0.29681720826E+02  0.45193946826E+02  0.00000000000E+00 0. -1.
         21    1    1    2  502  501  0.81800971415E+00  0.27952386073E+02  0.42347679641E+01  0.28283180280E+02  0.00000000000E+00 0. -1.
<scales pt_clust_5="13000.00000" pt_clust_6="13000.00000" pt_clust_7="13000.00000" pt_clust_8="13000.00000" pt_clust_9="27.96435"></scales>
<clustering>
<clus scale="   27.964">  1  9  2 -1</clus>
<clus scale="   93.836">  7  8 -1 -1</clus>
<clus scale="   97.056">  5  6 -1 -1</clus>
<clus scale="  139.926">  1  7  2 -1</clus>
<clus scale="   27.964">  1  5  2 -1</clus>
</clustering>
</event>
<event>
 9    2  0.2984928E-005  0.1069824E+03  0.7546771E-02  0.1270906E+00
          2   -1    0    0  502    0  0.00000000000E+00  0.00000000000E+00  0.75321868785E+03  0.75321868785E+03  0.00000000000E+00 0. -1.
         -1   -1    0    0    0  501 -0.00000000000E+00 -0.00000000000E+00 -0.39272267639E+02  0.39272267639E+02  0.00000000000E+00 0.  1.
         23    2    1    2    0    0 -0.42247831791E+02  0.29864333959E+02  0.70577402145E+02  0.12633194748E+03  0.91114398018E+02 0.  0.
         24    2    1    2    0    0  0.39546883530E+02 -0.77911622748E+02  0.52826014843E+03  0.54139567626E+03  0.80101915666E+02 0.  0.
        -13    1    4    4    0    0  0.38329861817E+02 -0.20500846045E+02  0.96556944352E+02  0.10589006799E+03  0.00000000000E+00 0.  1.
         14    1    4    4    0    0  0.12170217130E+01 -0.57410776703E+02  0.43170320408E+03  0.43550560827E+03  0.00000000000E+00 0. -1.
        -11    1    3    3    0    0  0.25150515486E+02  0.26106054539E+02  0.16451207843E+02  0.39808501006E+02  0.00000000000E+00 0. -1.
         11    1    3    3    0    0 -0.67398347278E+02  0.37582794204E+01  0.54126194302E+02  0.86523446473E+02  0.00000000000E+00 0.  1.
         21    1    1    2  502  501  0.27009482611E+01  0.48047288789E+02  0.11510886963E+03  0.12476333175E+03  0.00000000000E+00 0.  1.
<scales pt_clust_5="13000.00000" pt_clust_6="13000.00000" pt_clust_7="13000.00000" pt_clust_8="13000.00000" pt_clust_9="48.12314"></scales>
<clustering>
<clus scale="   48.123">  1  9  2 -1</clus>
<clus scale="   80.102">  5  6 -1 -1</clus>
<clus scale="   91.114">  7  8 -1 -1</clus>
<clus scale="   97.774">  1  5  2 -1</clus>
<clus scale="   48.123">  1  5  2 -1</clus>
</clustering>
</event>
<event>
 9    2  0.2984928E-005  0.8176858E+02  0.7546771E-02  0.1325381E+00
          2   -1    0    0  502    0  0.00000000000E+00  0.00000000000E+00  0.13537098211E+03  0.13537098211E+03  0.00000000000E+00 0. -1.
         -1   -1    0    0    0  501 -0.00000000000E+00 -0.00000000000E+00 -0.43347170790E+03  0.43347170790E+03  0.00000000000E+00 0.  1.
         23    2    1    2    0    0 -0.81500987236E+01  0.17439887542E+02 -0.35125472736E+03  0.36043224165E+03  0.78491678168E+02 0.  0.
         24    2    1    2    0    0 -0.53917297342E+01  0.18335670477E+01 -0.55117403381E+02  0.97606367665E+02  0.80353233511E+02 0.  0.
        -13    1    4    4    0    0 -0.25527471139E+02  0.14993735660E+02 -0.65136168094E+02  0.71548475076E+02  0.00000000000E+00 0.  1.
         14    1    4    4    0    0  0.20135741404E+02 -0.13160168612E+02  0.10018764713E+02  0.26057892589E+02  0.00000000000E+00 0. -1.
        -13    1    3    3    0    0  0.10804235817E+02 -0.28327822902E+02 -0.16128963248E+03  0.16411441925E+03  0.00000000000E+00 0. -1.
         13    1    3    3    0    0 -0.18954334541E+02  0.45767710444E+02 -0.18996509488E+03  0.19631782240E+03  0.00000000000E+00 0.  1.
         21    1    1    2  502  501  0.13541828458E+02 -0.19273454590E+02  0.10827140495E+03  0.11080408070E+03  0.00000000000E+00 0. -1.
<scales pt_clust_5="13000.00000" pt_clust_6="13000.00000" pt_clust_7="13000.00000" pt_clust_8="13000.00000" pt_clust_9="23.55519"></scales>
<clustering>
<clus scale="   23.555">  1  9  2 -1</clus>
<clus scale="   78.492">  7  8 -1 -1</clus>
<clus scale="   79.940">  2  7  1 -1</clus>
<clus scale="   80.353">  5  6 -1 -1</clus>
<clus scale="   23.555">  1  5  2 -1</clus>
</clustering>
</event>
<event>
 9    2  0.2984928E-005  0.1368745E+03  0.7546771E-02  0.1220403E+00
          4   -1    0    0  502    0  0.00000000000E+00  0.00000000000E+00  0.27326796060E+03  0.27326796060E+03  0.00000000000E+00 0. -1.
         -3   -1    0    0    0  501 -0.00000000000E+00 -0.00000000000E+00 -0.19432133144E+03  0.19432133144E+03  0.00000000000E+00 0.  1.
         24    2    1    2    0    0 -0.66764496687E+01  0.94851131158E+02 -0.10573757999E+03  0.16242430312E+03  0.78485070938E+02 0.  0.
         23    2    1    2    0    0  0.26305463284E+01 -0.15449830441E+03  0.16079398770E+03  0.24078411215E+03  0.90805486329E+02 0.  0.
        -13    1    3    3    0    0  0.24705433300E+02  0.87609619436E+02 -0.80310292083E+02  0.12139006082E+03  0.00000000000E+00 0.  1.
         14    1    3    3    0    0 -0.31381882968E+02  0.72415117218E+01 -0.25427287911E+02  0.41034242300E+02  0.00000000000E+00 0. -1.
        -13    1    4    4    0    0 -0.24234961673E+02 -0.40289029284E+02  0.72918427345E+01  0.47578463808E+02  0.00000000000E+00 0.  1.
         13    1    4    4    0    0  0.26865508001E+02 -0.11420927513E+03  0.15350214496E+03  0.19320564835E+03  0.00000000000E+00 0. -1.
         21    1    1    2  502  501  0.40459033402E+01  0.59647173251E+02  0.23890221453E+02  0.64380876756E+02  0.00000000000E+00 0.  1.
<scales pt_clust_5="13000.00000" pt_clust_6="13000.00000" pt_clust_7="13000.00000" pt_clust_8="13000.00000" pt_clust_9="59.78423"></scales>
<clustering>
<clus scale="   59.784">  1  9  2 -1</clus>
<clus scale="   78.485">  5  6 -1 -1</clus>
<clus scale="   90.805">  7  8 -1 -1</clus>
<clus scale="  129.031">  2  5  1 -1</clus>
<clus scale="   59.784">  1  5  2 -1</clus>
</clustering>
</event>
<event>
 9    2  0.2984928E-005  0.1074319E+03  0.7546771E-02  0.1270186E+00
          2   -1    0    0  502    0  0.00000000000E+00  0.00000000000E+00  0.22640317511E+03  0.22640317511E+03  0.00000000000E+00 0. -1.
         -1   -1    0    0    0  501 -0.00000000000E+00 -0.00000000000E+00 -0.20557526179E+03  0.20557526179E+03  0.00000000000E+00 0.  1.
         24    2    1    2    0    0  0.18532697045E+02  0.52260250668E+02 -0.16870698091E+03  0.19492616717E+03  0.80371453755E+02 0.  0.
         23    2    1    2    0    0 -0.39706896418E+02 -0.52401181858E+02  0.18279464458E+03  0.21483071383E+03  0.91737844087E+02 0.  0.
        -13    1    3    3    0    0  0.22862449671E+02  0.37612039293E+02 -0.17343764450E+03  0.17893566898E+03  0.00000000000E+00 0.  1.
         14    1    3    3    0    0 -0.43297526263E+01  0.14648211375E+02  0.47306635860E+01  0.15990498187E+02  0.00000000000E+00 0. -1.
        -11    1    4    4    0    0  0.14896915951E+02 -0.43156148678E+02  0.36652946145E+02  0.58547499816E+02  0.00000000000E+00 0.  1.
         11    1    4    4    0    0 -0.54603812369E+02 -0.92450331796E+01  0.14614169843E+03  0.15628321402E+03  0.00000000000E+00 0. -1.
         21    1    1    2  502  501  0.21174199373E+02  0.14093119008E+00  0.67402496612E+01  0.22221555890E+02  0.00000000000E+00 0.  1.
<scales pt_clust_5="13000.00000" pt_clust_6="13000.00000" pt_clust_7="13000.00000" pt_clust_8="13000.00000" pt_clust_9="21.17467"></scales>
<clustering>
<clus scale="   21.175">  1  9  2 -1</clus>
<clus scale="   80.371">  5  6 -1 -1</clus>
<clus scale="   91.738">  7  8 -1 -1</clus>
<clus scale="   97.905">  2  5  1 -1</clus>
<clus scale="   21.175">  1  5  2 -1</clus>
</clustering>
</event>
<event>
 9    2  0.2984928E-005  0.1191308E+03  0.7546771E-02  0.1248860E+00
         -3   -1    0    0    0  501 -0.00000000000E+00  0.00000000000E+00  0.46318278440E+03  0.46318278440E+03  0.00000000000E+00 0.  1.
          4   -1    0    0  502    0  0.00000000000E+00 -0.00000000000E+00 -0.72222369653E+02  0.72222369653E+02  0.00000000000E+00 0. -1.
         23    2    1    2    0    0 -0.42594902416E+02  0.52889187294E+02  0.32224835214E+03  0.34211635451E+03  0.92671504351E+02 0.  0.
         24    2    1    2    0    0  0.76788888095E+02 -0.64323934668E+02  0.85157092481E+02  0.15366026045E+03  0.79533913108E+02 0.  0.
        -13    1    4    4    0    0 -0.92215461971E+01 -0.36163767644E+02  0.27376353746E+02  0.46285200107E+02  0.00000000000E+00 0.  1.
         14    1    4    4    0    0  0.86010434292E+02 -0.28160167024E+02  0.57780738735E+02  0.10737506034E+03  0.00000000000E+00 0. -1.
        -11    1    3    3    0    0 -0.56939151003E+02 -0.25939306167E+01  0.17791742096E+03  0.18682452749E+03  0.00000000000E+00 0.  1.
         11    1    3    3    0    0  0.14344248588E+02  0.55483117911E+02  0.14433093118E+03  0.15529182701E+03  0.00000000000E+00 0. -1.
         21    1    1    2  502  501 -0.34193985680E+02  0.11434747374E+02 -0.16445029871E+02  0.39628539106E+02  0.00000000000E+00 0.  1.
<scales pt_clust_5="13000.00000" pt_clust_6="13000.00000" pt_clust_7="13000.00000" pt_clust_8="13000.00000" pt_clust_9="36.05526"></scales>
<clustering>
<clus scale="   36.055">  2  9  1 -1</clus>
<clus scale="   79.534">  5  6 -1 -1</clus>
<clus scale="   92.672">  7  8 -1 -1</clus>
<clus scale="  109.224">  2  5  1 -1</clus>
<clus scale="   36.055">  2  5  1 -1</clus>
</clustering>
</event>
<event>
 9    2  0.2984928E-005  0.3389709E+03  0.7546771E-02  0.1067235E+00
         -1   -1    0    0    0  501 -0.00000000000E+00  0.00000000000E+00  0.12316921581E+03  0.12316921581E+03  0.00000000000E+00 0.  1.
          2   -1    0    0  502    0  0.00000000000E+00 -0.00000000000E+00 -0.79856292895E+03  0.79856292895E+03  0.00000000000E+00 0. -1.
         24    2    1    2    0    0 -0.58601286066E+02  0.18654772919E+03 -0.99417022801E+02  0.23336695047E+03  0.79638076021E+02 0.  0.
         23    2    1    2    0    0  0.24015210753E+02  0.65949248976E+02 -0.13407396827E+03  0.17823880177E+03  0.94165852082E+02 0.  0.
        -11    1    3    3    0    0 -0.68032454369E+02  0.18489066995E+03 -0.81802948711E+02  0.21331829996E+03  0.00000000000E+00 0.  1.
         12    1    3    3    0    0  0.94311683027E+01  0.16570592405E+01 -0.17614074089E+02  0.20048650501E+02  0.00000000000E+00 0. -1.
        -11    1    4    4    0    0 -0.11155908773E+02 -0.18816321710E+02 -0.46493348753E+02  0.51382290155E+02  0.00000000000E+00 0.  1.
         11    1    4    4    0    0  0.35171119527E+02  0.84765570687E+02 -0.87580619521E+02  0.12685651161E+03  0.00000000000E+00 0. -1.
         21    1    1    2  502  501  0.34586075313E+02 -0.25249697817E+03 -0.44190272206E+03  0.51012639253E+03  0.00000000000E+00 0. -1.
<scales pt_clust_5="13000.00000" pt_clust_6="13000.00000" pt_clust_7="13000.00000" pt_clust_8="13000.00000" pt_clust_9="254.85470"></scales>
<clustering>
<clus scale="   79.638">  5  6 -1 -1</clus>
<clus scale="   94.166">  7  8 -1 -1</clus>
<clus scale="  112.461">  5  7 -1 -1</clus>
<clus scale="  254.855">  2  9  1 -1</clus>
<clus scale="  254.855">  2  5  1 -1</clus>
</clustering>
</event>
<event>
 9    2  0.2984928E-005  0.9254141E+02  0.7546771E-02  0.1302590E+00
          2   -1    0    0  502    0  0.00000000000E+00  0.00000000000E+00  0.66225629200E+03  0.66225629200E+03  0.00000000000E+00 0. -1.
         -1   -1    0    0    0  501 -0.00000000000E+00 -0.00000000000E+00 -0.15869490527E+03  0.15869490527E+03  0.00000000000E+00 0.  1.
         23    2    1    2    0    0 -0.17710044344E+02 -0.38227652456E+01 -0.13405580543E+03  0.16275566257E+03  0.90499654843E+02 0.  0.
         24    2    1    2    0    0  0.55614049848E+02  0.38127657754E+02  0.50916221398E+03  0.51994134598E+03  0.80908604489E+02 0.  0.
        -11    1    4    4    0    0  0.94960171364E+01  0.53087828844E+02  0.20679312400E+03  0.21370982207E+03  0.00000000000E+00 0.  1.
         12    1    4    4    0    0  0.46118032712E+02 -0.14960171089E+02  0.30236908998E+03  0.30623152391E+03  0.00000000000E+00 0. -1.
        -11    1    3    3    0    0  0.17618443878E+02 -0.33559838692E+02 -0.94978783580E+02  0.10226261129E+03  0.00000000000E+00 0.  1.
         11    1    3    3    0    0 -0.35328488221E+02  0.29737073446E+02 -0.39077021846E+02  0.60493051283E+02  0.00000000000E+00 0. -1.
         21    1    1    2  502  501 -0.37904005504E+02 -0.34304892509E+02  0.12845497817E+03  0.13825418872E+03  0.00000000000E+00 0. -1.
<scales pt_clust_5="13000.00000" pt_clust_6="13000.00000" pt_clust_7="13000.00000" pt_clust_8="13000.00000" pt_clust_9="51.12279"></scales>
<clustering>
<clus scale="   51.123">  1  9  2 -1</clus>
<clus scale="   80.909">  5  6 -1 -1</clus>
<clus scale="   83.186">  1  5  2 -1</clus>
<clus scale="   90.500">  7  8 -1 -1</clus>
<clus scale="   51.123">  1  5  2 -1</clus>
</clustering>
</event>
<event>
 9    2  0.2984928E-005  0.9752189E+02  0.7546771E-02  0.1293503E+00
         -1   -1    0    0    0  501 -0.00000000000E+00  0.00000000000E+00  0.65092068830E+02  0.65092068830E+02  0.00000000000E+00 0.  1.
          2   -1    0    0  502    0  0.00000000000E+00 -0.00000000000E+00 -0.45093890156E+03  0.45093890156E+03  0.00000000000E+00 0. -1.
         24    2    1    2    0    0 -0.34978583424E+01 -0.15217355961E+02  0.82588948590E+01  0.82801166716E+02  0.80895123028E+02 0.  0.
         23    2    1    2    0    0 -0.38726016599E+01  0.72744690852E+02 -0.23063237730E+03  0.25977302463E+03  0.94783668304E+02 0.  0.
        -13    1    3    3    0    0 -0.34318562537E+02 -0.30472444616E+02 -0.45140520172E+01  0.46116269158E+02  0.00000000000E+00 0.  1.
         14    1    3    3    0    0  0.30820704194E+02  0.15255088655E+02  0.12772946876E+02  0.36684897558E+02  0.00000000000E+00 0. -1.
        -13    1    4    4    0    0  0.95349031616E+01 -0.21126889015E+02 -0.63734901694E+02  0.67818858084E+02  0.00000000000E+00 0.  1.
         13    1    4    4    0    0 -0.13407504821E+02  0.93871579867E+02 -0.16689747560E+03  0.19195416655E+03  0.00000000000E+00 0. -1.
         21    1    1    2  502  501  0.73704600023E+01 -0.57527334891E+02 -0.16347335029E+03  0.17345677904E+03  0.00000000000E+00 0.  1.
<scales pt_clust_5="13000.00000" pt_clust_6="13000.00000" pt_clust_7="13000.00000" pt_clust_8="13000.00000" pt_clust_9="57.99757"></scales>
<clustering>
<clus scale="   57.998">  2  9  1 -1</clus>
<clus scale="   80.895">  5  6 -1 -1</clus>
<clus scale="   84.087">  1  5  2 -1</clus>
<clus scale="   94.784">  7  8 -1 -1</clus>
<clus scale="   57.998">  2  5  1 -1</clus>
</clustering>
</event>
<event>
 9    2  0.2984928E-005  0.1093212E+03  0.7546771E-02  0.1262029E+00
         -1   -1    0    0    0  501 -0.00000000000E+00  0.00000000000E+00  0.79417595862E+02  0.79417595862E+02  0.00000000000E+00 0.  1.
          2   -1    0    0  502    0  0.00000000000E+00 -0.00000000000E+00 -0.60376756492E+03  0.60376756492E+03  0.00000000000E+00 0. -1.
         23    2    1    2    0    0 -0.61149953052E+02  0.29224464237E+02 -0.20295038528E+02  0.11645001514E+03  0.92495034295E+02 0.  0.
         24    2    1    2    0    0  0.51206071231E+02  0.79221853404E+02 -0.13850050367E+03  0.18530425597E+03  0.79101921450E+02 0.  0.
        -11    1    4    4    0    0  0.72507257605E+02  0.63862028022E+02 -0.11334225550E+03  0.14893665738E+03  0.00000000000E+00 0.  1.
         12    1    4    4    0    0 -0.21301186374E+02  0.15359825382E+02 -0.25158248163E+02  0.36367598592E+02  0.00000000000E+00 0. -1.
        -11    1    3    3    0    0 -0.50561694866E+02 -0.16843797886E+02  0.17323614863E+02  0.56038434550E+02  0.00000000000E+00 0. -1.
         11    1    3    3    0    0 -0.10588258186E+02  0.46068262123E+02 -0.37618653392E+02  0.60411580591E+02  0.00000000000E+00 0.  1.
         21    1    1    2  502  501  0.99438818206E+01 -0.10844631764E+03 -0.36555442686E+03  0.38143088966E+03  0.00000000000E+00 0. -1.
<scales pt_clust_5="13000.00000" pt_clust_6="13000.00000" pt_clust_7="13000.00000" pt_clust_8="13000.00000" pt_clust_9="108.90126"></scales>
<clustering>
<clus scale="   79.102">  5  6 -1 -1</clus>
<clus scale="   92.495">  7  8 -1 -1</clus>
<clus scale="  108.901">  2  9  1 -1</clus>
<clus scale="  108.901">  2  5  1 -1</clus>
<clus scale="  108.901">  2  5  1 -1</clus>
</clustering>
</event>
<event>
 9    2  0.2984928E-005  0.1042826E+03  0.7546771E-02  0.1277742E+00
          2   -1    0    0  502    0  0.00000000000E+00  0.00000000000E+00  0.68598120432E+03  0.68598120432E+03  0.00000000000E+00 0. -1.
         -1   -1    0    0    0  501 -0.00000000000E+00 -0.00000000000E+00 -0.76995462263E+02  0.76995462263E+02  0.00000000000E+00 0.  1.
         24    2    1    2    0    0  0.11505149649E+01 -0.50372845300E+02 -0.39852199726E+02  0.10036970408E+03  0.77117653264E+02 0.  0.
         23    2    1    2    0    0 -0.15229130737E+02  0.65142967892E+02  0.51406094073E+03  0.52629407260E+03  0.90836487022E+02 0.  0.
        -13    1    3    3    0    0 -0.25828915542E+02 -0.43094646434E+02  0.17281344394E+01  0.50271939270E+02  0.00000000000E+00 0.  1.
         14    1    3    3    0    0  0.26979430507E+02 -0.72781988656E+01 -0.41580334166E+02  0.50097764806E+02  0.00000000000E+00 0. -1.
        -11    1    4    4    0    0  0.35592455488E+02  0.40743396710E+02  0.19867534570E+03  0.20590954385E+03  0.00000000000E+00 0.  1.
         11    1    4    4    0    0 -0.50821586225E+02  0.24399571182E+02  0.31538559504E+03  0.32038452874E+03  0.00000000000E+00 0. -1.
         21    1    1    2  502  501  0.14078615772E+02 -0.14770122593E+02  0.13477700105E+03  0.13631288991E+03  0.00000000000E+00 0.  1.
<scales pt_clust_5="13000.00000" pt_clust_6="13000.00000" pt_clust_7="13000.00000" pt_clust_8="13000.00000" pt_clust_9="20.40500"></scales>
<clustering>
<clus scale="   20.405">  1  9  2 -1</clus>
<clus scale="   77.118">  5  6 -1 -1</clus>
<clus scale="   90.836">  7  8 -1 -1</clus>
<clus scale="   92.578">  2  5  1 -1</clus>
<clus scale="   20.405">  1  5  2 -1</clus>
</clustering>
</event>
<event>
 9    2  0.2984928E-005  0.1246483E+03  0.7546771E-02  0.1238783E+00
         -1   -1    0    0    0  501 -0.00000000000E+00  0.00000000000E+00  0.34054471292E+03  0.34054471292E+03  0.00000000000E+00 0.  1.
          2   -1    0    0  502    0  0.00000000000E+00 -0.00000000000E+00 -0.56866800205E+02  0.56866800205E+02  0.00000000000E+00 0. -1.
         23    2    1    2    0    0 -0.86163500364E+02  0.23228911987E+02  0.20775155660E+03  0.24440793715E+03  0.92794392735E+02 0.  0.
         24    2    1    2    0    0  0.73414659968E+02 -0.46208000738E+01  0.60793559323E+02  0.12584116999E+03  0.82030964382E+02 0.  0.
        -11    1    4    4    0    0  0.21217230756E+02  0.20696083536E+02  0.61009001122E+02  0.67827700629E+02  0.00000000000E+00 0.  1.
         12    1    4    4    0    0  0.52197429212E+02 -0.25316883609E+02 -0.21544179912E+00  0.58013469360E+02  0.00000000000E+00 0. -1.
        -11    1    3    3    0    0 -0.31617882198E+02  0.50204452685E+02  0.58918565592E+02  0.83615637984E+02  0.00000000000E+00 0. -1.
         11    1    3    3    0    0 -0.54545618165E+02 -0.26975540699E+02  0.14883299101E+03  0.16079229917E+03  0.00000000000E+00 0.  1.
         21    1    1    2  502  501  0.12748840396E+02 -0.18608111913E+02  0.15132796786E+02  0.27162405986E+02  0.00000000000E+00 0.  1.
<scales pt_clust_5="13000.00000" pt_clust_6="13000.00000" pt_clust_7="13000.00000" pt_clust_8="13000.00000" pt_clust_9="22.55648"></scales>
<clustering>
<clus scale="   22.556">  2  9  1 -1</clus>
<clus scale="   82.031">  5  6 -1 -1</clus>
<clus scale="   92.794">  7  8 -1 -1</clus>
<clus scale="  116.857">  2  5  1 -1</clus>
<clus scale="   22.556">  2  5  1 -1</clus>
</clustering>
</event>
<event>
 9    2  0.2984928E-005  0.9392066E+02  0.7546771E-02  0.1299072E+00
         -1   -1    0    0    0  501 -0.00000000000E+00  0.00000000000E+00  0.11086512156E+03  0.11086512156E+03  0.00000000000E+00 0.  1.
          2   -1    0    0  502    0  0.00000000000E+00 -0.00000000000E+00 -0.26988004577E+03  0.26988004577E+03  0.00000000000E+00 0. -1.
         23    2    1    2    0    0  0.17240790383E+02 -0.11155709004E+02  0.64421834951E+02  0.11310621742E+03  0.90670551475E+02 0.  0.
         24    2    1    2    0    0 -0.18437652395E+02  0.45079231053E+02 -0.92689719943E+02  0.13255739642E+03  0.81289575380E+02 0.  0.
        -11    1    4    4    0    0  0.18944555177E+02  0.29253164960E+02 -0.40776273677E+01  0.35089469589E+02  0.00000000000E+00 0.  1.
         12    1    4    4    0    0 -0.37382207573E+02  0.15826066093E+02 -0.88612092575E+02  0.97467926835E+02  0.00000000000E+00 0. -1.
        -13    1    3    3    0    0 -0.26590338325E+02  0.24716485658E+02  0.23906590538E+02  0.43468101254E+02  0.00000000000E+00 0. -1.
         13    1    3    3    0    0  0.43831128708E+02 -0.35872194662E+02  0.40515244413E+02  0.69638116169E+02  0.00000000000E+00 0.  1.
         21    1    1    2  502  501  0.11968620119E+01 -0.33923522049E+02 -0.13074703922E+03  0.13508155348E+03  0.00000000000E+00 0. -1.
<scales pt_clust_5="13000.00000" pt_clust_6="13000.00000" pt_clust_7="13000.00000" pt_clust_8="13000.00000" pt_clust_9="33.94463"></scales>
<clustering>
<clus scale="   33.945">  2  9  1 -1</clus>
<clus scale="   81.290">  5  6 -1 -1</clus>
<clus scale="   84.900">  2  5  1 -1</clus>
<clus scale="   90.671">  7  8 -1 -1</clus>
<clus scale="   33.945">  2  5  1 -1</clus>
</clustering>
</event>
<event>
 9    2  0.4142400E-005  0.9776003E+02  0.7546771E-02  0.1290642E+00
         -3   -1    0    0    0  501 -0.00000000000E+00  0.00000000000E+00  0.20740425663E+03  0.20740425663E+03  0.00000000000E+00 0.  1.
          4   -1    0    0  502    0  0.00000000000E+00 -0.00000000000E+00 -0.31582720111E+03  0.31582720111E+03  0.00000000000E+00 0. -1.
         24    2    1    2    0    0 -0.22832037852E+02  0.29879136988E+02  0.17868801921E+03  0.19919022645E+03  0.79581865554E+02 0.  0.
         23    2    1    2    0    0  0.86946752548E+00 -0.49089337647E+02 -0.27290232923E+03  0.29158708520E+03  0.90204367494E+02 0.  0.
        -11    1    3    3    0    0 -0.22100270646E+02  0.46438289972E+02  0.17474023032E+03  0.18215126909E+03  0.00000000000E+00 0.  1.
         12    1    3    3    0    0 -0.73176720580E+00 -0.16559152984E+02  0.39477888845E+01  0.17038957358E+02  0.00000000000E+00 0. -1.
        -11    1    4    4    0    0  0.42927937421E+02 -0.94499766832E+01 -0.98629829936E+02  0.10798126330E+03  0.00000000000E+00 0.  1.
         11    1    4    4    0    0 -0.42058469896E+02 -0.39639360964E+02 -0.17427249929E+03  0.18360582190E+03  0.00000000000E+00 0. -1.
         21    1    1    2  502  501  0.21962570327E+02  0.19210200659E+02 -0.14208634462E+02  0.32454146083E+02  0.00000000000E+00 0.  1.
<scales pt_clust_5="13000.00000" pt_clust_6="13000.00000" pt_clust_7="13000.00000" pt_clust_8="13000.00000" pt_clust_9="29.17852"></scales>
<clustering>
<clus scale="   29.179">  2  9  1 -1</clus>
<clus scale="   79.582">  5  6 -1 -1</clus>
<clus scale="   88.054">  1  5  2 -1</clus>
<clus scale="   90.204">  7  8 -1 -1</clus>
<clus scale="   29.179">  2  5  1 -1</clus>
</clustering>
</event>
<event>
 9    2  0.2984928E-005  0.1678752E+03  0.7546771E-02  0.1187477E+00
         -1   -1    0    0    0  501 -0.00000000000E+00  0.00000000000E+00  0.28059872730E+03  0.28059872730E+03  0.00000000000E+00 0.  1.
          2   -1    0    0  502    0  0.00000000000E+00 -0.00000000000E+00 -0.10245538749E+03  0.10245538749E+03  0.00000000000E+00 0. -1.
         23    2    1    2    0    0 -0.84987144101E+02 -0.10245831172E+03  0.10942045265E+03  0.20929090358E+03  0.11878268627E+03 0.  0.
         24    2    1    2    0    0  0.65164729009E+02  0.88127107772E+02  0.54617901361E+02  0.14552737988E+03  0.78627438691E+02 0.  0.
        -11    1    4    4    0    0  0.33808194264E+02 -0.66854989519E+01  0.83146324346E+01  0.35451699651E+02  0.00000000000E+00 0.  1.
         12    1    4    4    0    0  0.31356534745E+02  0.94812606724E+02  0.46303268927E+02  0.11007568023E+03  0.00000000000E+00 0. -1.
        -13    1    3    3    0    0 -0.11519829474E+03 -0.79539719328E+02  0.79511289393E+02  0.16099459370E+03  0.00000000000E+00 0.  1.
         13    1    3    3    0    0  0.30211150637E+02 -0.22918592397E+02  0.29909163262E+02  0.48296309872E+02  0.00000000000E+00 0. -1.
         21    1    1    2  502  501  0.19822415092E+02  0.14331203952E+02  0.14104985799E+02  0.28235831335E+02  0.00000000000E+00 0. -1.
<scales pt_clust_5="13000.00000" pt_clust_6="13000.00000" pt_clust_7="13000.00000" pt_clust_8="13000.00000" pt_clust_9="24.46041"></scales>
<clustering>
<clus scale="   24.460">  1  9  2 -1</clus>
<clus scale="   78.627">  5  6 -1 -1</clus>
<clus scale="  118.783">  7  8 -1 -1</clus>
<clus scale="  142.320">  2  5  1 -1</clus>
<clus scale="  142.320">  2  5  1 -1</clus>
</clustering>
</event>
<event>
 9    2  0.2984928E-005  0.1318907E+03  0.7546771E-02  0.1228290E+00
         -1   -1    0    0    0  501 -0.00000000000E+00  0.00000000000E+00  0.10727743654E+03  0.10727743654E+03  0.00000000000E+00 0.  1.
          2   -1    0    0  502    0  0.00000000000E+00 -0.00000000000E+00 -0.28418604579E+03  0.28418604579E+03  0.00000000000E+00 0. -1.
         23    2    1    2    0    0  0.64068061071E+02  0.12926586043E+02 -0.48334892779E+02  0.12247857258E+03  0.91612912878E+02 0.  0.
         24    2    1    2    0    0 -0.12975417388E+03 -0.51100424198E+02 -0.76125567743E+02  0.17666635452E+03  0.77256066183E+02 0.  0.
        -13    1    4    4    0    0 -0.10898644280E+03 -0.71860448014E+01 -0.40767311198E+02  0.11658326473E+03  0.00000000000E+00 0.  1.
         14    1    4    4    0    0 -0.20767731080E+02 -0.43914379396E+02 -0.35358256544E+02  0.60083089782E+02  0.00000000000E+00 0. -1.
        -11    1    3    3    0    0  0.38367492094E+02  0.22622088888E+02 -0.73030348169E+02  0.85540955740E+02  0.00000000000E+00 0. -1.
         11    1    3    3    0    0  0.25700568977E+02 -0.96955028445E+01  0.24695455390E+02  0.36937616843E+02  0.00000000000E+00 0.  1.
         21    1    1    2  502  501  0.65686112807E+02  0.38173838154E+02 -0.52448148722E+02  0.92318555229E+02  0.00000000000E+00 0.  1.
<scales pt_clust_5="13000.00000" pt_clust_6="13000.00000" pt_clust_7="13000.00000" pt_clust_8="13000.00000" pt_clust_9="75.97307"></scales>
<clustering>
<clus scale="   75.973">  2  9  1 -1</clus>
<clus scale="   77.256">  5  6 -1 -1</clus>
<clus scale="   91.613">  7  8 -1 -1</clus>
<clus scale="  122.355">  2  5  1 -1</clus>
<clus scale="   75.973">  2  5  1 -1</clus>
</clustering>
</event>
<event>
 9    2  0.2984928E-005  0.1761770E+03  0.7546771E-02  0.1172611E+00
          2   -1    0    0  502    0  0.00000000000E+00  0.00000000000E+00  0.25055345878E+03  0.25055345878E+03  0.00000000000E+00 0. -1.
         -1   -1    0    0    0  501 -0.00000000000E+00 -0.00000000000E+00 -0.38752033389E+03  0.38752033389E+03  0.00000000000E+00 0.  1.
         23    2    1    2    0    0  0.39531172600E+02 -0.15791191300E+03 -0.25021624185E+03  0.31131934452E+03  0.88389369911E+02 0.  0.
         24    2    1    2    0    0 -0.57254030788E+02  0.12147968327E+03 -0.45701006179E+02  0.16272204855E+03  0.79715403968E+02 0.  0.
        -13    1    4    4    0    0 -0.43663979387E+02  0.74002127872E+02 -0.66982631167E+02  0.10894737676E+03  0.00000000000E+00 0.  1.
         14    1    4    4    0    0 -0.13590051402E+02  0.47477555402E+02  0.21281624988E+02  0.53774671790E+02  0.00000000000E+00 0. -1.
        -11    1    3    3    0    0 -0.20161739839E+02 -0.68867375079E+01 -0.17650702312E+02  0.27667132106E+02  0.00000000000E+00 0. -1.
         11    1    3    3    0    0  0.59692912440E+02 -0.15102517549E+03 -0.23256553954E+03  0.28365221241E+03  0.00000000000E+00 0.  1.
         21    1    1    2  502  501  0.17722858188E+02  0.36432229727E+02  0.15895037292E+03  0.16403239960E+03  0.00000000000E+00 0. -1.
<scales pt_clust_5="13000.00000" pt_clust_6="13000.00000" pt_clust_7="13000.00000" pt_clust_8="13000.00000" pt_clust_9="40.51428"></scales>
<clustering>
<clus scale="   40.514">  1  9  2 -1</clus>
<clus scale="   79.715">  5  6 -1 -1</clus>
<clus scale="   88.389">  7  8 -1 -1</clus>
<clus scale="  171.989">  1  5  2 -1</clus>
<clus scale="   40.514">  1  5  2 -1</clus>
</clustering>
</event>
<event>
 9    2  0.2984928E-005  0.9552648E+02  0.7546771E-02  0.1297009E+00
         -1   -1    0    0    0  501 -0.00000000000E+00  0.00000000000E+00  0.87431172827E+02  0.87431172827E+02  0.00000000000E+00 0.  1.
          2   -1    0    0  502    0  0.00000000000E+00 -0.00000000000E+00 -0.36968950095E+03  0.36968950095E+03  0.00000000000E+00 0. -1.
         23    2    1    2    0    0  0.12437753784E+02 -0.46924443261E+01  0.43837339576E+02  0.10171577760E+03  0.90816685242E+02 0.  0.
         24    2    1    2    0    0 -0.27416650090E+02 -0.14883116396E+02 -0.31867849453E+03  0.32966418193E+03  0.78417537040E+02 0.  0.
        -13    1    4    4    0    0  0.69081800098E+01 -0.28494658869E+02 -0.46359726540E+02  0.54853375283E+02  0.00000000000E+00 0.  1.
         14    1    4    4    0    0 -0.34324830100E+02  0.13611542473E+02 -0.27231876799E+03  0.27481080665E+03  0.00000000000E+00 0. -1.
        -13    1    3    3    0    0  0.38725418690E+02 -0.33905737480E+02  0.32265178907E+02  0.60747830057E+02  0.00000000000E+00 0.  1.
         13    1    3    3    0    0 -0.26287664907E+02  0.29213293154E+02  0.11572160670E+02  0.40967947541E+02  0.00000000000E+00 0. -1.
         21    1    1    2  502  501  0.14978896306E+02  0.19575560722E+02 -0.74171731672E+01  0.25740714246E+02  0.00000000000E+00 0. -1.
<scales pt_clust_5="13000.00000" pt_clust_6="13000.00000" pt_clust_7="13000.00000" pt_clust_8="13000.00000" pt_clust_9="24.64893"></scales>
<clustering>
<clus scale="   24.649">  1  9  2 -1</clus>
<clus scale="   78.418">  5  6 -1 -1</clus>
<clus scale="   83.827">  2  5  1 -1</clus>
<clus scale="   90.817">  7  8 -1 -1</clus>
<clus scale="   83.827">  2  5  1 -1</clus>
</clustering>
</event>
<event>
 9    2  0.2984928E-005  0.1811969E+03  0.7546771E-02  0.1168038E+00
         -1   -1    0    0    0  501 -0.00000000000E+00  0.00000000000E+00  0.65509008422E+02  0.65509008422E+02  0.00000000000E+00 0.  1.
          2   -1    0    0  502    0  0.00000000000E+00 -0.00000000000E+00 -0.79597334014E+03  0.79597334014E+03  0.00000000000E+00 0. -1.
         23    2    1    2    0    0  0.11906394770E+02  0.15483355640E+03 -0.12923190242E+03  0.22161069779E+03  0.91078122233E+02 0.  0.
         24    2    1    2    0    0  0.13158344124E+02 -0.16092197106E+03 -0.42087745390E+03  0.45768156574E+03  0.79155300717E+02 0.  0.
        -11    1    4    4    0    0  0.72351755282E+01 -0.76797802554E+02 -0.10225313819E+03  0.12808573110E+03  0.00000000000E+00 0.  1.
         12    1    4    4    0    0  0.59231685958E+01 -0.84124168505E+02 -0.31862431571E+03  0.32959583464E+03  0.00000000000E+00 0. -1.
        -13    1    3    3    0    0 -0.21006356859E+02  0.10110317950E+03 -0.36552780475E+02  0.10954097724E+03  0.00000000000E+00 0.  1.
         13    1    3    3    0    0  0.32912751628E+02  0.53730376903E+02 -0.92679121941E+02  0.11206972056E+03  0.00000000000E+00 0. -1.
         21    1    1    2  502  501 -0.25064738894E+02  0.60884146560E+01 -0.18035497540E+03  0.18219008503E+03  0.00000000000E+00 0. -1.
<scales pt_clust_5="13000.00000" pt_clust_6="13000.00000" pt_clust_7="13000.00000" pt_clust_8="13000.00000" pt_clust_9="25.79360"></scales>
<clustering>
<clus scale="   25.794">  2  9  1 -1</clus>
<clus scale="   79.155">  5  6 -1 -1</clus>
<clus scale="   91.078">  7  8 -1 -1</clus>
<clus scale="  175.507">  2  5  1 -1</clus>
<clus scale="   25.794">  2  5  1 -1</clus>
</clustering>
</event>
<event>
 9    2  0.2984928E-005  0.1001086E+03  0.7546771E-02  0.1280793E+00
          4   -1    0    0  502    0  0.00000000000E+00  0.00000000000E+00  0.15818110486E+03  0.15818110486E+03  0.00000000000E+00 0. -1.
         -3   -1    0    0    0  501 -0.00000000000E+00 -0.00000000000E+00 -0.83949036449E+02  0.83949036449E+02  0.00000000000E+00 0.  1.
         24    2    1    2    0    0 -0.35060755007E+02  0.57919946718E+02  0.10913116303E+02  0.10596301034E+03  0.80778008657E+02 0.  0.
         23    2    1    2    0    0  0.32437355769E+02 -0.37984759982E+02  0.31808494285E+02  0.98787954337E+02  0.79071205715E+02 0.  0.
        -13    1    3    3    0    0  0.10328856123E+01  0.36406598423E+02  0.40579389376E+02  0.54527003434E+02  0.00000000000E+00 0.  1.
         14    1    3    3    0    0 -0.36093640619E+02  0.21513348296E+02 -0.29666273073E+02  0.51436006902E+02  0.00000000000E+00 0. -1.
        -13    1    4    4    0    0  0.11772778857E+01 -0.27009157481E+02 -0.22499002492E+02  0.35172228877E+02  0.00000000000E+00 0.  1.
         13    1    4    4    0    0  0.31260077884E+02 -0.10975602500E+02  0.54307496777E+02  0.63615725459E+02  0.00000000000E+00 0. -1.
         21    1    1    2  502  501  0.26233992378E+01 -0.19935186737E+02  0.31510457823E+02  0.37379176636E+02  0.00000000000E+00 0. -1.
<scales pt_clust_5="13000.00000" pt_clust_6="13000.00000" pt_clust_7="13000.00000" pt_clust_8="13000.00000" pt_clust_9="20.10706"></scales>
<clustering>
<clus scale="   20.107">  1  9  2 -1</clus>
<clus scale="   79.071">  7  8 -1 -1</clus>
<clus scale="   80.778">  5  6 -1 -1</clus>
<clus scale="   98.737">  1  7  2 -1</clus>
<clus scale="   20.107">  1  5  2 -1</clus>
</clustering>
</event>
<event>
 9    2  0.2984928E-005  0.3419518E+03  0.7546771E-02  0.1065968E+00
          2   -1    0    0  502    0  0.00000000000E+00  0.00000000000E+00  0.84737507118E+03  0.84737507118E+03  0.00000000000E+00 0. -1.
         -1   -1    0    0    0  501 -0.00000000000E+00 -0.00000000000E+00 -0.24308146150E+03  0.24308146150E+03  0.00000000000E+00 0.  1.
         24    2    1    2    0    0 -0.62617859301E+01 -0.75055952607E+02 -0.79426653496E+01  0.11041672166E+03  0.80350236496E+02 0.  0.
         23    2    1    2    0    0 -0.89867991630E+02 -0.19126406158E+03 -0.70939372086E+02  0.24051547139E+03  0.90316666777E+02 0.  0.
        -11    1    3    3    0    0  0.19655741788E+02 -0.64961276835E+02  0.20236670366E+02  0.70822584680E+02  0.00000000000E+00 0.  1.
         12    1    3    3    0    0 -0.25917527718E+02 -0.10094675772E+02 -0.28179335716E+02  0.39594136982E+02  0.00000000000E+00 0. -1.
        -13    1    4    4    0    0 -0.65549472033E+02 -0.11199316693E+03 -0.86766360747E+02  0.15610126227E+03  0.00000000000E+00 0.  1.
         13    1    4    4    0    0 -0.24318519597E+02 -0.79270894641E+02  0.15826988660E+02  0.84414209128E+02  0.00000000000E+00 0. -1.
         21    1    1    2  502  501  0.96129777560E+02  0.26632001418E+03  0.68317564711E+03  0.73952433962E+03  0.00000000000E+00 0. -1.
<scales pt_clust_5="13000.00000" pt_clust_6="13000.00000" pt_clust_7="13000.00000" pt_clust_8="13000.00000" pt_clust_9="283.13828"></scales>
<clustering>
<clus scale="   80.350">  5  6 -1 -1</clus>
<clus scale="   90.317">  7  8 -1 -1</clus>
<clus scale="   94.218">  5  7 -1 -1</clus>
<clus scale="  283.138">  1  9  2 -1</clus>
<clus scale="  283.138">  1  5  2 -1</clus>
</clustering>
</event>
<event>
 9    2  0.2984928E-005  0.1235523E+03  0.7546771E-02  0.1242121E+00
         -3   -1    0    0    0  501 -0.00000000000E+00  0.00000000000E+00  0.29293350750E+03  0.29293350750E+03  0.00000000000E+00 0.  1.
          4   -1    0    0  502    0  0.00000000000E+00 -0.00000000000E+00 -0.19091788015E+03  0.19091788015E+03  0.00000000000E+00 0. -1.
         23    2    1    2    0    0  0.59277093711E+02  0.49652146406E+02  0.24922725550E+03  0.27820761523E+03  0.96468351320E+02 0.  0.
         24    2    1    2    0    0 -0.44826000292E+02 -0.64048441417E+02 -0.14692996320E+03  0.18524360708E+03  0.81333921133E+02 0.  0.
        -13    1    4    4    0    0 -0.49125859883E+02 -0.39069870634E+02 -0.37935740854E+02  0.73341157168E+02  0.00000000000E+00 0.  1.
         14    1    4    4    0    0  0.42998595904E+01 -0.24978570783E+02 -0.10899422235E+03  0.11190244991E+03  0.00000000000E+00 0. -1.
        -11    1    3    3    0    0  0.38555219173E+02  0.77894444338E+02  0.19700387198E+03  0.21532434827E+03  0.00000000000E+00 0.  1.
         11    1    3    3    0    0  0.20721874538E+02 -0.28242297932E+02  0.52223383519E+02  0.62883266956E+02  0.00000000000E+00 0. -1.
         21    1    1    2  502  501 -0.14451093419E+02  0.14396295011E+02 -0.28166495108E+00  0.20400165347E+02  0.00000000000E+00 0.  1.
<scales pt_clust_5="13000.00000" pt_clust_6="13000.00000" pt_clust_7="13000.00000" pt_clust_8="13000.00000" pt_clust_9="20.39822"></scales>
<clustering>
<clus scale="   20.398">  2  9  1 -1</clus>
<clus scale="   81.334">  5  6 -1 -1</clus>
<clus scale="   96.468">  7  8 -1 -1</clus>
<clus scale="  112.135">  2  5  1 -1</clus>
<clus scale="   20.398">  2  5  1 -1</clus>
</clustering>
</event>
<event>
 9    2  0.2984928E-005  0.1121919E+03  0.7546771E-02  0.1259311E+00
          2   -1    0    0  502    0  0.00000000000E+00  0.00000000000E+00  0.63599289286E+03  0.63599289286E+03  0.00000000000E+00 0. -1.
         -1   -1    0    0    0  501 -0.00000000000E+00 -0.00000000000E+00 -0.41850318652E+02  0.41850318652E+02  0.00000000000E+00 0.  1.
         23    2    1    2    0    0  0.56824117968E+02  0.43010435763E+02  0.12162367696E+03  0.16680085897E+03  0.89170229285E+02 0.  0.
         24    2    1    2    0    0 -0.52823096191E+01 -0.79505313546E+02  0.19043746571E+03  0.22197770902E+03  0.81600718613E+02 0.  0.
        -11    1    4    4    0    0 -0.31666241101E+01 -0.71066774105E+02  0.65380305531E+02  0.96618312142E+02  0.00000000000E+00 0.  1.
         12    1    4    4    0    0 -0.21156855090E+01 -0.84385394418E+01  0.12505716018E+03  0.12535939688E+03  0.00000000000E+00 0. -1.
        -13    1    3    3    0    0 -0.28525700381E+01  0.52882756843E+02  0.47607453434E+02  0.71212307571E+02  0.00000000000E+00 0. -1.
         13    1    3    3    0    0  0.59676688006E+02 -0.98723210794E+01  0.74016223522E+02  0.95588551403E+02  0.00000000000E+00 0.  1.
         21    1    1    2  502  501 -0.51541808349E+02  0.36494877783E+02  0.28208143154E+03  0.28906464351E+03  0.00000000000E+00 0. -1.
<scales pt_clust_5="13000.00000" pt_clust_6="13000.00000" pt_clust_7="13000.00000" pt_clust_8="13000.00000" pt_clust_9="63.15405"></scales>
<clustering>
<clus scale="   63.154">  1  9  2 -1</clus>
<clus scale="   81.601">  5  6 -1 -1</clus>
<clus scale="   89.170">  7  8 -1 -1</clus>
<clus scale="  106.275">  1  5  2 -1</clus>
<clus scale="   63.154">  1  5  2 -1</clus>
</clustering>
</event>
<event>
 9    2  0.2984928E-005  0.1357457E+03  0.7546771E-02  0.1222777E+00
         -1   -1    0    0    0  501 -0.00000000000E+00  0.00000000000E+00  0.14509088571E+03  0.14509088571E+03  0.00000000000E+00 0.  1.
          2   -1    0    0  502    0  0.00000000000E+00 -0.00000000000E+00 -0.10384700319E+04  0.10384700319E+04  0.00000000000E+00 0. -1.
         24    2    1    2    0    0  0.97099961191E+02 -0.13568722601E+02  0.88670982648E+02  0.15331635975E+03  0.77658549485E+02 0.  0.
         23    2    1    2    0    0 -0.95125614728E+02  0.13459788126E+03 -0.55369581419E+03  0.58511606611E+03  0.92823940598E+02 0.  0.
        -13    1    3    3    0    0  0.16790164693E+02 -0.17031906213E+02 -0.10106293009E+02  0.25964063974E+02  0.00000000000E+00 0.  1.
         14    1    3    3    0    0  0.80309796498E+02  0.34631836112E+01  0.98777275657E+02  0.12735229578E+03  0.00000000000E+00 0. -1.
        -13    1    4    4    0    0 -0.28145966388E+02  0.70417840527E+02 -0.38687810886E+03  0.39424045810E+03  0.00000000000E+00 0. -1.
         13    1    4    4    0    0 -0.66979648340E+02  0.64180040735E+02 -0.16681770533E+03  0.19087560801E+03  0.00000000000E+00 0.  1.
         21    1    1    2  502  501 -0.19743464633E+01 -0.12102915866E+03 -0.42835431463E+03  0.44512849173E+03  0.00000000000E+00 0.  1.
<scales pt_clust_5="13000.00000" pt_clust_6="13000.00000" pt_clust_7="13000.00000" pt_clust_8="13000.00000" pt_clust_9="121.04526"></scales>
<clustering>
<clus scale="   77.659">  5  6 -1 -1</clus>
<clus scale="   92.824">  7  8 -1 -1</clus>
<clus scale="  121.045">  2  9  1 -1</clus>
<clus scale="  125.863">  1  5  2 -1</clus>
<clus scale="  121.045">  2  5  1 -1</clus>
</clustering>
</event>
<event>
 9    2  0.2984928E-005  0.1691109E+03  0.7546771E-02  0.1180746E+00
         -1   -1    0    0    0  501 -0.00000000000E+00  0.00000000000E+00  0.26268886724E+03  0.26268886724E+03  0.00000000000E+00 0.  1.
          2   -1    0    0  502    0  0.00000000000E+00 -0.00000000000E+00 -0.38081172895E+03  0.38081172895E+03  0.00000000000E+00 0. -1.
         24    2    1    2    0    0 -0.12732864318E+03 -0.48642625925E+02  0.18446959769E+03  0.24345014857E+03  0.81610378835E+02 0.  0.
         23    2    1    2    0    0  0.17674052482E+03  0.23582467356E+02 -0.26403426347E+03  0.33255022489E+03  0.95300650089E+02 0.  0.
        -13    1    3    3    0    0 -0.47213012945E+02 -0.37542563422E+02  0.13694281918E+03  0.14963906036E+03  0.00000000000E+00 0.  1.
         14    1    3    3    0    0 -0.80115630230E+02 -0.11100062503E+02  0.47526778512E+02  0.93811088206E+02  0.00000000000E+00 0. -1.
        -11    1    4    4    0    0  0.39625748388E+02  0.23178628694E+02 -0.15055744061E+02  0.48312774632E+02  0.00000000000E+00 0.  1.
         11    1    4    4    0    0  0.13711477644E+03  0.40383866228E+00 -0.24897851940E+03  0.28423745026E+03  0.00000000000E+00 0. -1.
         21    1    1    2  502  501 -0.49411881648E+02  0.25060158569E+02 -0.38558195932E+02  0.67500222734E+02  0.00000000000E+00 0.  1.
<scales pt_clust_5="13000.00000" pt_clust_6="13000.00000" pt_clust_7="13000.00000" pt_clust_8="13000.00000" pt_clust_9="55.40348"></scales>
<clustering>
<clus scale="   55.403">  2  9  1 -1</clus>
<clus scale="   81.610">  5  6 -1 -1</clus>
<clus scale="   95.301">  7  8 -1 -1</clus>
<clus scale="  161.792">  1  5  2 -1</clus>
<clus scale="   55.403">  2  5  1 -1</clus>
</clustering>
</event>
<event>
 9    2  0.2984928E-005  0.9351628E+02  0.7546771E-02  0.1300511E+00
          2   -1    0    0  502    0  0.00000000000E+00  0.00000000000E+00  0.42022460765E+02  0.42022460765E+02  0.00000000000E+00 0. -1.
         -1   -1    0    0    0  501 -0.00000000000E+00 -0.00000000000E+00 -0.29152201669E+03  0.29152201669E+03  0.00000000000E+00 0.  1.
         23    2    1    2    0    0  0.17086271953E+02  0.17996079227E+00 -0.18095435098E+03  0.20331870375E+03  0.91115558930E+02 0.  0.
         24    2    1    2    0    0 -0.25931619405E+02  0.19507376167E+02 -0.63760482789E+02  0.10811864874E+03  0.81063286574E+02 0.  0.
        -11    1    4    4    0    0 -0.29679702033E+02 -0.26678758839E+02 -0.37979624274E+02  0.55091675831E+02  0.00000000000E+00 0.  1.
         12    1    4    4    0    0  0.37480826280E+01  0.46186135006E+02 -0.25780858515E+02  0.53026972909E+02  0.00000000000E+00 0. -1.
        -13    1    3    3    0    0  0.29608228210E+02 -0.20033439294E+02 -0.17525973794E+03  0.17886855959E+03  0.00000000000E+00 0.  1.
         13    1    3    3    0    0 -0.12521956257E+02  0.20213400086E+02 -0.56946130423E+01  0.24450144156E+02  0.00000000000E+00 0. -1.
         21    1    1    2  502  501  0.88453474514E+01 -0.19687336959E+02 -0.47847221509E+01  0.22107124964E+02  0.00000000000E+00 0.  1.
<scales pt_clust_5="13000.00000" pt_clust_6="13000.00000" pt_clust_7="13000.00000" pt_clust_8="13000.00000" pt_clust_9="21.58313"></scales>
<clustering>
<clus scale="   21.583">  1  9  2 -1</clus>
<clus scale="   81.063">  5  6 -1 -1</clus>
<clus scale="   83.753">  1  5  2 -1</clus>
<clus scale="   91.116">  7  8 -1 -1</clus>
<clus scale="   21.583">  1  5  2 -1</clus>
</clustering>
</event>
<event>
 9    2  0.2984928E-005  0.2208941E+03  0.7546771E-02  0.1171849E+00
         -1   -1    0    0    0  501 -0.00000000000E+00  0.00000000000E+00  0.10652131964E+03  0.10652131964E+03  0.00000000000E+00 0.  1.
          2   -1    0    0  502    0  0.00000000000E+00 -0.00000000000E+00 -0.81422211265E+03  0.81422211265E+03  0.00000000000E+00 0. -1.
         24    2    1    2    0    0 -0.26808993460E+02  0.36403924254E+02  0.74357029223E+01  0.89095464309E+02  0.76411676143E+02 0.  0.
         23    2    1    2    0    0 -0.12961737479E+03  0.12247406693E+03 -0.32838516268E+03  0.38523110164E+03  0.93624920246E+02 0.  0.
        -13    1    3    3    0    0 -0.43168112554E+02 -0.55990483938E+01  0.82899298520E+00  0.43537598852E+02  0.00000000000E+00 0.  1.
         14    1    3    3    0    0  0.16359119094E+02  0.42002972648E+02  0.66067099371E+01  0.45557865457E+02  0.00000000000E+00 0. -1.
        -11    1    4    4    0    0 -0.59688504993E+02  0.25434762194E+01 -0.70990434179E+02  0.92783773606E+02  0.00000000000E+00 0.  1.
         11    1    4    4    0    0 -0.69928869797E+02  0.11993059071E+03 -0.25739472850E+03  0.29244732804E+03  0.00000000000E+00 0. -1.
         21    1    1    2  502  501  0.15642636825E+03 -0.15887799119E+03 -0.38675133326E+03  0.44641686633E+03  0.00000000000E+00 0.  1.
<scales pt_clust_5="13000.00000" pt_clust_6="13000.00000" pt_clust_7="13000.00000" pt_clust_8="13000.00000" pt_clust_9="200.07143"></scales>
<clustering>
<clus scale="   76.412">  5  6 -1 -1</clus>
<clus scale="   88.785">  1  5  2 -1</clus>
<clus scale="   93.625">  7  8 -1 -1</clus>
<clus scale="  200.071">  1  9  2 -1</clus>
<clus scale="  220.894">  2  5  1 -1</clus>
</clustering>
</event>
<event>
 9    2  0.2984928E-005  0.1065655E+03  0.7546771E-02  0.1272289E+00
         -1   -1    0    0    0  501 -0.00000000000E+00  0.00000000000E+00  0.83035907273E+02  0.83035907273E+02  0.00000000000E+00 0.  1.
          2   -1    0    0  502    0  0.00000000000E+00 -0.00000000000E+00 -0.19681433424E+03  0.19681433424E+03  0.00000000000E+00 0. -1.
         24    2    1    2    0    0 -0.17814146748E+02  0.53626362264E+02  0.16190636774E+02  0.10002532714E+03  0.80930827236E+02 0.  0.
         23    2    1    2    0    0  0.24876407625E+02 -0.32249230001E+02 -0.11126100811E+03  0.15055293702E+03  0.92888785261E+02 0.  0.
        -13    1    3    3    0    0 -0.40109562253E+01  0.61935148043E+02  0.38102856790E+02  0.72827728431E+02  0.00000000000E+00 0.  1.
         14    1    3    3    0    0 -0.13803190523E+02 -0.83087857784E+01 -0.21912220016E+02  0.27197598713E+02  0.00000000000E+00 0. -1.
        -11    1    4    4    0    0 -0.53994172609E+01 -0.55590955046E+02 -0.36901606484E+02  0.66942038740E+02  0.00000000000E+00 0.  1.
         11    1    4    4    0    0  0.30275824885E+02  0.23341725045E+02 -0.74359401627E+02  0.83610898278E+02  0.00000000000E+00 0. -1.
         21    1    1    2  502  501 -0.70622608763E+01 -0.21377132263E+02 -0.18708055629E+02  0.29271977349E+02  0.00000000000E+00 0.  1.
<scales pt_clust_5="13000.00000" pt_clust_6="13000.00000" pt_clust_7="13000.00000" pt_clust_8="13000.00000" pt_clust_9="22.51349"></scales>
<clustering>
<clus scale="   22.513">  2  9  1 -1</clus>
<clus scale="   80.931">  5  6 -1 -1</clus>
<clus scale="   92.889">  7  8 -1 -1</clus>
<clus scale="   96.321">  1  5  2 -1</clus>
<clus scale="   22.513">  2  5  1 -1</clus>
</clustering>
</event>
<event>
 9    2  0.2984928E-005  0.9738989E+02  0.7546771E-02  0.1290407E+00
         -1   -1    0    0    0  501 -0.00000000000E+00  0.00000000000E+00  0.98695863290E+02  0.98695863290E+02  0.00000000000E+00 0.  1.
          2   -1    0    0  502    0  0.00000000000E+00 -0.00000000000E+00 -0.29300602476E+03  0.29300602476E+03  0.00000000000E+00 0. -1.
         23    2    1    2    0    0 -0.32742292359E+02  0.27518108441E+02  0.56614624634E+02  0.11410426503E+03  0.89360302001E+02 0.  0.
         24    2    1    2    0    0  0.18660000107E+02  0.50530361718E+01 -0.18482807743E+03  0.20257785687E+03  0.80638955273E+02 0.  0.
        -11    1    4    4    0    0 -0.20676956406E+02  0.29544739143E+02 -0.92315826700E+02  0.99109232651E+02  0.00000000000E+00 0.  1.
         12    1    4    4    0    0  0.39336956512E+02 -0.24491702971E+02 -0.92512250733E+02  0.10346862422E+03  0.00000000000E+00 0. -1.
        -13    1    3    3    0    0 -0.28930421722E+02 -0.22004521726E+02  0.53049699331E+02  0.64307378087E+02  0.00000000000E+00 0. -1.
         13    1    3    3    0    0 -0.38118706372E+01  0.49522630167E+02  0.35649253039E+01  0.49796886939E+02  0.00000000000E+00 0.  1.
         21    1    1    2  502  501  0.14082292253E+02 -0.32571144613E+02 -0.66096708672E+02  0.75019766154E+02  0.00000000000E+00 0.  1.
<scales pt_clust_5="13000.00000" pt_clust_6="13000.00000" pt_clust_7="13000.00000" pt_clust_8="13000.00000" pt_clust_9="35.48507"></scales>
<clustering>
<clus scale="   35.485">  2  9  1 -1</clus>
<clus scale="   80.639">  5  6 -1 -1</clus>
<clus scale="   89.360">  7  8 -1 -1</clus>
<clus scale="   89.455">  2  5  1 -1</clus>
<clus scale="   35.485">  2  5  1 -1</clus>
</clustering>
</event>
<event>
 9    2  0.2984928E-005  0.5069109E+03  0.7546771E-02  0.1012102E+00
          2   -1    0    0  502    0  0.00000000000E+00  0.00000000000E+00  0.16525373662E+04  0.16525373662E+04  0.00000000000E+00 0. -1.
         -1   -1    0    0    0  501 -0.00000000000E+00 -0.00000000000E+00 -0.23321623641E+03  0.23321623641E+03  0.00000000000E+00 0.  1.
         23    2    1    2    0    0  0.32893423379E+03  0.35098582318E+03  0.44178710040E+03  0.65935470737E+03  0.90465517282E+02 0.  0.
         24    2    1    2    0    0 -0.27179510890E+03 -0.44735779835E+03  0.47451579793E+03  0.71105456533E+03  0.80198325624E+02 0.  0.
        -13    1    4    4    0    0 -0.20422495603E+03 -0.28155744845E+03  0.27854660123E+03  0.44561265523E+03  0.00000000000E+00 0.  1.
         14    1    4    4    0    0 -0.67570152870E+02 -0.16580034990E+03  0.19596919670E+03  0.26544191011E+03  0.00000000000E+00 0. -1.
        -13    1    3    3    0    0  0.25229950237E+03  0.23316716338E+03  0.26718791321E+03  0.43521413802E+03  0.00000000000E+00 0.  1.
         13    1    3    3    0    0  0.76634731428E+02  0.11781865980E+03  0.17459918720E+03  0.22414056935E+03  0.00000000000E+00 0. -1.
         21    1    1    2  502  501 -0.57139124896E+02  0.96371975167E+02  0.50301823141E+03  0.51534432986E+03  0.00000000000E+00 0.  1.
<scales pt_clust_5="13000.00000" pt_clust_6="13000.00000" pt_clust_7="13000.00000" pt_clust_8="13000.00000" pt_clust_9="112.03766"></scales>
<clustering>
<clus scale="   80.198">  5  6 -1 -1</clus>
<clus scale="   90.466">  7  8 -1 -1</clus>
<clus scale="  112.038">  1  9  2 -1</clus>
<clus scale="  505.180">  1  5  2 -1</clus>
<clus scale="  112.038">  1  5  2 -1</clus>
</clustering>
</event>
<event>
 9    2  0.2984928E-005  0.1355454E+03  0.7546771E-02  0.1222382E+00
         -3   -1    0    0    0  501 -0.00000000000E+00  0.00000000000E+00  0.23560087542E+03  0.23560087542E+03  0.00000000000E+00 0.  1.
          4   -1    0    0  502    0  0.00000000000E+00 -0.00000000000E+00 -0.37062430070E+03  0.37062430070E+03  0.00000000000E+00 0. -1.
         23    2    1    2    0    0  0.99380831858E+02  0.62343941704E+02  0.14362048243E+03  0.20712834097E+03  0.92260445754E+02 0.  0.
         24    2    1    2    0    0 -0.16948661337E+02 -0.81748693750E+02 -0.83854913281E+01  0.11588098327E+03  0.79924838240E+02 0.  0.
        -11    1    4    4    0    0 -0.17275299373E+02 -0.64465802365E+02  0.30460232960E+02  0.73362806891E+02  0.00000000000E+00 0.  1.
         12    1    4    4    0    0  0.32663803667E+00 -0.17282891385E+02 -0.38845724288E+02  0.42518176378E+02  0.00000000000E+00 0. -1.
        -13    1    3    3    0    0  0.65154760025E+02  0.12596135416E+02  0.19610456948E+02  0.69198088146E+02  0.00000000000E+00 0.  1.
         13    1    3    3    0    0  0.34226071833E+02  0.49747806289E+02  0.12401002548E+03  0.13793025282E+03  0.00000000000E+00 0. -1.
         21    1    1    2  502  501 -0.82432170521E+02  0.19404752046E+02 -0.27025841638E+03  0.28321585189E+03  0.00000000000E+00 0. -1.
<scales pt_clust_5="13000.00000" pt_clust_6="13000.00000" pt_clust_7="13000.00000" pt_clust_8="13000.00000" pt_clust_9="84.68534"></scales>
<clustering>
<clus scale="   79.925">  5  6 -1 -1</clus>
<clus scale="   84.685">  2  9  1 -1</clus>
<clus scale="   92.260">  7  8 -1 -1</clus>
<clus scale="  127.470">  2  5  1 -1</clus>
<clus scale="   84.685">  2  5  1 -1</clus>
</clustering>
</event>
<event>
 9    2  0.2984928E-005  0.1234835E+03  0.7546771E-02  0.1241898E+00
         -1   -1    0    0    0  501 -0.00000000000E+00  0.00000000000E+00  0.31453455824E+03  0.31453455824E+03  0.00000000000E+00 0.  1.
          2   -1    0    0  502    0  0.00000000000E+00 -0.00000000000E+00 -0.28545284924E+03  0.28545284924E+03  0.00000000000E+00 0. -1.
         23    2    1    2    0    0 -0.49975831705E+02  0.45803606415E+02  0.17730749854E+03  0.21200518759E+03  0.94407078196E+02 0.  0.
         24    2    1    2    0    0  0.77060412590E+02 -0.70517467080E+02  0.81892814390E+02  0.15496093050E+03  0.79971473552E+02 0.  0.
        -13    1    4    4    0    0  0.49363157435E+02 -0.51487150620E+02  0.95080444761E+02  0.11886100692E+03  0.00000000000E+00 0.  1.
         14    1    4    4    0    0  0.27697255155E+02 -0.19030316460E+02 -0.13187630372E+02  0.36099923580E+02  0.00000000000E+00 0. -1.
        -11    1    3    3    0    0 -0.29943411651E+02  0.18719997737E+02  0.40983339789E+01  0.35550563399E+02  0.00000000000E+00 0. -1.
         11    1    3    3    0    0 -0.20032420053E+02  0.27083608678E+02  0.17320916456E+03  0.17645462420E+03  0.00000000000E+00 0.  1.
         21    1    1    2  502  501 -0.27084580885E+02  0.24713860665E+02 -0.23011860393E+03  0.23302128938E+03  0.00000000000E+00 0. -1.
<scales pt_clust_5="13000.00000" pt_clust_6="13000.00000" pt_clust_7="13000.00000" pt_clust_8="13000.00000" pt_clust_9="36.66537"></scales>
<clustering>
<clus scale="   36.665">  2  9  1 -1</clus>
<clus scale="   79.971">  5  6 -1 -1</clus>
<clus scale="   94.407">  7  8 -1 -1</clus>
<clus scale="  112.831">  2  5  1 -1</clus>
<clus scale="   36.665">  2  5  1 -1</clus>
</clustering>
</event>
<event>
 9    2  0.2984928E-005  0.1494193E+03  0.7546771E-02  0.1204053E+00
         -1   -1    0    0    0  501 -0.00000000000E+00  0.00000000000E+00  0.36027410677E+03  0.36027410677E+03  0.00000000000E+00 0.  1.
          2   -1    0    0  502    0  0.00000000000E+00 -0.00000000000E+00 -0.11185373624E+03  0.11185373624E+03  0.00000000000E+00 0. -1.
         24    2    1    2    0    0 -0.79356165622E+01 -0.11295492109E+03  0.21191926080E+03  0.25363680562E+03  0.81240801672E+02 0.  0.
         23    2    1    2    0    0 -0.46030427974E+02  0.11971094859E+03  0.18608386862E+02  0.16123610396E+03  0.95923394692E+02 0.  0.
        -11    1    3    3    0    0 -0.39646204565E+02 -0.79417550940E+02  0.16756954831E+03  0.18962732517E+03  0.00000000000E+00 0.  1.
         12    1    3    3    0    0  0.31710588002E+02 -0.33537370149E+02  0.44349712498E+02  0.64009480443E+02  0.00000000000E+00 0. -1.
        -11    1    4    4    0    0 -0.64221308583E+02  0.43589389165E+02  0.27773168730E+02  0.82436401093E+02  0.00000000000E+00 0. -1.
         11    1    4    4    0    0  0.18190880609E+02  0.76121559420E+02 -0.91647818677E+01  0.78799702871E+02  0.00000000000E+00 0.  1.
         21    1    1    2  502  501  0.53966044536E+02 -0.67560274971E+01  0.17892722856E+02  0.57254933426E+02  0.00000000000E+00 0. -1.
<scales pt_clust_5="13000.00000" pt_clust_6="13000.00000" pt_clust_7="13000.00000" pt_clust_8="13000.00000" pt_clust_9="54.38730"></scales>
<clustering>
<clus scale="   54.387">  2  9  1 -1</clus>
<clus scale="   81.241">  5  6 -1 -1</clus>
<clus scale="   95.923">  7  8 -1 -1</clus>
<clus scale="  140.445">  1  5  2 -1</clus>
<clus scale="   54.387">  2  5  1 -1</clus>
</clustering>
</event>
<event>
 9    2  0.2984928E-005  0.1238036E+03  0.7546771E-02  0.1251653E+00
          2   -1    0    0  502    0  0.00000000000E+00  0.00000000000E+00  0.90604573389E+03  0.90604573389E+03  0.00000000000E+00 0. -1.
         -1   -1    0    0    0  501 -0.00000000000E+00 -0.00000000000E+00 -0.57643634206E+02  0.57643634206E+02  0.00000000000E+00 0.  1.
         23    2    1    2    0    0 -0.18795877338E+02  0.26714537081E+02  0.11836455111E+02  0.92795850725E+02  0.86046596364E+02 0.  0.
         24    2    1    2    0    0 -0.17227161209E+02  0.68878760026E+02  0.20558035231E+03  0.23169231524E+03  0.79856051852E+02 0.  0.
        -13    1    4    4    0    0 -0.33815658129E+01  0.84920057952E+02  0.15332091089E+03  0.17530017954E+03  0.00000000000E+00 0.  1.
         14    1    4    4    0    0 -0.13845595396E+02 -0.16041297926E+02  0.52259441420E+02  0.56392135698E+02  0.00000000000E+00 0. -1.
        -13    1    3    3    0    0  0.32994855555E+02 -0.27704743267E+00 -0.95226475786E+00  0.33009756990E+02  0.00000000000E+00 0. -1.
         13    1    3    3    0    0 -0.51790732893E+02  0.26991584514E+02  0.12788719869E+02  0.59786093735E+02  0.00000000000E+00 0.  1.
         21    1    1    2  502  501  0.36023038547E+02 -0.95593297107E+02  0.63098529226E+03  0.63920120214E+03  0.00000000000E+00 0. -1.
<scales pt_clust_5="13000.00000" pt_clust_6="13000.00000" pt_clust_7="13000.00000" pt_clust_8="13000.00000" pt_clust_9="94.60630"></scales>
<clustering>
<clus scale="   79.856">  5  6 -1 -1</clus>
<clus scale="   86.047">  7  8 -1 -1</clus>
<clus scale="   92.038">  2  7  1 -1</clus>
<clus scale="   94.606">  1  9  2 -1</clus>
<clus scale="   94.606">  1  5  2 -1</clus>
</clustering>
</event>
<event>
 9    2  0.2984928E-005  0.3508045E+03  0.7546771E-02  0.1062535E+00
          2   -1    0    0  502    0  0.00000000000E+00  0.00000000000E+00  0.17717905522E+04  0.17717905522E+04  0.00000000000E+00 0. -1.
         -1   -1    0    0    0  501 -0.00000000000E+00 -0.00000000000E+00 -0.22262808896E+03  0.22262808896E+03  0.00000000000E+00 0.  1.
         23    2    1    2    0    0  0.25126126277E+03 -0.23578284031E+03 -0.77948483351E+01  0.35650549043E+03  0.91157199882E+02 0.  0.
         24    2    1    2    0    0 -0.30966952775E+03  0.11843400338E+03  0.80149778740E+03  0.87116588623E+03  0.81298638043E+02 0.  0.
        -11    1    4    4    0    0 -0.11490729951E+03  0.21156122758E+02  0.20191704607E+03  0.23328472411E+03  0.00000000000E+00 0.  1.
         12    1    4    4    0    0 -0.19476222824E+03  0.97277880624E+02  0.59958074134E+03  0.63788116212E+03  0.00000000000E+00 0. -1.
        -11    1    3    3    0    0  0.24131953195E+03 -0.20208988300E+03 -0.27956933410E+02  0.31600162569E+03  0.00000000000E+00 0.  1.
         11    1    3    3    0    0  0.99417308139E+01 -0.33692957311E+02  0.20162085075E+02  0.40503864735E+02  0.00000000000E+00 0. -1.
         21    1    1    2  502  501  0.58408264981E+02  0.11734883693E+03  0.75545952414E+03  0.76674726446E+03  0.00000000000E+00 0. -1.
<scales pt_clust_5="13000.00000" pt_clust_6="13000.00000" pt_clust_7="13000.00000" pt_clust_8="13000.00000" pt_clust_9="131.08118"></scales>
<clustering>
<clus scale="   81.299">  5  6 -1 -1</clus>
<clus scale="   91.157">  7  8 -1 -1</clus>
<clus scale="  131.081">  1  9  2 -1</clus>
<clus scale="  348.373">  1  5  2 -1</clus>
<clus scale="  131.081">  1  5  2 -1</clus>
</clustering>
</event>
<event>
 9    2  0.2984928E-005  0.3290728E+03  0.7546771E-02  0.1071896E+00
          2   -1    0    0  502    0  0.00000000000E+00  0.00000000000E+00  0.26112279832E+03  0.26112279832E+03  0.00000000000E+00 0. -1.
         -1   -1    0    0    0  501 -0.00000000000E+00 -0.00000000000E+00 -0.15024803215E+04  0.15024803215E+04  0.00000000000E+00 0.  1.
         23    2    1    2    0    0 -0.19387720651E+03 -0.26597091964E+03 -0.13519550152E+04  0.13944450852E+04  0.91464918693E+02 0.  0.
         24    2    1    2    0    0  0.12457473914E+03  0.19202635029E+03  0.39871904590E+02  0.24557510693E+03  0.79525967642E+02 0.  0.
        -11    1    4    4    0    0  0.47714798636E+02  0.33666230919E+02 -0.16603438711E+02  0.60710718083E+02  0.00000000000E+00 0.  1.
         12    1    4    4    0    0  0.76859940499E+02  0.15836011937E+03  0.56475343301E+02  0.18486438884E+03  0.00000000000E+00 0. -1.
        -11    1    3    3    0    0 -0.15260377670E+03 -0.14324241226E+03 -0.74562872798E+03  0.77444722307E+03  0.00000000000E+00 0.  1.
         11    1    3    3    0    0 -0.41273429812E+02 -0.12272850738E+03 -0.60632628718E+03  0.61999786213E+03  0.00000000000E+00 0. -1.
         21    1    1    2  502  501  0.69302467373E+02  0.73944569344E+02  0.70725587354E+02  0.12358292773E+03  0.00000000000E+00 0. -1.
<scales pt_clust_5="13000.00000" pt_clust_6="13000.00000" pt_clust_7="13000.00000" pt_clust_8="13000.00000" pt_clust_9="101.34412"></scales>
<clustering>
<clus scale="   79.526">  5  6 -1 -1</clus>
<clus scale="   91.465">  7  8 -1 -1</clus>
<clus scale="  101.344">  1  9  2 -1</clus>
<clus scale="  325.956">  1  5  2 -1</clus>
<clus scale="  101.344">  1  5  2 -1</clus>
</clustering>
</event>
<event>
 9    2  0.2984928E-005  0.9105968E+02  0.7546771E-02  0.1306936E+00
         -1   -1    0    0    0  501 -0.00000000000E+00  0.00000000000E+00  0.53724656164E+02  0.53724656164E+02  0.00000000000E+00 0.  1.
          2   -1    0    0  502    0  0.00000000000E+00 -0.00000000000E+00 -0.38842890349E+03  0.38842890349E+03  0.00000000000E+00 0. -1.
         23    2    1    2    0    0 -0.14338338923E+02 -0.12641218412E+02  0.11433960205E+01  0.91600772756E+02  0.89576815354E+02 0.  0.
         24    2    1    2    0    0  0.24510347129E+01 -0.44121880408E+01 -0.27990424803E+03  0.29087205171E+03  0.78960036897E+02 0.  0.
        -11    1    4    4    0    0  0.18393291582E+02 -0.10004963812E+02 -0.15807032701E+02  0.26234991117E+02  0.00000000000E+00 0.  1.
         12    1    4    4    0    0 -0.15942256869E+02  0.55927757715E+01 -0.26409721533E+03  0.26463706060E+03  0.00000000000E+00 0. -1.
        -11    1    3    3    0    0  0.12251134278E+02  0.21715659530E+02 -0.29359171194E+02  0.38517802288E+02  0.00000000000E+00 0. -1.
         11    1    3    3    0    0 -0.26589473201E+02 -0.34356877942E+02  0.30502567214E+02  0.53082970468E+02  0.00000000000E+00 0.  1.
         21    1    1    2  502  501  0.11887304211E+02  0.17053406453E+02 -0.55943395315E+02  0.59680735187E+02  0.00000000000E+00 0. -1.
<scales pt_clust_5="13000.00000" pt_clust_6="13000.00000" pt_clust_7="13000.00000" pt_clust_8="13000.00000" pt_clust_9="20.78766"></scales>
<clustering>
<clus scale="   20.788">  2  9  1 -1</clus>
<clus scale="   78.960">  5  6 -1 -1</clus>
<clus scale="   80.638">  2  5  1 -1</clus>
<clus scale="   89.577">  7  8 -1 -1</clus>
<clus scale="   20.788">  2  5  1 -1</clus>
</clustering>
</event>
<event>
 9    2  0.2984928E-005  0.1524886E+03  0.7546771E-02  0.1199388E+00
         -1   -1    0    0    0  501 -0.00000000000E+00  0.00000000000E+00  0.61847583313E+02  0.61847583313E+02  0.00000000000E+00 0.  1.
          2   -1    0    0  502    0  0.00000000000E+00 -0.00000000000E+00 -0.67373787273E+03  0.67373787273E+03  0.00000000000E+00 0. -1.
         23    2    1    2    0    0 -0.12024295176E+03 -0.33868051975E+02 -0.75389070745E+02  0.17188226232E+03  0.90854761687E+02 0.  0.
         24    2    1    2    0    0  0.10092461862E+03  0.58558234011E+02 -0.42626829968E+03  0.44909909469E+03  0.79815337691E+02 0.  0.
        -13    1    4    4    0    0  0.77444432609E+02  0.78556222697E+02 -0.32251512581E+03  0.34085880749E+03  0.00000000000E+00 0.  1.
         14    1    4    4    0    0  0.23480186012E+02 -0.19997988686E+02 -0.10375317387E+03  0.10824028720E+03  0.00000000000E+00 0. -1.
        -11    1    3    3    0    0 -0.24505601969E+02  0.15787754390E+02  0.13498081566E+02  0.32124382057E+02  0.00000000000E+00 0. -1.
         11    1    3    3    0    0 -0.95737349786E+02 -0.49655806365E+02 -0.88887152311E+02  0.13975788026E+03  0.00000000000E+00 0.  1.
         21    1    1    2  502  501  0.19318333134E+02 -0.24690182036E+02 -0.11023291900E+03  0.11460409903E+03  0.00000000000E+00 0.  1.
<scales pt_clust_5="13000.00000" pt_clust_6="13000.00000" pt_clust_7="13000.00000" pt_clust_8="13000.00000" pt_clust_9="31.34969"></scales>
<clustering>
<clus scale="   31.350">  2  9  1 -1</clus>
<clus scale="   79.815">  5  6 -1 -1</clus>
<clus scale="   90.855">  7  8 -1 -1</clus>
<clus scale="  146.180">  2  5  1 -1</clus>
<clus scale="   31.350">  2  5  1 -1</clus>
</clustering>
</event>
<event>
 9    2  0.2984928E-005  0.3461381E+03  0.7546771E-02  0.1064211E+00
          4   -1    0    0  502    0  0.00000000000E+00  0.00000000000E+00  0.57417447557E+03  0.57417447557E+03  0.00000000000E+00 0. -1.
         -3   -1    0    0    0  501 -0.00000000000E+00 -0.00000000000E+00 -0.25688055773E+03  0.25688055773E+03  0.00000000000E+00 0.  1.
         24    2    1    2    0    0 -0.46397434898E+02  0.18907096353E+03 -0.14700629678E+02  0.21168185769E+03  0.81808001735E+02 0.  0.
         23    2    1    2    0    0  0.16868564422E+02  0.91505971144E+02 -0.54057020176E+02  0.14121924287E+03  0.91448465843E+02 0.  0.
        -11    1    3    3    0    0 -0.49830714107E+02  0.18931227126E+03  0.84225293983E+00  0.19576247217E+03  0.00000000000E+00 0.  1.
         12    1    3    3    0    0  0.34332792089E+01 -0.24130772863E+00 -0.15542882618E+02  0.15919385529E+02  0.00000000000E+00 0. -1.
        -11    1    4    4    0    0  0.34881598897E+02  0.59436578834E+02  0.76933194704E+01  0.69344213959E+02  0.00000000000E+00 0.  1.
         11    1    4    4    0    0 -0.18013034475E+02  0.32069392310E+02 -0.61750339647E+02  0.71875028909E+02  0.00000000000E+00 0. -1.
         21    1    1    2  502  501  0.29528870476E+02 -0.28057693468E+03  0.38605156769E+03  0.47815393273E+03  0.00000000000E+00 0. -1.
<scales pt_clust_5="13000.00000" pt_clust_6="13000.00000" pt_clust_7="13000.00000" pt_clust_8="13000.00000" pt_clust_9="282.12651"></scales>
<clustering>
<clus scale="   81.808">  5  6 -1 -1</clus>
<clus scale="   91.448">  7  8 -1 -1</clus>
<clus scale="  111.798">  5  7 -1 -1</clus>
<clus scale="  282.127">  1  9  2 -1</clus>
<clus scale="  282.127">  1  5  2 -1</clus>
</clustering>
</event>
<event>
 9    2  0.2984928E-005  0.1104872E+03  0.7546771E-02  0.1260306E+00
         -1   -1    0    0    0  501 -0.00000000000E+00  0.00000000000E+00  0.16095680491E+03  0.16095680491E+03  0.00000000000E+00 0.  1.
          2   -1    0    0  502    0  0.00000000000E+00 -0.00000000000E+00 -0.13234306555E+03  0.13234306555E+03  0.00000000000E+00 0. -1.
         23    2    1    2    0    0 -0.59570424791E+02  0.19667641829E+02  0.32871852296E+02  0.11286487865E+03  0.87877588239E+02 0.  0.
         24    2    1    2    0    0  0.75413106709E+02  0.26635013005E+02  0.29238049548E+02  0.12113137206E+03  0.86147461796E+02 0.  0.
        -13    1    4    4    0    0 -0.55603391779E+01  0.27105256905E+02  0.29102025205E+02  0.40156446490E+02  0.00000000000E+00 0.  1.
         14    1    4    4    0    0  0.80973445887E+02 -0.47024390005E+00  0.13602434337E+00  0.80974925568E+02  0.00000000000E+00 0. -1.
        -13    1    3    3    0    0 -0.29789455442E+02  0.18675797701E+02  0.61948981379E+02  0.71231126407E+02  0.00000000000E+00 0.  1.
         13    1    3    3    0    0 -0.29780969350E+02  0.99184412736E+00 -0.29077129083E+02  0.41633752244E+02  0.00000000000E+00 0. -1.
         21    1    1    2  502  501 -0.15842681918E+02 -0.46302654833E+02 -0.33496162480E+02  0.59303619753E+02  0.00000000000E+00 0. -1.
<scales pt_clust_5="13000.00000" pt_clust_6="13000.00000" pt_clust_7="13000.00000" pt_clust_8="13000.00000" pt_clust_9="48.93799"></scales>
<clustering>
<clus scale="   48.938">  2  9  1 -1</clus>
<clus scale="   86.147">  5  6 -1 -1</clus>
<clus scale="   87.878">  7  8 -1 -1</clus>
<clus scale="  109.116">  2  5  1 -1</clus>
<clus scale="   48.938">  2  5  1 -1</clus>
</clustering>
</event>
<event>
 9    2  0.2984928E-005  0.9650292E+02  0.7546771E-02  0.1294143E+00
         -1   -1    0    0    0  501 -0.00000000000E+00  0.00000000000E+00  0.13744333420E+03  0.13744333420E+03  0.00000000000E+00 0.  1.
          2   -1    0    0  502    0  0.00000000000E+00 -0.00000000000E+00 -0.30447403623E+03  0.30447403623E+03  0.00000000000E+00 0. -1.
         23    2    1    2    0    0  0.33842599024E+02  0.23846182920E+01  0.10791334006E+03  0.14506440503E+03  0.90815112901E+02 0.  0.
         24    2    1    2    0    0 -0.17610142283E+02  0.19636830736E+02 -0.22301655539E+03  0.23815968857E+03  0.79296475660E+02 0.  0.
        -11    1    4    4    0    0  0.23855107252E+02  0.26783092337E+02 -0.14661163054E+03  0.15093498729E+03  0.00000000000E+00 0.  1.
         12    1    4    4    0    0 -0.41465249535E+02 -0.71462616012E+01 -0.76404924843E+02  0.87224701284E+02  0.00000000000E+00 0. -1.
        -11    1    3    3    0    0  0.45547210869E+02  0.25554452831E+02  0.10702834497E+03  0.11909091109E+03  0.00000000000E+00 0.  1.
         11    1    3    3    0    0 -0.11704611844E+02 -0.23169834539E+02  0.88499508485E+00  0.25973493937E+02  0.00000000000E+00 0. -1.
         21    1    1    2  502  501 -0.16232456741E+02 -0.22021449028E+02 -0.51927486700E+02  0.58693276822E+02  0.00000000000E+00 0. -1.
<scales pt_clust_5="13000.00000" pt_clust_6="13000.00000" pt_clust_7="13000.00000" pt_clust_8="13000.00000" pt_clust_9="27.35757"></scales>
<clustering>
<clus scale="   27.358">  2  9  1 -1</clus>
<clus scale="   79.296">  5  6 -1 -1</clus>
<clus scale="   85.752">  2  5  1 -1</clus>
<clus scale="   90.815">  7  8 -1 -1</clus>
<clus scale="   27.358">  2  5  1 -1</clus>
</clustering>
</event>
<event>
 9    2  0.2984928E-005  0.9604549E+02  0.7546771E-02  0.1294035E+00
         -3   -1    0    0    0  501 -0.00000000000E+00  0.00000000000E+00  0.31122703392E+02  0.31122703392E+02  0.00000000000E+00 0.  1.
          4   -1    0    0  502    0  0.00000000000E+00 -0.00000000000E+00 -0.50956039304E+03  0.50956039304E+03  0.00000000000E+00 0. -1.
         23    2    1    2    0    0  0.17264802670E+02  0.10348878532E+02 -0.70033370007E+02  0.11624787683E+03  0.90574407279E+02 0.  0.
         24    2    1    2    0    0 -0.14946444050E+02 -0.32011157412E+02 -0.36854548846E+03  0.37901104613E+03  0.81089368192E+02 0.  0.
        -11    1    4    4    0    0 -0.44255756560E+02 -0.36193319565E+02 -0.27547816858E+03  0.28134809353E+03  0.00000000000E+00 0.  1.
         12    1    4    4    0    0  0.29309312510E+02  0.41821621524E+01 -0.93067319885E+02  0.97662952600E+02  0.00000000000E+00 0. -1.
        -11    1    3    3    0    0 -0.34318670742E+02 -0.51584258441E+01 -0.11165984604E+02  0.36456271489E+02  0.00000000000E+00 0.  1.
         11    1    3    3    0    0  0.51583473411E+02  0.15507304376E+02 -0.58867385403E+02  0.79791605338E+02  0.00000000000E+00 0. -1.
         21    1    1    2  502  501 -0.23183586195E+01  0.21662278881E+02 -0.39858831178E+02  0.45424173475E+02  0.00000000000E+00 0.  1.
<scales pt_clust_5="13000.00000" pt_clust_6="13000.00000" pt_clust_7="13000.00000" pt_clust_8="13000.00000" pt_clust_9="21.78598"></scales>
<clustering>
<clus scale="   21.786">  1  9  2 -1</clus>
<clus scale="   81.089">  5  6 -1 -1</clus>
<clus scale="   87.158">  2  5  1 -1</clus>
<clus scale="   90.574">  7  8 -1 -1</clus>
<clus scale="   87.158">  2  5  1 -1</clus>
</clustering>
</event>
<event>
 9    2  0.2984928E-005  0.9788984E+02  0.7546771E-02  0.1289907E+00
          2   -1    0    0  502    0  0.00000000000E+00  0.00000000000E+00  0.32963989559E+03  0.32963989559E+03  0.00000000000E+00 0. -1.
         -1   -1    0    0    0  501 -0.00000000000E+00 -0.00000000000E+00 -0.65932794212E+02  0.65932794212E+02  0.00000000000E+00 0.  1.
         24    2    1    2    0    0  0.24756171007E+02  0.29976130046E+02 -0.16243617253E+02  0.90901435909E+02  0.80546753960E+02 0.  0.
         23    2    1    2    0    0 -0.49642205121E+01 -0.33008802754E+02  0.25559166033E+03  0.27313901437E+03  0.90352641328E+02 0.  0.
        -11    1    3    3    0    0  0.33959304599E+02 -0.17446636070E+00 -0.39229986549E+02  0.51886960327E+02  0.00000000000E+00 0.  1.
         12    1    3    3    0    0 -0.92031335918E+01  0.30150596406E+02  0.22986369296E+02  0.39014475582E+02  0.00000000000E+00 0. -1.
        -11    1    4    4    0    0 -0.29354758762E+02 -0.45735227216E+02  0.22718311641E+03  0.23359276798E+03  0.00000000000E+00 0. -1.
         11    1    4    4    0    0  0.24390538250E+02  0.12726424462E+02  0.28408543917E+02  0.39546246386E+02  0.00000000000E+00 0.  1.
         21    1    1    2  502  501 -0.19791950495E+02  0.30326727083E+01  0.24359058304E+02  0.31532239527E+02  0.00000000000E+00 0.  1.
<scales pt_clust_5="13000.00000" pt_clust_6="13000.00000" pt_clust_7="13000.00000" pt_clust_8="13000.00000" pt_clust_9="20.02295"></scales>
<clustering>
<clus scale="   20.023">  1  9  2 -1</clus>
<clus scale="   80.547">  5  6 -1 -1</clus>
<clus scale="   88.919">  2  5  1 -1</clus>
<clus scale="   90.353">  7  8 -1 -1</clus>
<clus scale="   20.023">  1  5  2 -1</clus>
</clustering>
</event>
<event>
 9    2  0.2984928E-005  0.1249508E+03  0.7546771E-02  0.1238794E+00
         -1   -1    0    0    0  501 -0.00000000000E+00  0.00000000000E+00  0.48629100236E+03  0.48629100236E+03  0.00000000000E+00 0.  1.
          2   -1    0    0  502    0  0.00000000000E+00 -0.00000000000E+00 -0.21252384191E+03  0.21252384191E+03  0.00000000000E+00 0. -1.
         24    2    1    2    0    0 -0.80931299871E+02 -0.15081585487E+02  0.42405553774E+03  0.43941506738E+03  0.80530570791E+02 0.  0.
         23    2    1    2    0    0  0.93124554814E+02  0.74030391318E+02 -0.11297734764E+03  0.18857781626E+03  0.92978654309E+02 0.  0.
        -11    1    3    3    0    0  0.12419209824E+01 -0.31322023949E+02  0.12153698725E+03  0.12551434508E+03  0.00000000000E+00 0.  1.
         12    1    3    3    0    0 -0.82173220853E+02  0.16240438462E+02  0.30251855049E+03  0.31390072230E+03  0.00000000000E+00 0. -1.
        -11    1    4    4    0    0  0.64315148638E+02  0.44183057042E+01 -0.17201849809E+02  0.66722285680E+02  0.00000000000E+00 0.  1.
         11    1    4    4    0    0  0.28809406176E+02  0.69612085614E+02 -0.95775497830E+02  0.12185553058E+03  0.00000000000E+00 0. -1.
         21    1    1    2  502  501 -0.12193254943E+02 -0.58948805831E+02 -0.37311029653E+02  0.70821960639E+02  0.00000000000E+00 0. -1.
<scales pt_clust_5="13000.00000" pt_clust_6="13000.00000" pt_clust_7="13000.00000" pt_clust_8="13000.00000" pt_clust_9="60.19665"></scales>
<clustering>
<clus scale="   60.197">  2  9  1 -1</clus>
<clus scale="   80.531">  5  6 -1 -1</clus>
<clus scale="   92.979">  7  8 -1 -1</clus>
<clus scale="  115.986">  1  5  2 -1</clus>
<clus scale="   60.197">  2  5  1 -1</clus>
</clustering>
</event>
<event>
 9    2  0.2984928E-005  0.1928264E+03  0.7546771E-02  0.1156994E+00
          2   -1    0    0  502    0  0.00000000000E+00  0.00000000000E+00  0.32709194793E+03  0.32709194793E+03  0.00000000000E+00 0. -1.
         -1   -1    0    0    0  501 -0.00000000000E+00 -0.00000000000E+00 -0.50098216663E+03  0.50098216663E+03  0.00000000000E+00 0.  1.
         23    2    1    2    0    0 -0.16907536104E+03 -0.24477353137E+02 -0.43212242911E+03  0.47336853196E+03  0.90345751330E+02 0.  0.
         24    2    1    2    0    0  0.16944712577E+03 -0.18017416244E+02  0.15749033876E+03  0.24536726205E+03  0.79780516208E+02 0.  0.
        -11    1    4    4    0    0  0.69200339344E+02  0.31471239114E+02  0.56599469100E+02  0.94776715279E+02  0.00000000000E+00 0.  1.
         12    1    4    4    0    0  0.10024678642E+03 -0.49488655358E+02  0.10089086966E+03  0.15059054677E+03  0.00000000000E+00 0. -1.
        -11    1    3    3    0    0 -0.10820982022E+03 -0.28254553114E+02 -0.16470885693E+03  0.19908965948E+03  0.00000000000E+00 0. -1.
         11    1    3    3    0    0 -0.60865540819E+02  0.37771999774E+01 -0.26741357218E+03  0.27427887248E+03  0.00000000000E+00 0.  1.
         21    1    1    2  502  501 -0.37176472832E+00  0.42494769381E+02  0.10074187166E+03  0.10933832054E+03  0.00000000000E+00 0. -1.
<scales pt_clust_5="13000.00000" pt_clust_6="13000.00000" pt_clust_7="13000.00000" pt_clust_8="13000.00000" pt_clust_9="42.49640"></scales>
<clustering>
<clus scale="   42.496">  1  9  2 -1</clus>
<clus scale="   79.781">  5  6 -1 -1</clus>
<clus scale="   90.346">  7  8 -1 -1</clus>
<clus scale="  188.108">  1  5  2 -1</clus>
<clus scale="   42.496">  1  5  2 -1</clus>
</clustering>
</event>
<event>
 9    2  0.2984928E-005  0.1432504E+03  0.7546771E-02  0.1209894E+00
          2   -1    0    0  502    0  0.00000000000E+00  0.00000000000E+00  0.18642567055E+03  0.18642567055E+03  0.00000000000E+00 0. -1.
         -1   -1    0    0    0  501 -0.00000000000E+00 -0.00000000000E+00 -0.16123610206E+03  0.16123610206E+03  0.00000000000E+00 0.  1.
         23    2    1    2    0    0  0.82964229842E+02  0.64875058543E+02 -0.65954958653E+02  0.15325740937E+03  0.89699165552E+02 0.  0.
         24    2    1    2    0    0 -0.80398151715E+02 -0.85844945358E+02  0.77164213416E+02  0.16907118180E+03  0.93795155741E+02 0.  0.
        -13    1    4    4    0    0 -0.55652661975E+02 -0.10454411590E+03  0.52996456833E+02  0.12975097453E+03  0.00000000000E+00 0.  1.
         14    1    4    4    0    0 -0.24745489739E+02  0.18699170544E+02  0.24167756583E+02  0.39320207269E+02  0.00000000000E+00 0. -1.
        -11    1    3    3    0    0  0.36120908216E+02  0.63399126310E+02 -0.76721230924E+00  0.72970938338E+02  0.00000000000E+00 0.  1.
         11    1    3    3    0    0  0.46843321627E+02  0.14759322328E+01 -0.65187746343E+02  0.80286471029E+02  0.00000000000E+00 0. -1.
         21    1    1    2  502  501 -0.25660781277E+01  0.20969886816E+02  0.13980313732E+02  0.25333181444E+02  0.00000000000E+00 0.  1.
<scales pt_clust_5="13000.00000" pt_clust_6="13000.00000" pt_clust_7="13000.00000" pt_clust_8="13000.00000" pt_clust_9="21.12631"></scales>
<clustering>
<clus scale="   21.126">  1  9  2 -1</clus>
<clus scale="   89.699">  7  8 -1 -1</clus>
<clus scale="   93.795">  5  6 -1 -1</clus>
<clus scale="  140.603">  2  7  1 -1</clus>
<clus scale="   21.126">  1  5  2 -1</clus>
</clustering>
</event>
<event>
 9    2  0.2984928E-005  0.9831819E+02  0.7546771E-02  0.1290050E+00
          2   -1    0    0  502    0  0.00000000000E+00  0.00000000000E+00  0.13051008581E+03  0.13051008581E+03  0.00000000000E+00 0. -1.
         -1   -1    0    0    0  501 -0.00000000000E+00 -0.00000000000E+00 -0.14284140982E+03  0.14284140982E+03  0.00000000000E+00 0.  1.
         24    2    1    2    0    0  0.24830003844E+02  0.27845302314E+02 -0.90915923987E+02  0.12754085683E+03  0.81296217471E+02 0.  0.
         23    2    1    2    0    0 -0.84073134357E+01 -0.95782067269E+01  0.44292021492E+02  0.10362803005E+03  0.92814656606E+02 0.  0.
        -13    1    3    3    0    0 -0.15630068267E+02  0.41204672203E+02 -0.61922439442E+02  0.76003371977E+02  0.00000000000E+00 0.  1.
         14    1    3    3    0    0  0.40460072111E+02 -0.13359369890E+02 -0.28993484545E+02  0.51537484854E+02  0.00000000000E+00 0. -1.
        -11    1    4    4    0    0 -0.19673314058E+02 -0.27139189690E+02  0.65686235425E+02  0.73744534898E+02  0.00000000000E+00 0. -1.
         11    1    4    4    0    0  0.11266000622E+02  0.17560982964E+02 -0.21394213933E+02  0.29883495152E+02  0.00000000000E+00 0.  1.
         21    1    1    2  502  501 -0.16422690408E+02 -0.18267095587E+02  0.34292578491E+02  0.42182608750E+02  0.00000000000E+00 0. -1.
<scales pt_clust_5="13000.00000" pt_clust_6="13000.00000" pt_clust_7="13000.00000" pt_clust_8="13000.00000" pt_clust_9="24.56403"></scales>
<clustering>
<clus scale="   24.564">  1  9  2 -1</clus>
<clus scale="   81.296">  5  6 -1 -1</clus>
<clus scale="   87.527">  2  5  1 -1</clus>
<clus scale="   92.815">  7  8 -1 -1</clus>
<clus scale="   24.564">  1  5  2 -1</clus>
</clustering>
</event>
<event>
 9    2  0.2984928E-005  0.1020179E+03  0.7546771E-02  0.1282761E+00
          2   -1    0    0  502    0  0.00000000000E+00  0.00000000000E+00  0.51678813078E+03  0.51678813078E+03  0.00000000000E+00 0. -1.
         -1   -1    0    0    0  501 -0.00000000000E+00 -0.00000000000E+00 -0.77065822843E+02  0.77065822843E+02  0.00000000000E+00 0.  1.
         24    2    1    2    0    0  0.27131149939E+02  0.30877725989E+02 -0.32275654698E+02  0.96126716408E+02  0.80678959228E+02 0.  0.
         23    2    1    2    0    0  0.18692942017E+02 -0.47491980353E+02  0.28295988675E+03  0.30250614464E+03  0.94014657136E+02 0.  0.
        -11    1    3    3    0    0  0.24784212774E+02  0.57226021905E+02 -0.13828927624E+02  0.63877335771E+02  0.00000000000E+00 0.  1.
         12    1    3    3    0    0  0.23469371644E+01 -0.26348295917E+02 -0.18446727074E+02  0.32249380637E+02  0.00000000000E+00 0. -1.
        -13    1    4    4    0    0  0.50834093226E+02 -0.53935891291E+02  0.20144499373E+03  0.21464685160E+03  0.00000000000E+00 0.  1.
         13    1    4    4    0    0 -0.32141151209E+02  0.64439109382E+01  0.81514893019E+02  0.87859293038E+02  0.00000000000E+00 0. -1.
         21    1    1    2  502  501 -0.45824091956E+02  0.16614254365E+02  0.18903807589E+03  0.19522109258E+03  0.00000000000E+00 0. -1.
<scales pt_clust_5="13000.00000" pt_clust_6="13000.00000" pt_clust_7="13000.00000" pt_clust_8="13000.00000" pt_clust_9="48.74301"></scales>
<clustering>
<clus scale="   48.743">  1  9  2 -1</clus>
<clus scale="   80.679">  5  6 -1 -1</clus>
<clus scale="   89.878">  2  5  1 -1</clus>
<clus scale="   94.015">  7  8 -1 -1</clus>
<clus scale="   48.743">  1  5  2 -1</clus>
</clustering>
</event>
<event>
 9    2  0.2984928E-005  0.9778629E+02  0.7546771E-02  0.1289503E+00
          2   -1    0    0  502    0  0.00000000000E+00  0.00000000000E+00  0.99280709805E+03  0.99280709805E+03  0.00000000000E+00 0. -1.
         -1   -1    0    0    0  501 -0.00000000000E+00 -0.00000000000E+00 -0.18761418328E+02  0.18761418328E+02  0.00000000000E+00 0.  1.
         23    2    1    2    0    0  0.31216071625E+02 -0.20094649643E+02  0.14919753240E+03  0.17789559615E+03  0.89491348096E+02 0.  0.
         24    2    1    2    0    0 -0.51945549744E+02  0.80790572405E+01  0.69235121492E+03  0.69902700377E+03  0.80777075264E+02 0.  0.
        -11    1    4    4    0    0 -0.23386014451E+02 -0.65051686796E+01  0.47169974482E+02  0.53049310873E+02  0.00000000000E+00 0.  1.
         12    1    4    4    0    0 -0.28559535293E+02  0.14584225920E+02  0.64518124044E+03  0.64597769290E+03  0.00000000000E+00 0. -1.
        -11    1    3    3    0    0  0.60499658345E+02 -0.30238006679E+01  0.11360142182E+03  0.12874251462E+03  0.00000000000E+00 0.  1.
         11    1    3    3    0    0 -0.29283586721E+02 -0.17070848975E+02  0.35596110580E+02  0.49153081535E+02  0.00000000000E+00 0. -1.
         21    1    1    2  502  501  0.20729478119E+02  0.12015592402E+02  0.13249693240E+03  0.13464591646E+03  0.00000000000E+00 0. -1.
<scales pt_clust_5="13000.00000" pt_clust_6="13000.00000" pt_clust_7="13000.00000" pt_clust_8="13000.00000" pt_clust_9="23.96009"></scales>
<clustering>
<clus scale="   23.960">  1  9  2 -1</clus>
<clus scale="   80.777">  5  6 -1 -1</clus>
<clus scale="   89.491">  7  8 -1 -1</clus>
<clus scale="   89.880">  1  5  2 -1</clus>
<clus scale="   23.960">  1  5  2 -1</clus>
</clustering>
</event>
<event>
 9    2  0.2984928E-005  0.1825599E+03  0.7546771E-02  0.1179298E+00
          2   -1    0    0  502    0  0.00000000000E+00  0.00000000000E+00  0.42009754832E+03  0.42009754832E+03  0.00000000000E+00 0. -1.
         -1   -1    0    0    0  501 -0.00000000000E+00 -0.00000000000E+00 -0.16240023972E+03  0.16240023972E+03  0.00000000000E+00 0.  1.
         23    2    1    2    0    0 -0.76096520249E+02  0.60042328558E+02  0.16848331500E+02  0.13392124892E+03  0.90858533035E+02 0.  0.
         24    2    1    2    0    0  0.19786393817E+02  0.11893272306E+03  0.27962632215E+01  0.14547260640E+03  0.81350882785E+02 0.  0.
        -11    1    4    4    0    0 -0.13147739060E+02  0.10744705448E+03 -0.90751640517E+01  0.10862822451E+03  0.00000000000E+00 0.  1.
         12    1    4    4    0    0  0.32934132877E+02  0.11485668585E+02  0.11871427273E+02  0.36844381888E+02  0.00000000000E+00 0. -1.
        -11    1    3    3    0    0 -0.96018378864E+02  0.38645709746E+02  0.10786716233E+02  0.10406427441E+03  0.00000000000E+00 0.  1.
         11    1    3    3    0    0  0.19921858614E+02  0.21396618813E+02  0.60616152672E+01  0.29856974510E+02  0.00000000000E+00 0. -1.
         21    1    1    2  502  501  0.56310126432E+02 -0.17897505162E+03  0.23805271388E+03  0.30310393271E+03  0.00000000000E+00 0. -1.
<scales pt_clust_5="13000.00000" pt_clust_6="13000.00000" pt_clust_7="13000.00000" pt_clust_8="13000.00000" pt_clust_9="163.43241"></scales>
<clustering>
<clus scale="   81.351">  5  6 -1 -1</clus>
<clus scale="   90.859">  7  8 -1 -1</clus>
<clus scale="  132.857">  2  7  1 -1</clus>
<clus scale="  163.432">  1  9  2 -1</clus>
<clus scale="  163.432">  1  5  2 -1</clus>
</clustering>
</event>
<event>
 9    2  0.2984928E-005  0.1036591E+03  0.7546771E-02  0.1276537E+00
          2   -1    0    0  502    0  0.00000000000E+00  0.00000000000E+00  0.27001672927E+03  0.27001672927E+03  0.00000000000E+00 0. -1.
         -1   -1    0    0    0  501 -0.00000000000E+00 -0.00000000000E+00 -0.18591414430E+03  0.18591414430E+03  0.00000000000E+00 0.  1.
         24    2    1    2    0    0 -0.53412128228E+02  0.51090316019E+01 -0.15862181210E+03  0.18604551659E+03  0.81074640452E+02 0.  0.
         23    2    1    2    0    0  0.30953491825E+02 -0.86109225772E+01  0.19034287380E+03  0.21278476530E+03  0.89524745696E+02 0.  0.
        -11    1    3    3    0    0 -0.65525103535E+02  0.19219017684E+02 -0.15141706610E+03  0.16610249167E+03  0.00000000000E+00 0.  1.
         12    1    3    3    0    0  0.12112975307E+02 -0.14109986082E+02 -0.72047460035E+01  0.19943024921E+02  0.00000000000E+00 0. -1.
        -11    1    4    4    0    0  0.20761052354E+01  0.38998951104E+02  0.87931239699E+02  0.96213987108E+02  0.00000000000E+00 0.  1.
         11    1    4    4    0    0  0.28877386590E+02 -0.47609873682E+02  0.10241163410E+03  0.11657077819E+03  0.00000000000E+00 0. -1.
         21    1    1    2  502  501  0.22458636403E+02  0.35018909753E+01  0.52381523266E+02  0.57100591671E+02  0.00000000000E+00 0. -1.
<scales pt_clust_5="13000.00000" pt_clust_6="13000.00000" pt_clust_7="13000.00000" pt_clust_8="13000.00000" pt_clust_9="22.73002"></scales>
<clustering>
<clus scale="   22.730">  1  9  2 -1</clus>
<clus scale="   81.075">  5  6 -1 -1</clus>
<clus scale="   89.525">  7  8 -1 -1</clus>
<clus scale="   96.455">  2  5  1 -1</clus>
<clus scale="   22.730">  1  5  2 -1</clus>
</clustering>
</event>
<event>
 9    2  0.2984928E-005  0.1313740E+03  0.7546771E-02  0.1227392E+00
         -1   -1    0    0    0  501 -0.00000000000E+00  0.00000000000E+00  0.52625232494E+03  0.52625232494E+03  0.00000000000E+00 0.  1.
          2   -1    0    0  502    0  0.00000000000E+00 -0.00000000000E+00 -0.54028835376E+02  0.54028835376E+02  0.00000000000E+00 0. -1.
         24    2    1    2    0    0 -0.50976220118E+02  0.10493580472E+03  0.34750900543E+03  0.37582306538E+03  0.82887691980E+02 0.  0.
         23    2    1    2    0    0  0.28657551304E+02 -0.83687706367E+02  0.78863506712E+02  0.14921393877E+03  0.90666749072E+02 0.  0.
        -13    1    3    3    0    0 -0.50931298233E+02  0.11877916344E+03  0.31161498763E+03  0.33735202285E+03  0.00000000000E+00 0.  1.
         14    1    3    3    0    0 -0.44921884653E-01 -0.13843358723E+02  0.35894017802E+02  0.38471042522E+02  0.00000000000E+00 0. -1.
        -11    1    4    4    0    0 -0.19756070965E+02  0.82419948797E+01  0.57393901166E+01  0.22162432594E+02  0.00000000000E+00 0.  1.
         11    1    4    4    0    0  0.48413622270E+02 -0.91929701246E+02  0.73124116596E+02  0.12705150617E+03  0.00000000000E+00 0. -1.
         21    1    1    2  502  501  0.22318668814E+02 -0.21248098350E+02  0.45850977414E+02  0.55244156170E+02  0.00000000000E+00 0.  1.
<scales pt_clust_5="13000.00000" pt_clust_6="13000.00000" pt_clust_7="13000.00000" pt_clust_8="13000.00000" pt_clust_9="30.81566"></scales>
<clustering>
<clus scale="   30.816">  1  9  2 -1</clus>
<clus scale="   82.888">  5  6 -1 -1</clus>
<clus scale="   90.667">  7  8 -1 -1</clus>
<clus scale="  126.131">  1  5  2 -1</clus>
<clus scale="  131.374">  2  5  1 -1</clus>
</clustering>
</event>
<event>
 9    2  0.2984928E-005  0.1330058E+03  0.7546771E-02  0.1225093E+00
         -1   -1    0    0    0  501 -0.00000000000E+00  0.00000000000E+00  0.90673421918E+03  0.90673421918E+03  0.00000000000E+00 0.  1.
          2   -1    0    0  502    0  0.00000000000E+00 -0.00000000000E+00 -0.11218887606E+03  0.11218887606E+03  0.00000000000E+00 0. -1.
         24    2    1    2    0    0  0.21304426882E+02 -0.94375388555E+02  0.84747302534E+03  0.85712918626E+03  0.84257466592E+02 0.  0.
         23    2    1    2    0    0 -0.66343719006E+01  0.74085794986E+02 -0.63589771646E+02  0.13458070867E+03  0.92388246970E+02 0.  0.
        -13    1    3    3    0    0 -0.11860131426E+02 -0.80312439590E+02  0.39685686130E+03  0.40507544857E+03  0.00000000000E+00 0.  1.
         14    1    3    3    0    0  0.33164558309E+02 -0.14062948965E+02  0.45061616405E+03  0.45205373769E+03  0.00000000000E+00 0. -1.
        -11    1    4    4    0    0 -0.47979164659E+02  0.55223568484E+02 -0.38340565131E+02  0.82593230304E+02  0.00000000000E+00 0.  1.
         11    1    4    4    0    0  0.41344792759E+02  0.18862226501E+02 -0.25249206516E+02  0.51987478363E+02  0.00000000000E+00 0. -1.
         21    1    1    2  502  501 -0.14670054982E+02  0.20289593569E+02  0.10662089429E+02  0.27213200315E+02  0.00000000000E+00 0. -1.
<scales pt_clust_5="13000.00000" pt_clust_6="13000.00000" pt_clust_7="13000.00000" pt_clust_8="13000.00000" pt_clust_9="25.03753"></scales>
<clustering>
<clus scale="   25.038">  2  9  1 -1</clus>
<clus scale="   84.257">  5  6 -1 -1</clus>
<clus scale="   92.388">  7  8 -1 -1</clus>
<clus scale="  127.492">  1  5  2 -1</clus>
<clus scale="   25.038">  2  5  1 -1</clus>
</clustering>
</event>
<event>
 9    2  0.2984928E-005  0.1533281E+03  0.7546771E-02  0.1197438E+00
         -3   -1    0    0    0  501 -0.00000000000E+00  0.00000000000E+00  0.35558811090E+03  0.35558811090E+03  0.00000000000E+00 0.  1.
          4   -1    0    0  502    0  0.00000000000E+00 -0.00000000000E+00 -0.16465638387E+03  0.16465638387E+03  0.00000000000E+00 0. -1.
         24    2    1    2    0    0 -0.10830258067E+03  0.75189733817E+02  0.27405929358E+03  0.31390677483E+03  0.77756169121E+02 0.  0.
         23    2    1    2    0    0  0.65991480782E+02 -0.91412137568E+02 -0.77947471802E+02  0.16072819309E+03  0.83944560660E+02 0.  0.
        -13    1    3    3    0    0 -0.11676166896E+03  0.52437527596E+02  0.24115456129E+03  0.27301740617E+03  0.00000000000E+00 0.  1.
         14    1    3    3    0    0  0.84590882926E+01  0.22752206221E+02  0.32904732284E+02  0.40889368660E+02  0.00000000000E+00 0. -1.
        -11    1    4    4    0    0  0.23435666580E+02  0.11518508526E+02 -0.25721716812E+01  0.26239713677E+02  0.00000000000E+00 0.  1.
         11    1    4    4    0    0  0.42555814202E+02 -0.10293064609E+03 -0.75375300120E+02  0.13448847942E+03  0.00000000000E+00 0. -1.
         21    1    1    2  502  501  0.42311099887E+02  0.16222403750E+02 -0.51800947445E+01  0.45609526841E+02  0.00000000000E+00 0.  1.
<scales pt_clust_5="13000.00000" pt_clust_6="13000.00000" pt_clust_7="13000.00000" pt_clust_8="13000.00000" pt_clust_9="45.31441"></scales>
<clustering>
<clus scale="   45.314">  2  9  1 -1</clus>
<clus scale="   77.756">  5  6 -1 -1</clus>
<clus scale="   83.945">  7  8 -1 -1</clus>
<clus scale="  150.029">  1  5  2 -1</clus>
<clus scale="   45.314">  2  5  1 -1</clus>
</clustering>
</event>
<event>
 9    2  0.2984928E-005  0.1335144E+03  0.7546771E-02  0.1225905E+00
         -1   -1    0    0    0  501 -0.00000000000E+00  0.00000000000E+00  0.24002802466E+03  0.24002802466E+03  0.00000000000E+00 0.  1.
          2   -1    0    0  502    0  0.00000000000E+00 -0.00000000000E+00 -0.15437291738E+03  0.15437291738E+03  0.00000000000E+00 0. -1.
         23    2    1    2    0    0 -0.71770818806E+02 -0.68734529914E+02  0.16926989937E+03  0.21777292371E+03  0.94325295823E+02 0.  0.
         24    2    1    2    0    0  0.47294758031E+02  0.65339378136E+02 -0.30048097324E+02  0.11763653254E+03  0.80183771192E+02 0.  0.
        -11    1    4    4    0    0 -0.20672555373E+02  0.31828922279E+02 -0.10339511004E+02  0.39336246985E+02  0.00000000000E+00 0.  1.
         12    1    4    4    0    0  0.67967313404E+02  0.33510455857E+02 -0.19708586320E+02  0.78300285554E+02  0.00000000000E+00 0. -1.
        -13    1    3    3    0    0 -0.38184856440E+02  0.14606780594E+02  0.25344753831E+02  0.48101952637E+02  0.00000000000E+00 0. -1.
         13    1    3    3    0    0 -0.33585962366E+02 -0.83341310508E+02  0.14392514554E+03  0.16967097107E+03  0.00000000000E+00 0.  1.
         21    1    1    2  502  501  0.24476060775E+02  0.33951517777E+01 -0.53566694777E+02  0.58991485792E+02  0.00000000000E+00 0. -1.
<scales pt_clust_5="13000.00000" pt_clust_6="13000.00000" pt_clust_7="13000.00000" pt_clust_8="13000.00000" pt_clust_9="24.71041"></scales>
<clustering>
<clus scale="   24.710">  2  9  1 -1</clus>
<clus scale="   80.184">  5  6 -1 -1</clus>
<clus scale="   94.325">  7  8 -1 -1</clus>
<clus scale="  123.928">  2  5  1 -1</clus>
<clus scale="   24.710">  2  5  1 -1</clus>
</clustering>
</event>
<event>
 9    2  0.2984928E-005  0.1397995E+03  0.7546771E-02  0.1216701E+00
          2   -1    0    0  502    0  0.00000000000E+00  0.00000000000E+00  0.21118696090E+03  0.21118696090E+03  0.00000000000E+00 0. -1.
         -1   -1    0    0    0  501 -0.00000000000E+00 -0.00000000000E+00 -0.25698627382E+03  0.25698627382E+03  0.00000000000E+00 0.  1.
         23    2    1    2    0    0  0.96787691996E+02 -0.20446023644E+02 -0.19728680501E+03  0.24068875487E+03  0.96036951656E+02 0.  0.
         24    2    1    2    0    0 -0.11930062413E+03  0.20862774752E+02  0.12433570758E+03  0.19221090339E+03  0.82569782083E+02 0.  0.
        -13    1    4    4    0    0 -0.49871912520E+02  0.38923422321E+02  0.21484363999E+02  0.66811813027E+02  0.00000000000E+00 0.  1.
         14    1    4    4    0    0 -0.69428711610E+02 -0.18060647568E+02  0.10285134359E+03  0.12539909036E+03  0.00000000000E+00 0. -1.
        -13    1    3    3    0    0  0.51089706359E+02 -0.45335450102E+02 -0.50482890851E+02  0.84935171751E+02  0.00000000000E+00 0. -1.
         13    1    3    3    0    0  0.45697985637E+02  0.24889426458E+02 -0.14680391416E+03  0.15575358312E+03  0.00000000000E+00 0.  1.
         21    1    1    2  502  501  0.22512932134E+02 -0.41675110823E+00  0.27151784506E+02  0.35273576464E+02  0.00000000000E+00 0.  1.
<scales pt_clust_5="13000.00000" pt_clust_6="13000.00000" pt_clust_7="13000.00000" pt_clust_8="13000.00000" pt_clust_9="22.51679"></scales>
<clustering>
<clus scale="   22.517">  1  9  2 -1</clus>
<clus scale="   82.570">  5  6 -1 -1</clus>
<clus scale="   96.037">  7  8 -1 -1</clus>
<clus scale="  130.914">  1  5  2 -1</clus>
<clus scale="   22.517">  1  5  2 -1</clus>
</clustering>
</event>
<event>
 9    2  0.2984928E-005  0.2255563E+03  0.7546771E-02  0.1130548E+00
          2   -1    0    0  502    0  0.00000000000E+00  0.00000000000E+00  0.40382207222E+03  0.40382207222E+03  0.00000000000E+00 0. -1.
         -1   -1    0    0    0  501 -0.00000000000E+00 -0.00000000000E+00 -0.30938714829E+03  0.30938714829E+03  0.00000000000E+00 0.  1.
         23    2    1    2    0    0  0.18208298389E+03 -0.90805964989E+02 -0.21513151285E+03  0.31011293145E+03  0.92133197787E+02 0.  0.
         24    2    1    2    0    0 -0.20214320237E+03  0.93919021207E+02  0.29137714786E+03  0.37583911172E+03  0.81680712466E+02 0.  0.
        -11    1    4    4    0    0 -0.17270734530E+02  0.28038239591E+02  0.84447022719E+02  0.90640613396E+02  0.00000000000E+00 0.  1.
         12    1    4    4    0    0 -0.18487246784E+03  0.65880781616E+02  0.20693012514E+03  0.28519849832E+03  0.00000000000E+00 0. -1.
        -11    1    3    3    0    0  0.14552735589E+03 -0.30424419959E+02 -0.17218403988E+03  0.22748890133E+03  0.00000000000E+00 0. -1.
         11    1    3    3    0    0  0.36555628000E+02 -0.60381545030E+02 -0.42947472977E+02  0.82624030123E+02  0.00000000000E+00 0.  1.
         21    1    1    2  502  501  0.20060218485E+02 -0.31130562184E+01  0.18189288918E+02  0.27257177331E+02  0.00000000000E+00 0.  1.
<scales pt_clust_5="13000.00000" pt_clust_6="13000.00000" pt_clust_7="13000.00000" pt_clust_8="13000.00000" pt_clust_9="20.30033"></scales>
<clustering>
<clus scale="   20.300">  1  9  2 -1</clus>
<clus scale="   81.681">  5  6 -1 -1</clus>
<clus scale="   92.133">  7  8 -1 -1</clus>
<clus scale="  221.492">  1  5  2 -1</clus>
<clus scale="   20.300">  1  5  2 -1</clus>
</clustering>
</event>
<event>
 9    2  0.2984928E-005  0.1790276E+03  0.7546771E-02  0.1195252E+00
          2   -1    0    0  502    0  0.00000000000E+00  0.00000000000E+00  0.61173598819E+03  0.61173598819E+03  0.00000000000E+00 0. -1.
         -1   -1    0    0    0  501 -0.00000000000E+00 -0.00000000000E+00 -0.20193912294E+03  0.20193912294E+03  0.00000000000E+00 0.  1.
         24    2    1    2    0    0  0.15534808147E+03 -0.55411185033E+01 -0.11591506974E+03  0.20965890628E+03  0.79729688197E+02 0.  0.
         23    2    1    2    0    0  0.38094003221E+02 -0.90587862733E+01  0.23005442090E+03  0.25039725318E+03  0.90777382281E+02 0.  0.
        -13    1    3    3    0    0  0.11425394881E+03 -0.91121271809E+01 -0.12264400128E+03  0.16786466790E+03  0.00000000000E+00 0.  1.
         14    1    3    3    0    0  0.41094132660E+02  0.35710086776E+01  0.67289315398E+01  0.41794238380E+02  0.00000000000E+00 0. -1.
        -11    1    4    4    0    0  0.12320567969E+01 -0.46111628464E+02  0.12006857696E+03  0.12862450551E+03  0.00000000000E+00 0.  1.
         11    1    4    4    0    0  0.36861946424E+02  0.37052842190E+02  0.10998584394E+03  0.12177274767E+03  0.00000000000E+00 0. -1.
         21    1    1    2  502  501 -0.19344208469E+03  0.14599904777E+02  0.29565751408E+03  0.35361895167E+03  0.00000000000E+00 0. -1.
<scales pt_clust_5="13000.00000" pt_clust_6="13000.00000" pt_clust_7="13000.00000" pt_clust_8="13000.00000" pt_clust_9="160.29366"></scales>
<clustering>
<clus scale="   79.730">  5  6 -1 -1</clus>
<clus scale="   90.777">  7  8 -1 -1</clus>
<clus scale="   98.862">  1  7  2 -1</clus>
<clus scale="  160.294">  1  9  2 -1</clus>
<clus scale="   98.862">  1  5  2 -1</clus>
</clustering>
</event>
<event>
 9    2  0.2984928E-005  0.1731138E+03  0.7546771E-02  0.1175864E+00
         -1   -1    0    0    0  501 -0.00000000000E+00  0.00000000000E+00  0.75682849254E+03  0.75682849254E+03  0.00000000000E+00 0.  1.
          2   -1    0    0  502    0  0.00000000000E+00 -0.00000000000E+00 -0.51688158976E+02  0.51688158976E+02  0.00000000000E+00 0. -1.
         24    2    1    2    0    0 -0.11581275813E+03  0.63342873774E+02  0.29526622801E+03  0.33370728588E+03  0.82179636403E+02 0.  0.
         23    2    1    2    0    0  0.14904612641E+03 -0.67266906600E+02  0.39691657303E+03  0.43892409777E+03  0.91498705658E+02 0.  0.
        -13    1    3    3    0    0 -0.21715863065E+02  0.45181663496E+02  0.16187721092E+03  0.16946147893E+03  0.00000000000E+00 0.  1.
         14    1    3    3    0    0 -0.94096895069E+02  0.18161210278E+02  0.13338901710E+03  0.16424580695E+03  0.00000000000E+00 0. -1.
        -13    1    4    4    0    0  0.54957304931E+02  0.20283007958E+02  0.13559880284E+03  0.14771168237E+03  0.00000000000E+00 0.  1.
         13    1    4    4    0    0  0.94088821477E+02 -0.87549914558E+02  0.26131777020E+03  0.29121241540E+03  0.00000000000E+00 0. -1.
         21    1    1    2  502  501 -0.33233368275E+02  0.39240328262E+01  0.12957532514E+02  0.35885267859E+02  0.00000000000E+00 0.  1.
<scales pt_clust_5="13000.00000" pt_clust_6="13000.00000" pt_clust_7="13000.00000" pt_clust_8="13000.00000" pt_clust_9="33.46423"></scales>
<clustering>
<clus scale="   33.464">  2  9  1 -1</clus>
<clus scale="   82.180">  5  6 -1 -1</clus>
<clus scale="   91.499">  7  8 -1 -1</clus>
<clus scale="  168.374">  1  5  2 -1</clus>
<clus scale="   33.464">  2  5  1 -1</clus>
</clustering>
</event>
<event>
 9    2  0.2984928E-005  0.9291246E+02  0.7546771E-02  0.1302639E+00
         -1   -1    0    0    0  501 -0.00000000000E+00  0.00000000000E+00  0.20414366797E+03  0.20414366797E+03  0.00000000000E+00 0.  1.
          2   -1    0    0  502    0  0.00000000000E+00 -0.00000000000E+00 -0.70859665910E+02  0.70859665910E+02  0.00000000000E+00 0. -1.
         24    2    1    2    0    0 -0.23234753798E+02  0.10298330068E+01  0.12862013270E+03  0.15341580982E+03  0.80326569863E+02 0.  0.
         23    2    1    2    0    0 -0.49800259199E+01  0.81332977552E+01  0.39148947658E+01  0.91912657208E+02  0.91332682887E+02 0.  0.
        -11    1    3    3    0    0 -0.31367494520E+02 -0.26143316665E+02  0.11483576309E+03  0.12187963408E+03  0.00000000000E+00 0.  1.
         12    1    3    3    0    0  0.81327407225E+01  0.27173149672E+02  0.13784369614E+02  0.31536175742E+02  0.00000000000E+00 0. -1.
        -13    1    4    4    0    0  0.32249127657E+02  0.70932143457E+01 -0.27668891341E+02  0.43080012447E+02  0.00000000000E+00 0. -1.
         13    1    4    4    0    0 -0.37229153576E+02  0.10400834095E+01  0.31583786107E+02  0.48832644761E+02  0.00000000000E+00 0.  1.
         21    1    1    2  502  501  0.28214779718E+02 -0.91631307620E+01  0.74897459278E+00  0.29674866854E+02  0.00000000000E+00 0.  1.
<scales pt_clust_5="13000.00000" pt_clust_6="13000.00000" pt_clust_7="13000.00000" pt_clust_8="13000.00000" pt_clust_9="29.66541"></scales>
<clustering>
<clus scale="   29.665">  2  9  1 -1</clus>
<clus scale="   80.327">  5  6 -1 -1</clus>
<clus scale="   82.118">  1  5  2 -1</clus>
<clus scale="   91.333">  7  8 -1 -1</clus>
<clus scale="   29.665">  2  5  1 -1</clus>
</clustering>
</event>
<event>
 9    2  0.2984928E-005  0.1020258E+03  0.7546771E-02  0.1290329E+00
          2   -1    0    0  502    0  0.00000000000E+00  0.00000000000E+00  0.25233750133E+03  0.25233750133E+03  0.00000000000E+00 0. -1.
         -1   -1    0    0    0  501 -0.00000000000E+00 -0.00000000000E+00 -0.74674513031E+02  0.74674513031E+02  0.00000000000E+00 0.  1.
         24    2    1    2    0    0  0.38311835785E+02  0.33633423752E+02 -0.23433428668E+02  0.84026951982E+02  0.62549173661E+02 0.  0.
         23    2    1    2    0    0 -0.33529838792E+02 -0.16692205710E+01  0.11119463108E+03  0.14745020547E+03  0.90831055944E+02 0.  0.
        -13    1    3    3    0    0  0.42699055633E+02  0.35085408619E+02 -0.39096824704E+02  0.67696063045E+02  0.00000000000E+00 0.  1.
         14    1    3    3    0    0 -0.43872198477E+01 -0.14519848665E+01  0.15663396037E+02  0.16330888936E+02  0.00000000000E+00 0. -1.
        -11    1    4    4    0    0 -0.34338831205E+02  0.30522834510E+02  0.18864496537E+02  0.49665561354E+02  0.00000000000E+00 0.  1.
         11    1    4    4    0    0  0.80899241223E+00 -0.32192055081E+02  0.92330134546E+02  0.97784644114E+02  0.00000000000E+00 0. -1.
         21    1    1    2  502  501 -0.47819969923E+01 -0.31964203181E+02  0.89901785878E+02  0.95534856908E+02  0.00000000000E+00 0.  1.
<scales pt_clust_5="13000.00000" pt_clust_6="13000.00000" pt_clust_7="13000.00000" pt_clust_8="13000.00000" pt_clust_9="32.31993"></scales>
<clustering>
<clus scale="   32.320">  1  9  2 -1</clus>
<clus scale="   62.549">  5  6 -1 -1</clus>
<clus scale="   77.919">  2  5  1 -1</clus>
<clus scale="   90.831">  7  8 -1 -1</clus>
<clus scale="   32.320">  1  5  2 -1</clus>
</clustering>
</event>
<event>
 9    2  0.2984928E-005  0.1113122E+03  0.7546771E-02  0.1262590E+00
         -1   -1    0    0    0  501 -0.00000000000E+00  0.00000000000E+00  0.25895748752E+03  0.25895748752E+03  0.00000000000E+00 0.  1.
          2   -1    0    0  502    0  0.00000000000E+00 -0.00000000000E+00 -0.77980402401E+02  0.77980402401E+02  0.00000000000E+00 0. -1.
         23    2    1    2    0    0 -0.48657467051E+02 -0.39781492829E+02  0.16457006205E+03  0.19821583360E+03  0.90863056837E+02 0.  0.
         24    2    1    2    0    0  0.69603315384E+02  0.21315529308E+02  0.27199714812E+01  0.10762453628E+03  0.79225433178E+02 0.  0.
        -13    1    4    4    0    0  0.62572506254E+02  0.47010140287E+02  0.12481625327E+02  0.79253156401E+02  0.00000000000E+00 0.  1.
         14    1    4    4    0    0  0.70308091298E+01 -0.25694610979E+02 -0.97616538457E+01  0.28371379878E+02  0.00000000000E+00 0. -1.
        -13    1    3    3    0    0 -0.72838160773E+02 -0.42934907706E+02  0.11261250086E+03  0.14082037961E+03  0.00000000000E+00 0. -1.
         13    1    3    3    0    0  0.24180693722E+02  0.31534148773E+01  0.51957561190E+02  0.57395453993E+02  0.00000000000E+00 0.  1.
         21    1    1    2  502  501 -0.20945848333E+02  0.18465963521E+02  0.13687051589E+02  0.31097520035E+02  0.00000000000E+00 0. -1.
<scales pt_clust_5="13000.00000" pt_clust_6="13000.00000" pt_clust_7="13000.00000" pt_clust_8="13000.00000" pt_clust_9="27.92347"></scales>
<clustering>
<clus scale="   27.923">  2  9  1 -1</clus>
<clus scale="   79.225">  5  6 -1 -1</clus>
<clus scale="   90.863">  7  8 -1 -1</clus>
<clus scale="  102.034">  2  5  1 -1</clus>
<clus scale="   27.923">  2  5  1 -1</clus>
</clustering>
</event>
<event>
 9    2  0.2984928E-005  0.1007511E+03  0.7546771E-02  0.1285070E+00
         -1   -1    0    0    0  501 -0.00000000000E+00  0.00000000000E+00  0.10862277007E+02  0.10862277007E+02  0.00000000000E+00 0.  1.
          2   -1    0    0  502    0  0.00000000000E+00 -0.00000000000E+00 -0.10961859048E+04  0.10961859048E+04  0.00000000000E+00 0. -1.
         23    2    1    2    0    0 -0.33985895311E+01 -0.51675060909E+02 -0.45119408612E+03  0.46349483261E+03  0.92571562473E+02 0.  0.
         24    2    1    2    0    0  0.58449814818E+01  0.26595817107E+02 -0.48106169024E+03  0.48842527164E+03  0.79983716245E+02 0.  0.
        -13    1    4    4    0    0 -0.81546504571E+01 -0.19034124631E+02 -0.42523840811E+02  0.47297708844E+02  0.00000000000E+00 0.  1.
         14    1    4    4    0    0  0.13999631939E+02  0.45629941737E+02 -0.43853784943E+03  0.44112756279E+03  0.00000000000E+00 0. -1.
        -11    1    3    3    0    0 -0.43030538450E+02 -0.31255959738E+01 -0.16832451210E+03  0.17376575601E+03  0.00000000000E+00 0.  1.
         11    1    3    3    0    0  0.39631948919E+02 -0.48549464935E+02 -0.28286957402E+03  0.28972907660E+03  0.00000000000E+00 0. -1.
         21    1    1    2  502  501 -0.24463919507E+01  0.25079243803E+02 -0.15306785145E+03  0.15512807757E+03  0.00000000000E+00 0. -1.
<scales pt_clust_5="13000.00000" pt_clust_6="13000.00000" pt_clust_7="13000.00000" pt_clust_8="13000.00000" pt_clust_9="25.19828"></scales>
<clustering>
<clus scale="   25.198">  2  9  1 -1</clus>
<clus scale="   79.984">  5  6 -1 -1</clus>
<clus scale="   89.324">  2  5  1 -1</clus>
<clus scale="   92.572">  7  8 -1 -1</clus>
<clus scale="   25.198">  2  5  1 -1</clus>
</clustering>
</event>
<event>
 9    2  0.2984928E-005  0.1124198E+03  0.7546771E-02  0.1259277E+00
          2   -1    0    0  502    0  0.00000000000E+00  0.00000000000E+00  0.24474069704E+03  0.24474069704E+03  0.00000000000E+00 0. -1.
         -1   -1    0    0    0  501 -0.00000000000E+00 -0.00000000000E+00 -0.13307334306E+03  0.13307334306E+03  0.00000000000E+00 0.  1.
         24    2    1    2    0    0  0.49511909719E+02  0.21976337026E+01 -0.83214416816E+02  0.13878637708E+03  0.99402014567E+02 0.  0.
         23    2    1    2    0    0 -0.70735924208E+02 -0.63624217023E+01  0.15437868938E+03  0.19311139297E+03  0.91734284645E+02 0.  0.
        -11    1    3    3    0    0  0.20022661890E+02  0.96660652101E+01  0.20780817631E+02  0.30433241483E+02  0.00000000000E+00 0.  1.
         12    1    3    3    0    0  0.29489247829E+02 -0.74684315075E+01 -0.10399523445E+03  0.10835313560E+03  0.00000000000E+00 0. -1.
        -11    1    4    4    0    0 -0.90991160485E+02 -0.30756756269E+00  0.10233497483E+03  0.13693769736E+03  0.00000000000E+00 0.  1.
         11    1    4    4    0    0  0.20255236278E+02 -0.60548541396E+01  0.52043714547E+02  0.56173695617E+02  0.00000000000E+00 0. -1.
         21    1    1    2  502  501  0.21224014489E+02  0.41647879997E+01  0.40503081424E+02  0.45916270046E+02  0.00000000000E+00 0. -1.
<scales pt_clust_5="13000.00000" pt_clust_6="13000.00000" pt_clust_7="13000.00000" pt_clust_8="13000.00000" pt_clust_9="21.62878"></scales>
<clustering>
<clus scale="   21.629">  1  9  2 -1</clus>
<clus scale="   91.734">  7  8 -1 -1</clus>
<clus scale="   99.402">  5  6 -1 -1</clus>
<clus scale="  105.701">  1  7  2 -1</clus>
<clus scale="   21.629">  1  5  2 -1</clus>
</clustering>
</event>
<event>
 9    2  0.2984928E-005  0.1305357E+03  0.7546771E-02  0.1235371E+00
          2   -1    0    0  502    0  0.00000000000E+00  0.00000000000E+00  0.13228776184E+04  0.13228776184E+04  0.00000000000E+00 0. -1.
         -1   -1    0    0    0  501 -0.00000000000E+00 -0.00000000000E+00 -0.68605625941E+02  0.68605625941E+02  0.00000000000E+00 0.  1.
         23    2    1    2    0    0 -0.59765432185E+02  0.12353579751E+02  0.12467930214E+02  0.10979740058E+03  0.90418483031E+02 0.  0.
         24    2    1    2    0    0 -0.22779006350E+01  0.98992930407E+02  0.10019376912E+04  0.10100550347E+04  0.80791379309E+02 0.  0.
        -11    1    4    4    0    0  0.14421839969E+02  0.58260350795E+02  0.26105515449E+03  0.26786573433E+03  0.00000000000E+00 0.  1.
         12    1    4    4    0    0 -0.16699740604E+02  0.40732579613E+02  0.74088253674E+03  0.74218930039E+03  0.00000000000E+00 0. -1.
        -13    1    3    3    0    0 -0.24466995470E+02 -0.36068801999E+02 -0.11790324015E+02  0.45150903483E+02  0.00000000000E+00 0. -1.
         13    1    3    3    0    0 -0.35298436715E+02  0.48422381750E+02  0.24258254229E+02  0.64646497098E+02  0.00000000000E+00 0.  1.
         21    1    1    2  502  501  0.62043332820E+02 -0.11134651016E+03  0.23986637102E+03  0.27163080904E+03  0.00000000000E+00 0.  1.
<scales pt_clust_5="13000.00000" pt_clust_6="13000.00000" pt_clust_7="13000.00000" pt_clust_8="13000.00000" pt_clust_9="102.52958"></scales>
<clustering>
<clus scale="   80.791">  5  6 -1 -1</clus>
<clus scale="   90.418">  7  8 -1 -1</clus>
<clus scale="  109.087">  2  7  1 -1</clus>
<clus scale="  102.530">  2  9  1 -1</clus>
<clus scale="  130.536">  1  5  2 -1</clus>
</clustering>
</event>
<event>
 9    2  0.2984928E-005  0.2239887E+03  0.7546771E-02  0.1131704E+00
         -1   -1    0    0    0  501 -0.00000000000E+00  0.00000000000E+00  0.15382478868E+03  0.15382478868E+03  0.00000000000E+00 0.  1.
          2   -1    0    0  502    0  0.00000000000E+00 -0.00000000000E+00 -0.40434107008E+03  0.40434107008E+03  0.00000000000E+00 0. -1.
         23    2    1    2    0    0  0.49927501959E+02 -0.19125686166E+03 -0.31786886097E+02  0.21959896234E+03  0.90229460548E+02 0.  0.
         24    2    1    2    0    0 -0.56122222718E+02  0.21152676352E+03 -0.17948463650E+03  0.29396426667E+03  0.79416495597E+02 0.  0.
        -11    1    4    4    0    0 -0.74139561759E+02  0.19190291626E+03 -0.15285741952E+03  0.25629825319E+03  0.00000000000E+00 0.  1.
         12    1    4    4    0    0  0.18017339041E+02  0.19623847258E+02 -0.26627216983E+02  0.37666013482E+02  0.00000000000E+00 0. -1.
        -13    1    3    3    0    0 -0.37941672615E+01 -0.14725275962E+03 -0.28804910543E+02  0.15009161800E+03  0.00000000000E+00 0.  1.
         13    1    3    3    0    0  0.53721669220E+02 -0.44004102037E+02 -0.29819755534E+01  0.69507344347E+02  0.00000000000E+00 0. -1.
         21    1    1    2  502  501  0.61947207596E+01 -0.20269901859E+02 -0.39244758801E+02  0.44602629743E+02  0.00000000000E+00 0. -1.
<scales pt_clust_5="13000.00000" pt_clust_6="13000.00000" pt_clust_7="13000.00000" pt_clust_8="13000.00000" pt_clust_9="21.19536"></scales>
<clustering>
<clus scale="   21.195">  2  9  1 -1</clus>
<clus scale="   79.416">  5  6 -1 -1</clus>
<clus scale="   90.229">  7  8 -1 -1</clus>
<clus scale="  219.856">  2  5  1 -1</clus>
<clus scale="   21.195">  2  5  1 -1</clus>
</clustering>
</event>
<event>
 9    2  0.2984928E-005  0.9592185E+02  0.7546771E-02  0.1295559E+00
         -1   -1    0    0    0  501 -0.00000000000E+00  0.00000000000E+00  0.10846109245E+03  0.10846109245E+03  0.00000000000E+00 0.  1.
          2   -1    0    0  502    0  0.00000000000E+00 -0.00000000000E+00 -0.19337494928E+03  0.19337494928E+03  0.00000000000E+00 0. -1.
         24    2    1    2    0    0 -0.19483236694E+02 -0.22679633960E+02  0.66319168618E+02  0.10859535824E+03  0.80627274519E+02 0.  0.
         23    2    1    2    0    0 -0.51165445127E+01  0.14304424502E+02 -0.12805205346E+03  0.15841754706E+03  0.92021710657E+02 0.  0.
        -11    1    3    3    0    0  0.27104060525E+02  0.12475118415E+01  0.43830025929E+01  0.27484488252E+02  0.00000000000E+00 0.  1.
         12    1    3    3    0    0 -0.46587297219E+02 -0.23927145802E+02  0.61936166025E+02  0.81110869988E+02  0.00000000000E+00 0. -1.
        -13    1    4    4    0    0 -0.22298303434E+02  0.37076352561E+02 -0.12174192361E+03  0.12920126246E+03  0.00000000000E+00 0.  1.
         13    1    4    4    0    0  0.17181758922E+02 -0.22771928059E+02 -0.63101298467E+01  0.29216284601E+02  0.00000000000E+00 0. -1.
         21    1    1    2  502  501  0.24599781207E+02  0.83752094584E+01 -0.23180971982E+02  0.34823136431E+02  0.00000000000E+00 0. -1.
<scales pt_clust_5="13000.00000" pt_clust_6="13000.00000" pt_clust_7="13000.00000" pt_clust_8="13000.00000" pt_clust_9="25.98641"></scales>
<clustering>
<clus scale="   25.986">  2  9  1 -1</clus>
<clus scale="   80.627">  5  6 -1 -1</clus>
<clus scale="   85.052">  1  5  2 -1</clus>
<clus scale="   92.022">  7  8 -1 -1</clus>
<clus scale="   25.986">  2  5  1 -1</clus>
</clustering>
</event>
<event>
 9    2  0.2984928E-005  0.1331813E+03  0.7546771E-02  0.1225230E+00
         -1   -1    0    0    0  501 -0.00000000000E+00  0.00000000000E+00  0.12893330197E+03  0.12893330197E+03  0.00000000000E+00 0.  1.
          2   -1    0    0  502    0  0.00000000000E+00 -0.00000000000E+00 -0.41065724265E+03  0.41065724265E+03  0.00000000000E+00 0. -1.
         24    2    1    2    0    0  0.45142901236E+02  0.78927366104E+02  0.41202885604E+02  0.12863471766E+03  0.81128306734E+02 0.  0.
         23    2    1    2    0    0 -0.12287678605E+03 -0.83676305059E+02 -0.24592200101E+03  0.30143481352E+03  0.91021358169E+02 0.  0.
        -13    1    3    3    0    0  0.37701367668E+02  0.60897159259E+02  0.65787924969E+02  0.97251777370E+02  0.00000000000E+00 0.  1.
         14    1    3    3    0    0  0.74415335681E+01  0.18030206845E+02 -0.24585039365E+02  0.31382940291E+02  0.00000000000E+00 0. -1.
        -11    1    4    4    0    0 -0.16014603703E+02 -0.15556019591E+02 -0.12256621366E+03  0.12458304061E+03  0.00000000000E+00 0. -1.
         11    1    4    4    0    0 -0.10686218234E+03 -0.68120285469E+02 -0.12335578735E+03  0.17685177291E+03  0.00000000000E+00 0.  1.
         21    1    1    2  502  501  0.77733884809E+02  0.47489389557E+01 -0.77004825279E+02  0.10952101344E+03  0.00000000000E+00 0. -1.
<scales pt_clust_5="13000.00000" pt_clust_6="13000.00000" pt_clust_7="13000.00000" pt_clust_8="13000.00000" pt_clust_9="77.87881"></scales>
<clustering>
<clus scale="   77.879">  2  9  1 -1</clus>
<clus scale="   81.128">  5  6 -1 -1</clus>
<clus scale="   91.021">  7  8 -1 -1</clus>
<clus scale="  126.626">  1  5  2 -1</clus>
<clus scale="   77.879">  2  5  1 -1</clus>
</clustering>
</event>
<event>
 9    2  0.2984928E-005  0.1513631E+03  0.7546771E-02  0.1229121E+00
         -1   -1    0    0    0  501 -0.00000000000E+00  0.00000000000E+00  0.39843048123E+02  0.39843048123E+02  0.00000000000E+00 0.  1.
          2   -1    0    0  502    0  0.00000000000E+00 -0.00000000000E+00 -0.77150281432E+03  0.77150281432E+03  0.00000000000E+00 0. -1.
         24    2    1    2    0    0  0.98154854258E+01  0.14911043026E+02 -0.14123539270E+03  0.16210605074E+03  0.77538716642E+02 0.  0.
         23    2    1    2    0    0  0.27157714006E+02 -0.12160740102E+03 -0.36283062584E+03  0.39517280428E+03  0.94813399823E+02 0.  0.
        -11    1    3    3    0    0 -0.31525840697E+02 -0.68139507677E+01 -0.67754412465E+02  0.75039782551E+02  0.00000000000E+00 0.  1.
         12    1    3    3    0    0  0.41341326123E+02  0.21724993794E+02 -0.73480980236E+02  0.87066268194E+02  0.00000000000E+00 0. -1.
        -11    1    4    4    0    0  0.33795571773E+02 -0.18643331769E+02 -0.37272195865E+02  0.53655671420E+02  0.00000000000E+00 0.  1.
         11    1    4    4    0    0 -0.66378577677E+01 -0.10296406925E+03 -0.32555842997E+03  0.34151713286E+03  0.00000000000E+00 0. -1.
         21    1    1    2  502  501 -0.36973199431E+02  0.10669635799E+03 -0.22759374766E+03  0.25406700742E+03  0.00000000000E+00 0. -1.
<scales pt_clust_5="13000.00000" pt_clust_6="13000.00000" pt_clust_7="13000.00000" pt_clust_8="13000.00000" pt_clust_9="117.98813"></scales>
<clustering>
<clus scale="   77.539">  5  6 -1 -1</clus>
<clus scale="   79.567">  1  5  2 -1</clus>
<clus scale="   94.813">  7  8 -1 -1</clus>
<clus scale="  117.988">  1  9  2 -1</clus>
<clus scale="  151.363">  2  5  1 -1</clus>
</clustering>
</event>
<event>
 9    2  0.3342142E-005  0.1314754E+03  0.7546771E-02  0.1229279E+00
          2   -1    0    0  502    0  0.00000000000E+00  0.00000000000E+00  0.41607409328E+03  0.41607409328E+03  0.00000000000E+00 0. -1.
         -1   -1    0    0    0  501 -0.00000000000E+00 -0.00000000000E+00 -0.30098319093E+03  0.30098319093E+03  0.00000000000E+00 0.  1.
         23    2    1    2    0    0 -0.70557114632E+02  0.61459457694E+02 -0.27556521594E+03  0.30559135101E+03  0.93243306530E+02 0.  0.
         24    2    1    2    0    0  0.60787879908E+02 -0.42497732388E+02  0.31354052042E+03  0.33145468144E+03  0.77803112443E+02 0.  0.
        -13    1    4    4    0    0  0.19856140305E+02 -0.35201942239E+02  0.48315902839E+02  0.62991027237E+02  0.00000000000E+00 0.  1.
         14    1    4    4    0    0  0.40931739603E+02 -0.72957901487E+01  0.26522461758E+03  0.26846365421E+03  0.00000000000E+00 0. -1.
        -11    1    3    3    0    0 -0.73228350819E+02  0.29537164882E+02 -0.25635255602E+03  0.26823770886E+03  0.00000000000E+00 0.  1.
         11    1    3    3    0    0  0.26712361871E+01  0.31922292812E+02 -0.19212659912E+02  0.37353642152E+02  0.00000000000E+00 0. -1.
         21    1    1    2  502  501  0.97692347242E+01 -0.18961725306E+02  0.77115597868E+02  0.80011251760E+02  0.00000000000E+00 0.  1.
<scales pt_clust_5="13000.00000" pt_clust_6="13000.00000" pt_clust_7="13000.00000" pt_clust_8="13000.00000" pt_clust_9="21.33038"></scales>
<clustering>
<clus scale="   21.330">  1  9  2 -1</clus>
<clus scale="   77.803">  5  6 -1 -1</clus>
<clus scale="   93.243">  7  8 -1 -1</clus>
<clus scale="  121.016">  1  5  2 -1</clus>
<clus scale="   21.330">  1  5  2 -1</clus>
</clustering>
</event>
<event>
 9    2  0.2984928E-005  0.1120833E+03  0.7546771E-02  0.1276914E+00
         -3   -1    0    0    0  501 -0.00000000000E+00  0.00000000000E+00  0.41374570228E+03  0.41374570228E+03  0.00000000000E+00 0.  1.
          4   -1    0    0  502    0  0.00000000000E+00 -0.00000000000E+00 -0.13646330294E+03  0.13646330294E+03  0.00000000000E+00 0. -1.
         23    2    1    2    0    0 -0.81643424563E+01 -0.46723250587E+02  0.34496287959E+03  0.35318221016E+03  0.59064089290E+02 0.  0.
         24    2    1    2    0    0  0.12373320546E+02 -0.36675458994E+02 -0.42037699648E+02  0.10967341817E+03  0.93610373934E+02 0.  0.
        -13    1    4    4    0    0 -0.24995060158E+02 -0.52377923890E+02 -0.12103826263E+02  0.59284926866E+02  0.00000000000E+00 0.  1.
         14    1    4    4    0    0  0.37368380704E+02  0.15702464896E+02 -0.29933873385E+02  0.50388491306E+02  0.00000000000E+00 0. -1.
        -11    1    3    3    0    0 -0.29858529837E+02 -0.44193405487E+02  0.26340636404E+03  0.26875174699E+03  0.00000000000E+00 0.  1.
         11    1    3    3    0    0  0.21694187380E+02 -0.25298451000E+01  0.81556515555E+02  0.84430463174E+02  0.00000000000E+00 0. -1.
         21    1    1    2  502  501 -0.42089780898E+01  0.83398709581E+02 -0.25642780613E+02  0.87353376889E+02  0.00000000000E+00 0. -1.
<scales pt_clust_5="13000.00000" pt_clust_6="13000.00000" pt_clust_7="13000.00000" pt_clust_8="13000.00000" pt_clust_9="61.64229"></scales>
<clustering>
<clus scale="   59.064">  7  8 -1 -1</clus>
<clus scale="   75.751">  1  7  2 -1</clus>
<clus scale="   61.642">  1  9  2 -1</clus>
<clus scale="   93.610">  5  6 -1 -1</clus>
<clus scale="  112.083">  2  5  1 -1</clus>
</clustering>
</event>
<event>
 9    2  0.2984928E-005  0.2983020E+03  0.7546771E-02  0.1086261E+00
          2   -1    0    0  502    0  0.00000000000E+00  0.00000000000E+00  0.33610756814E+03  0.33610756814E+03  0.00000000000E+00 0. -1.
         -1   -1    0    0    0  501 -0.00000000000E+00 -0.00000000000E+00 -0.73997945426E+03  0.73997945426E+03  0.00000000000E+00 0.  1.
         23    2    1    2    0    0 -0.28241227513E+03 -0.46972398075E+01 -0.58829285079E+03  0.65826036290E+03  0.86252361542E+02 0.  0.
         24    2    1    2    0    0  0.30491561114E+03 -0.46720206810E+01  0.10177212595E+03  0.33165814023E+03  0.81511954158E+02 0.  0.
        -11    1    4    4    0    0  0.13673939918E+03 -0.16003497318E+02  0.60245002111E+01  0.13780446226E+03  0.00000000000E+00 0.  1.
         12    1    4    4    0    0  0.16817621195E+03  0.11331476637E+02  0.95747625741E+02  0.19385367798E+03  0.00000000000E+00 0. -1.
        -11    1    3    3    0    0 -0.14314607896E+03 -0.17862871568E+02 -0.38804084794E+03  0.41398741741E+03  0.00000000000E+00 0.  1.
         11    1    3    3    0    0 -0.13926619617E+03  0.13165631760E+02 -0.20025200285E+03  0.24427294549E+03  0.00000000000E+00 0. -1.
         21    1    1    2  502  501 -0.22503336009E+02  0.93692604885E+01  0.82648838705E+02  0.86168519269E+02  0.00000000000E+00 0. -1.
<scales pt_clust_5="13000.00000" pt_clust_6="13000.00000" pt_clust_7="13000.00000" pt_clust_8="13000.00000" pt_clust_9="24.37587"></scales>
<clustering>
<clus scale="   24.376">  1  9  2 -1</clus>
<clus scale="   81.512">  5  6 -1 -1</clus>
<clus scale="   86.252">  7  8 -1 -1</clus>
<clus scale="  296.966">  1  5  2 -1</clus>
<clus scale="   24.376">  1  5  2 -1</clus>
</clustering>
</event>
<event>
 9    2  0.2984928E-005  0.1472595E+03  0.7546771E-02  0.1208563E+00
         -1   -1    0    0    0  501 -0.00000000000E+00  0.00000000000E+00  0.16770931124E+03  0.16770931124E+03  0.00000000000E+00 0.  1.
          2   -1    0    0  502    0  0.00000000000E+00 -0.00000000000E+00 -0.29443039433E+03  0.29443039433E+03  0.00000000000E+00 0. -1.
         24    2    1    2    0    0 -0.91125096257E+02  0.54722510210E+02  0.93457769632E+02  0.16221519526E+03  0.79253255943E+02 0.  0.
         23    2    1    2    0    0  0.11724386362E+03 -0.17127802039E+02 -0.15095724013E+03  0.21693545235E+03  0.10116035279E+03 0.  0.
        -13    1    3    3    0    0 -0.96079142028E+02  0.64316815949E+02  0.66978049228E+02  0.13361853698E+03  0.00000000000E+00 0.  1.
         14    1    3    3    0    0  0.49540457710E+01 -0.95943057386E+01  0.26479720404E+02  0.28596658280E+02  0.00000000000E+00 0. -1.
        -11    1    4    4    0    0  0.24300850804E+02 -0.50468988868E+02 -0.42881042734E+02  0.70543844615E+02  0.00000000000E+00 0.  1.
         11    1    4    4    0    0  0.92943012815E+02  0.33341186829E+02 -0.10807619740E+03  0.14639160773E+03  0.00000000000E+00 0. -1.
         21    1    1    2  502  501 -0.26118767362E+02 -0.37594708171E+02 -0.69221612590E+02  0.82989057957E+02  0.00000000000E+00 0. -1.
<scales pt_clust_5="13000.00000" pt_clust_6="13000.00000" pt_clust_7="13000.00000" pt_clust_8="13000.00000" pt_clust_9="45.77720"></scales>
<clustering>
<clus scale="   45.777">  2  9  1 -1</clus>
<clus scale="   79.253">  5  6 -1 -1</clus>
<clus scale="  101.160">  7  8 -1 -1</clus>
<clus scale="  133.165">  1  5  2 -1</clus>
<clus scale="   45.777">  2  5  1 -1</clus>
</clustering>
</event>
<event>
 9    2  0.2984928E-005  0.1355752E+03  0.7546771E-02  0.1222896E+00
          2   -1    0    0  502    0  0.00000000000E+00  0.00000000000E+00  0.19113422080E+03  0.19113422080E+03  0.00000000000E+00 0. -1.
         -1   -1    0    0    0  501 -0.00000000000E+00 -0.00000000000E+00 -0.34754161163E+03  0.34754161163E+03  0.00000000000E+00 0.  1.
         23    2    1    2    0    0  0.64715958637E+02  0.77821571343E+02 -0.30419194263E+03  0.33423390754E+03  0.94526264734E+02 0.  0.
         24    2    1    2    0    0 -0.37197226588E+02 -0.53861743346E+02  0.96784407351E+02  0.14173332336E+03  0.80227129967E+02 0.  0.
        -13    1    4    4    0    0  0.10614379383E+02 -0.27164216346E+02 -0.15219106463E+01  0.29204039299E+02  0.00000000000E+00 0.  1.
         14    1    4    4    0    0 -0.47811605971E+02 -0.26697527000E+02  0.98306317997E+02  0.11252928406E+03  0.00000000000E+00 0. -1.
        -11    1    3    3    0    0  0.53757083761E+02  0.23310829910E+02 -0.24933146100E+03  0.25612379095E+03  0.00000000000E+00 0.  1.
         11    1    3    3    0    0  0.10958874876E+02  0.54510741433E+02 -0.54860481624E+02  0.78110116593E+02  0.00000000000E+00 0. -1.
         21    1    1    2  502  501 -0.27518732049E+02 -0.23959827997E+02  0.51000144449E+02  0.62708601524E+02  0.00000000000E+00 0.  1.
<scales pt_clust_5="13000.00000" pt_clust_6="13000.00000" pt_clust_7="13000.00000" pt_clust_8="13000.00000" pt_clust_9="36.48772"></scales>
<clustering>
<clus scale="   36.488">  1  9  2 -1</clus>
<clus scale="   80.227">  5  6 -1 -1</clus>
<clus scale="   94.526">  7  8 -1 -1</clus>
<clus scale="  126.023">  1  5  2 -1</clus>
<clus scale="   36.488">  1  5  2 -1</clus>
</clustering>
</event>
<event>
 9    2  0.2984928E-005  0.9939305E+02  0.7546771E-02  0.1286199E+00
          2   -1    0    0  502    0  0.00000000000E+00  0.00000000000E+00  0.12083399939E+03  0.12083399939E+03  0.00000000000E+00 0. -1.
         -1   -1    0    0    0  501 -0.00000000000E+00 -0.00000000000E+00 -0.24080852932E+03  0.24080852932E+03  0.00000000000E+00 0.  1.
         23    2    1    2    0    0 -0.44537466453E+02  0.59773549286E+01 -0.19551993908E+03  0.21980774558E+03  0.89822512491E+02 0.  0.
         24    2    1    2    0    0  0.30366539036E+02  0.20243871540E+02  0.45162557310E+02  0.99273232554E+02  0.80520662510E+02 0.  0.
        -13    1    4    4    0    0 -0.26254177421E+02 -0.44591944450E+01  0.13491151804E+02  0.29852594932E+02  0.00000000000E+00 0.  1.
         14    1    4    4    0    0  0.56620716457E+02  0.24703065985E+02  0.31671405505E+02  0.69420637622E+02  0.00000000000E+00 0. -1.
        -13    1    3    3    0    0  0.18520293759E+02  0.28012668841E+02 -0.68961925266E+02  0.76703702863E+02  0.00000000000E+00 0.  1.
         13    1    3    3    0    0 -0.63057760211E+02 -0.22035313912E+02 -0.12655801381E+03  0.14310404272E+03  0.00000000000E+00 0. -1.
         21    1    1    2  502  501  0.14170927417E+02 -0.26221226468E+02  0.30382851845E+02  0.42561550578E+02  0.00000000000E+00 0. -1.
<scales pt_clust_5="13000.00000" pt_clust_6="13000.00000" pt_clust_7="13000.00000" pt_clust_8="13000.00000" pt_clust_9="29.80550"></scales>
<clustering>
<clus scale="   29.806">  1  9  2 -1</clus>
<clus scale="   80.521">  5  6 -1 -1</clus>
<clus scale="   89.823">  7  8 -1 -1</clus>
<clus scale="   91.074">  1  5  2 -1</clus>
<clus scale="   29.806">  1  5  2 -1</clus>
</clustering>
</event>
<event>
 9    2  0.2984928E-005  0.1850114E+03  0.7546771E-02  0.1164377E+00
         -1   -1    0    0    0  501 -0.00000000000E+00  0.00000000000E+00  0.19763003466E+03  0.19763003466E+03  0.00000000000E+00 0.  1.
          2   -1    0    0  502    0  0.00000000000E+00 -0.00000000000E+00 -0.23801710993E+03  0.23801710993E+03  0.00000000000E+00 0. -1.
         23    2    1    2    0    0  0.12716268109E+03  0.10233582953E+03  0.81203822901E+02  0.20425788436E+03  0.92110004883E+02 0.  0.
         24    2    1    2    0    0 -0.13193471097E+03 -0.80421767151E+02 -0.10311970534E+03  0.20233442649E+03  0.80194251192E+02 0.  0.
        -13    1    4    4    0    0 -0.58722854482E+02 -0.21878876513E+02  0.41564391212E+00  0.62667628293E+02  0.00000000000E+00 0.  1.
         14    1    4    4    0    0 -0.73211856485E+02 -0.58542890638E+02 -0.10353534925E+03  0.13966679820E+03  0.00000000000E+00 0. -1.
        -13    1    3    3    0    0  0.26615265699E+02  0.48834487187E+02 -0.12225922600E+02  0.56944294626E+02  0.00000000000E+00 0.  1.
         13    1    3    3    0    0  0.10054741539E+03  0.53501342343E+02  0.93429745500E+02  0.14731358973E+03  0.00000000000E+00 0. -1.
         21    1    1    2  502  501  0.47720298731E+01 -0.21914062379E+02 -0.18471192834E+02  0.29054833742E+02  0.00000000000E+00 0.  1.
<scales pt_clust_5="13000.00000" pt_clust_6="13000.00000" pt_clust_7="13000.00000" pt_clust_8="13000.00000" pt_clust_9="22.42763"></scales>
<clustering>
<clus scale="   22.428">  2  9  1 -1</clus>
<clus scale="   80.194">  5  6 -1 -1</clus>
<clus scale="   92.110">  7  8 -1 -1</clus>
<clus scale="  179.377">  2  5  1 -1</clus>
<clus scale="   22.428">  2  5  1 -1</clus>
</clustering>
</event>
<event>
 9    2  0.2984928E-005  0.1432345E+03  0.7546771E-02  0.1218409E+00
          2   -1    0    0  502    0  0.00000000000E+00  0.00000000000E+00  0.25720092496E+03  0.25720092496E+03  0.00000000000E+00 0. -1.
         -1   -1    0    0    0  501 -0.00000000000E+00 -0.00000000000E+00 -0.35129634436E+03  0.35129634436E+03  0.00000000000E+00 0.  1.
         24    2    1    2    0    0 -0.33027128609E+02 -0.10605010372E+03 -0.23822941929E+03  0.27479817300E+03  0.80145891648E+02 0.  0.
         23    2    1    2    0    0  0.34781009605E+01 -0.74789837013E+02  0.48902898173E+02  0.12719197311E+03  0.90447154007E+02 0.  0.
        -11    1    3    3    0    0  0.96586258636E+01 -0.84410100173E+02 -0.11808727487E+03  0.14547494131E+03  0.00000000000E+00 0.  1.
         12    1    3    3    0    0 -0.42685754472E+02 -0.21640003548E+02 -0.12014214442E+03  0.12932323169E+03  0.00000000000E+00 0. -1.
        -13    1    4    4    0    0 -0.38068494891E+02 -0.32179060708E+02  0.45647634063E+02  0.67590004785E+02  0.00000000000E+00 0. -1.
         13    1    4    4    0    0  0.41546595851E+02 -0.42610776305E+02  0.32552641107E+01  0.59601968328E+02  0.00000000000E+00 0.  1.
         21    1    1    2  502  501  0.29549027648E+02  0.18083994073E+03  0.95231101712E+02  0.20650712320E+03  0.00000000000E+00 0. -1.
<scales pt_clust_5="13000.00000" pt_clust_6="13000.00000" pt_clust_7="13000.00000" pt_clust_8="13000.00000" pt_clust_9="118.71292"></scales>
<clustering>
<clus scale="   80.146">  5  6 -1 -1</clus>
<clus scale="   90.447">  7  8 -1 -1</clus>
<clus scale="  117.415">  1  7  2 -1</clus>
<clus scale="  118.713">  1  9  2 -1</clus>
<clus scale="  117.415">  1  5  2 -1</clus>
</clustering>
</event>
<event>
 9    2  0.2984928E-005  0.1023896E+03  0.7546771E-02  0.1280460E+00
          4   -1    0    0  502    0  0.00000000000E+00  0.00000000000E+00  0.21506984648E+03  0.21506984648E+03  0.00000000000E+00 0. -1.
         -3   -1    0    0    0  501 -0.00000000000E+00 -0.00000000000E+00 -0.97590396927E+02  0.97590396927E+02  0.00000000000E+00 0.  1.
         23    2    1    2    0    0  0.32408963592E+02  0.66430722582E+01 -0.26132616997E+02  0.10008016951E+03  0.90767038776E+02 0.  0.
         24    2    1    2    0    0 -0.12784231389E+02 -0.54342442536E+02  0.12326638080E+03  0.15713364058E+03  0.79873917724E+02 0.  0.
        -11    1    4    4    0    0  0.10779775192E+02  0.16962312132E+02  0.13783650331E+02  0.24370322167E+02  0.00000000000E+00 0.  1.
         12    1    4    4    0    0 -0.23564006581E+02 -0.71304754668E+02  0.10948273047E+03  0.13276331841E+03  0.00000000000E+00 0. -1.
        -13    1    3    3    0    0  0.53021448064E+02  0.24306064850E+02  0.52778058520E+01  0.58565467453E+02  0.00000000000E+00 0. -1.
         13    1    3    3    0    0 -0.20612484472E+02 -0.17662992592E+02 -0.31410422849E+02  0.41514702058E+02  0.00000000000E+00 0.  1.
         21    1    1    2  502  501 -0.19624732203E+02  0.47699370278E+02  0.20345685750E+02  0.55446433317E+02  0.00000000000E+00 0. -1.
<scales pt_clust_5="13000.00000" pt_clust_6="13000.00000" pt_clust_7="13000.00000" pt_clust_8="13000.00000" pt_clust_9="51.57868"></scales>
<clustering>
<clus scale="   51.579">  2  9  1 -1</clus>
<clus scale="   79.874">  5  6 -1 -1</clus>
<clus scale="   90.767">  7  8 -1 -1</clus>
<clus scale="   92.870">  1  5  2 -1</clus>
<clus scale="   92.870">  1  5  2 -1</clus>
</clustering>
</event>
<event>
 9    2  0.2984928E-005  0.1078858E+03  0.7546771E-02  0.1268918E+00
         -1   -1    0    0    0  501 -0.00000000000E+00  0.00000000000E+00  0.41865959036E+02  0.41865959036E+02  0.00000000000E+00 0.  1.
          2   -1    0    0  502    0  0.00000000000E+00 -0.00000000000E+00 -0.44760449245E+03  0.44760449245E+03  0.00000000000E+00 0. -1.
         23    2    1    2    0    0 -0.29172833682E+02 -0.53557832202E+02 -0.71715327148E+02  0.13065634874E+03  0.90600759951E+02 0.  0.
         24    2    1    2    0    0  0.50363760837E+02  0.29584591791E+02 -0.25776292937E+03  0.27611342873E+03  0.79907079110E+02 0.  0.
        -11    1    4    4    0    0  0.14358913826E+01  0.46901463559E+02 -0.11472276647E+03  0.12394806256E+03  0.00000000000E+00 0.  1.
         12    1    4    4    0    0  0.48927869454E+02 -0.17316871768E+02 -0.14304016291E+03  0.15216536617E+03  0.00000000000E+00 0. -1.
        -11    1    3    3    0    0 -0.54268390002E+02 -0.57601532846E+02 -0.69175309494E+02  0.10511050463E+03  0.00000000000E+00 0. -1.
         11    1    3    3    0    0  0.25095556320E+02  0.40437006436E+01 -0.25400176544E+01  0.25545844116E+02  0.00000000000E+00 0.  1.
         21    1    1    2  502  501 -0.21190927154E+02  0.23973240411E+02 -0.76260276898E+02  0.82700674012E+02  0.00000000000E+00 0.  1.
<scales pt_clust_5="13000.00000" pt_clust_6="13000.00000" pt_clust_7="13000.00000" pt_clust_8="13000.00000" pt_clust_9="31.99643"></scales>
<clustering>
<clus scale="   31.996">  2  9  1 -1</clus>
<clus scale="   79.907">  5  6 -1 -1</clus>
<clus scale="   90.601">  7  8 -1 -1</clus>
<clus scale="   99.076">  2  5  1 -1</clus>
<clus scale="   31.996">  2  5  1 -1</clus>
</clustering>
</event>
<event>
 9    2  0.2984928E-005  0.1035118E+03  0.7546771E-02  0.1279170E+00
          2   -1    0    0  502    0  0.00000000000E+00  0.00000000000E+00  0.31515070853E+03  0.31515070853E+03  0.00000000000E+00 0. -1.
         -1   -1    0    0    0  501 -0.00000000000E+00 -0.00000000000E+00 -0.60989870837E+02  0.60989870837E+02  0.00000000000E+00 0.  1.
         24    2    1    2    0    0 -0.49429304722E+02 -0.16267248313E+02  0.22308854633E+01  0.93800464772E+02  0.78010709576E+02 0.  0.
         23    2    1    2    0    0  0.40422031476E+02 -0.72480087283E+01  0.17708056436E+03  0.20336841619E+03  0.91185043558E+02 0.  0.
        -13    1    3    3    0    0 -0.38326546918E+01 -0.20162143980E+02 -0.31047169283E+02  0.37217307968E+02  0.00000000000E+00 0.  1.
         14    1    3    3    0    0 -0.45596650030E+02  0.38948956670E+01  0.33278054747E+02  0.56583156804E+02  0.00000000000E+00 0. -1.
        -11    1    4    4    0    0 -0.25424696704E+02 -0.54793273653E+01  0.92941440376E+02  0.96511914135E+02  0.00000000000E+00 0.  1.
         11    1    4    4    0    0  0.65846728179E+02 -0.17686813629E+01  0.84139123984E+02  0.10685650205E+03  0.00000000000E+00 0. -1.
         21    1    1    2  502  501  0.90072732464E+01  0.23515257042E+02  0.74849387870E+02  0.78971698409E+02  0.00000000000E+00 0. -1.
<scales pt_clust_5="13000.00000" pt_clust_6="13000.00000" pt_clust_7="13000.00000" pt_clust_8="13000.00000" pt_clust_9="25.18131"></scales>
<clustering>
<clus scale="   25.181">  1  9  2 -1</clus>
<clus scale="   78.011">  5  6 -1 -1</clus>
<clus scale="   91.185">  7  8 -1 -1</clus>
<clus scale="   92.118">  2  5  1 -1</clus>
<clus scale="   25.181">  1  5  2 -1</clus>
</clustering>
</event>
<event>
 9    2  0.2984928E-005  0.1107160E+03  0.7546771E-02  0.1260956E+00
         -1   -1    0    0    0  501 -0.00000000000E+00  0.00000000000E+00  0.72227323356E+02  0.72227323356E+02  0.00000000000E+00 0.  1.
          2   -1    0    0  502    0  0.00000000000E+00 -0.00000000000E+00 -0.64005241988E+03  0.64005241988E+03  0.00000000000E+00 0. -1.
         24    2    1    2    0    0  0.64773532311E+02  0.68030332032E+01  0.20980966800E+02  0.10945396410E+03  0.85428786367E+02 0.  0.
         23    2    1    2    0    0 -0.55621505469E+02 -0.24605516920E+02 -0.47325880029E+03  0.48555746280E+03  0.89960959844E+02 0.  0.
        -13    1    3    3    0    0  0.45396024594E+02  0.41085017336E+02  0.31273291345E+02  0.68751701433E+02  0.00000000000E+00 0.  1.
         14    1    3    3    0    0  0.19377507718E+02 -0.34281984133E+02 -0.10292324545E+02  0.40702262665E+02  0.00000000000E+00 0. -1.
        -11    1    4    4    0    0 -0.72778095429E+02  0.65006492139E+01 -0.31826079788E+03  0.32654072499E+03  0.00000000000E+00 0. -1.
         11    1    4    4    0    0  0.17156589960E+02 -0.31106166133E+02 -0.15499800241E+03  0.15901673781E+03  0.00000000000E+00 0.  1.
         21    1    1    2  502  501 -0.91520268428E+01  0.17802483716E+02 -0.11554726303E+03  0.11726831633E+03  0.00000000000E+00 0. -1.
<scales pt_clust_5="13000.00000" pt_clust_6="13000.00000" pt_clust_7="13000.00000" pt_clust_8="13000.00000" pt_clust_9="20.01719"></scales>
<clustering>
<clus scale="   20.017">  2  9  1 -1</clus>
<clus scale="   85.429">  5  6 -1 -1</clus>
<clus scale="   89.961">  7  8 -1 -1</clus>
<clus scale="  107.066">  1  5  2 -1</clus>
<clus scale="   20.017">  2  5  1 -1</clus>
</clustering>
</event>
<event>
 9    2  0.2984928E-005  0.1030767E+03  0.7546771E-02  0.1280658E+00
         -1   -1    0    0    0  501 -0.00000000000E+00  0.00000000000E+00  0.51711060390E+03  0.51711060390E+03  0.00000000000E+00 0.  1.
          2   -1    0    0  502    0  0.00000000000E+00 -0.00000000000E+00 -0.16337927214E+03  0.16337927214E+03  0.00000000000E+00 0. -1.
         23    2    1    2    0    0 -0.41919676999E+02  0.14856365585E+02  0.47718148010E+03  0.48844129769E+03  0.94312064029E+02 0.  0.
         24    2    1    2    0    0 -0.89010307309E+01  0.17374642017E+02 -0.93035438593E+02  0.12461982519E+03  0.80581644704E+02 0.  0.
        -11    1    4    4    0    0 -0.40940613708E+02  0.10019688207E+02 -0.24863262096E+02  0.48935772239E+02  0.00000000000E+00 0.  1.
         12    1    4    4    0    0  0.32039582977E+02  0.73549538102E+01 -0.68172176498E+02  0.75684052953E+02  0.00000000000E+00 0. -1.
        -13    1    3    3    0    0 -0.26003513975E+02 -0.39431340384E+02  0.19434553032E+03  0.20000299623E+03  0.00000000000E+00 0. -1.
         13    1    3    3    0    0 -0.15916163024E+02  0.54287705969E+02  0.28283594977E+03  0.28843830146E+03  0.00000000000E+00 0.  1.
         21    1    1    2  502  501  0.50820707730E+02 -0.32231007602E+02 -0.30414709743E+02  0.67428753169E+02  0.00000000000E+00 0. -1.
<scales pt_clust_5="13000.00000" pt_clust_6="13000.00000" pt_clust_7="13000.00000" pt_clust_8="13000.00000" pt_clust_9="60.17958"></scales>
<clustering>
<clus scale="   60.180">  2  9  1 -1</clus>
<clus scale="   80.582">  5  6 -1 -1</clus>
<clus scale="   90.683">  2  5  1 -1</clus>
<clus scale="   94.312">  7  8 -1 -1</clus>
<clus scale="   60.180">  2  5  1 -1</clus>
</clustering>
</event>
<event>
 9    2  0.2984928E-005  0.9472042E+02  0.7546771E-02  0.1296232E+00
          2   -1    0    0  502    0  0.00000000000E+00  0.00000000000E+00  0.21245361073E+03  0.21245361073E+03  0.00000000000E+00 0. -1.
         -1   -1    0    0    0  501 -0.00000000000E+00 -0.00000000000E+00 -0.17254484004E+03  0.17254484004E+03  0.00000000000E+00 0.  1.
         24    2    1    2    0    0  0.10300594039E+02 -0.26596752142E+02 -0.13072175252E+03  0.15679491726E+03  0.81749495622E+02 0.  0.
         23    2    1    2    0    0  0.52698078314E+01  0.60471449969E+02  0.15169118179E+03  0.18638689543E+03  0.89695557414E+02 0.  0.
        -13    1    3    3    0    0  0.32178784004E+02  0.17902968743E+02 -0.50869940833E+02  0.62799214248E+02  0.00000000000E+00 0.  1.
         14    1    3    3    0    0 -0.21878189965E+02 -0.44499720885E+02 -0.79851811683E+02  0.93995703009E+02  0.00000000000E+00 0. -1.
        -13    1    4    4    0    0  0.35985831617E+02  0.53103945148E+02  0.54442029603E+02  0.84136458534E+02  0.00000000000E+00 0.  1.
         13    1    4    4    0    0 -0.30716023786E+02  0.73675048207E+01  0.97249152187E+02  0.10225043690E+03  0.00000000000E+00 0. -1.
         21    1    1    2  502  501 -0.15570401871E+02 -0.33874697826E+02  0.18939341413E+02  0.41816638081E+02  0.00000000000E+00 0. -1.
<scales pt_clust_5="13000.00000" pt_clust_6="13000.00000" pt_clust_7="13000.00000" pt_clust_8="13000.00000" pt_clust_9="37.28180"></scales>
<clustering>
<clus scale="   37.282">  1  9  2 -1</clus>
<clus scale="   81.749">  5  6 -1 -1</clus>
<clus scale="   87.233">  2  5  1 -1</clus>
<clus scale="   89.696">  7  8 -1 -1</clus>
<clus scale="   37.282">  1  5  2 -1</clus>
</clustering>
</event>
<event>
 9    2  0.2984928E-005  0.1176914E+03  0.7546771E-02  0.1247293E+00
          2   -1    0    0  502    0  0.00000000000E+00  0.00000000000E+00  0.15330905475E+03  0.15330905475E+03  0.00000000000E+00 0. -1.
         -1   -1    0    0    0  501 -0.00000000000E+00 -0.00000000000E+00 -0.20135483326E+03  0.20135483326E+03  0.00000000000E+00 0.  1.
         24    2    1    2    0    0  0.87520475988E+02 -0.28763176051E+02 -0.98799750143E+02  0.16311853576E+03  0.91428179835E+02 0.  0.
         23    2    1    2    0    0 -0.23720781332E+02  0.52799894904E+02  0.13551834711E+01  0.10735268533E+03  0.90400542896E+02 0.  0.
        -13    1    3    3    0    0  0.51842996770E+02 -0.58873776291E+02 -0.82056969721E+02  0.11352164608E+03  0.00000000000E+00 0.  1.
         14    1    3    3    0    0  0.35677479218E+02  0.30110600240E+02 -0.16742780422E+02  0.49596889685E+02  0.00000000000E+00 0. -1.
        -13    1    4    4    0    0  0.21977544441E+02  0.46960944501E+02 -0.21251126778E+02  0.56035284932E+02  0.00000000000E+00 0.  1.
         13    1    4    4    0    0 -0.45698325773E+02  0.58389504037E+01  0.22606310249E+02  0.51317400396E+02  0.00000000000E+00 0. -1.
         21    1    1    2  502  501 -0.63799694656E+02 -0.24036718853E+02  0.49398788157E+02  0.84192666918E+02  0.00000000000E+00 0. -1.
<scales pt_clust_5="13000.00000" pt_clust_6="13000.00000" pt_clust_7="13000.00000" pt_clust_8="13000.00000" pt_clust_9="68.17745"></scales>
<clustering>
<clus scale="   68.177">  1  9  2 -1</clus>
<clus scale="   90.401">  7  8 -1 -1</clus>
<clus scale="   91.428">  5  6 -1 -1</clus>
<clus scale="  116.895">  1  7  2 -1</clus>
<clus scale="   68.177">  1  5  2 -1</clus>
</clustering>
</event>
<event>
 9    2  0.2984928E-005  0.9661186E+02  0.7546771E-02  0.1292656E+00
          2   -1    0    0  502    0  0.00000000000E+00  0.00000000000E+00  0.25086565613E+03  0.25086565613E+03  0.00000000000E+00 0. -1.
         -1   -1    0    0    0  501 -0.00000000000E+00 -0.00000000000E+00 -0.17464256371E+03  0.17464256371E+03  0.00000000000E+00 0.  1.
         23    2    1    2    0    0  0.17090139883E+01  0.29597629094E+02 -0.10103240518E+03  0.13789024401E+03  0.89035005031E+02 0.  0.
         24    2    1    2    0    0  0.28206140864E+02 -0.56200517075E+02 -0.45773428478E+01  0.10143040373E+03  0.79454957243E+02 0.  0.
        -13    1    4    4    0    0  0.53760708553E+02 -0.52340073279E+02  0.78516243685E+00  0.75035415205E+02  0.00000000000E+00 0.  1.
         14    1    4    4    0    0 -0.25554567689E+02 -0.38604437958E+01 -0.53625052846E+01  0.26394988520E+02  0.00000000000E+00 0. -1.
        -13    1    3    3    0    0  0.28748836608E+02 -0.15322785665E+02 -0.12294052475E+02  0.34819923795E+02  0.00000000000E+00 0.  1.
         13    1    3    3    0    0 -0.27039822619E+02  0.44920414758E+02 -0.88738352701E+02  0.10307032022E+03  0.00000000000E+00 0. -1.
         21    1    1    2  502  501 -0.29915154853E+02  0.26602887981E+02  0.18183284045E+03  0.18618757210E+03  0.00000000000E+00 0. -1.
<scales pt_clust_5="13000.00000" pt_clust_6="13000.00000" pt_clust_7="13000.00000" pt_clust_8="13000.00000" pt_clust_9="40.03286"></scales>
<clustering>
<clus scale="   40.033">  1  9  2 -1</clus>
<clus scale="   79.455">  5  6 -1 -1</clus>
<clus scale="   87.862">  1  5  2 -1</clus>
<clus scale="   89.035">  7  8 -1 -1</clus>
<clus scale="   40.033">  1  5  2 -1</clus>
</clustering>
</event>
<event>
 9    2  0.2984928E-005  0.1110995E+03  0.7546771E-02  0.1261248E+00
         -1   -1    0    0    0  501 -0.00000000000E+00  0.00000000000E+00  0.10143337450E+03  0.10143337450E+03  0.00000000000E+00 0.  1.
          2   -1    0    0  502    0  0.00000000000E+00 -0.00000000000E+00 -0.31135209370E+03  0.31135209370E+03  0.00000000000E+00 0. -1.
         24    2    1    2    0    0  0.73402390721E+02  0.16682004744E+02  0.36331483712E+02  0.11802501832E+03  0.83329034531E+02 0.  0.
         23    2    1    2    0    0 -0.27787658256E+02 -0.26264758733E+02 -0.95625275051E+02  0.13708863284E+03  0.90482642105E+02 0.  0.
        -11    1    3    3    0    0  0.48156665280E+02 -0.31666395687E+02  0.21344767698E+02  0.61460752801E+02  0.00000000000E+00 0.  1.
         12    1    3    3    0    0  0.25245725440E+02  0.48348400431E+02  0.14986716014E+02  0.56564265523E+02  0.00000000000E+00 0. -1.
        -13    1    4    4    0    0  0.14188627439E+02  0.24843075199E+02 -0.46915689248E+02  0.54950681811E+02  0.00000000000E+00 0.  1.
         13    1    4    4    0    0 -0.41976285694E+02 -0.51107833932E+02 -0.48709585803E+02  0.82137951027E+02  0.00000000000E+00 0. -1.
         21    1    1    2  502  501 -0.45614732465E+02  0.95827539894E+01 -0.15062492787E+03  0.15767181703E+03  0.00000000000E+00 0. -1.
<scales pt_clust_5="13000.00000" pt_clust_6="13000.00000" pt_clust_7="13000.00000" pt_clust_8="13000.00000" pt_clust_9="46.61044"></scales>
<clustering>
<clus scale="   46.610">  2  9  1 -1</clus>
<clus scale="   83.329">  5  6 -1 -1</clus>
<clus scale="   90.483">  7  8 -1 -1</clus>
<clus scale="  105.355">  1  5  2 -1</clus>
<clus scale="   46.610">  2  5  1 -1</clus>
</clustering>
</event>
<event>
 9    2  0.2984928E-005  0.1488701E+03  0.7546771E-02  0.1203518E+00
         -1   -1    0    0    0  501 -0.00000000000E+00  0.00000000000E+00  0.21307725382E+03  0.21307725382E+03  0.00000000000E+00 0.  1.
          2   -1    0    0  502    0  0.00000000000E+00 -0.00000000000E+00 -0.23639643720E+03  0.23639643720E+03  0.00000000000E+00 0. -1.
         23    2    1    2    0    0  0.87047204087E+02  0.90052024443E+02  0.14739738335E+03  0.21321474425E+03  0.89710399067E+02 0.  0.
         24    2    1    2    0    0 -0.47890631322E+02 -0.74790644618E+02 -0.13866818864E+03  0.18340778366E+03  0.80761348901E+02 0.  0.
        -11    1    4    4    0    0 -0.41239341685E+02 -0.68725501836E+01 -0.19611014049E+02  0.46179076655E+02  0.00000000000E+00 0.  1.
         12    1    4    4    0    0 -0.66512896370E+01 -0.67918094434E+02 -0.11905717459E+03  0.13722870700E+03  0.00000000000E+00 0. -1.
        -11    1    3    3    0    0  0.74532496805E+02  0.41576183959E+02  0.13802577186E+03  0.16227996133E+03  0.00000000000E+00 0.  1.
         11    1    3    3    0    0  0.12514707282E+02  0.48475840485E+02  0.93716114938E+01  0.50934782919E+02  0.00000000000E+00 0. -1.
         21    1    1    2  502  501 -0.39156572765E+02 -0.15261379825E+02 -0.32048378093E+02  0.52851163121E+02  0.00000000000E+00 0.  1.
<scales pt_clust_5="13000.00000" pt_clust_6="13000.00000" pt_clust_7="13000.00000" pt_clust_8="13000.00000" pt_clust_9="42.02555"></scales>
<clustering>
<clus scale="   42.026">  2  9  1 -1</clus>
<clus scale="   80.761">  5  6 -1 -1</clus>
<clus scale="   89.710">  7  8 -1 -1</clus>
<clus scale="  143.655">  2  5  1 -1</clus>
<clus scale="   42.026">  2  5  1 -1</clus>
</clustering>
</event>
<event>
 9    2  0.2984928E-005  0.1075781E+03  0.7546771E-02  0.1275777E+00
         -1   -1    0    0    0  501 -0.00000000000E+00  0.00000000000E+00  0.59078879915E+02  0.59078879915E+02  0.00000000000E+00 0.  1.
          2   -1    0    0  502    0  0.00000000000E+00 -0.00000000000E+00 -0.34462249395E+03  0.34462249395E+03  0.00000000000E+00 0. -1.
         24    2    1    2    0    0  0.19622176990E+01 -0.57406649548E+02 -0.12993614863E+02  0.94676802054E+02  0.74131566215E+02 0.  0.
         23    2    1    2    0    0  0.12053805109E+01  0.10155223041E+02 -0.16789622544E+03  0.19415445671E+03  0.96965091908E+02 0.  0.
        -13    1    3    3    0    0  0.90660982332E+01 -0.46519246860E+02  0.25660460705E+02  0.53895210448E+02  0.00000000000E+00 0.  1.
         14    1    3    3    0    0 -0.71038805341E+01 -0.10887402687E+02 -0.38654075568E+02  0.40781591606E+02  0.00000000000E+00 0. -1.
        -13    1    4    4    0    0 -0.24489912346E+02 -0.29301328387E+02 -0.12412324902E+03  0.12986494754E+03  0.00000000000E+00 0.  1.
         13    1    4    4    0    0  0.25695292857E+02  0.39456551429E+02 -0.43772976418E+02  0.64289509177E+02  0.00000000000E+00 0. -1.
         21    1    1    2  502  501 -0.31675982099E+01  0.47251426507E+02 -0.10465377374E+03  0.11487011510E+03  0.00000000000E+00 0. -1.
<scales pt_clust_5="13000.00000" pt_clust_6="13000.00000" pt_clust_7="13000.00000" pt_clust_8="13000.00000" pt_clust_9="47.35748"></scales>
<clustering>
<clus scale="   47.357">  2  9  1 -1</clus>
<clus scale="   74.132">  5  6 -1 -1</clus>
<clus scale="   87.557">  1  5  2 -1</clus>
<clus scale="   96.965">  7  8 -1 -1</clus>
<clus scale="   47.357">  2  5  1 -1</clus>
</clustering>
</event>
<event>
 9    2  0.2984928E-005  0.1739449E+03  0.7546771E-02  0.1174880E+00
         -1   -1    0    0    0  501 -0.00000000000E+00  0.00000000000E+00  0.13422144498E+03  0.13422144498E+03  0.00000000000E+00 0.  1.
          2   -1    0    0  502    0  0.00000000000E+00 -0.00000000000E+00 -0.69033116157E+03  0.69033116157E+03  0.00000000000E+00 0. -1.
         23    2    1    2    0    0  0.69682170773E+02  0.13000740708E+03  0.54099953280E+02  0.18196473564E+03  0.91797762795E+02 0.  0.
         24    2    1    2    0    0 -0.91375909955E+02 -0.12100389150E+03 -0.57308525039E+03  0.59865719673E+03  0.83499918000E+02 0.  0.
        -13    1    4    4    0    0 -0.17510514991E+02 -0.85966608939E+02 -0.35704566820E+03  0.36766626874E+03  0.00000000000E+00 0.  1.
         14    1    4    4    0    0 -0.73865394964E+02 -0.35037282563E+02 -0.21603958219E+03  0.23099092800E+03  0.00000000000E+00 0. -1.
        -13    1    3    3    0    0  0.23141354238E+02  0.32171781589E+01 -0.17412304579E+02  0.29138648940E+02  0.00000000000E+00 0. -1.
         13    1    3    3    0    0  0.46540816535E+02  0.12679022892E+03  0.71512257860E+02  0.15282608670E+03  0.00000000000E+00 0.  1.
         21    1    1    2  502  501  0.21693739183E+02 -0.90035155738E+01 -0.37124419474E+02  0.43930674178E+02  0.00000000000E+00 0.  1.
<scales pt_clust_5="13000.00000" pt_clust_6="13000.00000" pt_clust_7="13000.00000" pt_clust_8="13000.00000" pt_clust_9="23.48790"></scales>
<clustering>
<clus scale="   23.488">  2  9  1 -1</clus>
<clus scale="   83.500">  5  6 -1 -1</clus>
<clus scale="   91.798">  7  8 -1 -1</clus>
<clus scale="  169.712">  2  5  1 -1</clus>
<clus scale="   23.488">  2  5  1 -1</clus>
</clustering>
</event>
<event>
 9    2  0.2984928E-005  0.2961218E+03  0.7546771E-02  0.1087537E+00
          2   -1    0    0  502    0  0.00000000000E+00  0.00000000000E+00  0.46520485004E+03  0.46520485004E+03  0.00000000000E+00 0. -1.
         -1   -1    0    0    0  501 -0.00000000000E+00 -0.00000000000E+00 -0.48724886928E+03  0.48724886928E+03  0.00000000000E+00 0.  1.
         23    2    1    2    0    0  0.24115982757E+03  0.17433626619E+03 -0.36732001976E+03  0.48145103393E+03  0.91213513371E+02 0.  0.
         24    2    1    2    0    0 -0.14600748383E+03 -0.13923702658E+03  0.25340992281E+03  0.33416226237E+03  0.82113906912E+02 0.  0.
        -11    1    4    4    0    0 -0.61183029836E+02 -0.33825521875E+02  0.37427224913E+02  0.79298967425E+02  0.00000000000E+00 0.  1.
         12    1    4    4    0    0 -0.84824453998E+02 -0.10541150470E+03  0.21598269789E+03  0.25486329494E+03  0.00000000000E+00 0. -1.
        -11    1    3    3    0    0  0.29375310813E+02  0.35169803217E+02 -0.11520973606E+03  0.12398833505E+03  0.00000000000E+00 0. -1.
         11    1    3    3    0    0  0.21178451675E+03  0.13916646297E+03 -0.25211028370E+03  0.35746269889E+03  0.00000000000E+00 0.  1.
         21    1    1    2  502  501 -0.95152343734E+02 -0.35099239607E+02  0.91866077709E+02  0.13684042302E+03  0.00000000000E+00 0. -1.
<scales pt_clust_5="13000.00000" pt_clust_6="13000.00000" pt_clust_7="13000.00000" pt_clust_8="13000.00000" pt_clust_9="101.41955"></scales>
<clustering>
<clus scale="   82.114">  5  6 -1 -1</clus>
<clus scale="   91.214">  7  8 -1 -1</clus>
<clus scale="  101.420">  1  9  2 -1</clus>
<clus scale="  293.447">  1  5  2 -1</clus>
<clus scale="  101.420">  1  5  2 -1</clus>
</clustering>
</event>
<event>
 9    2  0.2984928E-005  0.1270982E+03  0.7546771E-02  0.1233236E+00
         -1   -1    0    0    0  501 -0.00000000000E+00  0.00000000000E+00  0.10806056235E+03  0.10806056235E+03  0.00000000000E+00 0.  1.
          2   -1    0    0  502    0  0.00000000000E+00 -0.00000000000E+00 -0.19495575351E+03  0.19495575351E+03  0.00000000000E+00 0. -1.
         23    2    1    2    0    0  0.95904043569E+02  0.88313766164E+01  0.12248788031E+02  0.13037015093E+03  0.87010141123E+02 0.  0.
         24    2    1    2    0    0 -0.86396943164E+02  0.10770639369E+02 -0.80265133688E+02  0.14381849080E+03  0.81613896785E+02 0.  0.
        -13    1    4    4    0    0 -0.23118550525E+02  0.39634720090E+02 -0.14558735920E+02  0.48138707986E+02  0.00000000000E+00 0.  1.
         14    1    4    4    0    0 -0.63278392638E+02 -0.28864080721E+02 -0.65706397768E+02  0.95679782809E+02  0.00000000000E+00 0. -1.
        -11    1    3    3    0    0  0.46380175865E+02 -0.24571538840E+02  0.38527585653E+02  0.65109569884E+02  0.00000000000E+00 0.  1.
         11    1    3    3    0    0  0.49523867704E+02  0.33402915457E+02 -0.26278797623E+02  0.65260581041E+02  0.00000000000E+00 0. -1.
         21    1    1    2  502  501 -0.95071004051E+01 -0.19602015986E+02 -0.18878845507E+02  0.28827674143E+02  0.00000000000E+00 0.  1.
<scales pt_clust_5="13000.00000" pt_clust_6="13000.00000" pt_clust_7="13000.00000" pt_clust_8="13000.00000" pt_clust_9="21.78587"></scales>
<clustering>
<clus scale="   21.786">  2  9  1 -1</clus>
<clus scale="   81.614">  5  6 -1 -1</clus>
<clus scale="   87.010">  7  8 -1 -1</clus>
<clus scale="  123.467">  2  5  1 -1</clus>
<clus scale="   21.786">  2  5  1 -1</clus>
</clustering>
</event>
<event>
 9    2  0.2984928E-005  0.2333701E+03  0.7546771E-02  0.1124462E+00
         -1   -1    0    0    0  501 -0.00000000000E+00  0.00000000000E+00  0.87880034592E+02  0.87880034592E+02  0.00000000000E+00 0.  1.
          2   -1    0    0  502    0  0.00000000000E+00 -0.00000000000E+00 -0.14985962711E+04  0.14985962711E+04  0.00000000000E+00 0. -1.
         23    2    1    2    0    0 -0.11947561158E+02 -0.21130990105E+03 -0.11338301231E+03  0.25663212155E+03  0.90607504290E+02 0.  0.
         24    2    1    2    0    0  0.41862601324E+02  0.23247013359E+03 -0.10513714220E+04  0.10811679424E+04  0.88019385636E+02 0.  0.
        -13    1    4    4    0    0  0.38525090386E+01  0.67379106870E+02 -0.15696747024E+03  0.17086126706E+03  0.00000000000E+00 0.  1.
         14    1    4    4    0    0  0.38010092285E+02  0.16509102672E+03 -0.89440395176E+03  0.91030667532E+03  0.00000000000E+00 0. -1.
        -13    1    3    3    0    0  0.82404955337E+01 -0.16414814686E+03 -0.12190284866E+03  0.20462850339E+03  0.00000000000E+00 0. -1.
         13    1    3    3    0    0 -0.20188056692E+02 -0.47161754184E+02  0.85198363579E+01  0.52003618165E+02  0.00000000000E+00 0.  1.
         21    1    1    2  502  501 -0.29915040165E+02 -0.21160232543E+02 -0.24596180216E+03  0.24867624171E+03  0.00000000000E+00 0. -1.
<scales pt_clust_5="13000.00000" pt_clust_6="13000.00000" pt_clust_7="13000.00000" pt_clust_8="13000.00000" pt_clust_9="36.64239"></scales>
<clustering>
<clus scale="   36.642">  2  9  1 -1</clus>
<clus scale="   88.019">  5  6 -1 -1</clus>
<clus scale="   90.608">  7  8 -1 -1</clus>
<clus scale="  232.377">  2  5  1 -1</clus>
<clus scale="   36.642">  2  5  1 -1</clus>
</clustering>
</event>
<event>
 9    2  0.2984928E-005  0.4255145E+03  0.7546771E-02  0.1035286E+00
          2   -1    0    0  502    0  0.00000000000E+00  0.00000000000E+00  0.14471548245E+04  0.14471548245E+04  0.00000000000E+00 0. -1.
         -1   -1    0    0    0  501 -0.00000000000E+00 -0.00000000000E+00 -0.10914247106E+03  0.10914247106E+03  0.00000000000E+00 0.  1.
         24    2    1    2    0    0  0.77650076994E+02 -0.25451279022E+03  0.46622338490E+03  0.54286584502E+03  0.80825653246E+02 0.  0.
         23    2    1    2    0    0 -0.29876031694E+02 -0.10962488976E+03  0.19563820084E+03  0.24397809259E+03  0.91328036823E+02 0.  0.
        -13    1    3    3    0    0  0.87501373135E+02 -0.15750889104E+03  0.31645270428E+03  0.36415361471E+03  0.00000000000E+00 0.  1.
         14    1    3    3    0    0 -0.98512961412E+01 -0.97003899179E+02  0.14977068062E+03  0.17871223032E+03  0.00000000000E+00 0. -1.
        -11    1    4    4    0    0 -0.30810001666E+01 -0.45498129879E+02  0.15900415110E+03  0.16541430546E+03  0.00000000000E+00 0. -1.
         11    1    4    4    0    0 -0.26795031528E+02 -0.64126759879E+02  0.36634049744E+02  0.78563787127E+02  0.00000000000E+00 0.  1.
         21    1    1    2  502  501 -0.47774045300E+02  0.36413767998E+03  0.67615076766E+03  0.76945335790E+03  0.00000000000E+00 0. -1.
<scales pt_clust_5="13000.00000" pt_clust_6="13000.00000" pt_clust_7="13000.00000" pt_clust_8="13000.00000" pt_clust_9="367.25823"></scales>
<clustering>
<clus scale="   80.826">  5  6 -1 -1</clus>
<clus scale="   91.328">  7  8 -1 -1</clus>
<clus scale="  114.216">  5  7 -1 -1</clus>
<clus scale="  367.258">  1  9  2 -1</clus>
<clus scale="  367.258">  1  5  2 -1</clus>
</clustering>
</event>
<event>
 9    2  0.2984928E-005  0.1329356E+03  0.7546771E-02  0.1225552E+00
          2   -1    0    0  502    0  0.00000000000E+00  0.00000000000E+00  0.48551967845E+02  0.48551967845E+02  0.00000000000E+00 0. -1.
         -1   -1    0    0    0  501 -0.00000000000E+00 -0.00000000000E+00 -0.45612948577E+03  0.45612948577E+03  0.00000000000E+00 0.  1.
         24    2    1    2    0    0  0.43794875127E+02 -0.99603285770E+02 -0.23492583996E+03  0.27117472210E+03  0.80664577119E+02 0.  0.
         23    2    1    2    0    0 -0.29397853007E+02  0.79388134893E+02 -0.16720029571E+03  0.20809720300E+03  0.90453287863E+02 0.  0.
        -13    1    3    3    0    0  0.41520333081E+02 -0.48341225327E+02 -0.19787735418E+03  0.20788520732E+03  0.00000000000E+00 0.  1.
         14    1    3    3    0    0  0.22745420463E+01 -0.51262060444E+02 -0.37048485778E+02  0.63289514779E+02  0.00000000000E+00 0. -1.
        -13    1    4    4    0    0 -0.42216695829E+02 -0.84702730708E+00 -0.49312949771E+02  0.64920981794E+02  0.00000000000E+00 0.  1.
         13    1    4    4    0    0  0.12818842822E+02  0.80235162200E+02 -0.11788734594E+03  0.14317622120E+03  0.00000000000E+00 0. -1.
         21    1    1    2  502  501 -0.14397022120E+02  0.20215150877E+02 -0.54513822480E+01  0.25409528514E+02  0.00000000000E+00 0.  1.
<scales pt_clust_5="13000.00000" pt_clust_6="13000.00000" pt_clust_7="13000.00000" pt_clust_8="13000.00000" pt_clust_9="24.81787"></scales>
<clustering>
<clus scale="   24.818">  1  9  2 -1</clus>
<clus scale="   80.665">  5  6 -1 -1</clus>
<clus scale="   90.453">  7  8 -1 -1</clus>
<clus scale="  126.479">  2  5  1 -1</clus>
<clus scale="   24.818">  1  5  2 -1</clus>
</clustering>
</event>
<event>
 9    2  0.2984928E-005  0.9262483E+02  0.7546771E-02  0.1303410E+00
          2   -1    0    0  502    0  0.00000000000E+00  0.00000000000E+00  0.64629056603E+03  0.64629056603E+03  0.00000000000E+00 0. -1.
         -1   -1    0    0    0  501 -0.00000000000E+00 -0.00000000000E+00 -0.27052965070E+02  0.27052965070E+02  0.00000000000E+00 0.  1.
         23    2    1    2    0    0 -0.92641837863E+01 -0.16165571793E+02  0.10309118136E+03  0.13840550033E+03  0.90449654696E+02 0.  0.
         24    2    1    2    0    0 -0.32598452809E+02  0.27133894902E+02  0.25846853256E+03  0.27365144879E+03  0.79247875193E+02 0.  0.
        -13    1    4    4    0    0 -0.20218537059E+02 -0.21503551313E+02  0.41324764490E+02  0.50783147993E+02  0.00000000000E+00 0.  1.
         14    1    4    4    0    0 -0.12379915750E+02  0.48637446215E+02  0.21714376807E+03  0.22286830080E+03  0.00000000000E+00 0. -1.
        -13    1    3    3    0    0  0.41143723164E+01 -0.41350433040E+02  0.12443398523E+02  0.43377696331E+02  0.00000000000E+00 0.  1.
         13    1    3    3    0    0 -0.13378556103E+02  0.25184861248E+02  0.90647782838E+02  0.95027803999E+02  0.00000000000E+00 0. -1.
         21    1    1    2  502  501  0.41862636595E+02 -0.10968323109E+02  0.25767788704E+03  0.26128658198E+03  0.00000000000E+00 0. -1.
<scales pt_clust_5="13000.00000" pt_clust_6="13000.00000" pt_clust_7="13000.00000" pt_clust_8="13000.00000" pt_clust_9="43.27568"></scales>
<clustering>
<clus scale="   43.276">  1  9  2 -1</clus>
<clus scale="   79.248">  5  6 -1 -1</clus>
<clus scale="   81.722">  1  5  2 -1</clus>
<clus scale="   90.450">  7  8 -1 -1</clus>
<clus scale="   43.276">  1  5  2 -1</clus>
</clustering>
</event>
<event>
 9    2  0.2984928E-005  0.1175341E+03  0.7546771E-02  0.1253737E+00
         -1   -1    0    0    0  501 -0.00000000000E+00  0.00000000000E+00  0.36447323830E+03  0.36447323830E+03  0.00000000000E+00 0.  1.
          2   -1    0    0  502    0  0.00000000000E+00 -0.00000000000E+00 -0.10133266916E+03  0.10133266916E+03  0.00000000000E+00 0. -1.
         24    2    1    2    0    0  0.51261131568E+02 -0.57786473599E+02  0.30039753754E+03  0.31884499592E+03  0.73867927589E+02 0.  0.
         23    2    1    2    0    0 -0.31490475138E+02  0.24570875541E+02 -0.14509555791E+02  0.10211005213E+03  0.92846957876E+02 0.  0.
        -13    1    3    3    0    0  0.11494804912E+02 -0.54359159884E+02  0.24072784578E+03  0.24705656141E+03  0.00000000000E+00 0.  1.
         14    1    3    3    0    0  0.39766326657E+02 -0.34273137148E+01  0.59669691756E+02  0.71788434509E+02  0.00000000000E+00 0. -1.
        -11    1    4    4    0    0  0.30022485314E+02  0.23204219802E+02  0.32131915342E+01  0.38080310410E+02  0.00000000000E+00 0.  1.
         11    1    4    4    0    0 -0.61512960453E+02  0.13666557387E+01 -0.17722747325E+02  0.64029741717E+02  0.00000000000E+00 0. -1.
         21    1    1    2  502  501 -0.19770656430E+02  0.33215598059E+02 -0.22747412600E+02  0.44850859413E+02  0.00000000000E+00 0. -1.
<scales pt_clust_5="13000.00000" pt_clust_6="13000.00000" pt_clust_7="13000.00000" pt_clust_8="13000.00000" pt_clust_9="38.65430"></scales>
<clustering>
<clus scale="   38.654">  2  9  1 -1</clus>
<clus scale="   73.868">  5  6 -1 -1</clus>
<clus scale="   92.847">  7  8 -1 -1</clus>
<clus scale="  103.200">  1  5  2 -1</clus>
<clus scale="   38.654">  2  5  1 -1</clus>
</clustering>
</event>
<event>
 9    2  0.2984928E-005  0.1098118E+03  0.7546771E-02  0.1265775E+00
          2   -1    0    0  502    0  0.00000000000E+00  0.00000000000E+00  0.55687227913E+03  0.55687227913E+03  0.00000000000E+00 0. -1.
         -1   -1    0    0    0  501 -0.00000000000E+00 -0.00000000000E+00 -0.12364036767E+03  0.12364036767E+03  0.00000000000E+00 0.  1.
         23    2    1    2    0    0 -0.10236140786E+02  0.59813497945E+02 -0.81483085734E+02  0.13675992115E+03  0.91549711397E+02 0.  0.
         24    2    1    2    0    0  0.63761532072E+02 -0.47874121922E+02  0.26151176222E+03  0.28467861577E+03  0.79347640023E+02 0.  0.
        -11    1    4    4    0    0  0.94780154942E+01 -0.36253137011E+02  0.34354901868E+02  0.50836817398E+02  0.00000000000E+00 0.  1.
         12    1    4    4    0    0  0.54283516577E+02 -0.11620984912E+02  0.22715686035E+03  0.23384179837E+03  0.00000000000E+00 0. -1.
        -11    1    3    3    0    0 -0.37849131015E+02  0.65579827835E+02 -0.77364508018E+02  0.10825219461E+03  0.00000000000E+00 0.  1.
         11    1    3    3    0    0  0.27612990229E+02 -0.57663298901E+01 -0.41185777157E+01  0.28507726535E+02  0.00000000000E+00 0. -1.
         21    1    1    2  502  501 -0.53525391286E+02 -0.11939376023E+02  0.25320323497E+03  0.25907410988E+03  0.00000000000E+00 0.  1.
<scales pt_clust_5="13000.00000" pt_clust_6="13000.00000" pt_clust_7="13000.00000" pt_clust_8="13000.00000" pt_clust_9="54.84083"></scales>
<clustering>
<clus scale="   54.841">  1  9  2 -1</clus>
<clus scale="   79.348">  5  6 -1 -1</clus>
<clus scale="   91.550">  7  8 -1 -1</clus>
<clus scale="   99.867">  1  5  2 -1</clus>
<clus scale="   54.841">  1  5  2 -1</clus>
</clustering>
</event>
<event>
 9    2  0.2984928E-005  0.9979486E+02  0.7546771E-02  0.1287075E+00
         -1   -1    0    0    0  501 -0.00000000000E+00  0.00000000000E+00  0.52842448560E+02  0.52842448560E+02  0.00000000000E+00 0.  1.
          2   -1    0    0  502    0  0.00000000000E+00 -0.00000000000E+00 -0.44578983126E+03  0.44578983126E+03  0.00000000000E+00 0. -1.
         23    2    1    2    0    0  0.22123068309E+02 -0.39488010634E+02 -0.12990166853E+02  0.10264655067E+03  0.91207657546E+02 0.  0.
         24    2    1    2    0    0 -0.12700107008E+02  0.10735324470E+02 -0.29634455823E+03  0.30706674538E+03  0.78697833595E+02 0.  0.
        -11    1    4    4    0    0  0.14349012120E+02 -0.25456783758E+02 -0.63808572863E+02  0.70181735223E+02  0.00000000000E+00 0.  1.
         12    1    4    4    0    0 -0.27049119129E+02  0.36192108228E+02 -0.23253598537E+03  0.23688501016E+03  0.00000000000E+00 0. -1.
        -13    1    3    3    0    0 -0.28156990454E+01  0.26776437679E+02  0.91938463385E+01  0.28450528754E+02  0.00000000000E+00 0. -1.
         13    1    3    3    0    0  0.24938767354E+02 -0.66264448313E+02 -0.22184013191E+02  0.74196021919E+02  0.00000000000E+00 0.  1.
         21    1    1    2  502  501 -0.94229613003E+01  0.28752686164E+02 -0.83612657610E+02  0.88918983765E+02  0.00000000000E+00 0. -1.
<scales pt_clust_5="13000.00000" pt_clust_6="13000.00000" pt_clust_7="13000.00000" pt_clust_8="13000.00000" pt_clust_9="30.25738"></scales>
<clustering>
<clus scale="   30.257">  2  9  1 -1</clus>
<clus scale="   78.698">  5  6 -1 -1</clus>
<clus scale="   88.507">  2  5  1 -1</clus>
<clus scale="   91.208">  7  8 -1 -1</clus>
<clus scale="   30.257">  2  5  1 -1</clus>
</clustering>
</event>
<event>
 9    2  0.2984928E-005  0.2241082E+03  0.7546771E-02  0.1166877E+00
          2   -1    0    0  502    0  0.00000000000E+00  0.00000000000E+00  0.47791712246E+03  0.47791712246E+03  0.00000000000E+00 0. -1.
         -1   -1    0    0    0  501 -0.00000000000E+00 -0.00000000000E+00 -0.34226109815E+03  0.34226109815E+03  0.00000000000E+00 0.  1.
         24    2    1    2    0    0 -0.10950960492E+02  0.49476839383E+02 -0.22975070702E+03  0.24872031514E+03  0.80675439984E+02 0.  0.
         23    2    1    2    0    0  0.17263099993E+03 -0.15268063990E+03  0.18336762059E+03  0.30701566709E+03  0.86730015667E+02 0.  0.
        -13    1    3    3    0    0 -0.10590406096E+02  0.48237012223E+02 -0.23662606653E+03  0.24172476375E+03  0.00000000000E+00 0.  1.
         14    1    3    3    0    0 -0.36055439638E+00  0.12398271600E+01  0.68753595093E+01  0.69955513894E+01  0.00000000000E+00 0. -1.
        -13    1    4    4    0    0  0.14702619564E+03 -0.12576843338E+03  0.10463768308E+03  0.21996237351E+03  0.00000000000E+00 0. -1.
         13    1    4    4    0    0  0.25604804292E+02 -0.26912206527E+02  0.78729937509E+02  0.87053293580E+02  0.00000000000E+00 0.  1.
         21    1    1    2  502  501 -0.16168003944E+03  0.10320380052E+03  0.18203911074E+03  0.26444223837E+03  0.00000000000E+00 0.  1.
<scales pt_clust_5="13000.00000" pt_clust_6="13000.00000" pt_clust_7="13000.00000" pt_clust_8="13000.00000" pt_clust_9="206.64557"></scales>
<clustering>
<clus scale="   80.675">  5  6 -1 -1</clus>
<clus scale="   86.730">  7  8 -1 -1</clus>
<clus scale="   95.270">  2  5  1 -1</clus>
<clus scale="  206.646">  1  9  2 -1</clus>
<clus scale="  206.646">  1  5  2 -1</clus>
</clustering>
</event>
<event>
 9    2  0.2984928E-005  0.1270806E+03  0.7546771E-02  0.1235336E+00
         -1   -1    0    0    0  501 -0.00000000000E+00  0.00000000000E+00  0.78766649726E+02  0.78766649726E+02  0.00000000000E+00 0.  1.
          2   -1    0    0  502    0  0.00000000000E+00 -0.00000000000E+00 -0.87835695607E+03  0.87835695607E+03  0.00000000000E+00 0. -1.
         23    2    1    2    0    0  0.19441543366E+02 -0.78114934326E+02  0.42264847167E+01  0.12321036590E+03  0.93182694314E+02 0.  0.
         24    2    1    2    0    0 -0.39545035546E+02  0.13127364520E+03 -0.49641325651E+03  0.52130016915E+03  0.80815625750E+02 0.  0.
        -13    1    4    4    0    0 -0.28146091486E+01  0.75610803081E+02 -0.14436811687E+03  0.16299407577E+03  0.00000000000E+00 0.  1.
         14    1    4    4    0    0 -0.36730426398E+02  0.55662842120E+02 -0.35204513963E+03  0.35830609338E+03  0.00000000000E+00 0. -1.
        -11    1    3    3    0    0  0.47321932111E+02 -0.54162077073E+02  0.30403571321E+02  0.78085036983E+02  0.00000000000E+00 0.  1.
         11    1    3    3    0    0 -0.27880388744E+02 -0.23952857254E+02 -0.26177086604E+02  0.45125328921E+02  0.00000000000E+00 0. -1.
         21    1    1    2  502  501  0.20103492180E+02 -0.53158710874E+02 -0.30740353455E+03  0.31261307074E+03  0.00000000000E+00 0. -1.
<scales pt_clust_5="13000.00000" pt_clust_6="13000.00000" pt_clust_7="13000.00000" pt_clust_8="13000.00000" pt_clust_9="56.83308"></scales>
<clustering>
<clus scale="   56.833">  2  9  1 -1</clus>
<clus scale="   80.816">  5  6 -1 -1</clus>
<clus scale="   93.183">  7  8 -1 -1</clus>
<clus scale="  118.312">  2  5  1 -1</clus>
<clus scale="   56.833">  2  5  1 -1</clus>
</clustering>
</event>
<event>
 9    2  0.2984928E-005  0.1127661E+03  0.7546771E-02  0.1264480E+00
          2   -1    0    0  502    0  0.00000000000E+00  0.00000000000E+00  0.37034731546E+02  0.37034731546E+02  0.00000000000E+00 0. -1.
         -1   -1    0    0    0  501 -0.00000000000E+00 -0.00000000000E+00 -0.46698161176E+03  0.46698161176E+03  0.00000000000E+00 0.  1.
         23    2    1    2    0    0  0.49794343783E+02 -0.48564678457E+02 -0.27041104012E+03  0.29700949546E+03  0.10126453034E+03 0.  0.
         24    2    1    2    0    0 -0.12870251514E+02  0.41930784265E+02 -0.92854969012E+02  0.13049713794E+03  0.80520951919E+02 0.  0.
        -11    1    4    4    0    0  0.10903328278E+02  0.19530230684E+02  0.85614402289E+01  0.23950171959E+02  0.00000000000E+00 0.  1.
         12    1    4    4    0    0 -0.23773579792E+02  0.22400553581E+02 -0.10141640924E+03  0.10654696598E+03  0.00000000000E+00 0. -1.
        -13    1    3    3    0    0  0.37283700254E+02 -0.76819953413E+02 -0.23488523507E+03  0.24992489512E+03  0.00000000000E+00 0. -1.
         13    1    3    3    0    0  0.12510643528E+02  0.28255274955E+02 -0.35525805052E+02  0.47084600337E+02  0.00000000000E+00 0.  1.
         21    1    1    2  502  501 -0.36924092268E+02  0.66338941928E+01 -0.66680871074E+02  0.76509709902E+02  0.00000000000E+00 0. -1.
<scales pt_clust_5="13000.00000" pt_clust_6="13000.00000" pt_clust_7="13000.00000" pt_clust_8="13000.00000" pt_clust_9="37.51529"></scales>
<clustering>
<clus scale="   37.515">  2  9  1 -1</clus>
<clus scale="   80.521">  5  6 -1 -1</clus>
<clus scale="   94.580">  1  5  2 -1</clus>
<clus scale="  101.265">  7  8 -1 -1</clus>
<clus scale="   94.580">  1  5  2 -1</clus>
</clustering>
</event>
<event>
 9    2  0.2984928E-005  0.1206707E+03  0.7546771E-02  0.1246790E+00
         -1   -1    0    0    0  501 -0.00000000000E+00  0.00000000000E+00  0.21102907992E+02  0.21102907992E+02  0.00000000000E+00 0.  1.
          2   -1    0    0  502    0  0.00000000000E+00 -0.00000000000E+00 -0.91567375955E+03  0.91567375955E+03  0.00000000000E+00 0. -1.
         24    2    1    2    0    0  0.40343160694E+02  0.48538129949E+02 -0.32401567510E+03  0.33865525127E+03  0.75615480099E+02 0.  0.
         23    2    1    2    0    0 -0.80056399775E+02 -0.59436549803E+02 -0.38274115413E+03  0.40584551061E+03  0.90983827249E+02 0.  0.
        -13    1    3    3    0    0  0.46056776688E+02 -0.16491868719E+01 -0.12183022350E+03  0.13025570949E+03  0.00000000000E+00 0.  1.
         14    1    3    3    0    0 -0.57136159941E+01  0.50187316821E+02 -0.20218545160E+03  0.20839954178E+03  0.00000000000E+00 0. -1.
        -11    1    4    4    0    0  0.53690983646E-01 -0.53369162864E+02 -0.12626155900E+03  0.13707753904E+03  0.00000000000E+00 0.  1.
         11    1    4    4    0    0 -0.80110090759E+02 -0.60673869389E+01 -0.25647959513E+03  0.26876797157E+03  0.00000000000E+00 0. -1.
         21    1    1    2  502  501  0.39713239081E+02  0.10898419854E+02 -0.18781402233E+03  0.19227590566E+03  0.00000000000E+00 0.  1.
<scales pt_clust_5="13000.00000" pt_clust_6="13000.00000" pt_clust_7="13000.00000" pt_clust_8="13000.00000" pt_clust_9="41.18151"></scales>
<clustering>
<clus scale="   41.182">  2  9  1 -1</clus>
<clus scale="   75.615">  5  6 -1 -1</clus>
<clus scale="   90.984">  7  8 -1 -1</clus>
<clus scale="  109.549">  1  5  2 -1</clus>
<clus scale="   41.182">  2  5  1 -1</clus>
</clustering>
</event>
<event>
 9    2  0.2984928E-005  0.1065217E+03  0.7546771E-02  0.1270452E+00
         -1   -1    0    0    0  501 -0.00000000000E+00  0.00000000000E+00  0.13107565137E+03  0.13107565137E+03  0.00000000000E+00 0.  1.
          2   -1    0    0  502    0  0.00000000000E+00 -0.00000000000E+00 -0.30052985317E+03  0.30052985317E+03  0.00000000000E+00 0. -1.
         24    2    1    2    0    0  0.43452532725E+02  0.48721476738E+02  0.60919214397E+02  0.12148148942E+03  0.82369270322E+02 0.  0.
         23    2    1    2    0    0  0.47120841454E+02 -0.54396241933E+02 -0.11078468418E+03  0.16000005335E+03  0.90263203951E+02 0.  0.
        -11    1    3    3    0    0  0.55333170414E+02  0.45303474873E+02  0.13883913120E+02  0.72848662494E+02  0.00000000000E+00 0.  1.
         12    1    3    3    0    0 -0.11880637689E+02  0.34180018650E+01  0.47035301277E+02  0.48632826927E+02  0.00000000000E+00 0. -1.
        -13    1    4    4    0    0  0.66139351092E+02 -0.99660900631E+01 -0.59339205532E+02  0.89414081817E+02  0.00000000000E+00 0.  1.
         13    1    4    4    0    0 -0.19018509638E+02 -0.44430151870E+02 -0.51445478646E+02  0.70585971532E+02  0.00000000000E+00 0. -1.
         21    1    1    2  502  501 -0.90573374178E+02  0.56747651947E+01 -0.11958873203E+03  0.15012396177E+03  0.00000000000E+00 0.  1.
<scales pt_clust_5="13000.00000" pt_clust_6="13000.00000" pt_clust_7="13000.00000" pt_clust_8="13000.00000" pt_clust_9="90.75097"></scales>
<clustering>
<clus scale="   82.369">  5  6 -1 -1</clus>
<clus scale="   90.263">  7  8 -1 -1</clus>
<clus scale="   90.751">  2  9  1 -1</clus>
<clus scale="   99.921">  1  5  2 -1</clus>
<clus scale="   90.751">  2  5  1 -1</clus>
</clustering>
</event>
<event>
 9    2  0.2984928E-005  0.1124045E+03  0.7546771E-02  0.1262080E+00
          2   -1    0    0  502    0  0.00000000000E+00  0.00000000000E+00  0.28524387443E+03  0.28524387443E+03  0.00000000000E+00 0. -1.
         -1   -1    0    0    0  501 -0.00000000000E+00 -0.00000000000E+00 -0.17736677778E+03  0.17736677778E+03  0.00000000000E+00 0.  1.
         23    2    1    2    0    0  0.33819795733E+02 -0.21461844402E+02 -0.56124902235E+02  0.11839562887E+03  0.96245160583E+02 0.  0.
         24    2    1    2    0    0 -0.63711085915E+02  0.47269081773E+02 -0.51687732269E+02  0.12493993845E+03  0.81516243735E+02 0.  0.
        -11    1    4    4    0    0  0.11909963755E+02  0.30578352822E+02 -0.30140476587E+02  0.44557055859E+02  0.00000000000E+00 0.  1.
         12    1    4    4    0    0 -0.75621049670E+02  0.16690728951E+02 -0.21547255682E+02  0.80382882591E+02  0.00000000000E+00 0. -1.
        -13    1    3    3    0    0  0.30668325396E+02  0.31712031076E+02 -0.47165197607E+01  0.44367157405E+02  0.00000000000E+00 0.  1.
         13    1    3    3    0    0  0.31514703368E+01 -0.53173875477E+02 -0.51408382474E+02  0.74028471463E+02  0.00000000000E+00 0. -1.
         21    1    1    2  502  501  0.29891290182E+02 -0.25807237372E+02  0.21568973115E+03  0.21927508489E+03  0.00000000000E+00 0. -1.
<scales pt_clust_5="13000.00000" pt_clust_6="13000.00000" pt_clust_7="13000.00000" pt_clust_8="13000.00000" pt_clust_9="39.49054"></scales>
<clustering>
<clus scale="   39.491">  1  9  2 -1</clus>
<clus scale="   81.516">  5  6 -1 -1</clus>
<clus scale="   96.245">  7  8 -1 -1</clus>
<clus scale="  100.083">  1  5  2 -1</clus>
<clus scale="   39.491">  1  5  2 -1</clus>
</clustering>
</event>
<event>
 9    2  0.2984928E-005  0.1045404E+03  0.7546771E-02  0.1274861E+00
         -1   -1    0    0    0  501 -0.00000000000E+00  0.00000000000E+00  0.39707996120E+03  0.39707996120E+03  0.00000000000E+00 0.  1.
          2   -1    0    0  502    0  0.00000000000E+00 -0.00000000000E+00 -0.45663783159E+02  0.45663783159E+02  0.00000000000E+00 0. -1.
         24    2    1    2    0    0 -0.41376360879E+02 -0.27303232532E+02  0.26238264436E+03  0.27928155548E+03  0.81829489943E+02 0.  0.
         23    2    1    2    0    0  0.63009671538E+02  0.16792875829E+02  0.63451411623E+02  0.12834933230E+03  0.90527620532E+02 0.  0.
        -11    1    3    3    0    0 -0.62071837042E+02 -0.37586146906E+02  0.19918748378E+03  0.21199359681E+03  0.00000000000E+00 0.  1.
         12    1    3    3    0    0  0.20695476163E+02  0.10282914374E+02  0.63195160576E+02  0.67287958670E+02  0.00000000000E+00 0. -1.
        -13    1    4    4    0    0  0.17602959530E+02  0.11599604867E+02 -0.22605200981E+02  0.30909709295E+02  0.00000000000E+00 0. -1.
         13    1    4    4    0    0  0.45406712008E+02  0.51932709618E+01  0.86056612604E+02  0.97439623006E+02  0.00000000000E+00 0.  1.
         21    1    1    2  502  501 -0.21633310660E+02  0.10510356703E+02  0.25582122062E+02  0.35112856581E+02  0.00000000000E+00 0.  1.
<scales pt_clust_5="13000.00000" pt_clust_6="13000.00000" pt_clust_7="13000.00000" pt_clust_8="13000.00000" pt_clust_9="24.05136"></scales>
<clustering>
<clus scale="   24.051">  2  9  1 -1</clus>
<clus scale="   81.829">  5  6 -1 -1</clus>
<clus scale="   90.528">  7  8 -1 -1</clus>
<clus scale="   97.106">  1  5  2 -1</clus>
<clus scale="   24.051">  2  5  1 -1</clus>
</clustering>
</event>
<event>
 9    2  0.2984928E-005  0.9911810E+02  0.7546771E-02  0.1285829E+00
          4   -1    0    0  502    0  0.00000000000E+00  0.00000000000E+00  0.63605656182E+03  0.63605656182E+03  0.00000000000E+00 0. -1.
         -3   -1    0    0    0  501 -0.00000000000E+00 -0.00000000000E+00 -0.32197131595E+02  0.32197131595E+02  0.00000000000E+00 0.  1.
         23    2    1    2    0    0  0.49045321578E+02  0.10899769667E+01  0.13007148215E+03  0.16587252758E+03  0.90490183550E+02 0.  0.
         24    2    1    2    0    0 -0.24859591386E+02  0.32612731552E+02  0.15286471760E+03  0.17878799229E+03  0.83162099278E+02 0.  0.
        -11    1    4    4    0    0 -0.16590640761E+02  0.24791824510E+02  0.47144367328E+01  0.30201156222E+02  0.00000000000E+00 0.  1.
         12    1    4    4    0    0 -0.82689506256E+01  0.78209070413E+01  0.14815028087E+03  0.14858683606E+03  0.00000000000E+00 0. -1.
        -13    1    3    3    0    0  0.55509742678E+02  0.21913990353E+02  0.36858872316E+02  0.70143645284E+02  0.00000000000E+00 0.  1.
         13    1    3    3    0    0 -0.64644210996E+01 -0.20824013386E+02  0.93212609836E+02  0.95728882298E+02  0.00000000000E+00 0. -1.
         21    1    1    2  502  501 -0.24185730192E+02 -0.33702708518E+02  0.32092323048E+03  0.32359317355E+03  0.00000000000E+00 0.  1.
<scales pt_clust_5="13000.00000" pt_clust_6="13000.00000" pt_clust_7="13000.00000" pt_clust_8="13000.00000" pt_clust_9="41.48279"></scales>
<clustering>
<clus scale="   41.483">  1  9  2 -1</clus>
<clus scale="   83.162">  5  6 -1 -1</clus>
<clus scale="   90.490">  7  8 -1 -1</clus>
<clus scale="   92.476">  1  5  2 -1</clus>
<clus scale="   41.483">  1  5  2 -1</clus>
</clustering>
</event>
<event>
 9    2  0.2984928E-005  0.1289745E+03  0.7546771E-02  0.1231198E+00
         -3   -1    0    0    0  501 -0.00000000000E+00  0.00000000000E+00  0.40543545515E+03  0.40543545515E+03  0.00000000000E+00 0.  1.
          4   -1    0    0  502    0  0.00000000000E+00 -0.00000000000E+00 -0.24866851018E+03  0.24866851018E+03  0.00000000000E+00 0. -1.
         23    2    1    2    0    0  0.36711533796E+02  0.79585456286E+02  0.28067623063E+03  0.30741574364E+03  0.89686740561E+02 0.  0.
         24    2    1    2    0    0 -0.74129826562E+02 -0.84734608381E+02  0.65547423977E+02  0.15350311039E+03  0.81188392441E+02 0.  0.
        -11    1    4    4    0    0 -0.66162682088E+02 -0.73625413780E+02  0.84490918369E+02  0.13014191232E+03  0.00000000000E+00 0.  1.
         12    1    4    4    0    0 -0.79671444735E+01 -0.11109194601E+02 -0.18943494391E+02  0.23361198075E+02  0.00000000000E+00 0. -1.
        -11    1    3    3    0    0  0.57991433795E+02  0.43339503405E+02  0.11034063460E+03  0.13197111272E+03  0.00000000000E+00 0.  1.
         11    1    3    3    0    0 -0.21279899999E+02  0.36245952882E+02  0.17033559603E+03  0.17544463092E+03  0.00000000000E+00 0. -1.
         21    1    1    2  502  501  0.37418292766E+02  0.51491520947E+01 -0.18945670964E+03  0.19318511130E+03  0.00000000000E+00 0. -1.
<scales pt_clust_5="13000.00000" pt_clust_6="13000.00000" pt_clust_7="13000.00000" pt_clust_8="13000.00000" pt_clust_9="37.77092"></scales>
<clustering>
<clus scale="   37.771">  2  9  1 -1</clus>
<clus scale="   81.188">  5  6 -1 -1</clus>
<clus scale="   89.687">  7  8 -1 -1</clus>
<clus scale="  123.216">  2  5  1 -1</clus>
<clus scale="   37.771">  2  5  1 -1</clus>
</clustering>
</event>
<event>
 9    2  0.2984928E-005  0.1191509E+03  0.7546771E-02  0.1247989E+00
         -1   -1    0    0    0  501 -0.00000000000E+00  0.00000000000E+00  0.54261258155E+03  0.54261258155E+03  0.00000000000E+00 0.  1.
          2   -1    0    0  502    0  0.00000000000E+00 -0.00000000000E+00 -0.35904389704E+02  0.35904389704E+02  0.00000000000E+00 0. -1.
         24    2    1    2    0    0  0.78409487047E+02 -0.39698734728E+02  0.35098127092E+03  0.37033318654E+03  0.78960618767E+02 0.  0.
         23    2    1    2    0    0 -0.55134240386E+02  0.20301570092E+02  0.12801921373E+03  0.16712645722E+03  0.89946625327E+02 0.  0.
        -11    1    3    3    0    0  0.74263062320E+02 -0.22208412927E+01  0.28305248788E+03  0.29264081304E+03  0.00000000000E+00 0.  1.
         12    1    3    3    0    0  0.41464247268E+01 -0.37477893436E+02  0.67928783037E+02  0.77692373495E+02  0.00000000000E+00 0. -1.
        -11    1    4    4    0    0 -0.37034293331E+02  0.38860158302E+02  0.22051291256E+02  0.58033699105E+02  0.00000000000E+00 0.  1.
         11    1    4    4    0    0 -0.18099947054E+02 -0.18558588210E+02  0.10596792247E+03  0.10909275811E+03  0.00000000000E+00 0. -1.
         21    1    1    2  502  501 -0.23275246661E+02  0.19397164637E+02  0.27707707195E+02  0.41057327496E+02  0.00000000000E+00 0. -1.
<scales pt_clust_5="13000.00000" pt_clust_6="13000.00000" pt_clust_7="13000.00000" pt_clust_8="13000.00000" pt_clust_9="30.29830"></scales>
<clustering>
<clus scale="   30.298">  2  9  1 -1</clus>
<clus scale="   78.961">  5  6 -1 -1</clus>
<clus scale="   89.947">  7  8 -1 -1</clus>
<clus scale="  111.092">  1  5  2 -1</clus>
<clus scale="   30.298">  2  5  1 -1</clus>
</clustering>
</event>
<event>
 9    2  0.2984928E-005  0.1390265E+03  0.7546771E-02  0.1217318E+00
         -1   -1    0    0    0  501 -0.00000000000E+00  0.00000000000E+00  0.61466044510E+02  0.61466044510E+02  0.00000000000E+00 0.  1.
          2   -1    0    0  502    0  0.00000000000E+00 -0.00000000000E+00 -0.60985308022E+03  0.60985308022E+03  0.00000000000E+00 0. -1.
         24    2    1    2    0    0  0.94838632137E+02  0.58601691047E+02 -0.46476070277E+02  0.14488860770E+03  0.80025990744E+02 0.  0.
         23    2    1    2    0    0 -0.64145712903E+02 -0.44600541103E+02 -0.33356955703E+03  0.35474208622E+03  0.92029438804E+02 0.  0.
        -11    1    3    3    0    0  0.10220306300E+03  0.67396851231E+02 -0.32226072131E+02  0.12659510799E+03  0.00000000000E+00 0.  1.
         12    1    3    3    0    0 -0.73644308612E+01 -0.87951601845E+01 -0.14249998146E+02  0.18293499713E+02  0.00000000000E+00 0. -1.
        -11    1    4    4    0    0  0.70488596347E+01 -0.23993005610E+02 -0.18590091478E+02  0.31159946109E+02  0.00000000000E+00 0.  1.
         11    1    4    4    0    0 -0.71194572537E+02 -0.20607535492E+02 -0.31497946555E+03  0.32358214011E+03  0.00000000000E+00 0. -1.
         21    1    1    2  502  501 -0.30692919234E+02 -0.14001149944E+02 -0.16834140840E+03  0.17168843081E+03  0.00000000000E+00 0. -1.
<scales pt_clust_5="13000.00000" pt_clust_6="13000.00000" pt_clust_7="13000.00000" pt_clust_8="13000.00000" pt_clust_9="33.73555"></scales>
<clustering>
<clus scale="   33.736">  2  9  1 -1</clus>
<clus scale="   80.026">  5  6 -1 -1</clus>
<clus scale="   92.029">  7  8 -1 -1</clus>
<clus scale="  131.389">  1  5  2 -1</clus>
<clus scale="   33.736">  2  5  1 -1</clus>
</clustering>
</event>
<event>
 9    2  0.2984928E-005  0.9726004E+02  0.7546771E-02  0.1292252E+00
          2   -1    0    0  502    0  0.00000000000E+00  0.00000000000E+00  0.28408994212E+03  0.28408994212E+03  0.00000000000E+00 0. -1.
         -1   -1    0    0    0  501 -0.00000000000E+00 -0.00000000000E+00 -0.10186149154E+03  0.10186149154E+03  0.00000000000E+00 0.  1.
         23    2    1    2    0    0  0.12203763928E+02  0.45669246713E+02 -0.51848560012E+02  0.11420965422E+03  0.90116369175E+02 0.  0.
         24    2    1    2    0    0 -0.22967652118E+01  0.11627420182E+02  0.12610707073E+03  0.14910995414E+03  0.78678542850E+02 0.  0.
        -11    1    4    4    0    0 -0.85105756954E+01  0.20486197383E+02 -0.35430654355E+00  0.22186475948E+02  0.00000000000E+00 0.  1.
         12    1    4    4    0    0  0.62138104836E+01 -0.88587772005E+01  0.12646137728E+03  0.12692347819E+03  0.00000000000E+00 0. -1.
        -13    1    3    3    0    0  0.50375122053E+02  0.34455977225E+02 -0.38885292162E+02  0.72366658310E+02  0.00000000000E+00 0. -1.
         13    1    3    3    0    0 -0.38171358125E+02  0.11213269488E+02 -0.12963267850E+02  0.41842995914E+02  0.00000000000E+00 0.  1.
         21    1    1    2  502  501 -0.99069987158E+01 -0.57296666895E+02  0.10796993986E+03  0.12263182529E+03  0.00000000000E+00 0. -1.
<scales pt_clust_5="13000.00000" pt_clust_6="13000.00000" pt_clust_7="13000.00000" pt_clust_8="13000.00000" pt_clust_9="58.14685"></scales>
<clustering>
<clus scale="   58.147">  1  9  2 -1</clus>
<clus scale="   78.679">  5  6 -1 -1</clus>
<clus scale="   86.769">  1  5  2 -1</clus>
<clus scale="   90.116">  7  8 -1 -1</clus>
<clus scale="   58.147">  1  5  2 -1</clus>
</clustering>
</event>
<event>
 9    2  0.2984928E-005  0.1003415E+03  0.7546771E-02  0.1284765E+00
          2   -1    0    0  502    0  0.00000000000E+00  0.00000000000E+00  0.52728993418E+03  0.52728993418E+03  0.00000000000E+00 0. -1.
         -1   -1    0    0    0  501 -0.00000000000E+00 -0.00000000000E+00 -0.35093231470E+02  0.35093231470E+02  0.00000000000E+00 0.  1.
         23    2    1    2    0    0  0.31383748587E+02  0.22849874054E+02  0.95227655033E+02  0.13703649208E+03  0.90573933659E+02 0.  0.
         24    2    1    2    0    0 -0.54501920550E+02 -0.28369587083E+01  0.16472493477E+03  0.19109831256E+03  0.80035949739E+02 0.  0.
        -13    1    4    4    0    0 -0.52639699721E+02  0.10937283883E+02  0.43716633720E+02  0.69294344858E+02  0.00000000000E+00 0.  1.
         14    1    4    4    0    0 -0.18622208287E+01 -0.13774242592E+02  0.12100830105E+03  0.12180396770E+03  0.00000000000E+00 0. -1.
        -11    1    3    3    0    0  0.20325998812E+01  0.49975924200E+02  0.79833575254E+02  0.94207877589E+02  0.00000000000E+00 0.  1.
         11    1    3    3    0    0  0.29351148706E+02 -0.27126050146E+02  0.15394079779E+02  0.42828614490E+02  0.00000000000E+00 0. -1.
         21    1    1    2  502  501  0.23118171962E+02 -0.20012915345E+02  0.23224411291E+03  0.23424836101E+03  0.00000000000E+00 0. -1.
<scales pt_clust_5="13000.00000" pt_clust_6="13000.00000" pt_clust_7="13000.00000" pt_clust_8="13000.00000" pt_clust_9="30.57722"></scales>
<clustering>
<clus scale="   30.577">  1  9  2 -1</clus>
<clus scale="   80.036">  5  6 -1 -1</clus>
<clus scale="   90.574">  7  8 -1 -1</clus>
<clus scale="   90.942">  1  5  2 -1</clus>
<clus scale="   30.577">  1  5  2 -1</clus>
</clustering>
</event>
<event>
 9    2  0.2984928E-005  0.9163253E+02  0.7546771E-02  0.1302170E+00
         -1   -1    0    0    0  501 -0.00000000000E+00  0.00000000000E+00  0.52110838664E+02  0.52110838664E+02  0.00000000000E+00 0.  1.
          2   -1    0    0  502    0  0.00000000000E+00 -0.00000000000E+00 -0.72026657349E+03  0.72026657349E+03  0.00000000000E+00 0. -1.
         23    2    1    2    0    0 -0.33736063194E+01  0.59528505469E+01  0.26912803377E+01  0.91629538070E+02  0.91334065976E+02 0.  0.
         24    2    1    2    0    0 -0.12373968369E+02 -0.21513269258E+02 -0.59622638518E+03  0.60291246338E+03  0.86032553583E+02 0.  0.
        -13    1    4    4    0    0  0.34290178773E+02  0.12882502698E+01 -0.16222241579E+03  0.16581190589E+03  0.00000000000E+00 0.  1.
         14    1    4    4    0    0 -0.46664147142E+02 -0.22801519528E+02 -0.43400396939E+03  0.43710055750E+03  0.00000000000E+00 0. -1.
        -11    1    3    3    0    0 -0.22414227194E+02 -0.37228832507E+02 -0.52544888768E+01  0.43772059626E+02  0.00000000000E+00 0. -1.
         11    1    3    3    0    0  0.19040620875E+02  0.43181683053E+02  0.79457692145E+01  0.47857478444E+02  0.00000000000E+00 0.  1.
         21    1    1    2  502  501  0.15747574688E+02  0.15560418711E+02 -0.74620629983E+02  0.77835410696E+02  0.00000000000E+00 0.  1.
<scales pt_clust_5="13000.00000" pt_clust_6="13000.00000" pt_clust_7="13000.00000" pt_clust_8="13000.00000" pt_clust_9="22.13849"></scales>
<clustering>
<clus scale="   22.138">  2  9  1 -1</clus>
<clus scale="   86.033">  5  6 -1 -1</clus>
<clus scale="   86.349">  2  5  1 -1</clus>
<clus scale="   91.334">  7  8 -1 -1</clus>
<clus scale="   22.138">  2  5  1 -1</clus>
</clustering>
</event>
<event>
 9    2  0.2984928E-005  0.1432182E+03  0.7546771E-02  0.1211533E+00
          2   -1    0    0  502    0  0.00000000000E+00  0.00000000000E+00  0.16751881250E+03  0.16751881250E+03  0.00000000000E+00 0. -1.
         -1   -1    0    0    0  501 -0.00000000000E+00 -0.00000000000E+00 -0.51300604891E+03  0.51300604891E+03  0.00000000000E+00 0.  1.
         24    2    1    2    0    0 -0.71842707337E+02 -0.10726996851E+03 -0.34725710324E+03  0.37855013282E+03  0.77746296152E+02 0.  0.
         23    2    1    2    0    0  0.11114656273E+03 -0.22743665383E+02 -0.54820211709E+02  0.15483270524E+03  0.89983766746E+02 0.  0.
        -13    1    3    3    0    0 -0.82095022320E+02 -0.58923533572E+02 -0.22312530903E+03  0.24494178702E+03  0.00000000000E+00 0.  1.
         14    1    3    3    0    0  0.10252314983E+02 -0.48346434939E+02 -0.12413179421E+03  0.13360834580E+03  0.00000000000E+00 0. -1.
        -13    1    4    4    0    0  0.32104075506E+02 -0.19476039695E+02  0.22859752283E+02  0.43960846906E+02  0.00000000000E+00 0. -1.
         13    1    4    4    0    0  0.79042487227E+02 -0.32676256881E+01 -0.77679963992E+02  0.11087185833E+03  0.00000000000E+00 0.  1.
         21    1    1    2  502  501 -0.39303855396E+02  0.13001363389E+03  0.56590078537E+02  0.14714202335E+03  0.00000000000E+00 0. -1.
<scales pt_clust_5="13000.00000" pt_clust_6="13000.00000" pt_clust_7="13000.00000" pt_clust_8="13000.00000" pt_clust_9="135.82466"></scales>
<clustering>
<clus scale="   77.746">  5  6 -1 -1</clus>
<clus scale="   89.984">  7  8 -1 -1</clus>
<clus scale="  135.825">  1  9  2 -1</clus>
<clus scale="  135.863">  2  5  1 -1</clus>
<clus scale="  135.825">  1  5  2 -1</clus>
</clustering>
</event>
<event>
 9    2  0.2984928E-005  0.1093377E+03  0.7546771E-02  0.1265658E+00
         -1   -1    0    0    0  501 -0.00000000000E+00  0.00000000000E+00  0.16664053232E+03  0.16664053232E+03  0.00000000000E+00 0.  1.
          2   -1    0    0  502    0  0.00000000000E+00 -0.00000000000E+00 -0.47975338993E+03  0.47975338993E+03  0.00000000000E+00 0. -1.
         23    2    1    2    0    0 -0.62014023862E+02  0.46296499840E+01  0.12394244614E+03  0.16627672971E+03  0.91755370820E+02 0.  0.
         24    2    1    2    0    0  0.75202752946E+01 -0.57793004531E+02 -0.35126367897E+03  0.36541708886E+03  0.82139459178E+02 0.  0.
        -11    1    4    4    0    0  0.24035337468E+02  0.13032642775E+02 -0.78526572545E+02  0.83150284549E+02  0.00000000000E+00 0.  1.
         12    1    4    4    0    0 -0.16515062173E+02 -0.70825647306E+02 -0.27273710642E+03  0.28226680431E+03  0.00000000000E+00 0. -1.
        -11    1    3    3    0    0 -0.78739885288E+02 -0.71129594919E+01  0.12249012070E+03  0.14578886582E+03  0.00000000000E+00 0.  1.
         11    1    3    3    0    0  0.16725861426E+02  0.11742609476E+02  0.14523254413E+01  0.20487863894E+02  0.00000000000E+00 0. -1.
         21    1    1    2  502  501  0.54493748568E+02  0.53163354547E+02 -0.85791624780E+02  0.11470010367E+03  0.00000000000E+00 0. -1.
<scales pt_clust_5="13000.00000" pt_clust_6="13000.00000" pt_clust_7="13000.00000" pt_clust_8="13000.00000" pt_clust_9="76.13088"></scales>
<clustering>
<clus scale="   76.131">  2  9  1 -1</clus>
<clus scale="   82.139">  5  6 -1 -1</clus>
<clus scale="   91.755">  7  8 -1 -1</clus>
<clus scale="  101.403">  2  5  1 -1</clus>
<clus scale="   76.131">  2  5  1 -1</clus>
</clustering>
</event>
<event>
 9    2  0.2984928E-005  0.9520651E+02  0.7546771E-02  0.1298749E+00
          2   -1    0    0  502    0  0.00000000000E+00  0.00000000000E+00  0.17624312676E+03  0.17624312676E+03  0.00000000000E+00 0. -1.
         -1   -1    0    0    0  501 -0.00000000000E+00 -0.00000000000E+00 -0.17960966694E+03  0.17960966694E+03  0.00000000000E+00 0.  1.
         23    2    1    2    0    0  0.12374752011E+02  0.11500918242E+02 -0.14194961705E+03  0.17066352574E+03  0.93225209183E+02 0.  0.
         24    2    1    2    0    0 -0.32612301736E+02 -0.14101772167E+02  0.64914117675E+02  0.10874688176E+03  0.79684499221E+02 0.  0.
        -11    1    4    4    0    0 -0.59683385988E+01 -0.44768565602E+02  0.24232989783E+02  0.51255080972E+02  0.00000000000E+00 0.  1.
         12    1    4    4    0    0 -0.26643963137E+02  0.30666793434E+02  0.40681127892E+02  0.57491800787E+02  0.00000000000E+00 0. -1.
        -13    1    3    3    0    0  0.12458746777E+02 -0.23701197361E+02 -0.13113029756E+03  0.13383617622E+03  0.00000000000E+00 0.  1.
         13    1    3    3    0    0 -0.83994766091E-01  0.35202115602E+02 -0.10819319495E+02  0.36827349516E+02  0.00000000000E+00 0. -1.
         21    1    1    2  502  501  0.20237549725E+02  0.26008539257E+01  0.73668959196E+02  0.76442386207E+02  0.00000000000E+00 0. -1.
<scales pt_clust_5="13000.00000" pt_clust_6="13000.00000" pt_clust_7="13000.00000" pt_clust_8="13000.00000" pt_clust_9="20.40399"></scales>
<clustering>
<clus scale="   20.404">  1  9  2 -1</clus>
<clus scale="   79.684">  5  6 -1 -1</clus>
<clus scale="   81.994">  1  5  2 -1</clus>
<clus scale="   93.225">  7  8 -1 -1</clus>
<clus scale="   20.404">  1  5  2 -1</clus>
</clustering>
</event>
<event>
 9    2  0.2984928E-005  0.1085509E+03  0.7546771E-02  0.1267082E+00
          2   -1    0    0  502    0  0.00000000000E+00  0.00000000000E+00  0.26352102284E+03  0.26352102284E+03  0.00000000000E+00 0. -1.
         -1   -1    0    0    0  501 -0.00000000000E+00 -0.00000000000E+00 -0.56600013753E+03  0.56600013753E+03  0.00000000000E+00 0.  1.
         23    2    1    2    0    0 -0.31214487047E+02 -0.49855236599E+02 -0.53526330648E+03  0.54606210764E+03  0.90648382897E+02 0.  0.
         24    2    1    2    0    0  0.60931367775E+02  0.62936265572E+02  0.13415095586E+03  0.17961916854E+03  0.81197054413E+02 0.  0.
        -11    1    4    4    0    0  0.73287013496E+02  0.62372505936E+02  0.83282354198E+02  0.12726848143E+03  0.00000000000E+00 0.  1.
         12    1    4    4    0    0 -0.12355645720E+02  0.56375963534E+00  0.50868601661E+02  0.52350687112E+02  0.00000000000E+00 0. -1.
        -13    1    3    3    0    0  0.10561627202E+02 -0.62991512341E+02 -0.34014279913E+03  0.34608756463E+03  0.00000000000E+00 0.  1.
         13    1    3    3    0    0 -0.41776114249E+02  0.13136275742E+02 -0.19512050735E+03  0.19997454301E+03  0.00000000000E+00 0. -1.
         21    1    1    2  502  501 -0.29716880728E+02 -0.13081028972E+02  0.98633235930E+02  0.10383988419E+03  0.00000000000E+00 0. -1.
<scales pt_clust_5="13000.00000" pt_clust_6="13000.00000" pt_clust_7="13000.00000" pt_clust_8="13000.00000" pt_clust_9="32.46854"></scales>
<clustering>
<clus scale="   32.469">  1  9  2 -1</clus>
<clus scale="   81.197">  5  6 -1 -1</clus>
<clus scale="   90.648">  7  8 -1 -1</clus>
<clus scale="  100.793">  1  5  2 -1</clus>
<clus scale="   32.469">  1  5  2 -1</clus>
</clustering>
</event>
<event>
 9    2  0.2984928E-005  0.9084038E+02  0.7546771E-02  0.1306623E+00
          2   -1    0    0  502    0  0.00000000000E+00  0.00000000000E+00  0.50426202220E+03  0.50426202220E+03  0.00000000000E+00 0. -1.
         -1   -1    0    0    0  501 -0.00000000000E+00 -0.00000000000E+00 -0.38477928798E+02  0.38477928798E+02  0.00000000000E+00 0.  1.
         23    2    1    2    0    0  0.89732744859E+00 -0.98196520657E+01  0.37121836128E+02  0.98513444170E+02  0.90717347853E+02 0.  0.
         24    2    1    2    0    0  0.32070192448E+01 -0.21083427804E+02  0.33806267178E+03  0.34841350719E+03  0.81552474170E+02 0.  0.
        -13    1    4    4    0    0  0.29260879662E+02  0.17542570241E+02  0.19480187009E+03  0.19776680570E+03  0.00000000000E+00 0.  1.
         14    1    4    4    0    0 -0.26053860417E+02 -0.38625998045E+02  0.14326080169E+03  0.15064670148E+03  0.00000000000E+00 0. -1.
        -11    1    3    3    0    0  0.41825913731E+02  0.13667183591E+02  0.16118922706E+02  0.46861696896E+02  0.00000000000E+00 0.  1.
         11    1    3    3    0    0 -0.40928586283E+02 -0.23486835656E+02  0.21002913422E+02  0.51651747274E+02  0.00000000000E+00 0. -1.
         21    1    1    2  502  501 -0.41043466934E+01  0.30903079869E+02  0.90599585501E+02  0.95812999641E+02  0.00000000000E+00 0. -1.
<scales pt_clust_5="13000.00000" pt_clust_6="13000.00000" pt_clust_7="13000.00000" pt_clust_8="13000.00000" pt_clust_9="31.17444"></scales>
<clustering>
<clus scale="   31.174">  1  9  2 -1</clus>
<clus scale="   81.552">  5  6 -1 -1</clus>
<clus scale="   81.689">  1  5  2 -1</clus>
<clus scale="   90.717">  7  8 -1 -1</clus>
<clus scale="   31.174">  1  5  2 -1</clus>
</clustering>
</event>
<event>
 9    2  0.2984928E-005  0.3177800E+03  0.7546771E-02  0.1077010E+00
          2   -1    0    0  502    0  0.00000000000E+00  0.00000000000E+00  0.23762440196E+04  0.23762440196E+04  0.00000000000E+00 0. -1.
         -1   -1    0    0    0  501 -0.00000000000E+00 -0.00000000000E+00 -0.49194861218E+02  0.49194861218E+02  0.00000000000E+00 0.  1.
         23    2    1    2    0    0 -0.56878307706E+02  0.29145667389E+03  0.78587941505E+03  0.84500296019E+03  0.90782228914E+02 0.  0.
         24    2    1    2    0    0  0.66555472226E+02 -0.31095657835E+03  0.14257636417E+04  0.14629946073E+04  0.80172529179E+02 0.  0.
        -13    1    4    4    0    0  0.35568629844E+01 -0.50730238846E+02  0.12476873636E+03  0.13473472448E+03  0.00000000000E+00 0.  1.
         14    1    4    4    0    0  0.62998609242E+02 -0.26022633950E+03  0.13009949053E+04  0.13282598828E+04  0.00000000000E+00 0. -1.
        -11    1    3    3    0    0 -0.27711120235E+01  0.17536850629E+03  0.36295937789E+03  0.40311450241E+03  0.00000000000E+00 0.  1.
         11    1    3    3    0    0 -0.54107195682E+02  0.11608816760E+03  0.42292003716E+03  0.44188845777E+03  0.00000000000E+00 0. -1.
         21    1    1    2  502  501 -0.96771645204E+01  0.19499904459E+02  0.11540610166E+03  0.11744131338E+03  0.00000000000E+00 0.  1.
<scales pt_clust_5="13000.00000" pt_clust_6="13000.00000" pt_clust_7="13000.00000" pt_clust_8="13000.00000" pt_clust_9="21.76910"></scales>
<clustering>
<clus scale="   21.769">  1  9  2 -1</clus>
<clus scale="   80.173">  5  6 -1 -1</clus>
<clus scale="   90.782">  7  8 -1 -1</clus>
<clus scale="  314.913">  1  5  2 -1</clus>
<clus scale="   21.769">  1  5  2 -1</clus>
</clustering>
</event>
<event>
 9    2  0.2984928E-005  0.2356192E+03  0.7546771E-02  0.1128823E+00
          2   -1    0    0  502    0  0.00000000000E+00  0.00000000000E+00  0.12911083363E+04  0.12911083363E+04  0.00000000000E+00 0. -1.
         -1   -1    0    0    0  501 -0.00000000000E+00 -0.00000000000E+00 -0.34112928212E+03  0.34112928212E+03  0.00000000000E+00 0.  1.
         24    2    1    2    0    0  0.17517328030E+03  0.63599534945E+02 -0.25743349597E+03  0.32767054328E+03  0.79783463903E+02 0.  0.
         23    2    1    2    0    0 -0.17111859460E+03  0.16908205586E+03  0.54872069023E+03  0.60597411103E+03  0.90773962782E+02 0.  0.
        -13    1    3    3    0    0  0.12228623356E+03  0.81216311588E+02 -0.18034403137E+03  0.23253812985E+03  0.00000000000E+00 0.  1.
         14    1    3    3    0    0  0.52887046737E+02 -0.17616776644E+02 -0.77089464608E+02  0.95132413433E+02  0.00000000000E+00 0. -1.
        -13    1    4    4    0    0 -0.55176634213E+02  0.22923338655E+02  0.22035368557E+03  0.22831050602E+03  0.00000000000E+00 0. -1.
         13    1    4    4    0    0 -0.11594196039E+03  0.14615871721E+03  0.32836700466E+03  0.37766360500E+03  0.00000000000E+00 0.  1.
         21    1    1    2  502  501 -0.40546856979E+01 -0.23268159081E+03  0.65869185988E+03  0.69859296407E+03  0.00000000000E+00 0. -1.
<scales pt_clust_5="13000.00000" pt_clust_6="13000.00000" pt_clust_7="13000.00000" pt_clust_8="13000.00000" pt_clust_9="217.43154"></scales>
<clustering>
<clus scale="   79.783">  5  6 -1 -1</clus>
<clus scale="   90.774">  7  8 -1 -1</clus>
<clus scale="  202.721">  2  5  1 -1</clus>
<clus scale="  217.432">  1  9  2 -1</clus>
<clus scale="  217.432">  1  5  2 -1</clus>
</clustering>
</event>
<event>
 9    2  0.2984928E-005  0.1077633E+03  0.7546771E-02  0.1271776E+00
          2   -1    0    0  502    0  0.00000000000E+00  0.00000000000E+00  0.74791541669E+03  0.74791541669E+03  0.00000000000E+00 0. -1.
         -1   -1    0    0    0  501 -0.00000000000E+00 -0.00000000000E+00 -0.32161438373E+02  0.32161438373E+02  0.00000000000E+00 0.  1.
         24    2    1    2    0    0  0.36921435575E+02  0.22313728321E+02  0.69789888915E+02  0.11544513156E+03  0.81214868895E+02 0.  0.
         23    2    1    2    0    0 -0.46489239456E+02 -0.53456893861E+02  0.43740850277E+03  0.45354673506E+03  0.96744786428E+02 0.  0.
        -13    1    3    3    0    0 -0.17968155407E+02  0.27910637434E+02  0.42395149500E+02  0.53844284672E+02  0.00000000000E+00 0.  1.
         14    1    3    3    0    0  0.54889590981E+02 -0.55969091135E+01  0.27394739416E+02  0.61600846888E+02  0.00000000000E+00 0. -1.
        -11    1    4    4    0    0 -0.54289713631E+02  0.87604838348E+01  0.16161352378E+03  0.17071335668E+03  0.00000000000E+00 0.  1.
         11    1    4    4    0    0  0.78004741748E+01 -0.62217377695E+02  0.27579497900E+03  0.28283337838E+03  0.00000000000E+00 0. -1.
         21    1    1    2  502  501  0.95678038815E+01  0.31143165540E+02  0.20855558663E+03  0.21108498844E+03  0.00000000000E+00 0. -1.
<scales pt_clust_5="13000.00000" pt_clust_6="13000.00000" pt_clust_7="13000.00000" pt_clust_8="13000.00000" pt_clust_9="32.57974"></scales>
<clustering>
<clus scale="   32.580">  1  9  2 -1</clus>
<clus scale="   81.215">  5  6 -1 -1</clus>
<clus scale="   94.070">  2  5  1 -1</clus>
<clus scale="   96.745">  7  8 -1 -1</clus>
<clus scale="   32.580">  1  5  2 -1</clus>
</clustering>
</event>
<event>
 9    2  0.2984928E-005  0.1041911E+03  0.7546771E-02  0.1276865E+00
         -1   -1    0    0    0  501 -0.00000000000E+00  0.00000000000E+00  0.12377544030E+03  0.12377544030E+03  0.00000000000E+00 0.  1.
          2   -1    0    0  502    0  0.00000000000E+00 -0.00000000000E+00 -0.47309199282E+03  0.47309199282E+03  0.00000000000E+00 0. -1.
         24    2    1    2    0    0  0.27083198630E+02 -0.23332056750E+02  0.50106943850E+02  0.10190988279E+03  0.81222126718E+02 0.  0.
         23    2    1    2    0    0 -0.91985998193E+02  0.40912938218E+02 -0.60557503775E+02  0.14948450981E+03  0.92428972906E+02 0.  0.
        -13    1    3    3    0    0  0.41060018201E+02 -0.34189698443E+02  0.61028218596E+02  0.81112909203E+02  0.00000000000E+00 0.  1.
         14    1    3    3    0    0 -0.13976819571E+02  0.10857641693E+02 -0.10921274746E+02  0.20796973590E+02  0.00000000000E+00 0. -1.
        -13    1    4    4    0    0 -0.38517624355E+02  0.38207441239E+02 -0.76353774245E+02  0.93665974577E+02  0.00000000000E+00 0. -1.
         13    1    4    4    0    0 -0.53468373838E+02  0.27054969785E+01  0.15796270470E+02  0.55818535233E+02  0.00000000000E+00 0.  1.
         21    1    1    2  502  501  0.64902799563E+02 -0.17580881468E+02 -0.33886599260E+03  0.34547304052E+03  0.00000000000E+00 0. -1.
<scales pt_clust_5="13000.00000" pt_clust_6="13000.00000" pt_clust_7="13000.00000" pt_clust_8="13000.00000" pt_clust_9="67.24181"></scales>
<clustering>
<clus scale="   67.242">  2  9  1 -1</clus>
<clus scale="   81.222">  5  6 -1 -1</clus>
<clus scale="   92.429">  7  8 -1 -1</clus>
<clus scale="   94.391">  1  5  2 -1</clus>
<clus scale="   67.242">  2  5  1 -1</clus>
</clustering>
</event>
<event>
 9    2  0.2984928E-005  0.1005523E+03  0.7546771E-02  0.1283758E+00
          2   -1    0    0  502    0  0.00000000000E+00  0.00000000000E+00  0.32480586669E+03  0.32480586669E+03  0.00000000000E+00 0. -1.
         -1   -1    0    0    0  501 -0.00000000000E+00 -0.00000000000E+00 -0.13693710423E+03  0.13693710423E+03  0.00000000000E+00 0.  1.
         24    2    1    2    0    0  0.46479750364E+02 -0.76469377519E+01 -0.92882887189E+02  0.13346359984E+03  0.83465315537E+02 0.  0.
         23    2    1    2    0    0  0.16459913300E+02 -0.22385351802E+02  0.12893603420E+03  0.16121255579E+03  0.92698190424E+02 0.  0.
        -11    1    3    3    0    0  0.24186148070E+02  0.34658687672E+02 -0.21170132608E+02  0.47269111524E+02  0.00000000000E+00 0.  1.
         12    1    3    3    0    0  0.22293602294E+02 -0.42305625424E+02 -0.71712754581E+02  0.86194488312E+02  0.00000000000E+00 0. -1.
        -11    1    4    4    0    0  0.46562477599E+02 -0.37659184492E+02  0.61727689263E+02  0.86003407598E+02  0.00000000000E+00 0. -1.
         11    1    4    4    0    0 -0.30102564299E+02  0.15273832690E+02  0.67208344941E+02  0.75209148194E+02  0.00000000000E+00 0.  1.
         21    1    1    2  502  501 -0.62939663665E+02  0.30032289554E+02  0.15181561545E+03  0.16706681530E+03  0.00000000000E+00 0. -1.
<scales pt_clust_5="13000.00000" pt_clust_6="13000.00000" pt_clust_7="13000.00000" pt_clust_8="13000.00000" pt_clust_9="69.73765"></scales>
<clustering>
<clus scale="   69.738">  1  9  2 -1</clus>
<clus scale="   83.465">  5  6 -1 -1</clus>
<clus scale="   92.110">  2  5  1 -1</clus>
<clus scale="   92.698">  7  8 -1 -1</clus>
<clus scale="   69.738">  1  5  2 -1</clus>
</clustering>
</event>
<event>
 9    2  0.2984928E-005  0.2219535E+03  0.7546771E-02  0.1152020E+00
         -3   -1    0    0    0  501 -0.00000000000E+00  0.00000000000E+00  0.25581052683E+03  0.25581052683E+03  0.00000000000E+00 0.  1.
          4   -1    0    0  502    0  0.00000000000E+00 -0.00000000000E+00 -0.40562560223E+03  0.40562560223E+03  0.00000000000E+00 0. -1.
         24    2    1    2    0    0  0.11126175786E+03 -0.18051193134E+02  0.75638921432E+02  0.15793503340E+03  0.80729201680E+02 0.  0.
         23    2    1    2    0    0  0.40954337686E+02  0.18086930996E+03 -0.32646642812E+02  0.20879080628E+03  0.90204392578E+02 0.  0.
        -13    1    3    3    0    0  0.45030698338E+02  0.29668209241E+02  0.46667519982E+02  0.71314962341E+02  0.00000000000E+00 0.  1.
         14    1    3    3    0    0  0.66231059518E+02 -0.47719402374E+02  0.28971401450E+02  0.86620071057E+02  0.00000000000E+00 0. -1.
        -13    1    4    4    0    0  0.67478952580E+02  0.10404170359E+03 -0.29413672485E+02  0.12744900650E+03  0.00000000000E+00 0.  1.
         13    1    4    4    0    0 -0.26524614894E+02  0.76827606363E+02 -0.32329703269E+01  0.81341799782E+02  0.00000000000E+00 0. -1.
         21    1    1    2  502  501 -0.15221609554E+03 -0.16281811682E+03 -0.19280735402E+03  0.29471028939E+03  0.00000000000E+00 0. -1.
<scales pt_clust_5="13000.00000" pt_clust_6="13000.00000" pt_clust_7="13000.00000" pt_clust_8="13000.00000" pt_clust_9="202.79671"></scales>
<clustering>
<clus scale="   80.729">  5  6 -1 -1</clus>
<clus scale="   90.204">  7  8 -1 -1</clus>
<clus scale="  138.644">  1  5  2 -1</clus>
<clus scale="  202.797">  2  9  1 -1</clus>
<clus scale="  202.797">  2  5  1 -1</clus>
</clustering>
</event>
<event>
 9    2  0.2984928E-005  0.1264586E+03  0.7546771E-02  0.1235852E+00
          2   -1    0    0  502    0  0.00000000000E+00  0.00000000000E+00  0.54437100712E+02  0.54437100712E+02  0.00000000000E+00 0. -1.
         -1   -1    0    0    0  501 -0.00000000000E+00 -0.00000000000E+00 -0.33512708300E+03  0.33512708300E+03  0.00000000000E+00 0.  1.
         23    2    1    2    0    0 -0.77556061916E+02  0.38416734359E+02 -0.13736520755E+03  0.18615153266E+03  0.91062641329E+02 0.  0.
         24    2    1    2    0    0  0.88288271673E+02 -0.18800310810E+02 -0.13001307794E+03  0.17738985968E+03  0.80096761987E+02 0.  0.
        -13    1    4    4    0    0  0.66266378753E+02 -0.13703624507E+02 -0.28559018417E+02  0.73448211759E+02  0.00000000000E+00 0.  1.
         14    1    4    4    0    0  0.22021892920E+02 -0.50966863025E+01 -0.10145405952E+03  0.10394164792E+03  0.00000000000E+00 0. -1.
        -13    1    3    3    0    0 -0.40649686653E+02  0.65776220533E+02 -0.68106303176E+02  0.10304065579E+03  0.00000000000E+00 0. -1.
         13    1    3    3    0    0 -0.36906375263E+02 -0.27359486174E+02 -0.69258904379E+02  0.83110876872E+02  0.00000000000E+00 0.  1.
         21    1    1    2  502  501 -0.10732209757E+02 -0.19616423549E+02 -0.13311696787E+02  0.26022791366E+02  0.00000000000E+00 0. -1.
<scales pt_clust_5="13000.00000" pt_clust_6="13000.00000" pt_clust_7="13000.00000" pt_clust_8="13000.00000" pt_clust_9="22.36033"></scales>
<clustering>
<clus scale="   22.360">  1  9  2 -1</clus>
<clus scale="   80.097">  5  6 -1 -1</clus>
<clus scale="   91.063">  7  8 -1 -1</clus>
<clus scale="  118.806">  1  5  2 -1</clus>
<clus scale="   22.360">  1  5  2 -1</clus>
</clustering>
</event>
<event>
 9    2  0.2984928E-005  0.8990262E+02  0.7546771E-02  0.1308725E+00
          2   -1    0    0  502    0  0.00000000000E+00  0.00000000000E+00  0.50918502500E+03  0.50918502500E+03  0.00000000000E+00 0. -1.
         -1   -1    0    0    0  501 -0.00000000000E+00 -0.00000000000E+00 -0.73291499499E+02  0.73291499499E+02  0.00000000000E+00 0.  1.
         23    2    1    2    0    0  0.15865465863E+02 -0.16610017408E+02 -0.29767824627E+02  0.95954104182E+02  0.88280581336E+02 0.  0.
         24    2    1    2    0    0  0.45156602602E+01 -0.19335888396E+02  0.17760216155E+03  0.19551452597E+03  0.79304062392E+02 0.  0.
        -13    1    4    4    0    0  0.19340398209E+02 -0.46509146473E+02  0.11948268234E+03  0.12966596735E+03  0.00000000000E+00 0.  1.
         14    1    4    4    0    0 -0.14824737949E+02  0.27173258077E+02  0.58119479210E+02  0.65848558628E+02  0.00000000000E+00 0. -1.
        -11    1    3    3    0    0  0.46693714097E+02 -0.19451644048E+02 -0.38748348005E+02  0.63718944321E+02  0.00000000000E+00 0.  1.
         11    1    3    3    0    0 -0.30828248234E+02  0.28416266404E+01  0.89805233778E+01  0.32235159861E+02  0.00000000000E+00 0. -1.
         21    1    1    2  502  501 -0.20381126123E+02  0.35945905804E+02  0.28805918858E+03  0.29100789435E+03  0.00000000000E+00 0. -1.
<scales pt_clust_5="13000.00000" pt_clust_6="13000.00000" pt_clust_7="13000.00000" pt_clust_8="13000.00000" pt_clust_9="41.32189"></scales>
<clustering>
<clus scale="   41.322">  1  9  2 -1</clus>
<clus scale="   79.304">  5  6 -1 -1</clus>
<clus scale="   81.106">  1  5  2 -1</clus>
<clus scale="   88.281">  7  8 -1 -1</clus>
<clus scale="   41.322">  1  5  2 -1</clus>
</clustering>
</event>
<event>
 9    2  0.2984928E-005  0.9212559E+02  0.7546771E-02  0.1301907E+00
         -1   -1    0    0    0  501 -0.00000000000E+00  0.00000000000E+00  0.20614823808E+03  0.20614823808E+03  0.00000000000E+00 0.  1.
          2   -1    0    0  502    0  0.00000000000E+00 -0.00000000000E+00 -0.18977468783E+03  0.18977468783E+03  0.00000000000E+00 0. -1.
         23    2    1    2    0    0 -0.29029518259E+02  0.79917852960E+00  0.17396392432E+03  0.19690744335E+03  0.87554226991E+02 0.  0.
         24    2    1    2    0    0  0.21927039837E+02 -0.26097006106E+02 -0.14634761826E+03  0.17043533494E+03  0.80428410532E+02 0.  0.
        -13    1    4    4    0    0 -0.23406170190E+02 -0.33860351536E+02 -0.63421350058E+02  0.75608464158E+02  0.00000000000E+00 0.  1.
         14    1    4    4    0    0  0.45333210027E+02  0.77633454298E+01 -0.82926268207E+02  0.94826870782E+02  0.00000000000E+00 0. -1.
        -11    1    3    3    0    0 -0.36715687545E+02 -0.30004719354E+02  0.14946404671E+03  0.15680505780E+03  0.00000000000E+00 0.  1.
         11    1    3    3    0    0  0.76861692865E+01  0.30803897884E+02  0.24499877617E+02  0.40102385545E+02  0.00000000000E+00 0. -1.
         21    1    1    2  502  501  0.71024784219E+01  0.25297827577E+02 -0.11242755808E+02  0.28580147620E+02  0.00000000000E+00 0.  1.
<scales pt_clust_5="13000.00000" pt_clust_6="13000.00000" pt_clust_7="13000.00000" pt_clust_8="13000.00000" pt_clust_9="26.27594"></scales>
<clustering>
<clus scale="   26.276">  2  9  1 -1</clus>
<clus scale="   80.428">  5  6 -1 -1</clus>
<clus scale="   85.382">  2  5  1 -1</clus>
<clus scale="   87.554">  7  8 -1 -1</clus>
<clus scale="   26.276">  2  5  1 -1</clus>
</clustering>
</event>
<event>
 9    2  0.2984928E-005  0.1117846E+03  0.7546771E-02  0.1259446E+00
         -1   -1    0    0    0  501 -0.00000000000E+00  0.00000000000E+00  0.14403333400E+03  0.14403333400E+03  0.00000000000E+00 0.  1.
          2   -1    0    0  502    0  0.00000000000E+00 -0.00000000000E+00 -0.10905364163E+03  0.10905364163E+03  0.00000000000E+00 0. -1.
         23    2    1    2    0    0  0.42077581775E+02 -0.59989223036E+02  0.45713017010E+02  0.12519421663E+03  0.90634883926E+02 0.  0.
         24    2    1    2    0    0 -0.20567698337E+02  0.52663241187E+02  0.17150349329E+01  0.10198317098E+03  0.84859758610E+02 0.  0.
        -13    1    4    4    0    0  0.10219972686E+02  0.35186141095E+02  0.36948731502E+02  0.52035767760E+02  0.00000000000E+00 0.  1.
         14    1    4    4    0    0 -0.30787671023E+02  0.17477100092E+02 -0.35233696569E+02  0.49947403221E+02  0.00000000000E+00 0. -1.
        -13    1    3    3    0    0 -0.33353289686E+01 -0.56237650262E+02 -0.55465714776E+01  0.56608852501E+02  0.00000000000E+00 0. -1.
         13    1    3    3    0    0  0.45412910743E+02 -0.37515727738E+01  0.51259588487E+02  0.68585364126E+02  0.00000000000E+00 0.  1.
         21    1    1    2  502  501 -0.21509883438E+02  0.73259818485E+01 -0.12448359574E+02  0.25909588025E+02  0.00000000000E+00 0. -1.
<scales pt_clust_5="13000.00000" pt_clust_6="13000.00000" pt_clust_7="13000.00000" pt_clust_8="13000.00000" pt_clust_9="22.72323"></scales>
<clustering>
<clus scale="   22.723">  2  9  1 -1</clus>
<clus scale="   84.860">  5  6 -1 -1</clus>
<clus scale="   90.635">  7  8 -1 -1</clus>
<clus scale="  107.155">  2  5  1 -1</clus>
<clus scale="   22.723">  2  5  1 -1</clus>
</clustering>
</event>
<event>
 9    2  0.2984928E-005  0.2764557E+03  0.7546771E-02  0.1098270E+00
          2   -1    0    0  502    0  0.00000000000E+00  0.00000000000E+00  0.35912933253E+03  0.35912933253E+03  0.00000000000E+00 0. -1.
         -1   -1    0    0    0  501 -0.00000000000E+00 -0.00000000000E+00 -0.68260369672E+03  0.68260369672E+03  0.00000000000E+00 0.  1.
         23    2    1    2    0    0 -0.29319703760E+02 -0.23432176915E+03 -0.38934518097E+03  0.46475896617E+03  0.92977901476E+02 0.  0.
         24    2    1    2    0    0 -0.11070201958E+02  0.35311821965E+03 -0.93812616308E+02  0.37389097678E+03  0.78604256355E+02 0.  0.
        -11    1    4    4    0    0 -0.29055856408E+02  0.17930783971E+03 -0.80381204921E+02  0.19863706169E+03  0.00000000000E+00 0.  1.
         12    1    4    4    0    0  0.17985654450E+02  0.17381037995E+03 -0.13431411387E+02  0.17525391509E+03  0.00000000000E+00 0. -1.
        -13    1    3    3    0    0  0.30570111818E+02 -0.60150858053E+02 -0.13264969372E+03  0.14882405284E+03  0.00000000000E+00 0. -1.
         13    1    3    3    0    0 -0.59889815577E+02 -0.17417091110E+03 -0.25669548725E+03  0.31593491333E+03  0.00000000000E+00 0.  1.
         21    1    1    2  502  501  0.40389905717E+02 -0.11879645050E+03  0.15968343309E+03  0.20308308629E+03  0.00000000000E+00 0. -1.
<scales pt_clust_5="13000.00000" pt_clust_6="13000.00000" pt_clust_7="13000.00000" pt_clust_8="13000.00000" pt_clust_9="125.47486"></scales>
<clustering>
<clus scale="   78.604">  5  6 -1 -1</clus>
<clus scale="   92.978">  7  8 -1 -1</clus>
<clus scale="  125.475">  1  9  2 -1</clus>
<clus scale="  271.959">  1  5  2 -1</clus>
<clus scale="  125.475">  1  5  2 -1</clus>
</clustering>
</event>
<event>
 9    2  0.2984928E-005  0.1251635E+03  0.7546771E-02  0.1237617E+00
         -1   -1    0    0    0  501 -0.00000000000E+00  0.00000000000E+00  0.33475038633E+02  0.33475038633E+02  0.00000000000E+00 0.  1.
          2   -1    0    0  502    0  0.00000000000E+00 -0.00000000000E+00 -0.93080007548E+03  0.93080007548E+03  0.00000000000E+00 0. -1.
         23    2    1    2    0    0 -0.95271168145E+02  0.29691075713E+01 -0.13748613157E+03  0.19016265018E+03  0.90410099373E+02 0.  0.
         24    2    1    2    0    0  0.53493807546E+02 -0.20762781182E+02 -0.59404013330E+03  0.60220785240E+03  0.80485632197E+02 0.  0.
        -13    1    4    4    0    0 -0.57729639070E+01 -0.32855545260E+02 -0.12870547814E+03  0.13295831704E+03  0.00000000000E+00 0.  1.
         14    1    4    4    0    0  0.59266771453E+02  0.12092764078E+02 -0.46533465516E+03  0.46924953536E+03  0.00000000000E+00 0. -1.
        -11    1    3    3    0    0 -0.89849260204E+02 -0.28583014568E+02 -0.77025109754E+02  0.12174869943E+03  0.00000000000E+00 0.  1.
         11    1    3    3    0    0 -0.54219079409E+01  0.31552122140E+02 -0.60461021818E+02  0.68413950745E+02  0.00000000000E+00 0. -1.
         21    1    1    2  502  501  0.41777360599E+02  0.17793673610E+02 -0.16579877197E+03  0.17190461153E+03  0.00000000000E+00 0. -1.
<scales pt_clust_5="13000.00000" pt_clust_6="13000.00000" pt_clust_7="13000.00000" pt_clust_8="13000.00000" pt_clust_9="45.40884"></scales>
<clustering>
<clus scale="   45.409">  2  9  1 -1</clus>
<clus scale="   80.486">  5  6 -1 -1</clus>
<clus scale="   90.410">  7  8 -1 -1</clus>
<clus scale="  118.194">  2  5  1 -1</clus>
<clus scale="   45.409">  2  5  1 -1</clus>
</clustering>
</event>
<event>
 9    2  0.2984928E-005  0.9774555E+02  0.7546771E-02  0.1290601E+00
         -1   -1    0    0    0  501 -0.00000000000E+00  0.00000000000E+00  0.82154328370E+02  0.82154328370E+02  0.00000000000E+00 0.  1.
          2   -1    0    0  502    0  0.00000000000E+00 -0.00000000000E+00 -0.18709526853E+03  0.18709526853E+03  0.00000000000E+00 0. -1.
         24    2    1    2    0    0 -0.28444889368E+02 -0.77989122785E+01  0.52594990301E+01  0.84966975090E+02  0.79509683448E+02 0.  0.
         23    2    1    2    0    0  0.58384797913E+02 -0.23342849982E+01 -0.54808510149E+02  0.12050687710E+03  0.90020559480E+02 0.  0.
        -13    1    3    3    0    0 -0.46271514779E+02  0.17238429834E+02  0.16768052250E+02  0.52147714421E+02  0.00000000000E+00 0.  1.
         14    1    3    3    0    0  0.17826625411E+02 -0.25037342113E+02 -0.11508553220E+02  0.32819260669E+02  0.00000000000E+00 0. -1.
        -13    1    4    4    0    0  0.81152135034E+02 -0.12877229277E+02 -0.40204988850E+02  0.91476407794E+02  0.00000000000E+00 0. -1.
         13    1    4    4    0    0 -0.22767337121E+02  0.10542944279E+02 -0.14603521299E+02  0.29030469303E+02  0.00000000000E+00 0.  1.
         21    1    1    2  502  501 -0.29939908545E+02  0.10133197277E+02 -0.55391929043E+02  0.63775744714E+02  0.00000000000E+00 0.  1.
<scales pt_clust_5="13000.00000" pt_clust_6="13000.00000" pt_clust_7="13000.00000" pt_clust_8="13000.00000" pt_clust_9="31.60822"></scales>
<clustering>
<clus scale="   31.608">  2  9  1 -1</clus>
<clus scale="   79.510">  5  6 -1 -1</clus>
<clus scale="   88.161">  1  5  2 -1</clus>
<clus scale="   90.021">  7  8 -1 -1</clus>
<clus scale="   31.608">  2  5  1 -1</clus>
</clustering>
</event>
<event>
 9    2  0.2984928E-005  0.1032236E+03  0.7546771E-02  0.1278539E+00
          2   -1    0    0  502    0  0.00000000000E+00  0.00000000000E+00  0.65737967762E+02  0.65737967762E+02  0.00000000000E+00 0. -1.
         -1   -1    0    0    0  501 -0.00000000000E+00 -0.00000000000E+00 -0.29798140599E+03  0.29798140599E+03  0.00000000000E+00 0.  1.
         23    2    1    2    0    0  0.21014878157E+02  0.35853245161E+02 -0.20466237468E+03  0.22814676994E+03  0.91854127470E+02 0.  0.
         24    2    1    2    0    0 -0.26726033828E+02 -0.62151090450E+02 -0.22514769369E+02  0.10818900831E+03  0.81368960607E+02 0.  0.
        -11    1    4    4    0    0 -0.10905198401E+02  0.19662893152E+02 -0.43049102671E+01  0.22892902211E+02  0.00000000000E+00 0.  1.
         12    1    4    4    0    0 -0.15820835427E+02 -0.81813983602E+02 -0.18209859102E+02  0.85296106095E+02  0.00000000000E+00 0. -1.
        -13    1    3    3    0    0  0.41806134013E+02 -0.11422998408E+02 -0.13249617543E+03  0.13940399649E+03  0.00000000000E+00 0. -1.
         13    1    3    3    0    0 -0.20791255855E+02  0.47276243570E+02 -0.72166199251E+02  0.88742773455E+02  0.00000000000E+00 0.  1.
         21    1    1    2  502  501  0.57111556710E+01  0.26297845289E+02 -0.50662941778E+01  0.27383595502E+02  0.00000000000E+00 0.  1.
<scales pt_clust_5="13000.00000" pt_clust_6="13000.00000" pt_clust_7="13000.00000" pt_clust_8="13000.00000" pt_clust_9="26.91085"></scales>
<clustering>
<clus scale="   26.911">  1  9  2 -1</clus>
<clus scale="   81.369">  5  6 -1 -1</clus>
<clus scale="   91.854">  7  8 -1 -1</clus>
<clus scale="   94.015">  1  5  2 -1</clus>
<clus scale="   26.911">  1  5  2 -1</clus>
</clustering>
</event>
<event>
 9    2  0.2984928E-005  0.9341815E+02  0.7546771E-02  0.1300443E+00
          2   -1    0    0  502    0  0.00000000000E+00  0.00000000000E+00  0.30232697241E+03  0.30232697241E+03  0.00000000000E+00 0. -1.
         -1   -1    0    0    0  501 -0.00000000000E+00 -0.00000000000E+00 -0.98979510079E+02  0.98979510079E+02  0.00000000000E+00 0.  1.
         23    2    1    2    0    0 -0.27701194885E+01 -0.42094152476E+01 -0.55203920316E+02  0.10644505878E+03  0.90871805211E+02 0.  0.
         24    2    1    2    0    0  0.10629619063E+02 -0.21198392576E+02  0.25417533707E+03  0.26790816404E+03  0.81285433734E+02 0.  0.
        -11    1    4    4    0    0 -0.18840799351E+02 -0.33924621628E+02  0.62526642177E+02  0.73589650460E+02  0.00000000000E+00 0.  1.
         12    1    4    4    0    0  0.29470418414E+02  0.12726229053E+02  0.19164869489E+03  0.19431851358E+03  0.00000000000E+00 0. -1.
        -13    1    3    3    0    0 -0.13457113793E+02  0.40491683920E+02 -0.38716891280E+02  0.57616560542E+02  0.00000000000E+00 0.  1.
         13    1    3    3    0    0  0.10686994305E+02 -0.44701099167E+02 -0.16487029035E+02  0.48828498241E+02  0.00000000000E+00 0. -1.
         21    1    1    2  502  501 -0.78594995743E+01  0.25407807823E+02  0.43760455863E+01  0.26953259672E+02  0.00000000000E+00 0. -1.
<scales pt_clust_5="13000.00000" pt_clust_6="13000.00000" pt_clust_7="13000.00000" pt_clust_8="13000.00000" pt_clust_9="26.59565"></scales>
<clustering>
<clus scale="   26.596">  2  9  1 -1</clus>
<clus scale="   81.285">  5  6 -1 -1</clus>
<clus scale="   84.122">  1  5  2 -1</clus>
<clus scale="   90.872">  7  8 -1 -1</clus>
<clus scale="   84.122">  1  5  2 -1</clus>
</clustering>
</event>
<event>
 9    2  0.2984928E-005  0.9658350E+02  0.7546771E-02  0.1293798E+00
          2   -1    0    0  502    0  0.00000000000E+00  0.00000000000E+00  0.43743390093E+03  0.43743390093E+03  0.00000000000E+00 0. -1.
         -1   -1    0    0    0  501 -0.00000000000E+00 -0.00000000000E+00 -0.62230429988E+02  0.62230429988E+02  0.00000000000E+00 0.  1.
         23    2    1    2    0    0  0.32896224155E+02  0.11847291427E+02 -0.32011296924E+01  0.98369933135E+02  0.91890568808E+02 0.  0.
         24    2    1    2    0    0  0.62440628934E+01  0.10800172849E-01  0.31929289262E+03  0.32941414715E+03  0.80788245598E+02 0.  0.
        -13    1    4    4    0    0  0.39059604628E+02 -0.32050909597E+01  0.95867543296E+02  0.10356887167E+03  0.00000000000E+00 0.  1.
         14    1    4    4    0    0 -0.32815541735E+02  0.32158911326E+01  0.22342534933E+03  0.22584527548E+03  0.00000000000E+00 0. -1.
        -13    1    3    3    0    0  0.25696088467E+02 -0.36750518157E+02 -0.15982934277E+02  0.47606131280E+02  0.00000000000E+00 0.  1.
         13    1    3    3    0    0  0.72001356886E+01  0.48597809585E+02  0.12781804584E+02  0.50763801855E+02  0.00000000000E+00 0. -1.
         21    1    1    2  502  501 -0.39140287049E+02 -0.11858091600E+02  0.59111708017E+02  0.71880250635E+02  0.00000000000E+00 0.  1.
<scales pt_clust_5="13000.00000" pt_clust_6="13000.00000" pt_clust_7="13000.00000" pt_clust_8="13000.00000" pt_clust_9="40.89714"></scales>
<clustering>
<clus scale="   40.897">  1  9  2 -1</clus>
<clus scale="   80.788">  5  6 -1 -1</clus>
<clus scale="   86.089">  1  5  2 -1</clus>
<clus scale="   91.891">  7  8 -1 -1</clus>
<clus scale="   40.897">  1  5  2 -1</clus>
</clustering>
</event>
<event>
 9    2  0.2984928E-005  0.1605792E+03  0.7546771E-02  0.1216376E+00
         -1   -1    0    0    0  501 -0.00000000000E+00  0.00000000000E+00  0.25955550890E+02  0.25955550890E+02  0.00000000000E+00 0.  1.
          2   -1    0    0  502    0  0.00000000000E+00 -0.00000000000E+00 -0.15819962127E+04  0.15819962127E+04  0.00000000000E+00 0. -1.
         24    2    1    2    0    0  0.91865779468E+01 -0.14881292939E+02 -0.17079277185E+03  0.19166568303E+03  0.85203973149E+02 0.  0.
         23    2    1    2    0    0  0.11110698792E+03  0.69698953325E+02 -0.84587971226E+03  0.86095415369E+03  0.92341000101E+02 0.  0.
        -13    1    3    3    0    0 -0.34629503711E+02  0.77725847319E+01 -0.93120913771E+02  0.99655005806E+02  0.00000000000E+00 0.  1.
         14    1    3    3    0    0  0.43816081657E+02 -0.22653877670E+02 -0.77671858079E+02  0.92010677221E+02  0.00000000000E+00 0. -1.
        -11    1    4    4    0    0  0.99909890568E+02  0.13228351248E+02 -0.60152671803E+03  0.60991095089E+03  0.00000000000E+00 0.  1.
         11    1    4    4    0    0  0.11197097349E+02  0.56470602077E+02 -0.24435299422E+03  0.25104320280E+03  0.00000000000E+00 0. -1.
         21    1    1    2  502  501 -0.12029356586E+03 -0.54817660387E+02 -0.53936817772E+03  0.55533192689E+03  0.00000000000E+00 0. -1.
<scales pt_clust_5="13000.00000" pt_clust_6="13000.00000" pt_clust_7="13000.00000" pt_clust_8="13000.00000" pt_clust_9="131.37277"></scales>
<clustering>
<clus scale="   85.204">  5  6 -1 -1</clus>
<clus scale="   86.980">  1  5  2 -1</clus>
<clus scale="   92.341">  7  8 -1 -1</clus>
<clus scale="  131.373">  1  9  2 -1</clus>
<clus scale="  160.579">  2  5  1 -1</clus>
</clustering>
</event>
<event>
 9    2  0.2984928E-005  0.1230856E+03  0.7546771E-02  0.1242410E+00
         -1   -1    0    0    0  501 -0.00000000000E+00  0.00000000000E+00  0.98061858461E+02  0.98061858461E+02  0.00000000000E+00 0.  1.
          2   -1    0    0  502    0  0.00000000000E+00 -0.00000000000E+00 -0.37613706335E+03  0.37613706335E+03  0.00000000000E+00 0. -1.
         24    2    1    2    0    0  0.14169308871E+02 -0.60267950351E+02 -0.24383700598E+02  0.10343706765E+03  0.79193856802E+02 0.  0.
         23    2    1    2    0    0  0.45515942150E+02  0.12004943537E+03 -0.80275417797E+02  0.17786474637E+03  0.93317508419E+02 0.  0.
        -11    1    3    3    0    0 -0.29770670896E+02 -0.18706208331E+02  0.61353240591E+01  0.35691137234E+02  0.00000000000E+00 0.  1.
         12    1    3    3    0    0  0.43939979767E+02 -0.41561742019E+02 -0.30519024657E+02  0.67745930414E+02  0.00000000000E+00 0. -1.
        -13    1    4    4    0    0  0.39226056137E+02  0.81351074859E+02 -0.99349689886E+02  0.13426481945E+03  0.00000000000E+00 0.  1.
         13    1    4    4    0    0  0.62898860129E+01  0.38698360508E+02  0.19074272089E+02  0.43599926924E+02  0.00000000000E+00 0. -1.
         21    1    1    2  502  501 -0.59685251021E+02 -0.59781485016E+02 -0.17341608650E+03  0.19289710780E+03  0.00000000000E+00 0. -1.
<scales pt_clust_5="13000.00000" pt_clust_6="13000.00000" pt_clust_7="13000.00000" pt_clust_8="13000.00000" pt_clust_9="84.47577"></scales>
<clustering>
<clus scale="   79.194">  5  6 -1 -1</clus>
<clus scale="   84.476">  2  9  1 -1</clus>
<clus scale="   93.318">  7  8 -1 -1</clus>
<clus scale="  112.754">  1  5  2 -1</clus>
<clus scale="   84.476">  2  5  1 -1</clus>
</clustering>
</event>
<event>
 9    2  0.2984928E-005  0.1073883E+03  0.7546771E-02  0.1268321E+00
          2   -1    0    0  502    0  0.00000000000E+00  0.00000000000E+00  0.15376237921E+03  0.15376237921E+03  0.00000000000E+00 0. -1.
         -1   -1    0    0    0  501 -0.00000000000E+00 -0.00000000000E+00 -0.13684643951E+03  0.13684643951E+03  0.00000000000E+00 0.  1.
         23    2    1    2    0    0  0.35522164468E+02 -0.53162613664E+02 -0.77841356797E+02  0.13569125222E+03  0.90910678364E+02 0.  0.
         24    2    1    2    0    0 -0.16059380933E+02  0.34684136283E+02  0.56648766722E+02  0.10830733039E+03  0.84026793463E+02 0.  0.
        -13    1    4    4    0    0  0.20357815354E+02  0.46336714559E+02  0.17416523559E+02  0.53524452870E+02  0.00000000000E+00 0.  1.
         14    1    4    4    0    0 -0.36417196287E+02 -0.11652578276E+02  0.39232243163E+02  0.54782877522E+02  0.00000000000E+00 0. -1.
        -13    1    3    3    0    0  0.57713206963E+02 -0.15493881125E+02 -0.68652589991E+02  0.91016771656E+02  0.00000000000E+00 0.  1.
         13    1    3    3    0    0 -0.22191042495E+02 -0.37668732539E+02 -0.91887668063E+01  0.44674480562E+02  0.00000000000E+00 0. -1.
         21    1    1    2  502  501 -0.19462783534E+02  0.18478477381E+02  0.38108529771E+02  0.46610236113E+02  0.00000000000E+00 0.  1.
<scales pt_clust_5="13000.00000" pt_clust_6="13000.00000" pt_clust_7="13000.00000" pt_clust_8="13000.00000" pt_clust_9="26.83755"></scales>
<clustering>
<clus scale="   26.838">  1  9  2 -1</clus>
<clus scale="   84.027">  5  6 -1 -1</clus>
<clus scale="   90.911">  7  8 -1 -1</clus>
<clus scale="  101.627">  1  5  2 -1</clus>
<clus scale="   26.838">  1  5  2 -1</clus>
</clustering>
</event>
<event>
 9    2  0.2984928E-005  0.2335935E+03  0.7546771E-02  0.1163702E+00
         -1   -1    0    0    0  501 -0.00000000000E+00  0.00000000000E+00  0.20839207025E+03  0.20839207025E+03  0.00000000000E+00 0.  1.
          2   -1    0    0  502    0  0.00000000000E+00 -0.00000000000E+00 -0.69720669185E+03  0.69720669185E+03  0.00000000000E+00 0. -1.
         24    2    1    2    0    0 -0.98244255906E+01  0.39901128004E+02 -0.27975603614E+02  0.94745973072E+02  0.80656962884E+02 0.  0.
         23    2    1    2    0    0 -0.12635534293E+03  0.16746099908E+03 -0.50910264759E+03  0.55812099631E+03  0.91130027114E+02 0.  0.
        -13    1    3    3    0    0  0.32270942637E+02  0.10474380616E+01 -0.16738333100E+02  0.36368704406E+02  0.00000000000E+00 0.  1.
         14    1    3    3    0    0 -0.42095368228E+02  0.38853689942E+02 -0.11237270513E+02  0.58377268666E+02  0.00000000000E+00 0. -1.
        -11    1    4    4    0    0 -0.98342673356E+02  0.11346389604E+03 -0.24704850920E+03  0.28909912315E+03  0.00000000000E+00 0.  1.
         11    1    4    4    0    0 -0.28012669577E+02  0.53997103042E+02 -0.26205413839E+03  0.26902187317E+03  0.00000000000E+00 0. -1.
         21    1    1    2  502  501  0.13617976852E+03 -0.20736212709E+03  0.48263629601E+02  0.25273179271E+03  0.00000000000E+00 0.  1.
<scales pt_clust_5="13000.00000" pt_clust_6="13000.00000" pt_clust_7="13000.00000" pt_clust_8="13000.00000" pt_clust_9="215.08424"></scales>
<clustering>
<clus scale="   80.657">  5  6 -1 -1</clus>
<clus scale="   90.522">  1  5  2 -1</clus>
<clus scale="   91.130">  7  8 -1 -1</clus>
<clus scale="  215.084">  1  9  2 -1</clus>
<clus scale="  233.593">  2  5  1 -1</clus>
</clustering>
</event>
<event>
 9    2  0.2984928E-005  0.2434999E+03  0.7546771E-02  0.1118841E+00
          2   -1    0    0  502    0  0.00000000000E+00  0.00000000000E+00  0.19148095997E+04  0.19148095997E+04  0.00000000000E+00 0. -1.
         -1   -1    0    0    0  501 -0.00000000000E+00 -0.00000000000E+00 -0.41861971060E+02  0.41861971060E+02  0.00000000000E+00 0.  1.
         23    2    1    2    0    0 -0.19913762980E+03 -0.89164352318E+02  0.66853143444E+03  0.70940428970E+03  0.93349290684E+02 0.  0.
         24    2    1    2    0    0  0.23607315553E+03  0.31670205893E+02  0.81564420114E+03  0.85253512818E+03  0.69333579379E+02 0.  0.
        -13    1    4    4    0    0  0.12256456698E+03  0.26501285205E+02  0.31250391510E+03  0.33672405342E+03  0.00000000000E+00 0.  1.
         14    1    4    4    0    0  0.11350858855E+03  0.51689206881E+01  0.50314028604E+03  0.51581107476E+03  0.00000000000E+00 0. -1.
        -13    1    3    3    0    0 -0.66591436412E+02 -0.78050650586E+02  0.24958925038E+03  0.26985388151E+03  0.00000000000E+00 0.  1.
         13    1    3    3    0    0 -0.13254619339E+03 -0.11113701732E+02  0.41894218407E+03  0.43955040819E+03  0.00000000000E+00 0. -1.
         21    1    1    2  502  501 -0.36935525729E+02  0.57494146426E+02  0.38877199309E+03  0.39473215292E+03  0.00000000000E+00 0. -1.
<scales pt_clust_5="13000.00000" pt_clust_6="13000.00000" pt_clust_7="13000.00000" pt_clust_8="13000.00000" pt_clust_9="68.33601"></scales>
<clustering>
<clus scale="   68.336">  1  9  2 -1</clus>
<clus scale="   69.334">  5  6 -1 -1</clus>
<clus scale="   93.349">  7  8 -1 -1</clus>
<clus scale="  235.341">  1  5  2 -1</clus>
<clus scale="   68.336">  1  5  2 -1</clus>
</clustering>
</event>
<event>
 9    2  0.2984928E-005  0.1003087E+03  0.7546771E-02  0.1284532E+00
          2   -1    0    0  502    0  0.00000000000E+00  0.00000000000E+00  0.46024014890E+03  0.46024014890E+03  0.00000000000E+00 0. -1.
         -1   -1    0    0    0  501 -0.00000000000E+00 -0.00000000000E+00 -0.84310842331E+02  0.84310842331E+02  0.00000000000E+00 0.  1.
         24    2    1    2    0    0  0.38166483445E+02 -0.46043554249E+02 -0.25522622820E+02  0.10327542833E+03  0.80235406613E+02 0.  0.
         23    2    1    2    0    0  0.36178054164E+01 -0.19712059228E+02  0.13452299971E+03  0.16320941789E+03  0.90217641532E+02 0.  0.
        -13    1    3    3    0    0  0.51403085173E+02 -0.60680711203E+02 -0.15062709833E+02  0.80940169909E+02  0.00000000000E+00 0.  1.
         14    1    3    3    0    0 -0.13236601728E+02  0.14637156953E+02 -0.10459912987E+02  0.22335258420E+02  0.00000000000E+00 0. -1.
        -11    1    4    4    0    0  0.23475631383E+02  0.30131326640E+02  0.64975623707E+02  0.75371306145E+02  0.00000000000E+00 0.  1.
         11    1    4    4    0    0 -0.19857825966E+02 -0.49843385868E+02  0.69547376002E+02  0.87838111749E+02  0.00000000000E+00 0. -1.
         21    1    1    2  502  501 -0.41784288862E+02  0.65755613477E+02  0.26692892969E+03  0.27806614501E+03  0.00000000000E+00 0. -1.
<scales pt_clust_5="13000.00000" pt_clust_6="13000.00000" pt_clust_7="13000.00000" pt_clust_8="13000.00000" pt_clust_9="77.90846"></scales>
<clustering>
<clus scale="   77.908">  1  9  2 -1</clus>
<clus scale="   80.235">  5  6 -1 -1</clus>
<clus scale="   90.218">  7  8 -1 -1</clus>
<clus scale="   91.435">  2  5  1 -1</clus>
<clus scale="   77.908">  1  5  2 -1</clus>
</clustering>
</event>
<event>
 9    2  0.2984928E-005  0.2909196E+03  0.7546771E-02  0.1125598E+00
         -1   -1    0    0    0  501 -0.00000000000E+00  0.00000000000E+00  0.17554732716E+03  0.17554732716E+03  0.00000000000E+00 0.  1.
          2   -1    0    0  502    0  0.00000000000E+00 -0.00000000000E+00 -0.71477933328E+03  0.71477933328E+03  0.00000000000E+00 0. -1.
         24    2    1    2    0    0  0.16560127664E+03 -0.19761542472E+03 -0.16072373610E+03  0.31421839092E+03  0.80158835658E+02 0.  0.
         23    2    1    2    0    0 -0.91997774284E+01 -0.69626564370E+02 -0.15615547459E+03  0.19489904177E+03  0.93105369707E+02 0.  0.
        -13    1    3    3    0    0  0.11736903195E+03 -0.78256317069E+02 -0.77984560645E+02  0.16118663878E+03  0.00000000000E+00 0.  1.
         14    1    3    3    0    0  0.48232244682E+02 -0.11935910765E+03 -0.82739175460E+02  0.15303175214E+03  0.00000000000E+00 0. -1.
        -13    1    4    4    0    0 -0.40001955187E+02 -0.38180334952E+02 -0.33665887872E+02  0.64740145212E+02  0.00000000000E+00 0.  1.
         13    1    4    4    0    0  0.30802177759E+02 -0.31446229418E+02 -0.12248958672E+03  0.13015889656E+03  0.00000000000E+00 0. -1.
         21    1    1    2  502  501 -0.15640149921E+03  0.26724198909E+03 -0.22235279543E+03  0.38120922775E+03  0.00000000000E+00 0.  1.
<scales pt_clust_5="13000.00000" pt_clust_6="13000.00000" pt_clust_7="13000.00000" pt_clust_8="13000.00000" pt_clust_9="279.65829"></scales>
<clustering>
<clus scale="   80.159">  5  6 -1 -1</clus>
<clus scale="   93.105">  7  8 -1 -1</clus>
<clus scale="  116.624">  2  7  1 -1</clus>
<clus scale="  279.658">  2  9  1 -1</clus>
<clus scale="  116.624">  2  5  1 -1</clus>
</clustering>
</event>
<event>
 9    2  0.2984928E-005  0.1492580E+03  0.7546771E-02  0.1203438E+00
          2   -1    0    0  502    0  0.00000000000E+00  0.00000000000E+00  0.70715161606E+03  0.70715161606E+03  0.00000000000E+00 0. -1.
         -1   -1    0    0    0  501 -0.00000000000E+00 -0.00000000000E+00 -0.39291164397E+02  0.39291164397E+02  0.00000000000E+00 0.  1.
         23    2    1    2    0    0 -0.18897284175E+02 -0.10434353735E+03  0.28364433130E+03  0.31614197625E+03  0.90812781772E+02 0.  0.
         24    2    1    2    0    0  0.52544210566E+02  0.12262392352E+03  0.30483574070E+03  0.34216719626E+03  0.79724780999E+02 0.  0.
        -13    1    4    4    0    0  0.57692771580E+02  0.12694750594E+03  0.30508281392E+03  0.33543948561E+03  0.00000000000E+00 0.  1.
         14    1    4    4    0    0 -0.51485610140E+01 -0.43235824233E+01 -0.24707321349E+00  0.67277106551E+01  0.00000000000E+00 0. -1.
        -13    1    3    3    0    0 -0.28254205995E+02 -0.25446534183E+02  0.18798328326E+03  0.19179035701E+03  0.00000000000E+00 0. -1.
         13    1    3    3    0    0  0.93569218201E+01 -0.78897003169E+02  0.95661048043E+02  0.12435161924E+03  0.00000000000E+00 0.  1.
         21    1    1    2  502  501 -0.33646926391E+02 -0.18280386169E+02  0.79380379659E+02  0.88133607942E+02  0.00000000000E+00 0. -1.
<scales pt_clust_5="13000.00000" pt_clust_6="13000.00000" pt_clust_7="13000.00000" pt_clust_8="13000.00000" pt_clust_9="38.29214"></scales>
<clustering>
<clus scale="   38.292">  1  9  2 -1</clus>
<clus scale="   79.725">  5  6 -1 -1</clus>
<clus scale="   90.813">  7  8 -1 -1</clus>
<clus scale="  142.783">  1  5  2 -1</clus>
<clus scale="   38.292">  1  5  2 -1</clus>
</clustering>
</event>
<event>
 9    2  0.2984928E-005  0.2187907E+03  0.7546771E-02  0.1135258E+00
         -1   -1    0    0    0  501 -0.00000000000E+00  0.00000000000E+00  0.42893919420E+02  0.42893919420E+02  0.00000000000E+00 0.  1.
          2   -1    0    0  502    0  0.00000000000E+00 -0.00000000000E+00 -0.14992455251E+04  0.14992455251E+04  0.00000000000E+00 0. -1.
         24    2    1    2    0    0 -0.18763877319E+03  0.11628934689E+03 -0.55987620635E+03  0.60729333030E+03  0.81316057383E+02 0.  0.
         23    2    1    2    0    0  0.12755331939E+03 -0.12833102525E+03 -0.62543654607E+03  0.65696606140E+03  0.87720187771E+02 0.  0.
        -13    1    3    3    0    0 -0.17462535942E+03  0.12690406764E+03 -0.49026372255E+03  0.53568383976E+03  0.00000000000E+00 0.  1.
         14    1    3    3    0    0 -0.13013413767E+02 -0.10614720744E+02 -0.69612483802E+02  0.71609490540E+02  0.00000000000E+00 0. -1.
        -11    1    4    4    0    0  0.26251802488E+00 -0.36763119634E+02 -0.61648077481E+02  0.71778000376E+02  0.00000000000E+00 0.  1.
         11    1    4    4    0    0  0.12729080136E+03 -0.91567905616E+02 -0.56378846859E+03  0.58518806102E+03  0.00000000000E+00 0. -1.
         21    1    1    2  502  501  0.60085453804E+02  0.12041678357E+02 -0.27103885323E+03  0.27788005278E+03  0.00000000000E+00 0. -1.
<scales pt_clust_5="13000.00000" pt_clust_6="13000.00000" pt_clust_7="13000.00000" pt_clust_8="13000.00000" pt_clust_9="61.28021"></scales>
<clustering>
<clus scale="   61.280">  2  9  1 -1</clus>
<clus scale="   81.316">  5  6 -1 -1</clus>
<clus scale="   87.720">  7  8 -1 -1</clus>
<clus scale="  216.303">  1  5  2 -1</clus>
<clus scale="   61.280">  2  5  1 -1</clus>
</clustering>
</event>
<event>
 9    2  0.2984928E-005  0.9663972E+02  0.7546771E-02  0.1293608E+00
         -1   -1    0    0    0  501 -0.00000000000E+00  0.00000000000E+00  0.19092970396E+03  0.19092970396E+03  0.00000000000E+00 0.  1.
          2   -1    0    0  502    0  0.00000000000E+00 -0.00000000000E+00 -0.18086079752E+03  0.18086079752E+03  0.00000000000E+00 0. -1.
         23    2    1    2    0    0  0.24542278812E+02  0.50457575329E+00  0.14144375960E+03  0.17052976877E+03  0.92040680467E+02 0.  0.
         24    2    1    2    0    0 -0.61420977547E+02 -0.25381791402E+02 -0.72408797986E+02  0.12739660109E+03  0.81056080135E+02 0.  0.
        -11    1    4    4    0    0 -0.20152448585E+02  0.13234113096E+02 -0.66302332731E+02  0.70549714804E+02  0.00000000000E+00 0.  1.
         12    1    4    4    0    0 -0.41268528961E+02 -0.38615904498E+02 -0.61064652552E+01  0.56846886289E+02  0.00000000000E+00 0. -1.
        -11    1    3    3    0    0 -0.32754186932E+02  0.13816963159E+02  0.64854591645E+02  0.73958524120E+02  0.00000000000E+00 0.  1.
         11    1    3    3    0    0  0.57296465744E+02 -0.13312387405E+02  0.76589167950E+02  0.96571244646E+02  0.00000000000E+00 0. -1.
         21    1    1    2  502  501  0.36878698735E+02  0.24877215649E+02 -0.58966055167E+02  0.73864131625E+02  0.00000000000E+00 0.  1.
<scales pt_clust_5="13000.00000" pt_clust_6="13000.00000" pt_clust_7="13000.00000" pt_clust_8="13000.00000" pt_clust_9="44.48499"></scales>
<clustering>
<clus scale="   44.485">  2  9  1 -1</clus>
<clus scale="   81.056">  5  6 -1 -1</clus>
<clus scale="   86.243">  2  5  1 -1</clus>
<clus scale="   92.041">  7  8 -1 -1</clus>
<clus scale="   44.485">  2  5  1 -1</clus>
</clustering>
</event>
<event>
 9    2  0.2984928E-005  0.1914639E+03  0.7546771E-02  0.1157802E+00
          2   -1    0    0  502    0  0.00000000000E+00  0.00000000000E+00  0.10021340021E+03  0.10021340021E+03  0.00000000000E+00 0. -1.
         -1   -1    0    0    0  501 -0.00000000000E+00 -0.00000000000E+00 -0.51242665830E+03  0.51242665830E+03  0.00000000000E+00 0.  1.
         24    2    1    2    0    0  0.75496999387E+02 -0.15814546322E+03 -0.34815370848E+03  0.39890995189E+03  0.84902064349E+02 0.  0.
         23    2    1    2    0    0 -0.55005467005E+02  0.14118327673E+03 -0.60448857555E+02  0.18688507417E+03  0.91179205627E+02 0.  0.
        -11    1    3    3    0    0  0.45883749903E+02 -0.15843210213E+03 -0.28898260468E+03  0.33274163445E+03  0.00000000000E+00 0.  1.
         12    1    3    3    0    0  0.29613249484E+02  0.28663890908E+00 -0.59171103805E+02  0.66168317437E+02  0.00000000000E+00 0. -1.
        -11    1    4    4    0    0  0.91719565011E+01  0.81014753880E+02 -0.25542222980E+01  0.81572294217E+02  0.00000000000E+00 0.  1.
         11    1    4    4    0    0 -0.64177423506E+02  0.60168522853E+02 -0.57894635257E+02  0.10531277995E+03  0.00000000000E+00 0. -1.
         21    1    1    2  502  501 -0.20491532383E+02  0.16962186492E+02 -0.36106920576E+01  0.26845032447E+02  0.00000000000E+00 0. -1.
<scales pt_clust_5="13000.00000" pt_clust_6="13000.00000" pt_clust_7="13000.00000" pt_clust_8="13000.00000" pt_clust_9="26.60110"></scales>
<clustering>
<clus scale="   26.601">  1  9  2 -1</clus>
<clus scale="   84.902">  5  6 -1 -1</clus>
<clus scale="   91.179">  7  8 -1 -1</clus>
<clus scale="  188.555">  2  5  1 -1</clus>
<clus scale="   26.601">  1  5  2 -1</clus>
</clustering>
</event>
<event>
 9    2  0.2984928E-005  0.9398782E+02  0.7546771E-02  0.1298126E+00
          2   -1    0    0  502    0  0.00000000000E+00  0.00000000000E+00  0.62921426913E+02  0.62921426913E+02  0.00000000000E+00 0. -1.
         -1   -1    0    0    0  501 -0.00000000000E+00 -0.00000000000E+00 -0.42209680842E+03  0.42209680842E+03  0.00000000000E+00 0.  1.
         23    2    1    2    0    0 -0.56583399557E+02  0.36299181802E+02 -0.29382320131E+03  0.31467140455E+03  0.90369837384E+02 0.  0.
         24    2    1    2    0    0  0.19557734804E+02 -0.65135394746E+01  0.55677039954E+01  0.84978720149E+02  0.82252369955E+02 0.  0.
        -13    1    4    4    0    0 -0.31481489886E+02 -0.11473221632E+02  0.15787210685E+01  0.33544170585E+02  0.00000000000E+00 0.  1.
         14    1    4    4    0    0  0.51039224690E+02  0.49596821574E+01  0.39889829270E+01  0.51434549564E+02  0.00000000000E+00 0. -1.
        -11    1    3    3    0    0 -0.75886936446E+02  0.46248187263E+02 -0.25687999857E+03  0.27181805608E+03  0.00000000000E+00 0.  1.
         11    1    3    3    0    0  0.19303536890E+02 -0.99490054604E+01 -0.36943202749E+02  0.42853348474E+02  0.00000000000E+00 0. -1.
         21    1    1    2  502  501  0.37025664752E+02 -0.29785642328E+02 -0.70919884186E+02  0.85368110628E+02  0.00000000000E+00 0.  1.
<scales pt_clust_5="13000.00000" pt_clust_6="13000.00000" pt_clust_7="13000.00000" pt_clust_8="13000.00000" pt_clust_9="47.51930"></scales>
<clustering>
<clus scale="   47.519">  2  9  1 -1</clus>
<clus scale="   82.252">  5  6 -1 -1</clus>
<clus scale="   86.212">  1  5  2 -1</clus>
<clus scale="   90.370">  7  8 -1 -1</clus>
<clus scale="   86.212">  1  5  2 -1</clus>
</clustering>
</event>
<event>
 9    2  0.2984928E-005  0.2023865E+03  0.7546771E-02  0.1148892E+00
         -1   -1    0    0    0  501 -0.00000000000E+00  0.00000000000E+00  0.12149695695E+03  0.12149695695E+03  0.00000000000E+00 0.  1.
          2   -1    0    0  502    0  0.00000000000E+00 -0.00000000000E+00 -0.45128891709E+03  0.45128891709E+03  0.00000000000E+00 0. -1.
         24    2    1    2    0    0 -0.97666050776E+02 -0.11356859563E+03 -0.14179122148E+03  0.22135183615E+03  0.80345513187E+02 0.  0.
         23    2    1    2    0    0  0.13460477908E+03  0.16424295971E+03 -0.12871569098E+03  0.26513758547E+03  0.92930155278E+02 0.  0.
        -13    1    3    3    0    0 -0.82624637160E+02 -0.52778428475E+02 -0.49526812864E+02  0.10984215207E+03  0.00000000000E+00 0.  1.
         14    1    3    3    0    0 -0.15041413616E+02 -0.60790167156E+02 -0.92264408621E+02  0.11150968408E+03  0.00000000000E+00 0. -1.
        -11    1    4    4    0    0  0.81187853991E+02  0.74343991073E+02 -0.15756630202E+02  0.11120597124E+03  0.00000000000E+00 0.  1.
         11    1    4    4    0    0  0.53416925089E+02  0.89898968635E+02 -0.11295906078E+03  0.15393161423E+03  0.00000000000E+00 0. -1.
         21    1    1    2  502  501 -0.36938728304E+02 -0.50674364077E+02 -0.59285047674E+02  0.86296452424E+02  0.00000000000E+00 0.  1.
<scales pt_clust_5="13000.00000" pt_clust_6="13000.00000" pt_clust_7="13000.00000" pt_clust_8="13000.00000" pt_clust_9="62.70854"></scales>
<clustering>
<clus scale="   62.709">  2  9  1 -1</clus>
<clus scale="   80.346">  5  6 -1 -1</clus>
<clus scale="   92.930">  7  8 -1 -1</clus>
<clus scale="  196.926">  1  5  2 -1</clus>
<clus scale="   62.709">  2  5  1 -1</clus>
</clustering>
</event>
<event>
 9    2  0.2984928E-005  0.1622910E+03  0.7546771E-02  0.1188669E+00
          2   -1    0    0  502    0  0.00000000000E+00  0.00000000000E+00  0.15969109410E+04  0.15969109410E+04  0.00000000000E+00 0. -1.
         -1   -1    0    0    0  501 -0.00000000000E+00 -0.00000000000E+00 -0.24284514039E+02  0.24284514039E+02  0.00000000000E+00 0.  1.
         23    2    1    2    0    0 -0.61837989232E+02 -0.13967235781E+03  0.47043528946E+03  0.50272785741E+03  0.89964618619E+02 0.  0.
         24    2    1    2    0    0  0.30401383521E+02  0.12599933381E+03  0.99183037578E+03  0.10029050194E+04  0.72738623362E+02 0.  0.
        -13    1    4    4    0    0  0.39106519119E+02  0.34896737807E+02  0.24886684944E+03  0.25432618995E+03  0.00000000000E+00 0.  1.
         14    1    4    4    0    0 -0.87051355985E+01  0.91102596007E+02  0.74296352634E+03  0.74857882942E+03  0.00000000000E+00 0. -1.
        -11    1    3    3    0    0 -0.34326845744E+02 -0.24249557637E+02  0.47318567720E+02  0.63288389420E+02  0.00000000000E+00 0.  1.
         11    1    3    3    0    0 -0.27511143489E+02 -0.11542280017E+03  0.42311672174E+03  0.43943946799E+03  0.00000000000E+00 0. -1.
         21    1    1    2  502  501  0.31436605712E+02  0.13673023993E+02  0.11036076172E+03  0.11556257825E+03  0.00000000000E+00 0.  1.
<scales pt_clust_5="13000.00000" pt_clust_6="13000.00000" pt_clust_7="13000.00000" pt_clust_8="13000.00000" pt_clust_9="34.28136"></scales>
<clustering>
<clus scale="   34.281">  2  9  1 -1</clus>
<clus scale="   72.739">  5  6 -1 -1</clus>
<clus scale="   89.965">  7  8 -1 -1</clus>
<clus scale="  153.413">  1  5  2 -1</clus>
<clus scale="  153.413">  1  5  2 -1</clus>
</clustering>
</event>
<event>
 9    2  0.2984928E-005  0.1723314E+03  0.7546771E-02  0.1176883E+00
          2   -1    0    0  502    0  0.00000000000E+00  0.00000000000E+00  0.28899459664E+03  0.28899459664E+03  0.00000000000E+00 0. -1.
         -1   -1    0    0    0  501 -0.00000000000E+00 -0.00000000000E+00 -0.19760469769E+03  0.19760469769E+03  0.00000000000E+00 0.  1.
         24    2    1    2    0    0 -0.60511976018E+02  0.15332745585E+03 -0.93760872114E+02  0.20583320678E+03  0.80032492883E+02 0.  0.
         23    2    1    2    0    0  0.40794318416E+02 -0.79698509642E+02  0.14955435050E+03  0.19664050942E+03  0.91021740998E+02 0.  0.
        -13    1    3    3    0    0 -0.25838837662E+02  0.14059502960E+03 -0.89488550784E+02  0.16864995879E+03  0.00000000000E+00 0.  1.
         14    1    3    3    0    0 -0.34673138356E+02  0.12732426250E+02 -0.42723213303E+01  0.37183247992E+02  0.00000000000E+00 0. -1.
        -11    1    4    4    0    0  0.23663345875E+02 -0.27058290635E+01  0.10154948982E+03  0.10430519801E+03  0.00000000000E+00 0. -1.
         11    1    4    4    0    0  0.17130972541E+02 -0.76992680579E+02  0.48004860679E+02  0.92335311402E+02  0.00000000000E+00 0.  1.
         21    1    1    2  502  501  0.19717657602E+02 -0.73628946204E+02  0.35596420561E+02  0.84125578138E+02  0.00000000000E+00 0.  1.
<scales pt_clust_5="13000.00000" pt_clust_6="13000.00000" pt_clust_7="13000.00000" pt_clust_8="13000.00000" pt_clust_9="76.22341"></scales>
<clustering>
<clus scale="   76.223">  1  9  2 -1</clus>
<clus scale="   80.032">  5  6 -1 -1</clus>
<clus scale="   91.022">  7  8 -1 -1</clus>
<clus scale="  166.788">  2  5  1 -1</clus>
<clus scale="   76.223">  1  5  2 -1</clus>
</clustering>
</event>
<event>
 9    2  0.2984928E-005  0.1013376E+03  0.7546771E-02  0.1280234E+00
          2   -1    0    0  502    0  0.00000000000E+00  0.00000000000E+00  0.15329775844E+04  0.15329775844E+04  0.00000000000E+00 0. -1.
         -1   -1    0    0    0  501 -0.00000000000E+00 -0.00000000000E+00 -0.80941835978E+02  0.80941835978E+02  0.00000000000E+00 0.  1.
         23    2    1    2    0    0 -0.21918093615E+02  0.48133055484E+02 -0.40916569504E+02  0.11017437411E+03  0.87561596568E+02 0.  0.
         24    2    1    2    0    0  0.39667861856E+02  0.25838539037E+02  0.10575828771E+04  0.10617796618E+04  0.81568001637E+02 0.  0.
        -11    1    4    4    0    0  0.40083589694E+02  0.14123627597E+02  0.21740363472E+03  0.22151864799E+03  0.00000000000E+00 0.  1.
         12    1    4    4    0    0 -0.41572783824E+00  0.11714911440E+02  0.84017924240E+03  0.84026101382E+03  0.00000000000E+00 0. -1.
        -11    1    3    3    0    0 -0.42040000583E+02  0.16938719648E+02  0.10724592591E+02  0.46575731433E+02  0.00000000000E+00 0. -1.
         11    1    3    3    0    0  0.20121906968E+02  0.31194335837E+02 -0.51641162095E+02  0.63598642681E+02  0.00000000000E+00 0.  1.
         21    1    1    2  502  501 -0.17749768241E+02 -0.73971594521E+02  0.43536944079E+03  0.44196538444E+03  0.00000000000E+00 0. -1.
<scales pt_clust_5="13000.00000" pt_clust_6="13000.00000" pt_clust_7="13000.00000" pt_clust_8="13000.00000" pt_clust_9="76.07136"></scales>
<clustering>
<clus scale="   76.071">  1  9  2 -1</clus>
<clus scale="   81.568">  5  6 -1 -1</clus>
<clus scale="   87.562">  7  8 -1 -1</clus>
<clus scale="   96.206">  1  5  2 -1</clus>
<clus scale="   76.071">  1  5  2 -1</clus>
</clustering>
</event>
<event>
 9    2  0.2984928E-005  0.1052476E+03  0.7546771E-02  0.1276502E+00
          2   -1    0    0  502    0  0.00000000000E+00  0.00000000000E+00  0.38457073012E+03  0.38457073012E+03  0.00000000000E+00 0. -1.
         -1   -1    0    0    0  501 -0.00000000000E+00 -0.00000000000E+00 -0.84908642335E+02  0.84908642335E+02  0.00000000000E+00 0.  1.
         24    2    1    2    0    0  0.12636245326E+02  0.47406824767E+02 -0.41566233365E+02  0.10030568053E+03  0.76983089446E+02 0.  0.
         23    2    1    2    0    0 -0.26234342714E+02 -0.64746578578E+02  0.31061464173E+03  0.33145403282E+03  0.92195227878E+02 0.  0.
        -13    1    3    3    0    0 -0.26382700419E+02  0.16006680428E+02 -0.39571845445E+02  0.50181586779E+02  0.00000000000E+00 0.  1.
         14    1    3    3    0    0  0.39018945745E+02  0.31400144339E+02 -0.19943879200E+01  0.50124093755E+02  0.00000000000E+00 0. -1.
        -11    1    4    4    0    0 -0.45726759956E+02 -0.73641619564E+02  0.18852637781E+03  0.20749992732E+03  0.00000000000E+00 0.  1.
         11    1    4    4    0    0  0.19492417243E+02  0.88950409861E+01  0.12208826392E+03  0.12395410550E+03  0.00000000000E+00 0. -1.
         21    1    1    2  502  501  0.13598097387E+02  0.17339753811E+02  0.30613679425E+02  0.37719659101E+02  0.00000000000E+00 0.  1.
<scales pt_clust_5="13000.00000" pt_clust_6="13000.00000" pt_clust_7="13000.00000" pt_clust_8="13000.00000" pt_clust_9="22.03577"></scales>
<clustering>
<clus scale="   22.036">  1  9  2 -1</clus>
<clus scale="   76.983">  5  6 -1 -1</clus>
<clus scale="   92.195">  7  8 -1 -1</clus>
<clus scale="   92.214">  2  5  1 -1</clus>
<clus scale="   22.036">  1  5  2 -1</clus>
</clustering>
</event>
<event>
 9    2  0.2984928E-005  0.9708879E+02  0.7546771E-02  0.1293229E+00
         -1   -1    0    0    0  501 -0.00000000000E+00  0.00000000000E+00  0.92967554775E+02  0.92967554775E+02  0.00000000000E+00 0.  1.
          2   -1    0    0  502    0  0.00000000000E+00 -0.00000000000E+00 -0.13245096477E+03  0.13245096477E+03  0.00000000000E+00 0. -1.
         24    2    1    2    0    0 -0.36134338563E+01  0.35451709755E+02  0.16910251708E+02  0.87237049829E+02  0.77810446735E+02 0.  0.
         23    2    1    2    0    0  0.25480715983E+02 -0.31296170887E+02 -0.29282074964E+02  0.10310320485E+03  0.90244743537E+02 0.  0.
        -13    1    3    3    0    0 -0.38443309963E+02  0.99752185466E+01  0.19013337585E+02  0.44032943032E+02  0.00000000000E+00 0.  1.
         14    1    3    3    0    0  0.34829876106E+02  0.25476491209E+02 -0.21030858774E+01  0.43204106797E+02  0.00000000000E+00 0. -1.
        -11    1    4    4    0    0  0.17998812346E+02 -0.54404311343E+02 -0.46111709512E+02  0.73553219458E+02  0.00000000000E+00 0. -1.
         11    1    4    4    0    0  0.74819036371E+01  0.23108140456E+02  0.16829634548E+02  0.29549985387E+02  0.00000000000E+00 0.  1.
         21    1    1    2  502  501 -0.21867282127E+02 -0.41555388688E+01 -0.27111586743E+02  0.35078264875E+02  0.00000000000E+00 0.  1.
<scales pt_clust_5="13000.00000" pt_clust_6="13000.00000" pt_clust_7="13000.00000" pt_clust_8="13000.00000" pt_clust_9="22.25863"></scales>
<clustering>
<clus scale="   22.259">  2  9  1 -1</clus>
<clus scale="   77.810">  5  6 -1 -1</clus>
<clus scale="   85.654">  1  5  2 -1</clus>
<clus scale="   90.245">  7  8 -1 -1</clus>
<clus scale="   22.259">  2  5  1 -1</clus>
</clustering>
</event>
<event>
 9    2  0.2984928E-005  0.1062530E+03  0.7546771E-02  0.1272275E+00
          2   -1    0    0  502    0  0.00000000000E+00  0.00000000000E+00  0.13928156722E+03  0.13928156722E+03  0.00000000000E+00 0. -1.
         -1   -1    0    0    0  501 -0.00000000000E+00 -0.00000000000E+00 -0.10628708738E+03  0.10628708738E+03  0.00000000000E+00 0.  1.
         23    2    1    2    0    0  0.59718722393E+02 -0.18038883242E+02 -0.23098837900E+02  0.11213196061E+03  0.90267896648E+02 0.  0.
         24    2    1    2    0    0 -0.36092647256E+02  0.31443971299E+02  0.50915423004E+02  0.10578351322E+03  0.79412649201E+02 0.  0.
        -11    1    4    4    0    0 -0.26207372047E+01  0.45838529167E+02  0.51952027282E+02  0.69332908193E+02  0.00000000000E+00 0.  1.
         12    1    4    4    0    0 -0.33471910051E+02 -0.14394557868E+02 -0.10366042778E+01  0.36450605031E+02  0.00000000000E+00 0. -1.
        -13    1    3    3    0    0  0.16335515088E+02  0.33419617957E+02  0.79041681390E+01  0.38028881018E+02  0.00000000000E+00 0. -1.
         13    1    3    3    0    0  0.43383207305E+02 -0.51458501198E+02 -0.31003006039E+02  0.74103079593E+02  0.00000000000E+00 0.  1.
         21    1    1    2  502  501 -0.23626075137E+02 -0.13405088057E+02  0.51778947345E+01  0.27653180759E+02  0.00000000000E+00 0.  1.
<scales pt_clust_5="13000.00000" pt_clust_6="13000.00000" pt_clust_7="13000.00000" pt_clust_8="13000.00000" pt_clust_9="27.16409"></scales>
<clustering>
<clus scale="   27.164">  1  9  2 -1</clus>
<clus scale="   79.413">  5  6 -1 -1</clus>
<clus scale="   90.268">  7  8 -1 -1</clus>
<clus scale="   97.200">  1  5  2 -1</clus>
<clus scale="   27.164">  1  5  2 -1</clus>
</clustering>
</event>
<event>
 9    2  0.2984928E-005  0.1219483E+03  0.7546771E-02  0.1242885E+00
         -1   -1    0    0    0  501 -0.00000000000E+00  0.00000000000E+00  0.34232270513E+03  0.34232270513E+03  0.00000000000E+00 0.  1.
          2   -1    0    0  502    0  0.00000000000E+00 -0.00000000000E+00 -0.18524386883E+03  0.18524386883E+03  0.00000000000E+00 0. -1.
         24    2    1    2    0    0  0.37339142229E+02  0.72056029630E+02  0.29276996798E+03  0.31429556419E+03  0.80505680357E+02 0.  0.
         23    2    1    2    0    0 -0.67418467768E+02 -0.66416374954E+02 -0.92128629231E+02  0.16003321164E+03  0.90369020390E+02 0.  0.
        -13    1    3    3    0    0  0.36358932420E+02  0.72448915124E+02  0.14189325494E+03  0.16341515556E+03  0.00000000000E+00 0.  1.
         14    1    3    3    0    0  0.98020980903E+00 -0.39288549428E+00  0.15087671304E+03  0.15088040863E+03  0.00000000000E+00 0. -1.
        -11    1    4    4    0    0  0.82198646655E+01 -0.40338979614E+02 -0.45619586730E+01  0.41419933829E+02  0.00000000000E+00 0.  1.
         11    1    4    4    0    0 -0.75638332433E+02 -0.26077395339E+02 -0.87566670558E+02  0.11861327781E+03  0.00000000000E+00 0. -1.
         21    1    1    2  502  501  0.30079325539E+02 -0.56396546762E+01 -0.43562502445E+02  0.53237798124E+02  0.00000000000E+00 0. -1.
<scales pt_clust_5="13000.00000" pt_clust_6="13000.00000" pt_clust_7="13000.00000" pt_clust_8="13000.00000" pt_clust_9="30.60346"></scales>
<clustering>
<clus scale="   30.603">  2  9  1 -1</clus>
<clus scale="   80.506">  5  6 -1 -1</clus>
<clus scale="   90.369">  7  8 -1 -1</clus>
<clus scale="  114.830">  1  5  2 -1</clus>
<clus scale="   30.603">  2  5  1 -1</clus>
</clustering>
</event>
<event>
 9    2  0.2984928E-005  0.1059874E+03  0.7546771E-02  0.1271606E+00
         -1   -1    0    0    0  501 -0.00000000000E+00  0.00000000000E+00  0.55563907665E+02  0.55563907665E+02  0.00000000000E+00 0.  1.
          2   -1    0    0  502    0  0.00000000000E+00 -0.00000000000E+00 -0.39549836714E+03  0.39549836714E+03  0.00000000000E+00 0. -1.
         24    2    1    2    0    0  0.10412383417E+02  0.58347279856E+02 -0.16754279805E+02  0.10243379805E+03  0.81848361599E+02 0.  0.
         23    2    1    2    0    0 -0.29580518196E+02 -0.37066193170E+02 -0.23989771698E+03  0.26055878484E+03  0.89950297462E+02 0.  0.
        -11    1    3    3    0    0  0.24241569292E+02  0.52760396163E+02 -0.42996148790E+02  0.72249442183E+02  0.00000000000E+00 0.  1.
         12    1    3    3    0    0 -0.13829185875E+02  0.55868836938E+01  0.26241868985E+02  0.30184355869E+02  0.00000000000E+00 0. -1.
        -11    1    4    4    0    0 -0.24572343690E+02  0.27476496459E+02 -0.92294276508E+02  0.99383053929E+02  0.00000000000E+00 0.  1.
         11    1    4    4    0    0 -0.50081745057E+01 -0.64542689628E+02 -0.14760344047E+03  0.16117573091E+03  0.00000000000E+00 0. -1.
         21    1    1    2  502  501  0.19168134778E+02 -0.21281086687E+02 -0.83282462690E+02  0.88069691910E+02  0.00000000000E+00 0. -1.
<scales pt_clust_5="13000.00000" pt_clust_6="13000.00000" pt_clust_7="13000.00000" pt_clust_8="13000.00000" pt_clust_9="28.64092"></scales>
<clustering>
<clus scale="   28.641">  2  9  1 -1</clus>
<clus scale="   81.848">  5  6 -1 -1</clus>
<clus scale="   89.950">  7  8 -1 -1</clus>
<clus scale="   99.204">  1  5  2 -1</clus>
<clus scale="   28.641">  2  5  1 -1</clus>
</clustering>
</event>
<event>
 9    2  0.2984928E-005  0.1156622E+03  0.7546771E-02  0.1253741E+00
          2   -1    0    0  502    0  0.00000000000E+00  0.00000000000E+00  0.28383578098E+03  0.28383578098E+03  0.00000000000E+00 0. -1.
         -1   -1    0    0    0  501 -0.00000000000E+00 -0.00000000000E+00 -0.17091076215E+03  0.17091076215E+03  0.00000000000E+00 0.  1.
         23    2    1    2    0    0 -0.67333856887E+02  0.34893625519E+02 -0.12466101875E+03  0.17235392599E+03  0.91728364335E+02 0.  0.
         24    2    1    2    0    0  0.38747551065E+02 -0.25923194765E+02  0.85734399474E+02  0.12761353101E+03  0.82227983700E+02 0.  0.
        -13    1    4    4    0    0 -0.18858450939E+01  0.27311507960E+02  0.21396149493E+02  0.34745792434E+02  0.00000000000E+00 0.  1.
         14    1    4    4    0    0  0.40633396159E+02 -0.53234702724E+02  0.64338249981E+02  0.92867738576E+02  0.00000000000E+00 0. -1.
        -11    1    3    3    0    0 -0.41285869205E+02  0.19396789574E+02 -0.13325799946E+03  0.14084904282E+03  0.00000000000E+00 0.  1.
         11    1    3    3    0    0 -0.26047987682E+02  0.15496835945E+02  0.85969807098E+01  0.31504883176E+02  0.00000000000E+00 0. -1.
         21    1    1    2  502  501  0.28586305822E+02 -0.89704307545E+01  0.15185163811E+03  0.15477908613E+03  0.00000000000E+00 0. -1.
<scales pt_clust_5="13000.00000" pt_clust_6="13000.00000" pt_clust_7="13000.00000" pt_clust_8="13000.00000" pt_clust_9="29.96073"></scales>
<clustering>
<clus scale="   29.961">  1  9  2 -1</clus>
<clus scale="   82.228">  5  6 -1 -1</clus>
<clus scale="   91.728">  7  8 -1 -1</clus>
<clus scale="  108.283">  1  5  2 -1</clus>
<clus scale="   29.961">  1  5  2 -1</clus>
</clustering>
</event>
<event>
 9    2  0.2984928E-005  0.1656291E+03  0.7546771E-02  0.1183945E+00
          2   -1    0    0  502    0  0.00000000000E+00  0.00000000000E+00  0.50628682021E+03  0.50628682021E+03  0.00000000000E+00 0. -1.
         -1   -1    0    0    0  501 -0.00000000000E+00 -0.00000000000E+00 -0.11414335137E+03  0.11414335137E+03  0.00000000000E+00 0.  1.
         24    2    1    2    0    0 -0.15272270649E+03 -0.23008194081E+01  0.20604901049E+01  0.17269143717E+03  0.80551648060E+02 0.  0.
         23    2    1    2    0    0  0.10394611219E+03  0.34725307951E+02  0.17875849727E+03  0.22844774034E+03  0.90681467072E+02 0.  0.
        -11    1    3    3    0    0 -0.12386614567E+03  0.40794165691E+01 -0.31599676152E+02  0.12789840975E+03  0.00000000000E+00 0.  1.
         12    1    3    3    0    0 -0.28856560819E+02 -0.63802359772E+01  0.33660166257E+02  0.44793027424E+02  0.00000000000E+00 0. -1.
        -11    1    4    4    0    0  0.78588399600E+02 -0.86910715225E+01  0.59283319408E+02  0.98824001315E+02  0.00000000000E+00 0.  1.
         11    1    4    4    0    0  0.25357712586E+02  0.43416379473E+02  0.11947517786E+03  0.12962373903E+03  0.00000000000E+00 0. -1.
         21    1    1    2  502  501  0.48776594304E+02 -0.32424488543E+02  0.21132448147E+03  0.21929099406E+03  0.00000000000E+00 0. -1.
<scales pt_clust_5="13000.00000" pt_clust_6="13000.00000" pt_clust_7="13000.00000" pt_clust_8="13000.00000" pt_clust_9="58.57050"></scales>
<clustering>
<clus scale="   58.571">  1  9  2 -1</clus>
<clus scale="   80.552">  5  6 -1 -1</clus>
<clus scale="   90.681">  7  8 -1 -1</clus>
<clus scale="  160.307">  2  5  1 -1</clus>
<clus scale="   58.571">  1  5  2 -1</clus>
</clustering>
</event>
<event>
 9    2  0.2984928E-005  0.9514427E+02  0.7546771E-02  0.1296800E+00
         -1   -1    0    0    0  501 -0.00000000000E+00  0.00000000000E+00  0.64833713745E+02  0.64833713745E+02  0.00000000000E+00 0.  1.
          2   -1    0    0  502    0  0.00000000000E+00 -0.00000000000E+00 -0.24040919170E+03  0.24040919170E+03  0.00000000000E+00 0. -1.
         23    2    1    2    0    0  0.21023253699E+02  0.20052826141E+02 -0.61831773399E+01  0.96541393236E+02  0.91858129165E+02 0.  0.
         24    2    1    2    0    0  0.69687360863E+01 -0.25234330959E+02 -0.89255554980E+02  0.12365859666E+03  0.81483493366E+02 0.  0.
        -13    1    4    4    0    0 -0.33113307063E+02 -0.93720320499E+01 -0.14456058475E+02  0.37326983751E+02  0.00000000000E+00 0.  1.
         14    1    4    4    0    0  0.40082043149E+02 -0.15862298909E+02 -0.74799496505E+02  0.86331612907E+02  0.00000000000E+00 0. -1.
        -11    1    3    3    0    0 -0.22702230578E+02  0.30607818691E+02  0.21469619935E+02  0.43739849318E+02  0.00000000000E+00 0.  1.
         11    1    3    3    0    0  0.43725484277E+02 -0.10554992550E+02 -0.27652797275E+02  0.52801543918E+02  0.00000000000E+00 0. -1.
         21    1    1    2  502  501 -0.27991989785E+02  0.51815048183E+01 -0.80136745636E+02  0.85042915551E+02  0.00000000000E+00 0.  1.
<scales pt_clust_5="13000.00000" pt_clust_6="13000.00000" pt_clust_7="13000.00000" pt_clust_8="13000.00000" pt_clust_9="28.46752"></scales>
<clustering>
<clus scale="   28.468">  2  9  1 -1</clus>
<clus scale="   81.483">  5  6 -1 -1</clus>
<clus scale="   85.171">  2  5  1 -1</clus>
<clus scale="   91.858">  7  8 -1 -1</clus>
<clus scale="   28.468">  2  5  1 -1</clus>
</clustering>
</event>
<event>
 9    2  0.3059695E-005  0.1042148E+03  0.7546771E-02  0.1276988E+00
          4   -1    0    0  502    0  0.00000000000E+00  0.00000000000E+00  0.24879928543E+03  0.24879928543E+03  0.00000000000E+00 0. -1.
         -3   -1    0    0    0  501 -0.00000000000E+00 -0.00000000000E+00 -0.39793486308E+03  0.39793486308E+03  0.00000000000E+00 0.  1.
         23    2    1    2    0    0 -0.48762349741E+02 -0.94120167713E+01 -0.36677726238E+03  0.38147554236E+03  0.92367074251E+02 0.  0.
         24    2    1    2    0    0  0.17352290917E+02 -0.31565912114E+02  0.18248931052E+03  0.20279684293E+03  0.80788008043E+02 0.  0.
        -13    1    4    4    0    0 -0.20038406196E+02  0.12633422028E+02  0.22563267133E+02  0.32714554845E+02  0.00000000000E+00 0.  1.
         14    1    4    4    0    0  0.37390697113E+02 -0.44199334142E+02  0.15992604338E+03  0.17008228809E+03  0.00000000000E+00 0. -1.
        -11    1    3    3    0    0 -0.69511370725E+02 -0.27272958080E+00 -0.33675259095E+03  0.34385202130E+03  0.00000000000E+00 0.  1.
         11    1    3    3    0    0  0.20749020984E+02 -0.91392871905E+01 -0.30024671428E+02  0.37623521054E+02  0.00000000000E+00 0. -1.
         21    1    1    2  502  501  0.31410058824E+02  0.40977928886E+02  0.35152374211E+02  0.62461763214E+02  0.00000000000E+00 0. -1.
<scales pt_clust_5="13000.00000" pt_clust_6="13000.00000" pt_clust_7="13000.00000" pt_clust_8="13000.00000" pt_clust_9="51.63122"></scales>
<clustering>
<clus scale="   51.631">  1  9  2 -1</clus>
<clus scale="   80.788">  5  6 -1 -1</clus>
<clus scale="   92.367">  7  8 -1 -1</clus>
<clus scale="   94.105">  1  5  2 -1</clus>
<clus scale="   51.631">  1  5  2 -1</clus>
</clustering>
</event>
<event>
 9    2  0.2984928E-005  0.1073916E+03  0.7546771E-02  0.1273697E+00
         -1   -1    0    0    0  501 -0.00000000000E+00  0.00000000000E+00  0.23904822802E+03  0.23904822802E+03  0.00000000000E+00 0.  1.
          2   -1    0    0  502    0  0.00000000000E+00 -0.00000000000E+00 -0.12781669922E+03  0.12781669922E+03  0.00000000000E+00 0. -1.
         24    2    1    2    0    0 -0.43283789768E+02 -0.18248775203E+02  0.17573810615E+03  0.19908907926E+03  0.80907819617E+02 0.  0.
         23    2    1    2    0    0  0.27690452940E+02 -0.40170053691E+01 -0.51140885548E+01  0.10245827864E+03  0.98430927278E+02 0.  0.
        -13    1    3    3    0    0  0.15045260900E+02  0.18785172308E+02  0.53770301577E+02  0.58910847099E+02  0.00000000000E+00 0.  1.
         14    1    3    3    0    0 -0.58329050668E+02 -0.37033947511E+02  0.12196780458E+03  0.14017823217E+03  0.00000000000E+00 0. -1.
        -13    1    4    4    0    0  0.56869150111E+02 -0.28619085493E+02 -0.80895764049E+01  0.64176269253E+02  0.00000000000E+00 0. -1.
         13    1    4    4    0    0 -0.29178697171E+02  0.24602080124E+02  0.29754878501E+01  0.38282009391E+02  0.00000000000E+00 0.  1.
         21    1    1    2  502  501  0.15593336828E+02  0.22265780572E+02 -0.59392488793E+02  0.65317569329E+02  0.00000000000E+00 0. -1.
<scales pt_clust_5="13000.00000" pt_clust_6="13000.00000" pt_clust_7="13000.00000" pt_clust_8="13000.00000" pt_clust_9="27.18303"></scales>
<clustering>
<clus scale="   27.183">  2  9  1 -1</clus>
<clus scale="   80.908">  5  6 -1 -1</clus>
<clus scale="   91.599">  1  5  2 -1</clus>
<clus scale="   98.431">  7  8 -1 -1</clus>
<clus scale="   27.183">  2  5  1 -1</clus>
</clustering>
</event>
<event>
 9    2  0.2984928E-005  0.1775781E+03  0.7546771E-02  0.1171042E+00
          2   -1    0    0  502    0  0.00000000000E+00  0.00000000000E+00  0.12172212848E+03  0.12172212848E+03  0.00000000000E+00 0. -1.
         -1   -1    0    0    0  501 -0.00000000000E+00 -0.00000000000E+00 -0.55947871966E+03  0.55947871966E+03  0.00000000000E+00 0.  1.
         23    2    1    2    0    0 -0.14895810115E+03 -0.17564762989E+02 -0.42945849027E+03  0.46361664330E+03  0.89491677156E+02 0.  0.
         24    2    1    2    0    0  0.17201744730E+03  0.42241169659E+01 -0.87224545141E+01  0.19094051222E+03  0.82306455725E+02 0.  0.
        -13    1    4    4    0    0  0.87408465673E+02  0.43271479681E+02 -0.59643859137E+01  0.97715069075E+02  0.00000000000E+00 0.  1.
         14    1    4    4    0    0  0.84608981623E+02 -0.39047362715E+02 -0.27580686004E+01  0.93225443140E+02  0.00000000000E+00 0. -1.
        -13    1    3    3    0    0 -0.70282598186E+02 -0.17400574723E+02 -0.91820699665E+02  0.11693359011E+03  0.00000000000E+00 0. -1.
         13    1    3    3    0    0 -0.78675502965E+02 -0.16418826584E+00 -0.33763779061E+03  0.34668305319E+03  0.00000000000E+00 0.  1.
         21    1    1    2  502  501 -0.23059346144E+02  0.13340646023E+02  0.42435359707E+00  0.26643692628E+02  0.00000000000E+00 0.  1.
<scales pt_clust_5="13000.00000" pt_clust_6="13000.00000" pt_clust_7="13000.00000" pt_clust_8="13000.00000" pt_clust_9="26.64031"></scales>
<clustering>
<clus scale="   26.640">  1  9  2 -1</clus>
<clus scale="   82.306">  5  6 -1 -1</clus>
<clus scale="   89.492">  7  8 -1 -1</clus>
<clus scale="  174.068">  1  5  2 -1</clus>
<clus scale="   26.640">  1  5  2 -1</clus>
</clustering>
</event>
<event>
 9    2  0.2984928E-005  0.1123858E+03  0.7546771E-02  0.1259925E+00
          2   -1    0    0  502    0  0.00000000000E+00  0.00000000000E+00  0.48695988582E+03  0.48695988582E+03  0.00000000000E+00 0. -1.
         -1   -1    0    0    0  501 -0.00000000000E+00 -0.00000000000E+00 -0.16672350077E+03  0.16672350077E+03  0.00000000000E+00 0.  1.
         24    2    1    2    0    0  0.70183970139E+02  0.17293500713E+02 -0.12961691025E+03  0.16942873076E+03  0.81735528088E+02 0.  0.
         23    2    1    2    0    0  0.39778465854E+01  0.17826792313E+02  0.18976241242E+03  0.21152644423E+03  0.91651762958E+02 0.  0.
        -13    1    3    3    0    0  0.44687051520E+02  0.50252702933E+02 -0.75057052691E+02  0.10077612755E+03  0.00000000000E+00 0.  1.
         14    1    3    3    0    0  0.25496918618E+02 -0.32959202220E+02 -0.54559857560E+02  0.68652603206E+02  0.00000000000E+00 0. -1.
        -13    1    4    4    0    0 -0.12393227856E+02  0.48183237017E+02  0.63673022258E+02  0.80805137149E+02  0.00000000000E+00 0. -1.
         13    1    4    4    0    0  0.16371074442E+02 -0.30356444704E+02  0.12608939017E+03  0.13072130708E+03  0.00000000000E+00 0.  1.
         21    1    1    2  502  501 -0.74161816724E+02 -0.35120293026E+02  0.26009088288E+03  0.27272821160E+03  0.00000000000E+00 0. -1.
<scales pt_clust_5="13000.00000" pt_clust_6="13000.00000" pt_clust_7="13000.00000" pt_clust_8="13000.00000" pt_clust_9="82.05736"></scales>
<clustering>
<clus scale="   81.736">  5  6 -1 -1</clus>
<clus scale="   82.057">  1  9  2 -1</clus>
<clus scale="   91.652">  7  8 -1 -1</clus>
<clus scale="  104.457">  2  5  1 -1</clus>
<clus scale="   82.057">  1  5  2 -1</clus>
</clustering>
</event>
<event>
 9    2  0.2984928E-005  0.1217019E+03  0.7546771E-02  0.1242313E+00
         -1   -1    0    0    0  501 -0.00000000000E+00  0.00000000000E+00  0.14696860334E+03  0.14696860334E+03  0.00000000000E+00 0.  1.
          2   -1    0    0  502    0  0.00000000000E+00 -0.00000000000E+00 -0.17316074930E+03  0.17316074930E+03  0.00000000000E+00 0. -1.
         23    2    1    2    0    0 -0.67043155451E+02  0.57937280172E+02  0.51122546078E+02  0.13522396567E+03  0.88433551587E+02 0.  0.
         24    2    1    2    0    0  0.45177626502E+02 -0.63237111848E+02 -0.91252108221E+01  0.11310013005E+03  0.81660392445E+02 0.  0.
        -11    1    4    4    0    0  0.30899638180E+02 -0.73295024582E+02  0.17322237825E+02  0.81406438267E+02  0.00000000000E+00 0.  1.
         12    1    4    4    0    0  0.14277988322E+02  0.10057912733E+02 -0.26447448647E+02  0.31693691786E+02  0.00000000000E+00 0. -1.
        -13    1    3    3    0    0 -0.31594446899E+02  0.77741297027E+02  0.27821698313E+02  0.88407947807E+02  0.00000000000E+00 0.  1.
         13    1    3    3    0    0 -0.35448708551E+02 -0.19804016856E+02  0.23300847765E+02  0.46816017858E+02  0.00000000000E+00 0. -1.
         21    1    1    2  502  501  0.21865528948E+02  0.52998316767E+01 -0.68189481221E+02  0.71805256919E+02  0.00000000000E+00 0.  1.
<scales pt_clust_5="13000.00000" pt_clust_6="13000.00000" pt_clust_7="13000.00000" pt_clust_8="13000.00000" pt_clust_9="22.49866"></scales>
<clustering>
<clus scale="   22.499">  2  9  1 -1</clus>
<clus scale="   81.660">  5  6 -1 -1</clus>
<clus scale="   88.434">  7  8 -1 -1</clus>
<clus scale="  116.873">  2  5  1 -1</clus>
<clus scale="   22.499">  2  5  1 -1</clus>
</clustering>
</event>
<event>
 9    2  0.2984928E-005  0.9920313E+02  0.7546771E-02  0.1285434E+00
          4   -1    0    0  502    0  0.00000000000E+00  0.00000000000E+00  0.43588076461E+03  0.43588076461E+03  0.00000000000E+00 0. -1.
         -3   -1    0    0    0  501 -0.00000000000E+00 -0.00000000000E+00 -0.75912542741E+02  0.75912542741E+02  0.00000000000E+00 0.  1.
         23    2    1    2    0    0  0.36607964159E+01  0.23004099595E+02 -0.24032746604E+02  0.96744423275E+02  0.90770702856E+02 0.  0.
         24    2    1    2    0    0 -0.41027723324E+02 -0.12889781165E+02  0.35325756783E+03  0.36561465153E+03  0.83867417084E+02 0.  0.
        -11    1    4    4    0    0 -0.38851468689E+02  0.29682642475E+02  0.14444716543E+03  0.15249747370E+03  0.00000000000E+00 0.  1.
         12    1    4    4    0    0 -0.21762546355E+01 -0.42572423640E+02  0.20881040239E+03  0.21311717783E+03  0.00000000000E+00 0. -1.
        -11    1    3    3    0    0 -0.84804917491E+01  0.47535021330E+02 -0.42005770580E+02  0.63999857462E+02  0.00000000000E+00 0.  1.
         11    1    3    3    0    0  0.12141288165E+02 -0.24530921734E+02  0.17973023976E+02  0.32744565813E+02  0.00000000000E+00 0. -1.
         21    1    1    2  502  501  0.37366926908E+02 -0.10114318430E+02  0.30743400644E+02  0.49434232542E+02  0.00000000000E+00 0.  1.
<scales pt_clust_5="13000.00000" pt_clust_6="13000.00000" pt_clust_7="13000.00000" pt_clust_8="13000.00000" pt_clust_9="38.71158"></scales>
<clustering>
<clus scale="   38.712">  2  9  1 -1</clus>
<clus scale="   83.867">  5  6 -1 -1</clus>
<clus scale="   90.771">  7  8 -1 -1</clus>
<clus scale="   92.928">  1  5  2 -1</clus>
<clus scale="   92.928">  1  5  2 -1</clus>
</clustering>
</event>
<event>
 9    2  0.2984928E-005  0.1384744E+03  0.7546771E-02  0.1217951E+00
         -1   -1    0    0    0  501 -0.00000000000E+00  0.00000000000E+00  0.20425079786E+02  0.20425079786E+02  0.00000000000E+00 0.  1.
          2   -1    0    0  502    0  0.00000000000E+00 -0.00000000000E+00 -0.13733806502E+04  0.13733806502E+04  0.00000000000E+00 0. -1.
         23    2    1    2    0    0  0.39414904773E+02 -0.62889503508E+02 -0.31971044346E+03  0.34079524347E+03  0.91749691769E+02 0.  0.
         24    2    1    2    0    0 -0.81782194912E+02  0.89007385020E+02 -0.87987137336E+03  0.89176334919E+03  0.80359164349E+02 0.  0.
        -11    1    4    4    0    0 -0.88918756624E+02  0.60219381915E+02 -0.53837283841E+03  0.54897926407E+03  0.00000000000E+00 0.  1.
         12    1    4    4    0    0  0.71365617121E+01  0.28788003105E+02 -0.34149853495E+03  0.34278408512E+03  0.00000000000E+00 0. -1.
        -11    1    3    3    0    0 -0.58132166620E+01 -0.62436107659E+02 -0.24963738999E+03  0.25739247757E+03  0.00000000000E+00 0.  1.
         11    1    3    3    0    0  0.45228121435E+02 -0.45339584856E+00 -0.70073053475E+02  0.83402765900E+02  0.00000000000E+00 0. -1.
         21    1    1    2  502  501  0.42367290139E+02 -0.26117881513E+02 -0.15337375356E+03  0.16124713730E+03  0.00000000000E+00 0. -1.
<scales pt_clust_5="13000.00000" pt_clust_6="13000.00000" pt_clust_7="13000.00000" pt_clust_8="13000.00000" pt_clust_9="49.77078"></scales>
<clustering>
<clus scale="   49.771">  1  9  2 -1</clus>
<clus scale="   80.359">  5  6 -1 -1</clus>
<clus scale="   91.750">  7  8 -1 -1</clus>
<clus scale="  131.205">  2  5  1 -1</clus>
<clus scale="  131.205">  2  5  1 -1</clus>
</clustering>
</event>
<event>
 9    2  0.2984928E-005  0.1298064E+03  0.7546771E-02  0.1229956E+00
          2   -1    0    0  502    0  0.00000000000E+00  0.00000000000E+00  0.11187933476E+04  0.11187933476E+04  0.00000000000E+00 0. -1.
         -1   -1    0    0    0  501 -0.00000000000E+00 -0.00000000000E+00 -0.27747070948E+02  0.27747070948E+02  0.00000000000E+00 0.  1.
         23    2    1    2    0    0 -0.35451962503E+02  0.67259894418E+02  0.14197626343E+03  0.18482514866E+03  0.90677125878E+02 0.  0.
         24    2    1    2    0    0  0.36050142811E+02 -0.89536126895E+02  0.88150076895E+03  0.89056619313E+03  0.82147476270E+02 0.  0.
        -11    1    4    4    0    0  0.54083893285E+02 -0.57760696003E+02  0.40442111326E+03  0.41208955624E+03  0.00000000000E+00 0.  1.
         12    1    4    4    0    0 -0.18033750475E+02 -0.31775430892E+02  0.47707965569E+03  0.47847663688E+03  0.00000000000E+00 0. -1.
        -13    1    3    3    0    0 -0.38617071370E+02  0.24170113631E+02  0.10944027951E+02  0.46853434686E+02  0.00000000000E+00 0.  1.
         13    1    3    3    0    0  0.31651088668E+01  0.43089780787E+02  0.13103223548E+03  0.13797171397E+03  0.00000000000E+00 0. -1.
         21    1    1    2  502  501 -0.59818030755E+00  0.22276232477E+02  0.67569244272E+02  0.71149076765E+02  0.00000000000E+00 0.  1.
<scales pt_clust_5="13000.00000" pt_clust_6="13000.00000" pt_clust_7="13000.00000" pt_clust_8="13000.00000" pt_clust_9="22.28426"></scales>
<clustering>
<clus scale="   22.284">  2  9  1 -1</clus>
<clus scale="   82.147">  5  6 -1 -1</clus>
<clus scale="   90.677">  7  8 -1 -1</clus>
<clus scale="  123.998">  1  5  2 -1</clus>
<clus scale="  123.998">  1  5  2 -1</clus>
</clustering>
</event>
<event>
 9    2  0.2984928E-005  0.9589535E+02  0.7546771E-02  0.1294439E+00
         -1   -1    0    0    0  501 -0.00000000000E+00  0.00000000000E+00  0.38382243082E+02  0.38382243082E+02  0.00000000000E+00 0.  1.
          2   -1    0    0  502    0  0.00000000000E+00 -0.00000000000E+00 -0.56832299879E+03  0.56832299879E+03  0.00000000000E+00 0. -1.
         24    2    1    2    0    0  0.27338183677E+02 -0.67975632663E+00 -0.35040957687E+02  0.92208712514E+02  0.80788239196E+02 0.  0.
         23    2    1    2    0    0 -0.58923340811E+02  0.48564533101E+01 -0.35790723576E+03  0.37384792801E+03  0.90383287342E+02 0.  0.
        -11    1    3    3    0    0  0.31738597832E+00  0.28342578729E+02  0.11916958684E+02  0.30747624415E+02  0.00000000000E+00 0.  1.
         12    1    3    3    0    0  0.27020797699E+02 -0.29022335056E+02 -0.46957916371E+02  0.61461088099E+02  0.00000000000E+00 0. -1.
        -11    1    4    4    0    0 -0.55177768584E+02 -0.35366715822E+02 -0.18442184394E+03  0.19572124886E+03  0.00000000000E+00 0. -1.
         11    1    4    4    0    0 -0.37455722274E+01  0.40223169132E+02 -0.17348539183E+03  0.17812667915E+03  0.00000000000E+00 0.  1.
         21    1    1    2  502  501  0.31585157134E+02 -0.41766969835E+01 -0.13699256225E+03  0.14064860135E+03  0.00000000000E+00 0.  1.
<scales pt_clust_5="13000.00000" pt_clust_6="13000.00000" pt_clust_7="13000.00000" pt_clust_8="13000.00000" pt_clust_9="31.86012"></scales>
<clustering>
<clus scale="   31.860">  2  9  1 -1</clus>
<clus scale="   80.788">  5  6 -1 -1</clus>
<clus scale="   86.911">  1  5  2 -1</clus>
<clus scale="   90.383">  7  8 -1 -1</clus>
<clus scale="   31.860">  2  5  1 -1</clus>
</clustering>
</event>
<event>
 9    2  0.2984928E-005  0.2212156E+03  0.7546771E-02  0.1133697E+00
         -1   -1    0    0    0  501 -0.00000000000E+00  0.00000000000E+00  0.26821741287E+03  0.26821741287E+03  0.00000000000E+00 0.  1.
          2   -1    0    0  502    0  0.00000000000E+00 -0.00000000000E+00 -0.24736357733E+03  0.24736357733E+03  0.00000000000E+00 0. -1.
         23    2    1    2    0    0 -0.19826984428E+03  0.67634062406E+01  0.12065092596E+03  0.24919845604E+03  0.90479554266E+02 0.  0.
         24    2    1    2    0    0  0.21099256840E+03  0.90361623357E+01 -0.86067759873E+02  0.24188786958E+03  0.80638489627E+02 0.  0.
        -13    1    4    4    0    0  0.11186698084E+03  0.95175518606E+01 -0.26017547783E+01  0.11230126591E+03  0.00000000000E+00 0.  1.
         14    1    4    4    0    0  0.99125587557E+02 -0.48138952494E+00 -0.83466005095E+02  0.12958660367E+03  0.00000000000E+00 0. -1.
        -11    1    3    3    0    0 -0.12494198386E+03  0.43501730948E+02  0.51671608752E+02  0.14203117643E+03  0.00000000000E+00 0. -1.
         11    1    3    3    0    0 -0.73327860424E+02 -0.36738324707E+02  0.68979317207E+02  0.10716727961E+03  0.00000000000E+00 0.  1.
         21    1    1    2  502  501 -0.12722724117E+02 -0.15799568576E+02 -0.13729330548E+02  0.24494664591E+02  0.00000000000E+00 0.  1.
<scales pt_clust_5="13000.00000" pt_clust_6="13000.00000" pt_clust_7="13000.00000" pt_clust_8="13000.00000" pt_clust_9="20.28532"></scales>
<clustering>
<clus scale="   20.285">  2  9  1 -1</clus>
<clus scale="   80.638">  5  6 -1 -1</clus>
<clus scale="   90.480">  7  8 -1 -1</clus>
<clus scale="  217.376">  2  5  1 -1</clus>
<clus scale="   20.285">  2  5  1 -1</clus>
</clustering>
</event>
<event>
 9    2  0.2984928E-005  0.1028531E+03  0.7546771E-02  0.1279096E+00
         -1   -1    0    0    0  501 -0.00000000000E+00  0.00000000000E+00  0.62792784645E+02  0.62792784645E+02  0.00000000000E+00 0.  1.
          2   -1    0    0  502    0  0.00000000000E+00 -0.00000000000E+00 -0.33664670259E+03  0.33664670259E+03  0.00000000000E+00 0. -1.
         23    2    1    2    0    0 -0.16216393474E+02  0.39320539425E+02 -0.15279579499E+02  0.10225104322E+03  0.91720957540E+02 0.  0.
         24    2    1    2    0    0  0.53157618820E+02 -0.37078526104E+02 -0.15172335215E+03  0.18410964836E+03  0.81705798419E+02 0.  0.
        -13    1    4    4    0    0  0.19911304810E+02  0.25948676149E+02 -0.54642794990E+02  0.63683819746E+02  0.00000000000E+00 0.  1.
         14    1    4    4    0    0  0.33246314010E+02 -0.63027202253E+02 -0.97080557158E+02  0.12042582861E+03  0.00000000000E+00 0. -1.
        -11    1    3    3    0    0 -0.46314248338E+01  0.55850387428E+02  0.21719699381E+02  0.60103753735E+02  0.00000000000E+00 0.  1.
         11    1    3    3    0    0 -0.11584968640E+02 -0.16529848003E+02 -0.36999278880E+02  0.42147289486E+02  0.00000000000E+00 0. -1.
         21    1    1    2  502  501 -0.36941225346E+02 -0.22420133212E+01 -0.10685098630E+03  0.11307879566E+03  0.00000000000E+00 0.  1.
<scales pt_clust_5="13000.00000" pt_clust_6="13000.00000" pt_clust_7="13000.00000" pt_clust_8="13000.00000" pt_clust_9="37.00920"></scales>
<clustering>
<clus scale="   37.009">  2  9  1 -1</clus>
<clus scale="   81.706">  5  6 -1 -1</clus>
<clus scale="   91.721">  7  8 -1 -1</clus>
<clus scale="   94.031">  2  5  1 -1</clus>
<clus scale="   37.009">  2  5  1 -1</clus>
</clustering>
</event>
<event>
 9    2  0.2984928E-005  0.1382761E+03  0.7546771E-02  0.1218833E+00
         -1   -1    0    0    0  501 -0.00000000000E+00  0.00000000000E+00  0.28700459833E+03  0.28700459833E+03  0.00000000000E+00 0.  1.
          2   -1    0    0  502    0  0.00000000000E+00 -0.00000000000E+00 -0.11264303678E+03  0.11264303678E+03  0.00000000000E+00 0. -1.
         23    2    1    2    0    0 -0.10455051753E+03  0.29299449070E+01  0.15601684613E+03  0.20935278866E+03  0.92455062333E+02 0.  0.
         24    2    1    2    0    0  0.99507316798E+02  0.22834887993E+02  0.59206510079E+02  0.14172585684E+03  0.78470819125E+02 0.  0.
        -11    1    4    4    0    0  0.74606260153E+02 -0.17245400742E+02  0.55149348661E+02  0.94366034983E+02  0.00000000000E+00 0.  1.
         12    1    4    4    0    0  0.24901056645E+02  0.40080288735E+02  0.40571614180E+01  0.47359821853E+02  0.00000000000E+00 0. -1.
        -11    1    3    3    0    0 -0.99632798781E+01 -0.24490842697E+02  0.82000080784E+02  0.86157307122E+02  0.00000000000E+00 0.  1.
         11    1    3    3    0    0 -0.94587237653E+02  0.27420787604E+02  0.74016765349E+02  0.12319548154E+03  0.00000000000E+00 0. -1.
         21    1    1    2  502  501  0.50432007332E+01 -0.25764832900E+02 -0.40861794669E+02  0.48568989609E+02  0.00000000000E+00 0. -1.
<scales pt_clust_5="13000.00000" pt_clust_6="13000.00000" pt_clust_7="13000.00000" pt_clust_8="13000.00000" pt_clust_9="26.25377"></scales>
<clustering>
<clus scale="   26.254">  2  9  1 -1</clus>
<clus scale="   78.471">  5  6 -1 -1</clus>
<clus scale="   92.455">  7  8 -1 -1</clus>
<clus scale="  129.345">  2  5  1 -1</clus>
<clus scale="   26.254">  2  5  1 -1</clus>
</clustering>
</event>
<event>
 9    2  0.2984928E-005  0.1238181E+03  0.7546771E-02  0.1239839E+00
          2   -1    0    0  502    0  0.00000000000E+00  0.00000000000E+00  0.26712291253E+03  0.26712291253E+03  0.00000000000E+00 0. -1.
         -1   -1    0    0    0  501 -0.00000000000E+00 -0.00000000000E+00 -0.70607214424E+02  0.70607214424E+02  0.00000000000E+00 0.  1.
         23    2    1    2    0    0 -0.11112149517E+02  0.94984876017E+02  0.70811784902E+02  0.14936571399E+03  0.90278464192E+02 0.  0.
         24    2    1    2    0    0  0.22514188764E+02 -0.71310746035E+02  0.80384989128E+02  0.13597857700E+03  0.80226652250E+02 0.  0.
        -13    1    4    4    0    0 -0.22673059330E+02 -0.14836866393E+02 -0.98047955988E+00  0.27113862947E+02  0.00000000000E+00 0.  1.
         14    1    4    4    0    0  0.45187248094E+02 -0.56473879642E+02  0.81365468688E+02  0.10886471406E+03  0.00000000000E+00 0. -1.
        -13    1    3    3    0    0  0.33285268734E+02  0.29233168826E+02  0.20011600479E+01  0.44345145347E+02  0.00000000000E+00 0.  1.
         13    1    3    3    0    0 -0.44397418251E+02  0.65751707191E+02  0.68810624855E+02  0.10502056865E+03  0.00000000000E+00 0. -1.
         21    1    1    2  502  501 -0.11402039247E+02 -0.23674129982E+02  0.45318924076E+02  0.52385835956E+02  0.00000000000E+00 0.  1.
<scales pt_clust_5="13000.00000" pt_clust_6="13000.00000" pt_clust_7="13000.00000" pt_clust_8="13000.00000" pt_clust_9="26.27681"></scales>
<clustering>
<clus scale="   26.277">  1  9  2 -1</clus>
<clus scale="   80.227">  5  6 -1 -1</clus>
<clus scale="   90.278">  7  8 -1 -1</clus>
<clus scale="  116.692">  1  5  2 -1</clus>
<clus scale="   26.277">  1  5  2 -1</clus>
</clustering>
</event>
<event>
 9    2  0.2984928E-005  0.1496170E+03  0.7546771E-02  0.1203024E+00
          2   -1    0    0  502    0  0.00000000000E+00  0.00000000000E+00  0.86988944665E+03  0.86988944665E+03  0.00000000000E+00 0. -1.
         -1   -1    0    0    0  501 -0.00000000000E+00 -0.00000000000E+00 -0.11570683379E+03  0.11570683379E+03  0.00000000000E+00 0.  1.
         23    2    1    2    0    0  0.34797741387E+02 -0.11193457683E+03 -0.50478553943E+02  0.15730679794E+03  0.91962557462E+02 0.  0.
         24    2    1    2    0    0 -0.95122341658E+01  0.13206322862E+03  0.73901736979E+03  0.75512099486E+03  0.80807580537E+02 0.  0.
        -11    1    4    4    0    0  0.31314431327E+02  0.86160818271E+02  0.38120151803E+03  0.39206999064E+03  0.00000000000E+00 0.  1.
         12    1    4    4    0    0 -0.40826665493E+02  0.45902410351E+02  0.35781585176E+03  0.36305100421E+03  0.00000000000E+00 0. -1.
        -13    1    3    3    0    0 -0.25633639399E+02 -0.25508937809E+02 -0.35704273888E+02  0.50819135676E+02  0.00000000000E+00 0.  1.
         13    1    3    3    0    0  0.60431380786E+02 -0.86425639016E+02 -0.14774280055E+02  0.10648766226E+03  0.00000000000E+00 0. -1.
         21    1    1    2  502  501 -0.25285507221E+02 -0.20128651797E+02  0.65643797008E+02  0.73168487645E+02  0.00000000000E+00 0.  1.
<scales pt_clust_5="13000.00000" pt_clust_6="13000.00000" pt_clust_7="13000.00000" pt_clust_8="13000.00000" pt_clust_9="32.31903"></scales>
<clustering>
<clus scale="   32.319">  1  9  2 -1</clus>
<clus scale="   80.808">  5  6 -1 -1</clus>
<clus scale="   91.963">  7  8 -1 -1</clus>
<clus scale="  143.031">  1  5  2 -1</clus>
<clus scale="   32.319">  1  5  2 -1</clus>
</clustering>
</event>
<event>
 9    2  0.2984928E-005  0.1775764E+03  0.7546771E-02  0.1171430E+00
          2   -1    0    0  502    0  0.00000000000E+00  0.00000000000E+00  0.92739797460E+03  0.92739797460E+03  0.00000000000E+00 0. -1.
         -1   -1    0    0    0  501 -0.00000000000E+00 -0.00000000000E+00 -0.13705951690E+03  0.13705951690E+03  0.00000000000E+00 0.  1.
         23    2    1    2    0    0 -0.32339157059E+02 -0.14539440913E+03 -0.51404526082E+02  0.18163863381E+03  0.90359353157E+02 0.  0.
         24    2    1    2    0    0  0.99273996969E+01  0.18975730186E+03  0.56045451423E+03  0.59717299963E+03  0.79999638092E+02 0.  0.
        -13    1    4    4    0    0  0.21065884214E+02  0.21371774724E+02  0.39748515275E+02  0.49804304022E+02  0.00000000000E+00 0.  1.
         14    1    4    4    0    0 -0.11138484517E+02  0.16838552713E+03  0.52070599895E+03  0.54736869561E+03  0.00000000000E+00 0. -1.
        -11    1    3    3    0    0 -0.34613705492E+02 -0.43703210380E+02  0.17902842967E+02  0.58554171429E+02  0.00000000000E+00 0. -1.
         11    1    3    3    0    0  0.22745484326E+01 -0.10169119875E+03 -0.69307369049E+02  0.12308446238E+03  0.00000000000E+00 0.  1.
         21    1    1    2  502  501  0.22411757363E+02 -0.44362892725E+02  0.28128846955E+03  0.28564585805E+03  0.00000000000E+00 0. -1.
<scales pt_clust_5="13000.00000" pt_clust_6="13000.00000" pt_clust_7="13000.00000" pt_clust_8="13000.00000" pt_clust_9="49.70265"></scales>
<clustering>
<clus scale="   49.703">  1  9  2 -1</clus>
<clus scale="   80.000">  5  6 -1 -1</clus>
<clus scale="   90.359">  7  8 -1 -1</clus>
<clus scale="  172.536">  1  5  2 -1</clus>
<clus scale="   49.703">  1  5  2 -1</clus>
</clustering>
</event>
<event>
 9    2  0.2984928E-005  0.9172163E+02  0.7546771E-02  0.1303950E+00
          2   -1    0    0  502    0  0.00000000000E+00  0.00000000000E+00  0.50464572220E+03  0.50464572220E+03  0.00000000000E+00 0. -1.
         -1   -1    0    0    0  501 -0.00000000000E+00 -0.00000000000E+00 -0.73630289990E+02  0.73630289990E+02  0.00000000000E+00 0.  1.
         23    2    1    2    0    0 -0.20321365079E+02  0.15959930734E+01 -0.30313971380E+02  0.97555688386E+02  0.90458114081E+02 0.  0.
         24    2    1    2    0    0 -0.26631326684E+02 -0.44638293098E+01  0.25885498317E+03  0.27285336954E+03  0.81938425827E+02 0.  0.
        -13    1    4    4    0    0 -0.35988575561E+02 -0.37414303316E+02  0.14926000791E+03  0.15803024275E+03  0.00000000000E+00 0.  1.
         14    1    4    4    0    0  0.93572488770E+01  0.32950474007E+02  0.10959497526E+03  0.11482312679E+03  0.00000000000E+00 0. -1.
        -13    1    3    3    0    0  0.26434031310E+02 -0.32023139134E+01 -0.41438553268E+02  0.49256131828E+02  0.00000000000E+00 0. -1.
         13    1    3    3    0    0 -0.46755396390E+02  0.47983069867E+01  0.11124581888E+02  0.48299556558E+02  0.00000000000E+00 0.  1.
         21    1    1    2  502  501  0.46952691764E+02  0.28678362365E+01  0.20247442042E+03  0.20786695426E+03  0.00000000000E+00 0. -1.
<scales pt_clust_5="13000.00000" pt_clust_6="13000.00000" pt_clust_7="13000.00000" pt_clust_8="13000.00000" pt_clust_9="47.04019"></scales>
<clustering>
<clus scale="   47.040">  1  9  2 -1</clus>
<clus scale="   81.938">  5  6 -1 -1</clus>
<clus scale="   83.331">  1  5  2 -1</clus>
<clus scale="   90.458">  7  8 -1 -1</clus>
<clus scale="   47.040">  1  5  2 -1</clus>
</clustering>
</event>
<event>
 9    2  0.2984928E-005  0.9354503E+02  0.7546771E-02  0.1301386E+00
         -1   -1    0    0    0  501 -0.00000000000E+00  0.00000000000E+00  0.84718595441E+02  0.84718595441E+02  0.00000000000E+00 0.  1.
          2   -1    0    0  502    0  0.00000000000E+00 -0.00000000000E+00 -0.40567455945E+03  0.40567455945E+03  0.00000000000E+00 0. -1.
         24    2    1    2    0    0  0.66412741762E+01 -0.19417430773E+02  0.48828658960E+02  0.95547553319E+02  0.79523291361E+02 0.  0.
         23    2    1    2    0    0  0.21638530678E+02  0.36462295832E+02 -0.22607929277E+03  0.24739562119E+03  0.91077009927E+02 0.  0.
        -13    1    3    3    0    0  0.40917943022E+02 -0.10301244592E+02  0.10818772421E+02  0.43559609020E+02  0.00000000000E+00 0.  1.
         14    1    3    3    0    0 -0.34276668846E+02 -0.91161861813E+01  0.38009886539E+02  0.51987944298E+02  0.00000000000E+00 0. -1.
        -13    1    4    4    0    0  0.40705626181E+02 -0.23208961117E+01 -0.42886367689E+02  0.59174108318E+02  0.00000000000E+00 0.  1.
         13    1    4    4    0    0 -0.19067095504E+02  0.38783191944E+02 -0.18319292508E+03  0.18822151287E+03  0.00000000000E+00 0. -1.
         21    1    1    2  502  501 -0.28279804854E+02 -0.17044865059E+02 -0.14370533020E+03  0.14744998038E+03  0.00000000000E+00 0. -1.
<scales pt_clust_5="13000.00000" pt_clust_6="13000.00000" pt_clust_7="13000.00000" pt_clust_8="13000.00000" pt_clust_9="33.01931"></scales>
<clustering>
<clus scale="   33.019">  2  9  1 -1</clus>
<clus scale="   79.523">  5  6 -1 -1</clus>
<clus scale="   82.338">  1  5  2 -1</clus>
<clus scale="   91.077">  7  8 -1 -1</clus>
<clus scale="   33.019">  2  5  1 -1</clus>
</clustering>
</event>
<event>
 9    2  0.2984928E-005  0.1551594E+03  0.7546771E-02  0.1222731E+00
         -1   -1    0    0    0  501 -0.00000000000E+00  0.00000000000E+00  0.16246059974E+03  0.16246059974E+03  0.00000000000E+00 0.  1.
          2   -1    0    0  502    0  0.00000000000E+00 -0.00000000000E+00 -0.27795158519E+03  0.27795158519E+03  0.00000000000E+00 0. -1.
         24    2    1    2    0    0 -0.19161900203E+01 -0.18528774303E+02  0.47598577432E+01  0.84498414933E+02  0.82282067421E+02 0.  0.
         23    2    1    2    0    0  0.11879826732E+03  0.56302960886E+02  0.28004783011E+02  0.16338314940E+03  0.92880212724E+02 0.  0.
        -13    1    3    3    0    0  0.12124035840E+02 -0.40659369384E+02  0.26859798060E+02  0.50215787513E+02  0.00000000000E+00 0.  1.
         14    1    3    3    0    0 -0.14040225860E+02  0.22130595081E+02 -0.22099940316E+02  0.34282627420E+02  0.00000000000E+00 0. -1.
        -13    1    4    4    0    0  0.25327610830E+02 -0.13031374003E+02  0.36958063954E+02  0.46660508677E+02  0.00000000000E+00 0. -1.
         13    1    4    4    0    0  0.93470656486E+02  0.69334334889E+02 -0.89532809428E+01  0.11672264073E+03  0.00000000000E+00 0.  1.
         21    1    1    2  502  501 -0.11688207730E+03 -0.37774186583E+02 -0.14825562620E+03  0.19253062059E+03  0.00000000000E+00 0. -1.
<scales pt_clust_5="13000.00000" pt_clust_6="13000.00000" pt_clust_7="13000.00000" pt_clust_8="13000.00000" pt_clust_9="124.28879"></scales>
<clustering>
<clus scale="   82.282">  5  6 -1 -1</clus>
<clus scale="   84.364">  1  5  2 -1</clus>
<clus scale="   92.880">  7  8 -1 -1</clus>
<clus scale="  124.289">  2  9  1 -1</clus>
<clus scale="  124.289">  2  5  1 -1</clus>
</clustering>
</event>
<event>
 9    2  0.2984928E-005  0.1182603E+03  0.7546771E-02  0.1251701E+00
          2   -1    0    0  502    0  0.00000000000E+00  0.00000000000E+00  0.53848723335E+03  0.53848723335E+03  0.00000000000E+00 0. -1.
         -1   -1    0    0    0  501 -0.00000000000E+00 -0.00000000000E+00 -0.12790589293E+03  0.12790589293E+03  0.00000000000E+00 0.  1.
         23    2    1    2    0    0  0.41999345187E+02 -0.65657634046E+02 -0.84396569610E+02  0.14645967445E+03  0.90844842308E+02 0.  0.
         24    2    1    2    0    0 -0.43488638978E+02  0.23247396387E+02  0.44788711871E+03  0.45654268845E+03  0.73461909222E+02 0.  0.
        -11    1    4    4    0    0 -0.15623782403E+02 -0.14812349840E+02  0.35875436111E+02  0.41839636716E+02  0.00000000000E+00 0.  1.
         12    1    4    4    0    0 -0.27864856575E+02  0.38059746227E+02  0.41201168260E+03  0.41470305173E+03  0.00000000000E+00 0. -1.
        -13    1    3    3    0    0  0.34453033492E+02 -0.85845780800E+02 -0.83928761770E+02  0.12490214830E+03  0.00000000000E+00 0.  1.
         13    1    3    3    0    0  0.75463116950E+01  0.20188146754E+02 -0.46780783936E+00  0.21557526150E+02  0.00000000000E+00 0. -1.
         21    1    1    2  502  501  0.14892937912E+01  0.42410237659E+02  0.47090791324E+02  0.63390763380E+02  0.00000000000E+00 0. -1.
<scales pt_clust_5="13000.00000" pt_clust_6="13000.00000" pt_clust_7="13000.00000" pt_clust_8="13000.00000" pt_clust_9="42.43638"></scales>
<clustering>
<clus scale="   42.436">  1  9  2 -1</clus>
<clus scale="   73.462">  5  6 -1 -1</clus>
<clus scale="   90.845">  7  8 -1 -1</clus>
<clus scale="  105.496">  1  5  2 -1</clus>
<clus scale="   42.436">  1  5  2 -1</clus>
</clustering>
</event>
<event>
 9    2  0.2984928E-005  0.1366180E+03  0.7546771E-02  0.1220556E+00
         -1   -1    0    0    0  501 -0.00000000000E+00  0.00000000000E+00  0.96712269560E+02  0.96712269560E+02  0.00000000000E+00 0.  1.
          2   -1    0    0  502    0  0.00000000000E+00 -0.00000000000E+00 -0.64712776969E+03  0.64712776969E+03  0.00000000000E+00 0. -1.
         23    2    1    2    0    0 -0.93602201005E+02  0.59728535017E+02  0.24940359010E+02  0.14532004064E+03  0.90371581677E+02 0.  0.
         24    2    1    2    0    0  0.50918484605E+02 -0.66466875690E+01 -0.38477353104E+03  0.39613124903E+03  0.78945713867E+02 0.  0.
        -11    1    4    4    0    0 -0.16116259453E+01  0.28768336447E+02 -0.16120245914E+03  0.16375728183E+03  0.00000000000E+00 0.  1.
         12    1    4    4    0    0  0.52530110550E+02 -0.35415024016E+02 -0.22357107190E+03  0.23237396720E+03  0.00000000000E+00 0. -1.
        -13    1    3    3    0    0 -0.26207015250E+02  0.65864469072E+02 -0.55312500641E+01  0.71102254970E+02  0.00000000000E+00 0.  1.
         13    1    3    3    0    0 -0.67395185756E+02 -0.61359340556E+01  0.30471609074E+02  0.74217785667E+02  0.00000000000E+00 0. -1.
         21    1    1    2  502  501  0.42683716401E+02 -0.53081847448E+02 -0.19058232810E+03  0.20238874958E+03  0.00000000000E+00 0.  1.
<scales pt_clust_5="13000.00000" pt_clust_6="13000.00000" pt_clust_7="13000.00000" pt_clust_8="13000.00000" pt_clust_9="68.11448"></scales>
<clustering>
<clus scale="   68.114">  2  9  1 -1</clus>
<clus scale="   78.946">  5  6 -1 -1</clus>
<clus scale="   90.372">  7  8 -1 -1</clus>
<clus scale="  129.344">  2  5  1 -1</clus>
<clus scale="   68.114">  2  5  1 -1</clus>
</clustering>
</event>
<event>
 9    2  0.2984928E-005  0.9100875E+02  0.7546771E-02  0.1304175E+00
         -1   -1    0    0    0  501 -0.00000000000E+00  0.00000000000E+00  0.86420515952E+02  0.86420515952E+02  0.00000000000E+00 0.  1.
          2   -1    0    0  502    0  0.00000000000E+00 -0.00000000000E+00 -0.17779666412E+03  0.17779666412E+03  0.00000000000E+00 0. -1.
         24    2    1    2    0    0 -0.37372176065E+02 -0.27143596222E+01  0.21933767279E+02  0.91639933104E+02  0.80701548314E+02 0.  0.
         23    2    1    2    0    0 -0.37770788797E+01 -0.83347156108E+01 -0.77919398279E+02  0.11718923426E+03  0.87052571415E+02 0.  0.
        -11    1    3    3    0    0 -0.24959422479E+02  0.19743117502E+02  0.46347706309E+02  0.56221644758E+02  0.00000000000E+00 0.  1.
         12    1    3    3    0    0 -0.12412753586E+02 -0.22457477124E+02 -0.24413939030E+02  0.35418288346E+02  0.00000000000E+00 0. -1.
        -13    1    4    4    0    0 -0.29600947376E+02 -0.46888332504E+01 -0.85030170905E+02  0.90157258204E+02  0.00000000000E+00 0.  1.
         13    1    4    4    0    0  0.25823868497E+02 -0.36458823604E+01  0.71107726259E+01  0.27031976059E+02  0.00000000000E+00 0. -1.
         21    1    1    2  502  501  0.41149254944E+02  0.11049075233E+02 -0.35390517170E+02  0.55388012706E+02  0.00000000000E+00 0. -1.
<scales pt_clust_5="13000.00000" pt_clust_6="13000.00000" pt_clust_7="13000.00000" pt_clust_8="13000.00000" pt_clust_9="42.60685"></scales>
<clustering>
<clus scale="   42.607">  2  9  1 -1</clus>
<clus scale="   80.702">  5  6 -1 -1</clus>
<clus scale="   84.954">  1  5  2 -1</clus>
<clus scale="   87.053">  7  8 -1 -1</clus>
<clus scale="   42.607">  2  5  1 -1</clus>
</clustering>
</event>
<event>
 9    2  0.2984928E-005  0.1160720E+03  0.7546771E-02  0.1258442E+00
         -1   -1    0    0    0  501 -0.00000000000E+00  0.00000000000E+00  0.27717620641E+03  0.27717620641E+03  0.00000000000E+00 0.  1.
          2   -1    0    0  502    0  0.00000000000E+00 -0.00000000000E+00 -0.15659792158E+03  0.15659792158E+03  0.00000000000E+00 0. -1.
         23    2    1    2    0    0  0.56162212597E+02  0.25866326545E+02  0.18362258551E+03  0.21471352696E+03  0.92527745980E+02 0.  0.
         24    2    1    2    0    0  0.52887676277E+02  0.31111246365E+00 -0.27919603149E+02  0.10154089650E+03  0.82060016632E+02 0.  0.
        -11    1    4    4    0    0 -0.54232698537E+01 -0.30914655304E+02 -0.69026214387E+01  0.32136800575E+02  0.00000000000E+00 0.  1.
         12    1    4    4    0    0  0.58310946131E+02  0.31225767767E+02 -0.21016981710E+02  0.69404095928E+02  0.00000000000E+00 0. -1.
        -13    1    3    3    0    0  0.39760693997E+02 -0.28969716812E+02  0.11674805026E+03  0.12668963856E+03  0.00000000000E+00 0.  1.
         13    1    3    3    0    0  0.16401518600E+02  0.54836043358E+02  0.66874535256E+02  0.88023888401E+02  0.00000000000E+00 0. -1.
         21    1    1    2  502  501 -0.10904988887E+03 -0.26177439009E+02 -0.35124697538E+02  0.11751970453E+03  0.00000000000E+00 0. -1.
<scales pt_clust_5="13000.00000" pt_clust_6="13000.00000" pt_clust_7="13000.00000" pt_clust_8="13000.00000" pt_clust_9="70.08081"></scales>
<clustering>
<clus scale="   82.060">  5  6 -1 -1</clus>
<clus scale="   92.528">  7  8 -1 -1</clus>
<clus scale="   97.627">  2  5  1 -1</clus>
<clus scale="   70.081">  2  9  1 -1</clus>
<clus scale="   97.627">  2  5  1 -1</clus>
</clustering>
</event>
<event>
 9    2  0.2984928E-005  0.1715186E+03  0.7546771E-02  0.1202562E+00
         -1   -1    0    0    0  501 -0.00000000000E+00  0.00000000000E+00  0.11342273196E+03  0.11342273196E+03  0.00000000000E+00 0.  1.
          2   -1    0    0  502    0  0.00000000000E+00 -0.00000000000E+00 -0.78409961486E+03  0.78409961486E+03  0.00000000000E+00 0. -1.
         23    2    1    2    0    0  0.20833664571E+02  0.16797193639E+02  0.24247203162E+02  0.98909772082E+02  0.92081642354E+02 0.  0.
         24    2    1    2    0    0  0.11648728610E+03 -0.74919993419E+02 -0.11707196676E+03  0.20183089344E+03  0.88586516512E+02 0.  0.
        -11    1    4    4    0    0  0.10716423873E+03 -0.22335161562E+02 -0.91246062674E+02  0.14250921885E+03  0.00000000000E+00 0.  1.
         12    1    4    4    0    0  0.93230473718E+01 -0.52584831857E+02 -0.25825904084E+02  0.59321674584E+02  0.00000000000E+00 0. -1.
        -13    1    3    3    0    0 -0.40506076255E+01  0.35047537179E+02 -0.23260963272E+02  0.42258841640E+02  0.00000000000E+00 0. -1.
         13    1    3    3    0    0  0.24884272196E+02 -0.18250343540E+02  0.47508166434E+02  0.56650930442E+02  0.00000000000E+00 0.  1.
         21    1    1    2  502  501 -0.13732095067E+03  0.58122799780E+02 -0.57785211931E+03  0.59678168130E+03  0.00000000000E+00 0. -1.
<scales pt_clust_5="13000.00000" pt_clust_6="13000.00000" pt_clust_7="13000.00000" pt_clust_8="13000.00000" pt_clust_9="146.87090"></scales>
<clustering>
<clus scale="   88.587">  5  6 -1 -1</clus>
<clus scale="   92.082">  7  8 -1 -1</clus>
<clus scale="   95.892">  1  7  2 -1</clus>
<clus scale="  146.871">  2  9  1 -1</clus>
<clus scale="  146.871">  2  5  1 -1</clus>
</clustering>
</event>
<event>
 9    2  0.2984928E-005  0.9509963E+02  0.7546771E-02  0.1297649E+00
         -1   -1    0    0    0  501 -0.00000000000E+00  0.00000000000E+00  0.59566132518E+03  0.59566132518E+03  0.00000000000E+00 0.  1.
          2   -1    0    0  502    0  0.00000000000E+00 -0.00000000000E+00 -0.37133749246E+02  0.37133749246E+02  0.00000000000E+00 0. -1.
         23    2    1    2    0    0 -0.23181210542E+02  0.83705562896E+01  0.46715320004E+03  0.47649019449E+03  0.90572393140E+02 0.  0.
         24    2    1    2    0    0  0.12333276099E+02 -0.27778789378E+02  0.27732258392E+02  0.88890665464E+02  0.78795313391E+02 0.  0.
        -11    1    4    4    0    0  0.13482560586E+02 -0.42128065335E+02  0.47194712188E+02  0.64683028588E+02  0.00000000000E+00 0.  1.
         12    1    4    4    0    0 -0.11492844872E+01  0.14349275958E+02 -0.19462453796E+02  0.24207636875E+02  0.00000000000E+00 0. -1.
        -13    1    3    3    0    0  0.33732154759E+02 -0.15716242175E+01  0.12440551887E+03  0.12890718131E+03  0.00000000000E+00 0. -1.
         13    1    3    3    0    0 -0.56913365300E+02  0.99421805071E+01  0.34274768117E+03  0.34758301318E+03  0.00000000000E+00 0.  1.
         21    1    1    2  502  501  0.10847934443E+02  0.19408233088E+02  0.63642117501E+02  0.67414214476E+02  0.00000000000E+00 0. -1.
<scales pt_clust_5="13000.00000" pt_clust_6="13000.00000" pt_clust_7="13000.00000" pt_clust_8="13000.00000" pt_clust_9="22.23414"></scales>
<clustering>
<clus scale="   22.234">  1  9  2 -1</clus>
<clus scale="   78.795">  5  6 -1 -1</clus>
<clus scale="   83.960">  2  5  1 -1</clus>
<clus scale="   90.572">  7  8 -1 -1</clus>
<clus scale="   83.960">  2  5  1 -1</clus>
</clustering>
</event>
<event>
 9    2  0.2984928E-005  0.1465168E+03  0.7546771E-02  0.1206929E+00
         -1   -1    0    0    0  501 -0.00000000000E+00  0.00000000000E+00  0.20809133440E+03  0.20809133440E+03  0.00000000000E+00 0.  1.
          2   -1    0    0  502    0  0.00000000000E+00 -0.00000000000E+00 -0.78068509590E+03  0.78068509590E+03  0.00000000000E+00 0. -1.
         24    2    1    2    0    0  0.56192190686E+02  0.10108418613E+03  0.17435619192E+03  0.22452279275E+03  0.81454452451E+02 0.  0.
         23    2    1    2    0    0 -0.29195938044E+02 -0.67271424505E+02 -0.57526757664E+03  0.58720296965E+03  0.92177521516E+02 0.  0.
        -13    1    3    3    0    0  0.65901589248E+02  0.10691954229E+03  0.13872775996E+03  0.18713684665E+03  0.00000000000E+00 0.  1.
         14    1    3    3    0    0 -0.97093985625E+01 -0.58353561646E+01  0.35628431963E+02  0.37385946105E+02  0.00000000000E+00 0. -1.
        -13    1    4    4    0    0  0.27030369172E+02  0.33009903047E+01 -0.11575103931E+03  0.11891106129E+03  0.00000000000E+00 0.  1.
         13    1    4    4    0    0 -0.56226307216E+02 -0.70572414810E+02 -0.45951653733E+03  0.46829190836E+03  0.00000000000E+00 0. -1.
         21    1    1    2  502  501 -0.26996252642E+02 -0.33812761625E+02 -0.17168237678E+03  0.17705066790E+03  0.00000000000E+00 0.  1.
<scales pt_clust_5="13000.00000" pt_clust_6="13000.00000" pt_clust_7="13000.00000" pt_clust_8="13000.00000" pt_clust_9="43.26778"></scales>
<clustering>
<clus scale="   43.268">  2  9  1 -1</clus>
<clus scale="   81.454">  5  6 -1 -1</clus>
<clus scale="   92.178">  7  8 -1 -1</clus>
<clus scale="  140.019">  1  5  2 -1</clus>
<clus scale="   43.268">  2  5  1 -1</clus>
</clustering>
</event>
<event>
 9    2  0.2984928E-005  0.1444049E+03  0.7546771E-02  0.1209872E+00
         -1   -1    0    0    0  501 -0.00000000000E+00  0.00000000000E+00  0.96938140979E+02  0.96938140979E+02  0.00000000000E+00 0.  1.
          2   -1    0    0  502    0  0.00000000000E+00 -0.00000000000E+00 -0.53883241410E+03  0.53883241410E+03  0.00000000000E+00 0. -1.
         23    2    1    2    0    0  0.11307180801E+03  0.28354534173E+02 -0.36609640687E+01  0.14898519283E+03  0.92703676574E+02 0.  0.
         24    2    1    2    0    0 -0.88357738835E+02 -0.67312749740E+02 -0.41051065149E+03  0.43296089274E+03  0.81228340899E+02 0.  0.
        -11    1    4    4    0    0 -0.53556069668E+02 -0.73494428557E+02 -0.20268160384E+03  0.22214750992E+03  0.00000000000E+00 0.  1.
         12    1    4    4    0    0 -0.34801669168E+02  0.61816788174E+01 -0.20782904765E+03  0.21081338282E+03  0.00000000000E+00 0. -1.
        -13    1    3    3    0    0  0.11326793193E+03  0.34018058757E+01 -0.25124410848E+02  0.11607080902E+03  0.00000000000E+00 0.  1.
         13    1    3    3    0    0 -0.19612391675E+00  0.24952728297E+02  0.21463446779E+02  0.32914383812E+02  0.00000000000E+00 0. -1.
         21    1    1    2  502  501 -0.24714069174E+02  0.38958215567E+02 -0.27722657558E+02  0.53824469504E+02  0.00000000000E+00 0.  1.
<scales pt_clust_5="13000.00000" pt_clust_6="13000.00000" pt_clust_7="13000.00000" pt_clust_8="13000.00000" pt_clust_9="46.13597"></scales>
<clustering>
<clus scale="   46.136">  1  9  2 -1</clus>
<clus scale="   81.228">  5  6 -1 -1</clus>
<clus scale="   92.704">  7  8 -1 -1</clus>
<clus scale="  137.320">  2  5  1 -1</clus>
<clus scale="  137.320">  2  5  1 -1</clus>
</clustering>
</event>
<event>
 9    2  0.2984928E-005  0.9887958E+02  0.7546771E-02  0.1288244E+00
         -1   -1    0    0    0  501 -0.00000000000E+00  0.00000000000E+00  0.11988106305E+03  0.11988106305E+03  0.00000000000E+00 0.  1.
          2   -1    0    0  502    0  0.00000000000E+00 -0.00000000000E+00 -0.25595094657E+03  0.25595094657E+03  0.00000000000E+00 0. -1.
         23    2    1    2    0    0 -0.66900891018E+01  0.23291775354E+02  0.38596247504E+02  0.10235908845E+03  0.91653961042E+02 0.  0.
         24    2    1    2    0    0 -0.39897803403E+02 -0.90128155391E+02 -0.90749866710E+02  0.15651364262E+03  0.80907743178E+02 0.  0.
        -13    1    4    4    0    0 -0.83411345195E+01 -0.68832133933E+02 -0.95641779456E+02  0.11813038205E+03  0.00000000000E+00 0.  1.
         14    1    4    4    0    0 -0.31556668883E+02 -0.21296021457E+02  0.48919127458E+01  0.38383260560E+02  0.00000000000E+00 0. -1.
        -13    1    3    3    0    0 -0.36867182073E+02 -0.22219800759E+01  0.49127683977E+02  0.61462636149E+02  0.00000000000E+00 0.  1.
         13    1    3    3    0    0  0.30177092971E+02  0.25513755430E+02 -0.10531436473E+02  0.40896452297E+02  0.00000000000E+00 0. -1.
         21    1    1    2  502  501  0.46587892505E+02  0.66836380037E+02 -0.83916264311E+02  0.11695927856E+03  0.00000000000E+00 0. -1.
<scales pt_clust_5="13000.00000" pt_clust_6="13000.00000" pt_clust_7="13000.00000" pt_clust_8="13000.00000" pt_clust_9="81.47106"></scales>
<clustering>
<clus scale="   80.908">  5  6 -1 -1</clus>
<clus scale="   81.471">  2  9  1 -1</clus>
<clus scale="   89.010">  2  5  1 -1</clus>
<clus scale="   91.654">  7  8 -1 -1</clus>
<clus scale="   81.471">  2  5  1 -1</clus>
</clustering>
</event>
<event>
 9    2  0.2984928E-005  0.1197348E+03  0.7546771E-02  0.1246935E+00
          2   -1    0    0  502    0  0.00000000000E+00  0.00000000000E+00  0.71315845943E+03  0.71315845943E+03  0.00000000000E+00 0. -1.
         -1   -1    0    0    0  501 -0.00000000000E+00 -0.00000000000E+00 -0.11416111519E+03  0.11416111519E+03  0.00000000000E+00 0.  1.
         23    2    1    2    0    0 -0.65591117511E+02 -0.29623890689E+02 -0.61748818918E+02  0.13230631954E+03  0.92261996270E+02 0.  0.
         24    2    1    2    0    0  0.11688828882E+03  0.31885895233E+02  0.33847462622E+03  0.36867683362E+03  0.81718741306E+02 0.  0.
        -11    1    4    4    0    0  0.34607847761E+01  0.29410428335E+02  0.10499542451E+03  0.10909165639E+03  0.00000000000E+00 0.  1.
         12    1    4    4    0    0  0.11342750404E+03  0.24754668982E+01  0.23347920171E+03  0.25958517723E+03  0.00000000000E+00 0. -1.
        -11    1    3    3    0    0 -0.48259019188E+02  0.25414730449E+02 -0.11389980733E+02  0.55718696304E+02  0.00000000000E+00 0. -1.
         11    1    3    3    0    0 -0.17332098323E+02 -0.55038621138E+02 -0.50358838185E+02  0.76587623232E+02  0.00000000000E+00 0.  1.
         21    1    1    2  502  501 -0.51297171305E+02 -0.22620045440E+01  0.32227153694E+03  0.32633642146E+03  0.00000000000E+00 0. -1.
<scales pt_clust_5="13000.00000" pt_clust_6="13000.00000" pt_clust_7="13000.00000" pt_clust_8="13000.00000" pt_clust_9="51.34702"></scales>
<clustering>
<clus scale="   51.347">  1  9  2 -1</clus>
<clus scale="   81.719">  5  6 -1 -1</clus>
<clus scale="   92.262">  7  8 -1 -1</clus>
<clus scale="  111.813">  1  5  2 -1</clus>
<clus scale="   51.347">  1  5  2 -1</clus>
</clustering>
</event>
<event>
 9    2  0.2984928E-005  0.1239189E+03  0.7546771E-02  0.1239754E+00
         -1   -1    0    0    0  501 -0.00000000000E+00  0.00000000000E+00  0.73600893151E+02  0.73600893151E+02  0.00000000000E+00 0.  1.
          2   -1    0    0  502    0  0.00000000000E+00 -0.00000000000E+00 -0.31486955071E+03  0.31486955071E+03  0.00000000000E+00 0. -1.
         24    2    1    2    0    0  0.78759219862E+02 -0.47039513148E+02 -0.36559589837E+02  0.12962761707E+03  0.83970143426E+02 0.  0.
         23    2    1    2    0    0 -0.49876859607E+02  0.40817964131E+02 -0.10511628622E+03  0.15496010189E+03  0.93858362597E+02 0.  0.
        -13    1    3    3    0    0  0.43957117230E+02 -0.62098717028E+01  0.22557642073E+02  0.49795962463E+02  0.00000000000E+00 0.  1.
         14    1    3    3    0    0  0.34802102632E+02 -0.40829641445E+02 -0.59117231910E+02  0.79831654605E+02  0.00000000000E+00 0. -1.
        -13    1    4    4    0    0 -0.16099976969E+02 -0.14796166117E+02 -0.83622691010E+02  0.86434311717E+02  0.00000000000E+00 0. -1.
         13    1    4    4    0    0 -0.33776882638E+02  0.55614130248E+02 -0.21493595211E+02  0.68525790175E+02  0.00000000000E+00 0.  1.
         21    1    1    2  502  501 -0.28882360255E+02  0.62215490172E+01 -0.99592781500E+02  0.10388272490E+03  0.00000000000E+00 0. -1.
<scales pt_clust_5="13000.00000" pt_clust_6="13000.00000" pt_clust_7="13000.00000" pt_clust_8="13000.00000" pt_clust_9="29.54485"></scales>
<clustering>
<clus scale="   29.545">  2  9  1 -1</clus>
<clus scale="   83.970">  5  6 -1 -1</clus>
<clus scale="   93.858">  7  8 -1 -1</clus>
<clus scale="  116.608">  1  5  2 -1</clus>
<clus scale="   29.545">  2  5  1 -1</clus>
</clustering>
</event>
<event>
 9    2  0.2984928E-005  0.9069644E+02  0.7546771E-02  0.1305447E+00
          4   -1    0    0  502    0  0.00000000000E+00  0.00000000000E+00  0.11711542098E+03  0.11711542098E+03  0.00000000000E+00 0. -1.
         -3   -1    0    0    0  501 -0.00000000000E+00 -0.00000000000E+00 -0.15808335658E+03  0.15808335658E+03  0.00000000000E+00 0.  1.
         23    2    1    2    0    0  0.28429696396E+01  0.14064731711E+02 -0.91806536179E+02  0.12809260723E+03  0.88166755574E+02 0.  0.
         24    2    1    2    0    0 -0.39216167568E+02 -0.33647056734E+02  0.29431713786E+02  0.10057949214E+03  0.81117052692E+02 0.  0.
        -13    1    4    4    0    0 -0.47511483346E+02 -0.46113714567E+02 -0.14852823516E+01  0.66227047228E+02  0.00000000000E+00 0.  1.
         14    1    4    4    0    0  0.82953157774E+01  0.12466657833E+02  0.30916996137E+02  0.34352444914E+02  0.00000000000E+00 0. -1.
        -13    1    3    3    0    0 -0.15186056124E+02 -0.30774905296E+02 -0.15240352167E+02  0.37549692818E+02  0.00000000000E+00 0.  1.
         13    1    3    3    0    0  0.18029025764E+02  0.44839637007E+02 -0.76566184011E+02  0.90542914416E+02  0.00000000000E+00 0. -1.
         21    1    1    2  502  501  0.36373197929E+02  0.19582325022E+02  0.21406886787E+02  0.46526678183E+02  0.00000000000E+00 0. -1.
<scales pt_clust_5="13000.00000" pt_clust_6="13000.00000" pt_clust_7="13000.00000" pt_clust_8="13000.00000" pt_clust_9="41.30953"></scales>
<clustering>
<clus scale="   41.310">  1  9  2 -1</clus>
<clus scale="   81.117">  5  6 -1 -1</clus>
<clus scale="   83.860">  1  5  2 -1</clus>
<clus scale="   88.167">  7  8 -1 -1</clus>
<clus scale="   41.310">  1  5  2 -1</clus>
</clustering>
</event>
<event>
 9    2  0.2984928E-005  0.1088913E+03  0.7546771E-02  0.1266258E+00
          4   -1    0    0  502    0  0.00000000000E+00  0.00000000000E+00  0.36989750258E+02  0.36989750258E+02  0.00000000000E+00 0. -1.
         -3   -1    0    0    0  501 -0.00000000000E+00 -0.00000000000E+00 -0.40671847526E+03  0.40671847526E+03  0.00000000000E+00 0.  1.
         24    2    1    2    0    0  0.29556809121E+02  0.59273573089E+02 -0.24968623590E+03  0.27063835503E+03  0.80715186805E+02 0.  0.
         23    2    1    2    0    0 -0.34935394191E+02 -0.39615208543E+02 -0.10205853186E+03  0.14588893615E+03  0.89876533358E+02 0.  0.
        -13    1    3    3    0    0  0.38666226116E+02  0.71610027398E+02 -0.23748252277E+03  0.25103988067E+03  0.00000000000E+00 0.  1.
         14    1    3    3    0    0 -0.91094169954E+01 -0.12336454309E+02 -0.12203713133E+02  0.19598474358E+02  0.00000000000E+00 0. -1.
        -11    1    4    4    0    0  0.51962249860E+01 -0.57463511314E+02 -0.41468963139E+02  0.71054421330E+02  0.00000000000E+00 0.  1.
         11    1    4    4    0    0 -0.40131619177E+02  0.17848302771E+02 -0.60589568724E+02  0.74834514816E+02  0.00000000000E+00 0. -1.
         21    1    1    2  502  501  0.53785850696E+01 -0.19658364545E+02 -0.17983957237E+02  0.27180934345E+02  0.00000000000E+00 0.  1.
<scales pt_clust_5="13000.00000" pt_clust_6="13000.00000" pt_clust_7="13000.00000" pt_clust_8="13000.00000" pt_clust_9="20.38089"></scales>
<clustering>
<clus scale="   20.381">  1  9  2 -1</clus>
<clus scale="   80.715">  5  6 -1 -1</clus>
<clus scale="   89.877">  7  8 -1 -1</clus>
<clus scale="  101.462">  2  5  1 -1</clus>
<clus scale="   20.381">  1  5  2 -1</clus>
</clustering>
</event>
<event>
 9    2  0.2984928E-005  0.1509898E+03  0.7546771E-02  0.1200679E+00
         -1   -1    0    0    0  501 -0.00000000000E+00  0.00000000000E+00  0.11744559621E+03  0.11744559621E+03  0.00000000000E+00 0.  1.
          2   -1    0    0  502    0  0.00000000000E+00 -0.00000000000E+00 -0.28057196180E+03  0.28057196180E+03  0.00000000000E+00 0. -1.
         23    2    1    2    0    0  0.10353062546E+03  0.65919251402E+02  0.13712608944E+02  0.15223614442E+03  0.89016121629E+02 0.  0.
         24    2    1    2    0    0 -0.89258543757E+02 -0.82354595039E+02 -0.13607737820E+03  0.19957188456E+03  0.81009365469E+02 0.  0.
        -11    1    4    4    0    0 -0.99269016452E+02 -0.86792271542E+02 -0.11156592577E+03  0.17272577057E+03  0.00000000000E+00 0.  1.
         12    1    4    4    0    0  0.10010472694E+02  0.44376765033E+01 -0.24511452432E+02  0.26846113995E+02  0.00000000000E+00 0. -1.
        -13    1    3    3    0    0  0.76950267965E+02 -0.29974528113E+01  0.14526408261E+02  0.78366734015E+02  0.00000000000E+00 0.  1.
         13    1    3    3    0    0  0.26580357498E+02  0.68916704213E+02 -0.81379931703E+00  0.73869410405E+02  0.00000000000E+00 0. -1.
         21    1    1    2  502  501 -0.14272081706E+02  0.16435343637E+02 -0.40761596341E+02  0.46209529027E+02  0.00000000000E+00 0. -1.
<scales pt_clust_5="13000.00000" pt_clust_6="13000.00000" pt_clust_7="13000.00000" pt_clust_8="13000.00000" pt_clust_9="21.76724"></scales>
<clustering>
<clus scale="   21.767">  2  9  1 -1</clus>
<clus scale="   81.009">  5  6 -1 -1</clus>
<clus scale="   89.016">  7  8 -1 -1</clus>
<clus scale="  146.412">  2  5  1 -1</clus>
<clus scale="   21.767">  2  5  1 -1</clus>
</clustering>
</event>
<event>
 9    2  0.2984928E-005  0.1219199E+03  0.7546771E-02  0.1242807E+00
         -1   -1    0    0    0  501 -0.00000000000E+00  0.00000000000E+00  0.18128471854E+03  0.18128471854E+03  0.00000000000E+00 0.  1.
          2   -1    0    0  502    0  0.00000000000E+00 -0.00000000000E+00 -0.10857618897E+03  0.10857618897E+03  0.00000000000E+00 0. -1.
         23    2    1    2    0    0 -0.42234843283E+02  0.85486232929E+02  0.20043155457E+02  0.13410596830E+03  0.92146647501E+02 0.  0.
         24    2    1    2    0    0  0.48216959574E+02 -0.47574911749E+02  0.29992087641E+02  0.11117768146E+03  0.82901773899E+02 0.  0.
        -13    1    4    4    0    0 -0.84091231132E+00 -0.47978074951E+02  0.38329681049E+02  0.61414715328E+02  0.00000000000E+00 0.  1.
         14    1    4    4    0    0  0.49057871886E+02  0.40316320268E+00 -0.83375934083E+01  0.49762966133E+02  0.00000000000E+00 0. -1.
        -13    1    3    3    0    0 -0.64239716129E+02  0.65388420346E+02  0.38092788148E+02  0.99264531191E+02  0.00000000000E+00 0.  1.
         13    1    3    3    0    0  0.22004872846E+02  0.20097812583E+02 -0.18049632691E+02  0.34841437109E+02  0.00000000000E+00 0. -1.
         21    1    1    2  502  501 -0.59821162914E+01 -0.37911321180E+02  0.22673286471E+02  0.44577257748E+02  0.00000000000E+00 0.  1.
<scales pt_clust_5="13000.00000" pt_clust_6="13000.00000" pt_clust_7="13000.00000" pt_clust_8="13000.00000" pt_clust_9="38.38039"></scales>
<clustering>
<clus scale="   38.380">  1  9  2 -1</clus>
<clus scale="   82.902">  5  6 -1 -1</clus>
<clus scale="   92.147">  7  8 -1 -1</clus>
<clus scale="  115.092">  2  5  1 -1</clus>
<clus scale="  115.092">  2  5  1 -1</clus>
</clustering>
</event>
<event>
 9    2  0.2984928E-005  0.1037662E+03  0.7546771E-02  0.1277223E+00
         -1   -1    0    0    0  501 -0.00000000000E+00  0.00000000000E+00  0.96743028075E+02  0.96743028075E+02  0.00000000000E+00 0.  1.
          2   -1    0    0  502    0  0.00000000000E+00 -0.00000000000E+00 -0.11158477978E+04  0.11158477978E+04  0.00000000000E+00 0. -1.
         23    2    1    2    0    0  0.17126795816E+02  0.47753152062E+02  0.61835232763E+02  0.12051869487E+03  0.90152477143E+02 0.  0.
         24    2    1    2    0    0  0.11289934054E+02 -0.78253308989E+02 -0.85133526829E+03  0.85871381409E+03  0.79791180549E+02 0.  0.
        -11    1    4    4    0    0  0.12322165128E+02 -0.18376642592E+02 -0.44873808766E+02  0.50031944391E+02  0.00000000000E+00 0.  1.
         12    1    4    4    0    0 -0.10322310739E+01 -0.59876666397E+02 -0.80646145953E+03  0.80868186970E+03  0.00000000000E+00 0. -1.
        -11    1    3    3    0    0 -0.41404751882E+01  0.51426361400E+02 -0.34997726093E+01  0.51711339085E+02  0.00000000000E+00 0.  1.
         11    1    3    3    0    0  0.21267271005E+02 -0.36732093384E+01  0.65335005372E+02  0.68807355783E+02  0.00000000000E+00 0. -1.
         21    1    1    2  502  501 -0.28416729870E+02  0.30500156927E+02 -0.22960473416E+03  0.23335831688E+03  0.00000000000E+00 0.  1.
<scales pt_clust_5="13000.00000" pt_clust_6="13000.00000" pt_clust_7="13000.00000" pt_clust_8="13000.00000" pt_clust_9="41.68657"></scales>
<clustering>
<clus scale="   41.687">  2  9  1 -1</clus>
<clus scale="   79.791">  5  6 -1 -1</clus>
<clus scale="   90.152">  7  8 -1 -1</clus>
<clus scale="   94.903">  2  5  1 -1</clus>
<clus scale="   41.687">  2  5  1 -1</clus>
</clustering>
</event>
<event>
 9    2  0.2984928E-005  0.9287316E+02  0.7546771E-02  0.1302819E+00
         -1   -1    0    0    0  501 -0.00000000000E+00  0.00000000000E+00  0.15547590993E+03  0.15547590993E+03  0.00000000000E+00 0.  1.
          2   -1    0    0  502    0  0.00000000000E+00 -0.00000000000E+00 -0.94559025970E+02  0.94559025970E+02  0.00000000000E+00 0. -1.
         23    2    1    2    0    0  0.19665211795E+02 -0.13368916760E+01  0.65964582710E+02  0.11281049608E+03  0.89366515095E+02 0.  0.
         24    2    1    2    0    0 -0.25732347368E+02 -0.30598518408E+02  0.26899852612E+02  0.91646741444E+02  0.77955757433E+02 0.  0.
        -11    1    4    4    0    0  0.23588775137E+02 -0.17287820443E+02 -0.73341421850E+01  0.30151097653E+02  0.00000000000E+00 0.  1.
         12    1    4    4    0    0 -0.49321122505E+02 -0.13310697965E+02  0.34233994797E+02  0.61495643790E+02  0.00000000000E+00 0. -1.
        -13    1    3    3    0    0  0.17019659029E+02 -0.44183956033E+02  0.43786127009E+02  0.64491206243E+02  0.00000000000E+00 0. -1.
         13    1    3    3    0    0  0.26455527664E+01  0.42847064357E+02  0.22178455701E+02  0.48319289841E+02  0.00000000000E+00 0.  1.
         21    1    1    2  502  501  0.60671355729E+01  0.31935410084E+02 -0.31947551359E+02  0.45577698375E+02  0.00000000000E+00 0.  1.
<scales pt_clust_5="13000.00000" pt_clust_6="13000.00000" pt_clust_7="13000.00000" pt_clust_8="13000.00000" pt_clust_9="32.50662"></scales>
<clustering>
<clus scale="   32.507">  2  9  1 -1</clus>
<clus scale="   77.956">  5  6 -1 -1</clus>
<clus scale="   81.952">  2  5  1 -1</clus>
<clus scale="   89.367">  7  8 -1 -1</clus>
<clus scale="   32.507">  2  5  1 -1</clus>
</clustering>
</event>
<event>
 9    2  0.2984928E-005  0.3605084E+03  0.7546771E-02  0.1099271E+00
         -1   -1    0    0    0  501 -0.00000000000E+00  0.00000000000E+00  0.80981461071E+02  0.80981461071E+02  0.00000000000E+00 0.  1.
          2   -1    0    0  502    0  0.00000000000E+00 -0.00000000000E+00 -0.29599364397E+04  0.29599364397E+04  0.00000000000E+00 0. -1.
         23    2    1    2    0    0  0.57033738139E+01  0.77027607096E+02 -0.16509493815E+03  0.20379951471E+03  0.91170844387E+02 0.  0.
         24    2    1    2    0    0  0.30916677317E+03  0.10069522449E+03 -0.55521411072E+03  0.64840166972E+03  0.80239607929E+02 0.  0.
        -11    1    4    4    0    0  0.17411492273E+03  0.97701567173E+02 -0.32104957713E+03  0.37806670513E+03  0.00000000000E+00 0.  1.
         12    1    4    4    0    0  0.13505185044E+03  0.29936573145E+01 -0.23416453359E+03  0.27033496459E+03  0.00000000000E+00 0. -1.
        -13    1    3    3    0    0 -0.16322397319E+02  0.69292541231E+02 -0.51585469974E+02  0.87914376736E+02  0.00000000000E+00 0.  1.
         13    1    3    3    0    0  0.22025771133E+02  0.77350658646E+01 -0.11350946818E+03  0.11588513798E+03  0.00000000000E+00 0. -1.
         21    1    1    2  502  501 -0.31487014699E+03 -0.17772283158E+03 -0.21586459297E+04  0.21887167163E+04  0.00000000000E+00 0. -1.
<scales pt_clust_5="13000.00000" pt_clust_6="13000.00000" pt_clust_7="13000.00000" pt_clust_8="13000.00000" pt_clust_9="351.46535"></scales>
<clustering>
<clus scale="   80.240">  5  6 -1 -1</clus>
<clus scale="   91.171">  7  8 -1 -1</clus>
<clus scale="  119.490">  1  7  2 -1</clus>
<clus scale="  351.465">  2  9  1 -1</clus>
<clus scale="  351.465">  2  5  1 -1</clus>
</clustering>
</event>
<event>
 9    2  0.2984928E-005  0.4157060E+03  0.7546771E-02  0.1038473E+00
         -1   -1    0    0    0  501 -0.00000000000E+00  0.00000000000E+00  0.49673336944E+03  0.49673336944E+03  0.00000000000E+00 0.  1.
          2   -1    0    0  502    0  0.00000000000E+00 -0.00000000000E+00 -0.55137639654E+03  0.55137639654E+03  0.00000000000E+00 0. -1.
         24    2    1    2    0    0 -0.21567262957E+03 -0.19791611496E+03 -0.35888270349E+03  0.47008961805E+03  0.80634871039E+02 0.  0.
         23    2    1    2    0    0  0.19692816336E+01 -0.50332265742E+02 -0.37741004927E+02  0.10447272070E+03  0.83384356288E+02 0.  0.
        -13    1    3    3    0    0 -0.14774933956E+02 -0.29424508752E+02 -0.83931550048E+02  0.90158779285E+02  0.00000000000E+00 0.  1.
         14    1    3    3    0    0 -0.20089769561E+03 -0.16849160621E+03 -0.27495115345E+03  0.37993083877E+03  0.00000000000E+00 0. -1.
        -13    1    4    4    0    0  0.49073916266E+01  0.22891269539E+02 -0.14741078629E+02  0.27665720898E+02  0.00000000000E+00 0.  1.
         13    1    4    4    0    0 -0.29381099931E+01 -0.73223535281E+02 -0.22999926298E+02  0.76806999806E+02  0.00000000000E+00 0. -1.
         21    1    1    2  502  501  0.21370334793E+03  0.24824838071E+03  0.34198068131E+03  0.47354742723E+03  0.00000000000E+00 0.  1.
<scales pt_clust_5="13000.00000" pt_clust_6="13000.00000" pt_clust_7="13000.00000" pt_clust_8="13000.00000" pt_clust_9="327.56126"></scales>
<clustering>
<clus scale="   80.635">  5  6 -1 -1</clus>
<clus scale="   83.384">  7  8 -1 -1</clus>
<clus scale="   95.427">  5  7 -1 -1</clus>
<clus scale="  327.561">  1  9  2 -1</clus>
<clus scale="  415.706">  2  5  1 -1</clus>
</clustering>
</event>
<event>
 9    2  0.2984928E-005  0.2201463E+03  0.7546771E-02  0.1143863E+00
         -1   -1    0    0    0  501 -0.00000000000E+00  0.00000000000E+00  0.10045658281E+03  0.10045658281E+03  0.00000000000E+00 0.  1.
          2   -1    0    0  502    0  0.00000000000E+00 -0.00000000000E+00 -0.17550283436E+04  0.17550283436E+04  0.00000000000E+00 0. -1.
         24    2    1    2    0    0  0.92604814919E+02 -0.12327144873E+03 -0.36181246261E+02  0.17625487393E+03  0.77364049701E+02 0.  0.
         23    2    1    2    0    0 -0.77270433958E+02 -0.13516354877E+03 -0.51085943554E+03  0.54184318685E+03  0.91524703597E+02 0.  0.
        -11    1    3    3    0    0  0.96988874898E+02 -0.12913894200E+03 -0.42027573303E+02  0.16688326793E+03  0.00000000000E+00 0.  1.
         12    1    3    3    0    0 -0.43840599793E+01  0.58674932758E+01  0.58463270426E+01  0.93716060060E+01  0.00000000000E+00 0. -1.
        -13    1    4    4    0    0 -0.88091106970E+02 -0.80789788413E+02 -0.28048111333E+03  0.30488799250E+03  0.00000000000E+00 0. -1.
         13    1    4    4    0    0  0.10820673011E+02 -0.54373760361E+02 -0.23037832221E+03  0.23695519434E+03  0.00000000000E+00 0.  1.
         21    1    1    2  502  501 -0.15334380960E+02  0.25843499750E+03 -0.11075310790E+04  0.11373868656E+04  0.00000000000E+00 0.  1.
<scales pt_clust_5="13000.00000" pt_clust_6="13000.00000" pt_clust_7="13000.00000" pt_clust_8="13000.00000" pt_clust_9="200.21893"></scales>
<clustering>
<clus scale="   77.364">  5  6 -1 -1</clus>
<clus scale="   91.525">  7  8 -1 -1</clus>
<clus scale="  172.501">  1  5  2 -1</clus>
<clus scale="  200.219">  1  9  2 -1</clus>
<clus scale="  220.146">  2  5  1 -1</clus>
</clustering>
</event>
<event>
 9    2  0.2984928E-005  0.9505432E+02  0.7546771E-02  0.1294262E+00
          2   -1    0    0  502    0  0.00000000000E+00  0.00000000000E+00  0.73084253634E+03  0.73084253634E+03  0.00000000000E+00 0. -1.
         -1   -1    0    0    0  501 -0.00000000000E+00 -0.00000000000E+00 -0.35121893594E+02  0.35121893594E+02  0.00000000000E+00 0.  1.
         23    2    1    2    0    0 -0.16221497519E+02 -0.53595194029E+02  0.12409909714E+03  0.16288006717E+03  0.89407765692E+02 0.  0.
         24    2    1    2    0    0 -0.46380936842E+02 -0.87161030374E+01  0.38262316001E+03  0.39446472733E+03  0.83515129035E+02 0.  0.
        -13    1    4    4    0    0  0.17599984397E+02 -0.12645957355E+02  0.36445663238E+02  0.42402429848E+02  0.00000000000E+00 0.  1.
         14    1    4    4    0    0 -0.63980921238E+02  0.39298543174E+01  0.34617749677E+03  0.35206229748E+03  0.00000000000E+00 0. -1.
        -13    1    3    3    0    0 -0.40388019506E+02 -0.65324590881E+02  0.10422119098E+03  0.12946254648E+03  0.00000000000E+00 0. -1.
         13    1    3    3    0    0  0.24166521987E+02  0.11729396852E+02  0.19877906160E+02  0.33417520685E+02  0.00000000000E+00 0.  1.
         21    1    1    2  502  501  0.62602434361E+02  0.62311297066E+02  0.18899838560E+03  0.20861963544E+03  0.00000000000E+00 0.  1.
<scales pt_clust_5="13000.00000" pt_clust_6="13000.00000" pt_clust_7="13000.00000" pt_clust_8="13000.00000" pt_clust_9="88.32759"></scales>
<clustering>
<clus scale="   83.515">  5  6 -1 -1</clus>
<clus scale="   88.328">  2  9  1 -1</clus>
<clus scale="   89.408">  7  8 -1 -1</clus>
<clus scale="   89.534">  1  5  2 -1</clus>
<clus scale="   89.534">  1  5  2 -1</clus>
</clustering>
</event>
<event>
 9    2  0.2984928E-005  0.1508169E+03  0.7546771E-02  0.1206379E+00
          2   -1    0    0  502    0  0.00000000000E+00  0.00000000000E+00  0.23838907768E+03  0.23838907768E+03  0.00000000000E+00 0. -1.
         -1   -1    0    0    0  501 -0.00000000000E+00 -0.00000000000E+00 -0.18484662457E+03  0.18484662457E+03  0.00000000000E+00 0.  1.
         24    2    1    2    0    0 -0.47769281281E+02 -0.83114734530E+02 -0.10991126243E+03  0.17215914771E+03  0.91478539572E+02 0.  0.
         23    2    1    2    0    0  0.48269279764E+02  0.62329848985E+02  0.77541947238E+02  0.16268485018E+03  0.11932591275E+03 0.  0.
        -13    1    3    3    0    0 -0.33867475772E+02 -0.99960662353E+02 -0.10670510974E+03  0.15008371124E+03  0.00000000000E+00 0.  1.
         14    1    3    3    0    0 -0.13901805508E+02  0.16845927823E+02 -0.32061526895E+01  0.22075436478E+02  0.00000000000E+00 0. -1.
        -11    1    4    4    0    0  0.62372549253E+02  0.44418258698E+02 -0.53075347378E+01  0.76756019510E+02  0.00000000000E+00 0.  1.
         11    1    4    4    0    0 -0.14103269489E+02  0.17911590287E+02  0.82849481975E+02  0.85928830671E+02  0.00000000000E+00 0. -1.
         21    1    1    2  502  501 -0.49999848358E+00  0.20784885545E+02  0.85911768307E+02  0.88391704357E+02  0.00000000000E+00 0. -1.
<scales pt_clust_5="13000.00000" pt_clust_6="13000.00000" pt_clust_7="13000.00000" pt_clust_8="13000.00000" pt_clust_9="20.79090"></scales>
<clustering>
<clus scale="   20.791">  1  9  2 -1</clus>
<clus scale="   91.479">  5  6 -1 -1</clus>
<clus scale="  119.326">  7  8 -1 -1</clus>
<clus scale="  129.905">  2  5  1 -1</clus>
<clus scale="   20.791">  1  5  2 -1</clus>
</clustering>
</event>
<event>
 9    2  0.2984928E-005  0.1034642E+03  0.7546771E-02  0.1277885E+00
          2   -1    0    0  502    0  0.00000000000E+00  0.00000000000E+00  0.88740920426E+03  0.88740920426E+03  0.00000000000E+00 0. -1.
         -1   -1    0    0    0  501 -0.00000000000E+00 -0.00000000000E+00 -0.23995827412E+02  0.23995827412E+02  0.00000000000E+00 0.  1.
         23    2    1    2    0    0  0.11621277594E+02 -0.43983330565E+02  0.12551209711E+03  0.16172233560E+03  0.91275625719E+02 0.  0.
         24    2    1    2    0    0  0.56452854307E+01  0.65285081846E+02  0.61451035817E+03  0.62328167420E+03  0.81012677595E+02 0.  0.
        -13    1    4    4    0    0  0.20226421875E+02  0.33016704275E+02  0.95302803743E+02  0.10286804802E+03  0.00000000000E+00 0.  1.
         14    1    4    4    0    0 -0.14581136444E+02  0.32268377571E+02  0.51920755443E+03  0.52041362618E+03  0.00000000000E+00 0. -1.
        -13    1    3    3    0    0 -0.33074412892E+02  0.37870115828E+01  0.24329734747E+02  0.41233411667E+02  0.00000000000E+00 0. -1.
         13    1    3    3    0    0  0.44695690486E+02 -0.47770342148E+02  0.10118236237E+03  0.12048892394E+03  0.00000000000E+00 0.  1.
         21    1    1    2  502  501 -0.17266563025E+02 -0.21301751281E+02  0.12339092156E+03  0.12640102187E+03  0.00000000000E+00 0. -1.
<scales pt_clust_5="13000.00000" pt_clust_6="13000.00000" pt_clust_7="13000.00000" pt_clust_8="13000.00000" pt_clust_9="27.42077"></scales>
<clustering>
<clus scale="   27.421">  1  9  2 -1</clus>
<clus scale="   81.013">  5  6 -1 -1</clus>
<clus scale="   91.276">  7  8 -1 -1</clus>
<clus scale="   94.534">  1  5  2 -1</clus>
<clus scale="   27.421">  1  5  2 -1</clus>
</clustering>
</event>
<event>
 9    2  0.2984928E-005  0.1136725E+03  0.7546771E-02  0.1257962E+00
          2   -1    0    0  502    0  0.00000000000E+00  0.00000000000E+00  0.43772712668E+02  0.43772712668E+02  0.00000000000E+00 0. -1.
         -1   -1    0    0    0  501 -0.00000000000E+00 -0.00000000000E+00 -0.39485205397E+03  0.39485205397E+03  0.00000000000E+00 0.  1.
         23    2    1    2    0    0  0.21931069293E+02 -0.67462078374E+02 -0.24981792988E+03  0.27511402296E+03  0.90810922914E+02 0.  0.
         24    2    1    2    0    0 -0.41220341489E+02  0.51742945895E+02 -0.81353390034E+02  0.13164388843E+03  0.79594536805E+02 0.  0.
        -13    1    4    4    0    0  0.52773858173E+01  0.30197334838E+02 -0.73709544919E+02  0.79829987126E+02  0.00000000000E+00 0.  1.
         14    1    4    4    0    0 -0.46497727306E+02  0.21545611058E+02 -0.76438451151E+01  0.51813901307E+02  0.00000000000E+00 0. -1.
        -11    1    3    3    0    0 -0.21229772986E+02  0.26425337243E+01 -0.14587914397E+02  0.25893889085E+02  0.00000000000E+00 0. -1.
         11    1    3    3    0    0  0.43160842279E+02 -0.70104612098E+02 -0.23523001549E+03  0.24922013388E+03  0.00000000000E+00 0.  1.
         21    1    1    2  502  501  0.19289272195E+02  0.15719132479E+02 -0.19908021386E+02  0.31866855245E+02  0.00000000000E+00 0.  1.
<scales pt_clust_5="13000.00000" pt_clust_6="13000.00000" pt_clust_7="13000.00000" pt_clust_8="13000.00000" pt_clust_9="24.88307"></scales>
<clustering>
<clus scale="   24.883">  1  9  2 -1</clus>
<clus scale="   79.595">  5  6 -1 -1</clus>
<clus scale="   90.811">  7  8 -1 -1</clus>
<clus scale="  104.929">  1  5  2 -1</clus>
<clus scale="   24.883">  1  5  2 -1</clus>
</clustering>
</event>
<event>
 9    2  0.2984928E-005  0.1058711E+03  0.7546771E-02  0.1274036E+00
          2   -1    0    0  502    0  0.00000000000E+00  0.00000000000E+00  0.37451159690E+03  0.37451159690E+03  0.00000000000E+00 0. -1.
         -1   -1    0    0    0  501 -0.00000000000E+00 -0.00000000000E+00 -0.75938729378E+02  0.75938729378E+02  0.00000000000E+00 0.  1.
         23    2    1    2    0    0 -0.51408110597E+02 -0.11211891312E+02 -0.13098233732E+02  0.10649635502E+03  0.91659203374E+02 0.  0.
         24    2    1    2    0    0  0.42483128180E+02  0.51367637294E+02  0.24103848922E+03  0.26221594382E+03  0.78830181836E+02 0.  0.
        -13    1    4    4    0    0  0.26693176708E+02  0.24157963040E+02  0.24837786290E+02  0.43738409765E+02  0.00000000000E+00 0.  1.
         14    1    4    4    0    0  0.15789951472E+02  0.27209674254E+02  0.21620070293E+03  0.21847753405E+03  0.00000000000E+00 0. -1.
        -11    1    3    3    0    0 -0.29465199785E+02  0.23564164246E+02  0.29046476064E+02  0.47614762487E+02  0.00000000000E+00 0. -1.
         11    1    3    3    0    0 -0.21942910812E+02 -0.34776055559E+02 -0.42144709796E+02  0.58881592530E+02  0.00000000000E+00 0.  1.
         21    1    1    2  502  501  0.89249824176E+01 -0.40155745981E+02  0.70632612033E+02  0.81738027436E+02  0.00000000000E+00 0. -1.
<scales pt_clust_5="13000.00000" pt_clust_6="13000.00000" pt_clust_7="13000.00000" pt_clust_8="13000.00000" pt_clust_9="41.13562"></scales>
<clustering>
<clus scale="   41.136">  1  9  2 -1</clus>
<clus scale="   78.830">  5  6 -1 -1</clus>
<clus scale="   91.659">  7  8 -1 -1</clus>
<clus scale="   94.981">  1  5  2 -1</clus>
<clus scale="   41.136">  1  5  2 -1</clus>
</clustering>
</event>
<event>
 9    2  0.2984928E-005  0.1123060E+03  0.7546771E-02  0.1260272E+00
          2   -1    0    0  502    0  0.00000000000E+00  0.00000000000E+00  0.60827391608E+03  0.60827391608E+03  0.00000000000E+00 0. -1.
         -1   -1    0    0    0  501 -0.00000000000E+00 -0.00000000000E+00 -0.28369052995E+02  0.28369052995E+02  0.00000000000E+00 0.  1.
         24    2    1    2    0    0 -0.54863387813E+02 -0.23767867526E+02  0.19067946729E+03  0.21573606380E+03  0.81292601919E+02 0.  0.
         23    2    1    2    0    0  0.52498735345E+02  0.50374898342E+02  0.21646973717E+03  0.24609831494E+03  0.91714153266E+02 0.  0.
        -11    1    3    3    0    0 -0.14230086416E+02  0.24269963208E+02  0.22032068914E+02  0.35734276740E+02  0.00000000000E+00 0.  1.
         12    1    3    3    0    0 -0.40633301397E+02 -0.48037830734E+02  0.16864739838E+03  0.18000178706E+03  0.00000000000E+00 0. -1.
        -11    1    4    4    0    0  0.67548135372E+01  0.49515200352E+02  0.40637293247E+02  0.64410963153E+02  0.00000000000E+00 0.  1.
         11    1    4    4    0    0  0.45743921808E+02  0.85969798976E+00  0.17583244392E+03  0.18168735179E+03  0.00000000000E+00 0. -1.
         21    1    1    2  502  501  0.23646524675E+01 -0.26607030815E+02  0.17275565862E+03  0.17480859034E+03  0.00000000000E+00 0. -1.
<scales pt_clust_5="13000.00000" pt_clust_6="13000.00000" pt_clust_7="13000.00000" pt_clust_8="13000.00000" pt_clust_9="26.71190"></scales>
<clustering>
<clus scale="   26.712">  1  9  2 -1</clus>
<clus scale="   81.293">  5  6 -1 -1</clus>
<clus scale="   91.714">  7  8 -1 -1</clus>
<clus scale="  103.969">  2  5  1 -1</clus>
<clus scale="   26.712">  1  5  2 -1</clus>
</clustering>
</event>
<event>
 9    2  0.2984928E-005  0.1052046E+03  0.7546771E-02  0.1274971E+00
          2   -1    0    0  502    0  0.00000000000E+00  0.00000000000E+00  0.72216073086E+03  0.72216073086E+03  0.00000000000E+00 0. -1.
         -1   -1    0    0    0  501 -0.00000000000E+00 -0.00000000000E+00 -0.32232173704E+02  0.32232173704E+02  0.00000000000E+00 0.  1.
         23    2    1    2    0    0 -0.19238081443E+02 -0.17730142008E+02  0.78668248207E+02  0.12427379711E+03  0.92578732218E+02 0.  0.
         24    2    1    2    0    0  0.16876148416E+02  0.52339585589E+02  0.55834024249E+03  0.56684252611E+03  0.80885019714E+02 0.  0.
        -13    1    4    4    0    0 -0.29928576871E+02  0.30760962640E+02  0.18213374160E+03  0.18712203602E+03  0.00000000000E+00 0.  1.
         14    1    4    4    0    0  0.46804725287E+02  0.21578622949E+02  0.37620650090E+03  0.37972049009E+03  0.00000000000E+00 0. -1.
        -11    1    3    3    0    0 -0.47664484604E+02 -0.17490695462E+02  0.12545579356E+02  0.52299322001E+02  0.00000000000E+00 0.  1.
         11    1    3    3    0    0  0.28426403162E+02 -0.23944654511E+00  0.66122668851E+02  0.71974475109E+02  0.00000000000E+00 0. -1.
         21    1    1    2  502  501  0.23619330261E+01 -0.34609443582E+02  0.52920066450E+02  0.63276581338E+02  0.00000000000E+00 0.  1.
<scales pt_clust_5="13000.00000" pt_clust_6="13000.00000" pt_clust_7="13000.00000" pt_clust_8="13000.00000" pt_clust_9="34.68995"></scales>
<clustering>
<clus scale="   34.690">  2  9  1 -1</clus>
<clus scale="   80.885">  5  6 -1 -1</clus>
<clus scale="   92.579">  7  8 -1 -1</clus>
<clus scale="   95.077">  1  5  2 -1</clus>
<clus scale="   95.077">  1  5  2 -1</clus>
</clustering>
</event>
<event>
 9    2  0.2984928E-005  0.1394042E+03  0.7546771E-02  0.1216136E+00
          2   -1    0    0  502    0  0.00000000000E+00  0.00000000000E+00  0.35308840097E+03  0.35308840097E+03  0.00000000000E+00 0. -1.
         -1   -1    0    0    0  501 -0.00000000000E+00 -0.00000000000E+00 -0.82461949671E+02  0.82461949671E+02  0.00000000000E+00 0.  1.
         24    2    1    2    0    0 -0.11404551592E+03 -0.23777376408E+02  0.33078176039E+02  0.14624215033E+03  0.81980836006E+02 0.  0.
         23    2    1    2    0    0  0.83354032327E+02  0.17183052293E+02  0.14317345742E+03  0.18984937206E+03  0.91109786358E+02 0.  0.
        -13    1    3    3    0    0 -0.78898531019E+02 -0.53623711614E+02  0.14330690319E+02  0.96466830202E+02  0.00000000000E+00 0.  1.
         14    1    3    3    0    0 -0.35146984899E+02  0.29846335206E+02  0.18747485720E+02  0.49775320125E+02  0.00000000000E+00 0. -1.
        -11    1    4    4    0    0  0.43540859707E+02 -0.24568228317E+02  0.20021158806E+02  0.53853979486E+02  0.00000000000E+00 0.  1.
         11    1    4    4    0    0  0.39813172620E+02  0.41751280610E+02  0.12315229862E+03  0.13599539257E+03  0.00000000000E+00 0. -1.
         21    1    1    2  502  501  0.30691483591E+02  0.65943241144E+01  0.94374817833E+02  0.99458828249E+02  0.00000000000E+00 0. -1.
<scales pt_clust_5="13000.00000" pt_clust_6="13000.00000" pt_clust_7="13000.00000" pt_clust_8="13000.00000" pt_clust_9="31.39191"></scales>
<clustering>
<clus scale="   31.392">  1  9  2 -1</clus>
<clus scale="   81.981">  5  6 -1 -1</clus>
<clus scale="   91.110">  7  8 -1 -1</clus>
<clus scale="  133.617">  2  5  1 -1</clus>
<clus scale="   31.392">  1  5  2 -1</clus>
</clustering>
</event>
<event>
 9    2  0.2984928E-005  0.1085204E+03  0.7546771E-02  0.1268308E+00
         -3   -1    0    0    0  501 -0.00000000000E+00  0.00000000000E+00  0.48417184442E+03  0.48417184442E+03  0.00000000000E+00 0.  1.
          4   -1    0    0  502    0  0.00000000000E+00 -0.00000000000E+00 -0.55579896723E+02  0.55579896723E+02  0.00000000000E+00 0. -1.
         23    2    1    2    0    0 -0.42633861941E+02  0.37110519269E+02  0.33973210788E+03  0.35657312397E+03  0.92366935548E+02 0.  0.
         24    2    1    2    0    0  0.82873678004E+01 -0.73448275779E+02  0.51269474840E+02  0.12062344356E+03  0.80362468886E+02 0.  0.
        -13    1    4    4    0    0 -0.10124223580E+02 -0.85106115541E+02  0.48971815663E+02  0.98710635368E+02  0.00000000000E+00 0.  1.
         14    1    4    4    0    0  0.18411591380E+02  0.11657839762E+02  0.22976591776E+01  0.21912808190E+02  0.00000000000E+00 0. -1.
        -11    1    3    3    0    0 -0.45725331577E+02  0.62387630434E+02  0.19801772763E+03  0.21258890572E+03  0.00000000000E+00 0. -1.
         11    1    3    3    0    0  0.30914696353E+01 -0.25277111164E+02  0.14171438025E+03  0.14398421824E+03  0.00000000000E+00 0.  1.
         21    1    1    2  502  501  0.34346494141E+02  0.36337756509E+02  0.37590364976E+02  0.62555173622E+02  0.00000000000E+00 0. -1.
<scales pt_clust_5="13000.00000" pt_clust_6="13000.00000" pt_clust_7="13000.00000" pt_clust_8="13000.00000" pt_clust_9="50.00114"></scales>
<clustering>
<clus scale="   50.001">  2  9  1 -1</clus>
<clus scale="   80.362">  5  6 -1 -1</clus>
<clus scale="   92.367">  7  8 -1 -1</clus>
<clus scale="   98.505">  2  5  1 -1</clus>
<clus scale="   50.001">  2  5  1 -1</clus>
</clustering>
</event>
<event>
 9    2  0.2984928E-005  0.1297185E+03  0.7546771E-02  0.1230478E+00
          4   -1    0    0  502    0  0.00000000000E+00  0.00000000000E+00  0.29114509325E+03  0.29114509325E+03  0.00000000000E+00 0. -1.
         -3   -1    0    0    0  501 -0.00000000000E+00 -0.00000000000E+00 -0.13466094711E+03  0.13466094711E+03  0.00000000000E+00 0.  1.
         24    2    1    2    0    0  0.26583622702E+02 -0.10051954905E+03 -0.63459192157E+02  0.14644482813E+03  0.81290527625E+02 0.  0.
         23    2    1    2    0    0  0.73909036056E+01  0.60163363808E+02  0.99983392188E+02  0.14831435498E+03  0.91248086991E+02 0.  0.
        -13    1    3    3    0    0  0.48581029477E+00 -0.10374062146E+03 -0.39936550128E+02  0.11116330595E+03  0.00000000000E+00 0.  1.
         14    1    3    3    0    0  0.26097812407E+02  0.32210724133E+01 -0.23522642029E+02  0.35281522189E+02  0.00000000000E+00 0. -1.
        -13    1    4    4    0    0 -0.31521560605E+02 -0.77817474306E+00  0.54286350127E+02  0.62779153778E+02  0.00000000000E+00 0. -1.
         13    1    4    4    0    0  0.38912464211E+02  0.60941538551E+02  0.45697042061E+02  0.85535201204E+02  0.00000000000E+00 0.  1.
         21    1    1    2  502  501 -0.33974526308E+02  0.40356185239E+02  0.11995994611E+03  0.13104685725E+03  0.00000000000E+00 0.  1.
<scales pt_clust_5="13000.00000" pt_clust_6="13000.00000" pt_clust_7="13000.00000" pt_clust_8="13000.00000" pt_clust_9="52.75311"></scales>
<clustering>
<clus scale="   52.753">  1  9  2 -1</clus>
<clus scale="   81.291">  5  6 -1 -1</clus>
<clus scale="   91.248">  7  8 -1 -1</clus>
<clus scale="  122.918">  2  5  1 -1</clus>
<clus scale="   52.753">  1  5  2 -1</clus>
</clustering>
</event>
<event>
 9    2  0.2984928E-005  0.1151267E+03  0.7546771E-02  0.1251554E+00
         -1   -1    0    0    0  501 -0.00000000000E+00  0.00000000000E+00  0.30609093437E+03  0.30609093437E+03  0.00000000000E+00 0.  1.
          2   -1    0    0  502    0  0.00000000000E+00 -0.00000000000E+00 -0.11417387859E+03  0.11417387859E+03  0.00000000000E+00 0. -1.
         24    2    1    2    0    0  0.13083967833E+02  0.74627457514E+02  0.24883752903E+03  0.27485469129E+03  0.88794920133E+02 0.  0.
         23    2    1    2    0    0 -0.20948658274E+02 -0.48251644631E+02 -0.56040157689E+02  0.11787265962E+03  0.89366644329E+02 0.  0.
        -11    1    3    3    0    0 -0.30551313028E+02  0.45227325931E+02  0.71957568603E+02  0.90314923561E+02  0.00000000000E+00 0.  1.
         12    1    3    3    0    0  0.43635280862E+02  0.29400131584E+02  0.17687996043E+03  0.18453976773E+03  0.00000000000E+00 0. -1.
        -13    1    4    4    0    0  0.20685577162E+01  0.25752839553E+02 -0.98435302321E+01  0.27647473004E+02  0.00000000000E+00 0.  1.
         13    1    4    4    0    0 -0.23017215990E+02 -0.74004484184E+02 -0.46196627457E+02  0.90225186614E+02  0.00000000000E+00 0. -1.
         21    1    1    2  502  501  0.78646904406E+01 -0.26375812884E+02 -0.88031555859E+00  0.27537462056E+02  0.00000000000E+00 0. -1.
<scales pt_clust_5="13000.00000" pt_clust_6="13000.00000" pt_clust_7="13000.00000" pt_clust_8="13000.00000" pt_clust_9="27.52339"></scales>
<clustering>
<clus scale="   27.523">  2  9  1 -1</clus>
<clus scale="   88.795">  5  6 -1 -1</clus>
<clus scale="   89.367">  7  8 -1 -1</clus>
<clus scale="  114.683">  1  5  2 -1</clus>
<clus scale="   27.523">  2  5  1 -1</clus>
</clustering>
</event>
<event>
 9    2  0.2984928E-005  0.9789593E+02  0.7546771E-02  0.1289574E+00
         -1   -1    0    0    0  501 -0.00000000000E+00  0.00000000000E+00  0.31408392637E+02  0.31408392637E+02  0.00000000000E+00 0.  1.
          2   -1    0    0  502    0  0.00000000000E+00 -0.00000000000E+00 -0.69044601672E+03  0.69044601672E+03  0.00000000000E+00 0. -1.
         23    2    1    2    0    0  0.21620868595E+02 -0.19663829501E+02 -0.71250340781E+02  0.11991670358E+03  0.91919946621E+02 0.  0.
         24    2    1    2    0    0 -0.27414411117E+02  0.46944709184E+02 -0.40033303035E+03  0.41242013804E+03  0.82876289820E+02 0.  0.
        -11    1    4    4    0    0  0.10673389795E+02  0.50473539276E+02 -0.13828039958E+03  0.14759054280E+03  0.00000000000E+00 0.  1.
         12    1    4    4    0    0 -0.38087800912E+02 -0.35288300914E+01 -0.26205263077E+03  0.26482959524E+03  0.00000000000E+00 0. -1.
        -11    1    3    3    0    0 -0.49115729153E+01 -0.23977330958E+02  0.15584944768E+02  0.29015968910E+02  0.00000000000E+00 0.  1.
         11    1    3    3    0    0  0.26532441510E+02  0.43135014566E+01 -0.86835285549E+02  0.90900734671E+02  0.00000000000E+00 0. -1.
         21    1    1    2  502  501  0.57935425221E+01 -0.27280879683E+02 -0.18745425295E+03  0.18951756773E+03  0.00000000000E+00 0.  1.
<scales pt_clust_5="13000.00000" pt_clust_6="13000.00000" pt_clust_7="13000.00000" pt_clust_8="13000.00000" pt_clust_9="27.88927"></scales>
<clustering>
<clus scale="   27.889">  2  9  1 -1</clus>
<clus scale="   82.876">  5  6 -1 -1</clus>
<clus scale="   89.458">  2  5  1 -1</clus>
<clus scale="   91.920">  7  8 -1 -1</clus>
<clus scale="   27.889">  2  5  1 -1</clus>
</clustering>
</event>
<event>
 9    2  0.2984928E-005  0.1114898E+03  0.7546771E-02  0.1262195E+00
         -1   -1    0    0    0  501 -0.00000000000E+00  0.00000000000E+00  0.23302161943E+03  0.23302161943E+03  0.00000000000E+00 0.  1.
          2   -1    0    0  502    0  0.00000000000E+00 -0.00000000000E+00 -0.56038546571E+03  0.56038546571E+03  0.00000000000E+00 0. -1.
         23    2    1    2    0    0  0.48929155564E+01  0.67729107333E+02  0.20034351610E+03  0.23030519739E+03  0.91059249380E+02 0.  0.
         24    2    1    2    0    0 -0.58287180055E+02  0.12546446202E+02 -0.29055056242E+03  0.30709708360E+03  0.79587566648E+02 0.  0.
        -13    1    4    4    0    0 -0.47902632299E+02  0.40228083791E+02 -0.24448025333E+03  0.25235600879E+03  0.00000000000E+00 0.  1.
         14    1    4    4    0    0 -0.10384547757E+02 -0.27681637589E+02 -0.46070309088E+02  0.54741074809E+02  0.00000000000E+00 0. -1.
        -13    1    3    3    0    0  0.27106994557E+02  0.72341945271E+02  0.19051021544E+03  0.20557793750E+03  0.00000000000E+00 0.  1.
         13    1    3    3    0    0 -0.22214079001E+02 -0.46128379380E+01  0.98333006589E+01  0.24727259887E+02  0.00000000000E+00 0. -1.
         21    1    1    2  502  501  0.53394264499E+02 -0.80275553535E+02 -0.23715679996E+03  0.25600480415E+03  0.00000000000E+00 0. -1.
<scales pt_clust_5="13000.00000" pt_clust_6="13000.00000" pt_clust_7="13000.00000" pt_clust_8="13000.00000" pt_clust_9="96.41116"></scales>
<clustering>
<clus scale="   79.588">  5  6 -1 -1</clus>
<clus scale="   91.059">  7  8 -1 -1</clus>
<clus scale="   96.411">  2  9  1 -1</clus>
<clus scale="  102.335">  2  5  1 -1</clus>
<clus scale="   96.411">  2  5  1 -1</clus>
</clustering>
</event>
<event>
 9    2  0.2984928E-005  0.2112336E+03  0.7546771E-02  0.1141261E+00
          2   -1    0    0  502    0  0.00000000000E+00  0.00000000000E+00  0.35723103724E+03  0.35723103724E+03  0.00000000000E+00 0. -1.
         -1   -1    0    0    0  501 -0.00000000000E+00 -0.00000000000E+00 -0.18744418631E+03  0.18744418631E+03  0.00000000000E+00 0.  1.
         23    2    1    2    0    0  0.21293663411E+03 -0.55905385490E+02 -0.15751223626E+02  0.23820524981E+03  0.89589160698E+02 0.  0.
         24    2    1    2    0    0 -0.13984017791E+03  0.52608785812E+02  0.11928679559E+03  0.20776236794E+03  0.81319753001E+02 0.  0.
        -13    1    4    4    0    0 -0.39315596625E+02  0.54042151388E+02  0.29812632502E+02  0.73178298158E+02  0.00000000000E+00 0.  1.
         14    1    4    4    0    0 -0.10052458129E+03 -0.14333655752E+01  0.89474163085E+02  0.13458406978E+03  0.00000000000E+00 0. -1.
        -13    1    3    3    0    0  0.23485754078E+02 -0.12262708770E+02 -0.33811455345E+02  0.42955432527E+02  0.00000000000E+00 0.  1.
         13    1    3    3    0    0  0.18945088004E+03 -0.43642676721E+02  0.18060231720E+02  0.19524981728E+03  0.00000000000E+00 0. -1.
         21    1    1    2  502  501 -0.73096456202E+02  0.32965996778E+01  0.66251278964E+02  0.98707605802E+02  0.00000000000E+00 0. -1.
<scales pt_clust_5="13000.00000" pt_clust_6="13000.00000" pt_clust_7="13000.00000" pt_clust_8="13000.00000" pt_clust_9="73.17076"></scales>
<clustering>
<clus scale="   73.171">  1  9  2 -1</clus>
<clus scale="   81.320">  5  6 -1 -1</clus>
<clus scale="   89.589">  7  8 -1 -1</clus>
<clus scale="  207.861">  1  5  2 -1</clus>
<clus scale="   73.171">  1  5  2 -1</clus>
</clustering>
</event>
<event>
 9    2  0.2984928E-005  0.2892009E+03  0.7546771E-02  0.1091183E+00
         -1   -1    0    0    0  501 -0.00000000000E+00  0.00000000000E+00  0.17356615698E+03  0.17356615698E+03  0.00000000000E+00 0.  1.
          2   -1    0    0  502    0  0.00000000000E+00 -0.00000000000E+00 -0.11594974163E+04  0.11594974163E+04  0.00000000000E+00 0. -1.
         23    2    1    2    0    0 -0.33114345795E+03 -0.13471946338E+02 -0.10040253827E+03  0.35786936524E+03  0.90290253069E+02 0.  0.
         24    2    1    2    0    0  0.19739347317E+03 -0.30098369526E+02 -0.27703261561E+03  0.35065042160E+03  0.79615029745E+02 0.  0.
        -11    1    4    4    0    0  0.37349154722E+02 -0.17463758842E-01 -0.11357234170E+02  0.39037756485E+02  0.00000000000E+00 0.  1.
         12    1    4    4    0    0  0.16004431845E+03 -0.30080905768E+02 -0.26567538144E+03  0.31161266512E+03  0.00000000000E+00 0. -1.
        -13    1    3    3    0    0 -0.30700556440E+03  0.77587971054E+01 -0.10670104163E+03  0.32511186965E+03  0.00000000000E+00 0. -1.
         13    1    3    3    0    0 -0.24137893556E+02 -0.21230743444E+02  0.62985033546E+01  0.32757495585E+02  0.00000000000E+00 0.  1.
         21    1    1    2  502  501  0.13374998478E+03  0.43570315865E+02 -0.60849610544E+03  0.62454378645E+03  0.00000000000E+00 0. -1.
<scales pt_clust_5="13000.00000" pt_clust_6="13000.00000" pt_clust_7="13000.00000" pt_clust_8="13000.00000" pt_clust_9="140.66780"></scales>
<clustering>
<clus scale="   79.615">  5  6 -1 -1</clus>
<clus scale="   90.290">  7  8 -1 -1</clus>
<clus scale="  140.668">  2  9  1 -1</clus>
<clus scale="  286.048">  2  5  1 -1</clus>
<clus scale="  140.668">  2  5  1 -1</clus>
</clustering>
</event>
<event>
 9    2  0.2984928E-005  0.3634107E+03  0.7546771E-02  0.1112760E+00
          2   -1    0    0  502    0  0.00000000000E+00  0.00000000000E+00  0.89031909336E+03  0.89031909336E+03  0.00000000000E+00 0. -1.
         -1   -1    0    0    0  501 -0.00000000000E+00 -0.00000000000E+00 -0.47038489847E+03  0.47038489847E+03  0.00000000000E+00 0.  1.
         24    2    1    2    0    0 -0.15354264267E+02  0.11210966213E+02 -0.43305411921E+02  0.93193861395E+02  0.80301294544E+02 0.  0.
         23    2    1    2    0    0  0.32662138701E+03  0.15133668769E+03 -0.26701247772E+03  0.45721569724E+03  0.90367068387E+02 0.  0.
        -11    1    3    3    0    0 -0.33534577399E+02  0.21898046788E+02 -0.55796841254E+02  0.68683184466E+02  0.00000000000E+00 0.  1.
         12    1    3    3    0    0  0.18180313131E+02 -0.10687080574E+02  0.12491429333E+02  0.24510676929E+02  0.00000000000E+00 0. -1.
        -13    1    4    4    0    0  0.11700346540E+03  0.56594389220E+02 -0.15212704925E+03  0.20008841776E+03  0.00000000000E+00 0.  1.
         13    1    4    4    0    0  0.20961792161E+03  0.94742298470E+02 -0.11488542847E+03  0.25712727948E+03  0.00000000000E+00 0. -1.
         21    1    1    2  502  501 -0.31126712274E+03 -0.16254765390E+03  0.73025208454E+03  0.81029443320E+03  0.00000000000E+00 0. -1.
<scales pt_clust_5="13000.00000" pt_clust_6="13000.00000" pt_clust_7="13000.00000" pt_clust_8="13000.00000" pt_clust_9="351.99589"></scales>
<clustering>
<clus scale="   80.301">  5  6 -1 -1</clus>
<clus scale="   82.521">  2  5  1 -1</clus>
<clus scale="   90.367">  7  8 -1 -1</clus>
<clus scale="  351.996">  1  9  2 -1</clus>
<clus scale="  351.996">  1  5  2 -1</clus>
</clustering>
</event>
<event>
 9    2  0.2984928E-005  0.9223547E+02  0.7546771E-02  0.1301304E+00
          4   -1    0    0  502    0  0.00000000000E+00  0.00000000000E+00  0.61503987732E+02  0.61503987732E+02  0.00000000000E+00 0. -1.
         -3   -1    0    0    0  501 -0.00000000000E+00 -0.00000000000E+00 -0.66301371909E+03  0.66301371909E+03  0.00000000000E+00 0.  1.
         24    2    1    2    0    0 -0.43165533186E+02 -0.54782667518E+02 -0.27272374654E+03  0.29418308100E+03  0.85446119287E+02 0.  0.
         23    2    1    2    0    0  0.45873819948E+01 -0.95304085183E+01  0.81703845018E+00  0.92307114453E+02  0.91695490983E+02 0.  0.
        -11    1    3    3    0    0  0.50929008825E+01 -0.55721974855E+02 -0.19336814982E+03  0.20130106181E+03  0.00000000000E+00 0.  1.
         12    1    3    3    0    0 -0.48258434068E+02  0.93930733682E+00 -0.79355596719E+02  0.92882019184E+02  0.00000000000E+00 0. -1.
        -13    1    4    4    0    0 -0.27186258450E+02 -0.31967216220E+02  0.22665471062E+02  0.47694015765E+02  0.00000000000E+00 0.  1.
         13    1    4    4    0    0  0.31773640445E+02  0.22436807701E+02 -0.21848432612E+02  0.44613098688E+02  0.00000000000E+00 0. -1.
         21    1    1    2  502  501  0.38578151191E+02  0.64313076037E+02 -0.32960302326E+03  0.33802751137E+03  0.00000000000E+00 0.  1.
<scales pt_clust_5="13000.00000" pt_clust_6="13000.00000" pt_clust_7="13000.00000" pt_clust_8="13000.00000" pt_clust_9="74.99630"></scales>
<clustering>
<clus scale="   74.996">  2  9  1 -1</clus>
<clus scale="   85.446">  5  6 -1 -1</clus>
<clus scale="   86.025">  2  5  1 -1</clus>
<clus scale="   91.695">  7  8 -1 -1</clus>
<clus scale="   92.235">  1  5  2 -1</clus>
</clustering>
</event>
<event>
 9    2  0.2984928E-005  0.1188068E+03  0.7546771E-02  0.1248879E+00
          2   -1    0    0  502    0  0.00000000000E+00  0.00000000000E+00  0.48884648359E+03  0.48884648359E+03  0.00000000000E+00 0. -1.
         -1   -1    0    0    0  501 -0.00000000000E+00 -0.00000000000E+00 -0.56957888526E+02  0.56957888526E+02  0.00000000000E+00 0.  1.
         24    2    1    2    0    0  0.44323519072E+02  0.52028246426E+02  0.39335822795E+02  0.11323087970E+03  0.81255229949E+02 0.  0.
         23    2    1    2    0    0 -0.82339991991E+02 -0.51568292493E+02  0.23670936323E+03  0.27215955315E+03  0.92738000067E+02 0.  0.
        -11    1    3    3    0    0  0.31578575031E+02  0.45893454070E+02 -0.14502848996E+02  0.57565164435E+02  0.00000000000E+00 0.  1.
         12    1    3    3    0    0  0.12744944040E+02  0.61347923562E+01  0.53838671791E+02  0.55665715266E+02  0.00000000000E+00 0. -1.
        -11    1    4    4    0    0 -0.72582628641E+02 -0.21217490068E+01  0.82407253931E+02  0.10983485467E+03  0.00000000000E+00 0.  1.
         11    1    4    4    0    0 -0.97573633493E+01 -0.49446543486E+02  0.15430210930E+03  0.16232469848E+03  0.00000000000E+00 0. -1.
         21    1    1    2  502  501  0.38016472919E+02 -0.45995393301E+00  0.15584340904E+03  0.16041393927E+03  0.00000000000E+00 0.  1.
<scales pt_clust_5="13000.00000" pt_clust_6="13000.00000" pt_clust_7="13000.00000" pt_clust_8="13000.00000" pt_clust_9="38.01926"></scales>
<clustering>
<clus scale="   38.019">  1  9  2 -1</clus>
<clus scale="   81.255">  5  6 -1 -1</clus>
<clus scale="   92.738">  7  8 -1 -1</clus>
<clus scale="  110.078">  2  5  1 -1</clus>
<clus scale="   38.019">  1  5  2 -1</clus>
</clustering>
</event>
<event>
 9    2  0.2984928E-005  0.1723911E+03  0.7546771E-02  0.1176543E+00
          2   -1    0    0  502    0  0.00000000000E+00  0.00000000000E+00  0.40496645447E+03  0.40496645447E+03  0.00000000000E+00 0. -1.
         -1   -1    0    0    0  501 -0.00000000000E+00 -0.00000000000E+00 -0.25115506517E+03  0.25115506517E+03  0.00000000000E+00 0.  1.
         23    2    1    2    0    0  0.62374807804E+02  0.14441733344E+03 -0.15858151611E+03  0.24129801462E+03  0.91266925885E+02 0.  0.
         24    2    1    2    0    0 -0.13232134211E+02 -0.14524115294E+03  0.32360918828E+03  0.36441035150E+03  0.82473727085E+02 0.  0.
        -13    1    4    4    0    0 -0.31802675270E+02 -0.37095788297E+02  0.16092689032E+03  0.16818136547E+03  0.00000000000E+00 0.  1.
         14    1    4    4    0    0  0.18570541059E+02 -0.10814536464E+03  0.16268229796E+03  0.19622898603E+03  0.00000000000E+00 0. -1.
        -13    1    3    3    0    0  0.29732571780E+02  0.26688176936E+00 -0.91246867561E+01  0.31102362594E+02  0.00000000000E+00 0. -1.
         13    1    3    3    0    0  0.32642236024E+02  0.14415045167E+03 -0.14945682935E+03  0.21019565202E+03  0.00000000000E+00 0.  1.
         21    1    1    2  502  501 -0.49142673593E+02  0.82381949914E+00 -0.11216282868E+02  0.50413153520E+02  0.00000000000E+00 0.  1.
<scales pt_clust_5="13000.00000" pt_clust_6="13000.00000" pt_clust_7="13000.00000" pt_clust_8="13000.00000" pt_clust_9="49.14958"></scales>
<clustering>
<clus scale="   49.150">  2  9  1 -1</clus>
<clus scale="   82.474">  5  6 -1 -1</clus>
<clus scale="   91.267">  7  8 -1 -1</clus>
<clus scale="  167.902">  1  5  2 -1</clus>
<clus scale="  167.902">  1  5  2 -1</clus>
</clustering>
</event>
<event>
 9    2  0.2984928E-005  0.9174491E+02  0.7546771E-02  0.1303891E+00
         -1   -1    0    0    0  501 -0.00000000000E+00  0.00000000000E+00  0.61378934665E+02  0.61378934665E+02  0.00000000000E+00 0.  1.
          2   -1    0    0  502    0  0.00000000000E+00 -0.00000000000E+00 -0.29620786502E+03  0.29620786502E+03  0.00000000000E+00 0. -1.
         23    2    1    2    0    0  0.99411716384E+00 -0.13764721063E+02  0.80659580328E+01  0.91564023200E+02  0.90157943914E+02 0.  0.
         24    2    1    2    0    0  0.40935138493E+01  0.33285153162E+02 -0.20172736153E+03  0.22017851265E+03  0.81608766490E+02 0.  0.
        -13    1    4    4    0    0  0.38746933944E+02  0.76782626685E+01 -0.13572931289E+03  0.14136027371E+03  0.00000000000E+00 0.  1.
         14    1    4    4    0    0 -0.34653420094E+02  0.25606890493E+02 -0.65998048644E+02  0.78818238941E+02  0.00000000000E+00 0. -1.
        -11    1    3    3    0    0 -0.27451331216E+02 -0.23444506209E+02  0.35678473942E+02  0.50756023876E+02  0.00000000000E+00 0.  1.
         11    1    3    3    0    0  0.28445448380E+02  0.96797851451E+01 -0.27612515909E+02  0.40807999324E+02  0.00000000000E+00 0. -1.
         21    1    1    2  502  501 -0.50876310132E+01 -0.19520432098E+02 -0.41167526858E+02  0.45844263831E+02  0.00000000000E+00 0. -1.
<scales pt_clust_5="13000.00000" pt_clust_6="13000.00000" pt_clust_7="13000.00000" pt_clust_8="13000.00000" pt_clust_9="20.17254"></scales>
<clustering>
<clus scale="   20.173">  2  9  1 -1</clus>
<clus scale="   81.609">  5  6 -1 -1</clus>
<clus scale="   83.359">  2  5  1 -1</clus>
<clus scale="   90.158">  7  8 -1 -1</clus>
<clus scale="   20.173">  2  5  1 -1</clus>
</clustering>
</event>
<event>
 9    2  0.2984928E-005  0.9202919E+02  0.7546771E-02  0.1305183E+00
          2   -1    0    0  502    0  0.00000000000E+00  0.00000000000E+00  0.37741721674E+03  0.37741721674E+03  0.00000000000E+00 0. -1.
         -1   -1    0    0    0  501 -0.00000000000E+00 -0.00000000000E+00 -0.53248416155E+02  0.53248416155E+02  0.00000000000E+00 0.  1.
         23    2    1    2    0    0  0.58792799481E+01 -0.89414915617E+01  0.13269531165E+02  0.93506517166E+02  0.91939502343E+02 0.  0.
         24    2    1    2    0    0  0.10926332737E+02 -0.27204517763E+02  0.25076580531E+03  0.26501345672E+03  0.80555400788E+02 0.  0.
        -13    1    4    4    0    0 -0.34883709039E+02 -0.11731330214E+02  0.93512113970E+02  0.10049384421E+03  0.00000000000E+00 0.  1.
         14    1    4    4    0    0  0.45810041776E+02 -0.15473187548E+02  0.15725369134E+03  0.16451961251E+03  0.00000000000E+00 0. -1.
        -13    1    3    3    0    0  0.28779475912E+02  0.29136201068E+02 -0.11629216098E+02  0.42572468962E+02  0.00000000000E+00 0.  1.
         13    1    3    3    0    0 -0.22900195964E+02 -0.38077692629E+02  0.24898747263E+02  0.50934048204E+02  0.00000000000E+00 0. -1.
         21    1    1    2  502  501 -0.16805612685E+02  0.36146009325E+02  0.60133464111E+02  0.72145659009E+02  0.00000000000E+00 0.  1.
<scales pt_clust_5="13000.00000" pt_clust_6="13000.00000" pt_clust_7="13000.00000" pt_clust_8="13000.00000" pt_clust_9="39.86179"></scales>
<clustering>
<clus scale="   39.862">  1  9  2 -1</clus>
<clus scale="   80.555">  5  6 -1 -1</clus>
<clus scale="   80.658">  1  5  2 -1</clus>
<clus scale="   91.940">  7  8 -1 -1</clus>
<clus scale="   39.862">  1  5  2 -1</clus>
</clustering>
</event>
<event>
 9    2  0.2984928E-005  0.1239041E+03  0.7546771E-02  0.1251990E+00
          2   -1    0    0  502    0  0.00000000000E+00  0.00000000000E+00  0.45623578075E+03  0.45623578075E+03  0.00000000000E+00 0. -1.
         -1   -1    0    0    0  501 -0.00000000000E+00 -0.00000000000E+00 -0.16424948397E+03  0.16424948397E+03  0.00000000000E+00 0.  1.
         23    2    1    2    0    0 -0.93381273562E+00  0.86732254256E+01 -0.12321132369E+03  0.15329237282E+03  0.90782291420E+02 0.  0.
         24    2    1    2    0    0  0.43277176767E+02  0.74321557521E+02  0.23513582496E+03  0.26445329370E+03  0.85147404138E+02 0.  0.
        -13    1    4    4    0    0  0.58043743853E+02  0.84902691696E+02  0.19860431222E+03  0.22365423334E+03  0.00000000000E+00 0.  1.
         14    1    4    4    0    0 -0.14766567086E+02 -0.10581134174E+02  0.36531512733E+02  0.40799060363E+02  0.00000000000E+00 0. -1.
        -13    1    3    3    0    0  0.20561759583E+02  0.42779995334E+02 -0.86983189580E+02  0.99090813032E+02  0.00000000000E+00 0.  1.
         13    1    3    3    0    0 -0.21495572319E+02 -0.34106769908E+02 -0.36228134107E+02  0.54201559791E+02  0.00000000000E+00 0. -1.
         21    1    1    2  502  501 -0.42343364032E+02 -0.82994782947E+02  0.18006179551E+03  0.20273959819E+03  0.00000000000E+00 0. -1.
<scales pt_clust_5="13000.00000" pt_clust_6="13000.00000" pt_clust_7="13000.00000" pt_clust_8="13000.00000" pt_clust_9="90.01194"></scales>
<clustering>
<clus scale="   85.147">  5  6 -1 -1</clus>
<clus scale="   90.782">  7  8 -1 -1</clus>
<clus scale="   91.200">  2  7  1 -1</clus>
<clus scale="   90.012">  2  9  1 -1</clus>
<clus scale="  123.904">  1  5  2 -1</clus>
</clustering>
</event>
<event>
 9    2  0.2984928E-005  0.1561792E+03  0.7546771E-02  0.1194520E+00
         -1   -1    0    0    0  501 -0.00000000000E+00  0.00000000000E+00  0.34168095563E+03  0.34168095563E+03  0.00000000000E+00 0.  1.
          2   -1    0    0  502    0  0.00000000000E+00 -0.00000000000E+00 -0.10870635742E+04  0.10870635742E+04  0.00000000000E+00 0. -1.
         24    2    1    2    0    0 -0.10368236318E+03  0.70057923063E+02  0.29885256023E+03  0.33407357429E+03  0.81450323925E+02 0.  0.
         23    2    1    2    0    0  0.17128497740E+03 -0.10627193099E+03 -0.52127541002E+03  0.56611775331E+03  0.90160915670E+02 0.  0.
        -11    1    3    3    0    0 -0.63264112813E+02  0.82783468545E+02  0.23916292343E+03  0.26087229553E+03  0.00000000000E+00 0.  1.
         12    1    3    3    0    0 -0.40418250372E+02 -0.12725545482E+02  0.59689636803E+02  0.73201278763E+02  0.00000000000E+00 0. -1.
        -11    1    4    4    0    0  0.72244777607E+02 -0.53649828864E+02 -0.12332166686E+03  0.15266252174E+03  0.00000000000E+00 0.  1.
         11    1    4    4    0    0  0.99040199792E+02 -0.52622102130E+02 -0.39795374316E+03  0.41345523156E+03  0.00000000000E+00 0. -1.
         21    1    1    2  502  501 -0.67602614214E+02  0.36214007931E+02 -0.52295976880E+03  0.52855320224E+03  0.00000000000E+00 0. -1.
<scales pt_clust_5="13000.00000" pt_clust_6="13000.00000" pt_clust_7="13000.00000" pt_clust_8="13000.00000" pt_clust_9="76.69138"></scales>
<clustering>
<clus scale="   76.691">  2  9  1 -1</clus>
<clus scale="   81.450">  5  6 -1 -1</clus>
<clus scale="   90.161">  7  8 -1 -1</clus>
<clus scale="  151.318">  1  5  2 -1</clus>
<clus scale="   76.691">  2  5  1 -1</clus>
</clustering>
</event>
<event>
 9    2  0.2984928E-005  0.1118965E+03  0.7546771E-02  0.1260346E+00
          2   -1    0    0  502    0  0.00000000000E+00  0.00000000000E+00  0.65878903682E+03  0.65878903682E+03  0.00000000000E+00 0. -1.
         -1   -1    0    0    0  501 -0.00000000000E+00 -0.00000000000E+00 -0.37329160020E+02  0.37329160020E+02  0.00000000000E+00 0.  1.
         23    2    1    2    0    0 -0.70802935518E+02  0.34021488069E+02  0.13396859585E+03  0.18136818965E+03  0.93682005829E+02 0.  0.
         24    2    1    2    0    0  0.21528595424E+02 -0.39603285881E+02  0.18925303328E+03  0.21241712867E+03  0.85278515890E+02 0.  0.
        -11    1    4    4    0    0  0.39825402720E+02 -0.42867545902E+02  0.67830899833E+02  0.89580802439E+02  0.00000000000E+00 0.  1.
         12    1    4    4    0    0 -0.18296807296E+02  0.32642600206E+01  0.12142213345E+03  0.12283632623E+03  0.00000000000E+00 0. -1.
        -11    1    3    3    0    0 -0.75472238351E+01  0.31067082138E+02  0.10850268126E+03  0.11311479134E+03  0.00000000000E+00 0.  1.
         11    1    3    3    0    0 -0.63255711683E+02  0.29544059314E+01  0.25465914587E+02  0.68253398308E+02  0.00000000000E+00 0. -1.
         21    1    1    2  502  501  0.49274340093E+02  0.55817978124E+01  0.29823824767E+03  0.30233287852E+03  0.00000000000E+00 0. -1.
<scales pt_clust_5="13000.00000" pt_clust_6="13000.00000" pt_clust_7="13000.00000" pt_clust_8="13000.00000" pt_clust_9="49.58949"></scales>
<clustering>
<clus scale="   49.589">  1  9  2 -1</clus>
<clus scale="   85.279">  5  6 -1 -1</clus>
<clus scale="   93.682">  7  8 -1 -1</clus>
<clus scale="  104.962">  1  5  2 -1</clus>
<clus scale="   49.589">  1  5  2 -1</clus>
</clustering>
</event>
<event>
 9    2  0.2984928E-005  0.1105699E+03  0.7546771E-02  0.1261618E+00
         -1   -1    0    0    0  501 -0.00000000000E+00  0.00000000000E+00  0.64320969370E+02  0.64320969370E+02  0.00000000000E+00 0.  1.
          2   -1    0    0  502    0  0.00000000000E+00 -0.00000000000E+00 -0.29028919776E+03  0.29028919776E+03  0.00000000000E+00 0. -1.
         24    2    1    2    0    0  0.45108988863E+02 -0.42279455482E+02 -0.48330399807E+02  0.12417438622E+03  0.96234491816E+02 0.  0.
         23    2    1    2    0    0 -0.13726370521E+02  0.47140056753E+02 -0.89668102011E+02  0.13690949064E+03  0.91067238405E+02 0.  0.
        -13    1    3    3    0    0  0.70413446784E+02 -0.33959730115E+02 -0.56337468526E+02  0.96359883341E+02  0.00000000000E+00 0.  1.
         14    1    3    3    0    0 -0.25304457921E+02 -0.83197253669E+01  0.80070687190E+01  0.27814502878E+02  0.00000000000E+00 0. -1.
        -13    1    4    4    0    0  0.28603010121E+02  0.50381021819E+02 -0.34972864410E+02  0.67671861158E+02  0.00000000000E+00 0.  1.
         13    1    4    4    0    0 -0.42329380643E+02 -0.32409650654E+01 -0.54695237601E+02  0.69237629482E+02  0.00000000000E+00 0. -1.
         21    1    1    2  502  501 -0.31382618341E+02 -0.48606012709E+01 -0.87969726569E+02  0.93526290268E+02  0.00000000000E+00 0. -1.
<scales pt_clust_5="13000.00000" pt_clust_6="13000.00000" pt_clust_7="13000.00000" pt_clust_8="13000.00000" pt_clust_9="31.75680"></scales>
<clustering>
<clus scale="   31.757">  2  9  1 -1</clus>
<clus scale="   91.067">  7  8 -1 -1</clus>
<clus scale="   96.234">  5  6 -1 -1</clus>
<clus scale="  106.103">  2  7  1 -1</clus>
<clus scale="   31.757">  2  5  1 -1</clus>
</clustering>
</event>
<event>
 9    2  0.2984928E-005  0.1038693E+03  0.7546771E-02  0.1278617E+00
          4   -1    0    0  502    0  0.00000000000E+00  0.00000000000E+00  0.25114764776E+03  0.25114764776E+03  0.00000000000E+00 0. -1.
         -3   -1    0    0    0  501 -0.00000000000E+00 -0.00000000000E+00 -0.13671806959E+03  0.13671806959E+03  0.00000000000E+00 0.  1.
         23    2    1    2    0    0 -0.10427850667E+02 -0.43041931483E+02 -0.72300241190E+02  0.12578784175E+03  0.92918826510E+02 0.  0.
         24    2    1    2    0    0  0.77000474050E+02  0.34123129489E+02  0.13010993435E+03  0.17422987853E+03  0.79586396984E+02 0.  0.
        -11    1    4    4    0    0  0.66586826408E+02  0.50249896399E+02  0.63302186469E+02  0.10471878700E+03  0.00000000000E+00 0.  1.
         12    1    4    4    0    0  0.10413647642E+02 -0.16126766910E+02  0.66807747882E+02  0.69511091526E+02  0.00000000000E+00 0. -1.
        -13    1    3    3    0    0  0.38154501881E+02 -0.55686289377E+01 -0.13633465610E+02  0.40898007611E+02  0.00000000000E+00 0.  1.
         13    1    3    3    0    0 -0.48582352547E+02 -0.37473302546E+02 -0.58666775581E+02  0.84889834137E+02  0.00000000000E+00 0. -1.
         21    1    1    2  502  501 -0.66572623384E+02  0.89188019946E+01  0.56619885009E+02  0.87847997084E+02  0.00000000000E+00 0. -1.
<scales pt_clust_5="13000.00000" pt_clust_6="13000.00000" pt_clust_7="13000.00000" pt_clust_8="13000.00000" pt_clust_9="67.16740"></scales>
<clustering>
<clus scale="   67.167">  1  9  2 -1</clus>
<clus scale="   79.586">  5  6 -1 -1</clus>
<clus scale="   92.135">  1  5  2 -1</clus>
<clus scale="   92.919">  7  8 -1 -1</clus>
<clus scale="   67.167">  1  5  2 -1</clus>
</clustering>
</event>
<event>
 9    2  0.2984928E-005  0.1102489E+03  0.7546771E-02  0.1262846E+00
          4   -1    0    0  502    0  0.00000000000E+00  0.00000000000E+00  0.61307308318E+03  0.61307308318E+03  0.00000000000E+00 0. -1.
         -3   -1    0    0    0  501 -0.00000000000E+00 -0.00000000000E+00 -0.37840170595E+02  0.37840170595E+02  0.00000000000E+00 0.  1.
         24    2    1    2    0    0  0.41942280538E+02  0.12638353913E+02  0.60734361451E+02  0.11028062701E+03  0.80958453211E+02 0.  0.
         23    2    1    2    0    0 -0.49475640192E+02 -0.55821374135E+02  0.43225936474E+03  0.44744030669E+03  0.88265536073E+02 0.  0.
        -11    1    3    3    0    0 -0.63536809034E+00  0.31001791676E+02 -0.33406961681E+01  0.31187738466E+02  0.00000000000E+00 0.  1.
         12    1    3    3    0    0  0.42577648628E+02 -0.18363437763E+02  0.64075057619E+02  0.79092888543E+02  0.00000000000E+00 0. -1.
        -13    1    4    4    0    0 -0.17578905905E+02 -0.75378195432E+02  0.31425292740E+03  0.32364454678E+03  0.00000000000E+00 0. -1.
         13    1    4    4    0    0 -0.31896734287E+02  0.19556821296E+02  0.11800643734E+03  0.12379575991E+03  0.00000000000E+00 0.  1.
         21    1    1    2  502  501  0.75333596537E+01  0.43183020223E+02  0.82239186390E+02  0.93192320076E+02  0.00000000000E+00 0.  1.
<scales pt_clust_5="13000.00000" pt_clust_6="13000.00000" pt_clust_7="13000.00000" pt_clust_8="13000.00000" pt_clust_9="43.83520"></scales>
<clustering>
<clus scale="   43.835">  2  9  1 -1</clus>
<clus scale="   80.958">  5  6 -1 -1</clus>
<clus scale="   88.266">  7  8 -1 -1</clus>
<clus scale="  104.491">  2  5  1 -1</clus>
<clus scale="  110.249">  1  5  2 -1</clus>
</clustering>
</event>
<event>
 9    2  0.2984928E-005  0.9734012E+02  0.7546771E-02  0.1289859E+00
          4   -1    0    0  502    0  0.00000000000E+00  0.00000000000E+00  0.36928293391E+03  0.36928293391E+03  0.00000000000E+00 0. -1.
         -3   -1    0    0    0  501 -0.00000000000E+00 -0.00000000000E+00 -0.47870234301E+02  0.47870234301E+02  0.00000000000E+00 0.  1.
         23    2    1    2    0    0  0.37614320430E+02  0.30043989943E+02  0.27741472539E+02  0.10342960575E+03  0.87238842348E+02 0.  0.
         24    2    1    2    0    0 -0.19098867514E+02 -0.13881460096E+02  0.25237293868E+03  0.26566528542E+03  0.79551756903E+02 0.  0.
        -13    1    4    4    0    0 -0.47316166016E+02 -0.84782771937E+01  0.20232842709E+03  0.20796031630E+03  0.00000000000E+00 0.  1.
         14    1    4    4    0    0  0.28217298502E+02 -0.54031829019E+01  0.50044511592E+02  0.57704969117E+02  0.00000000000E+00 0. -1.
        -13    1    3    3    0    0 -0.38937195132E+01  0.51873634223E+02  0.83725741837E+01  0.52689040394E+02  0.00000000000E+00 0.  1.
         13    1    3    3    0    0  0.41508039943E+02 -0.21829644280E+02  0.19368898356E+02  0.50740565358E+02  0.00000000000E+00 0. -1.
         21    1    1    2  502  501 -0.18515452916E+02 -0.16162529848E+02  0.41298288392E+02  0.48058277038E+02  0.00000000000E+00 0. -1.
<scales pt_clust_5="13000.00000" pt_clust_6="13000.00000" pt_clust_7="13000.00000" pt_clust_8="13000.00000" pt_clust_9="24.57742"></scales>
<clustering>
<clus scale="   24.577">  1  9  2 -1</clus>
<clus scale="   79.552">  5  6 -1 -1</clus>
<clus scale="   87.239">  7  8 -1 -1</clus>
<clus scale="   90.515">  1  5  2 -1</clus>
<clus scale="   24.577">  1  5  2 -1</clus>
</clustering>
</event>
<event>
 9    2  0.2984928E-005  0.9818104E+02  0.7546771E-02  0.1290881E+00
         -1   -1    0    0    0  501 -0.00000000000E+00  0.00000000000E+00  0.65999757834E+02  0.65999757834E+02  0.00000000000E+00 0.  1.
          2   -1    0    0  502    0  0.00000000000E+00 -0.00000000000E+00 -0.43769585812E+03  0.43769585812E+03  0.00000000000E+00 0. -1.
         24    2    1    2    0    0  0.23363848090E+02  0.49733095088E+02 -0.44035537694E+01  0.93568597831E+02  0.75607149593E+02 0.  0.
         23    2    1    2    0    0  0.39341259013E+02 -0.15620222941E+02 -0.13412965411E+03  0.16628167185E+03  0.88696698114E+02 0.  0.
        -13    1    3    3    0    0  0.16783463185E+02 -0.13147830308E+02  0.16520562156E+02  0.26971819595E+02  0.00000000000E+00 0.  1.
         14    1    3    3    0    0  0.65803849046E+01  0.62880925396E+02 -0.20924115925E+02  0.66596778236E+02  0.00000000000E+00 0. -1.
        -13    1    4    4    0    0  0.15522285174E+02 -0.19858627298E+02 -0.13928343284E+03  0.14154568548E+03  0.00000000000E+00 0. -1.
         13    1    4    4    0    0  0.23818973839E+02  0.42384043573E+01  0.51537787326E+01  0.24735986365E+02  0.00000000000E+00 0.  1.
         21    1    1    2  502  501 -0.62705107103E+02 -0.34112872147E+02 -0.23316289241E+03  0.24384534628E+03  0.00000000000E+00 0. -1.
<scales pt_clust_5="13000.00000" pt_clust_6="13000.00000" pt_clust_7="13000.00000" pt_clust_8="13000.00000" pt_clust_9="71.38360"></scales>
<clustering>
<clus scale="   71.384">  2  9  1 -1</clus>
<clus scale="   75.607">  5  6 -1 -1</clus>
<clus scale="   86.538">  1  5  2 -1</clus>
<clus scale="   88.697">  7  8 -1 -1</clus>
<clus scale="   71.384">  2  5  1 -1</clus>
</clustering>
</event>
<event>
 9    2  0.2984928E-005  0.1176343E+03  0.7546771E-02  0.1261222E+00
          2   -1    0    0  502    0  0.00000000000E+00  0.00000000000E+00  0.59158506841E+03  0.59158506841E+03  0.00000000000E+00 0. -1.
         -1   -1    0    0    0  501 -0.00000000000E+00 -0.00000000000E+00 -0.68309015019E+02  0.68309015019E+02  0.00000000000E+00 0.  1.
         24    2    1    2    0    0 -0.13295495487E+02  0.68269356483E+02 -0.14867822706E+02  0.87696456068E+02  0.51304395718E+02 0.  0.
         23    2    1    2    0    0  0.53493804497E+02 -0.97383451866E+02  0.41015399000E+03  0.43492073368E+03  0.92653252768E+02 0.  0.
        -13    1    3    3    0    0 -0.22040569365E+02  0.44961622110E+02 -0.30184658643E+02  0.58467493345E+02  0.00000000000E+00 0.  1.
         14    1    3    3    0    0  0.87450738787E+01  0.23307734373E+02  0.15316835936E+02  0.29228962723E+02  0.00000000000E+00 0. -1.
        -11    1    4    4    0    0  0.11752990360E+02 -0.97856965228E+02  0.33195403349E+03  0.34627676615E+03  0.00000000000E+00 0. -1.
         11    1    4    4    0    0  0.41740814138E+02  0.47351336212E+00  0.78199956516E+02  0.88643967527E+02  0.00000000000E+00 0.  1.
         21    1    1    2  502  501 -0.40198309011E+02  0.29114095383E+02  0.12798988610E+03  0.13727689369E+03  0.00000000000E+00 0.  1.
<scales pt_clust_5="13000.00000" pt_clust_6="13000.00000" pt_clust_7="13000.00000" pt_clust_8="13000.00000" pt_clust_9="49.63401"></scales>
<clustering>
<clus scale="   49.634">  1  9  2 -1</clus>
<clus scale="   51.304">  5  6 -1 -1</clus>
<clus scale="   88.799">  2  5  1 -1</clus>
<clus scale="   92.653">  7  8 -1 -1</clus>
<clus scale="   49.634">  1  5  2 -1</clus>
</clustering>
</event>
<event>
 9    2  0.2984928E-005  0.2658966E+03  0.7546771E-02  0.1149588E+00
         -1   -1    0    0    0  501 -0.00000000000E+00  0.00000000000E+00  0.94899068798E+02  0.94899068798E+02  0.00000000000E+00 0.  1.
          2   -1    0    0  502    0  0.00000000000E+00 -0.00000000000E+00 -0.23545723651E+04  0.23545723651E+04  0.00000000000E+00 0. -1.
         24    2    1    2    0    0 -0.15087288548E+02 -0.27488091049E+02 -0.41295505275E+02  0.94873784340E+02  0.79451210022E+02 0.  0.
         23    2    1    2    0    0 -0.22325883579E+03  0.10551860586E+03 -0.22650779349E+03  0.34700114544E+03  0.90140615093E+02 0.  0.
        -11    1    3    3    0    0 -0.31550011485E+02 -0.44464540718E+02 -0.96491145661E+01  0.55367896997E+02  0.00000000000E+00 0.  1.
         12    1    3    3    0    0  0.16462722938E+02  0.16976449669E+02 -0.31646390709E+02  0.39505887343E+02  0.00000000000E+00 0. -1.
        -13    1    4    4    0    0 -0.19373775322E+03  0.65934780771E+02 -0.21391089260E+03  0.29603983231E+03  0.00000000000E+00 0.  1.
         13    1    4    4    0    0 -0.29521082568E+02  0.39583825092E+02 -0.12596900884E+02  0.50961313138E+02  0.00000000000E+00 0. -1.
         21    1    1    2  502  501  0.23834612433E+03 -0.78030514814E+02 -0.19918699976E+04  0.20075965041E+04  0.00000000000E+00 0. -1.
<scales pt_clust_5="13000.00000" pt_clust_6="13000.00000" pt_clust_7="13000.00000" pt_clust_8="13000.00000" pt_clust_9="250.15133"></scales>
<clustering>
<clus scale="   79.451">  5  6 -1 -1</clus>
<clus scale="   85.415">  1  5  2 -1</clus>
<clus scale="   90.141">  7  8 -1 -1</clus>
<clus scale="  250.151">  2  9  1 -1</clus>
<clus scale="  250.151">  2  5  1 -1</clus>
</clustering>
</event>
<event>
 9    2  0.2984928E-005  0.1316402E+03  0.7546771E-02  0.1226713E+00
         -1   -1    0    0    0  501 -0.00000000000E+00  0.00000000000E+00  0.19143007079E+03  0.19143007079E+03  0.00000000000E+00 0.  1.
          2   -1    0    0  502    0  0.00000000000E+00 -0.00000000000E+00 -0.28867175712E+03  0.28867175712E+03  0.00000000000E+00 0. -1.
         23    2    1    2    0    0  0.42846764358E+02 -0.47440432674E+02  0.11080802798E+03  0.15510078805E+03  0.87700601589E+02 0.  0.
         24    2    1    2    0    0  0.19686656455E+02  0.10526881140E+03 -0.19809682520E+03  0.23924784689E+03  0.80796614974E+02 0.  0.
        -13    1    4    4    0    0  0.26455558754E+02 -0.21030038760E+01 -0.41225758239E+02  0.49029402981E+02  0.00000000000E+00 0.  1.
         14    1    4    4    0    0 -0.67689022982E+01  0.10737181527E+03 -0.15687106696E+03  0.19021844391E+03  0.00000000000E+00 0. -1.
        -11    1    3    3    0    0 -0.23326998152E+02  0.52541847323E+01  0.25756856522E+02  0.35144999045E+02  0.00000000000E+00 0. -1.
         11    1    3    3    0    0  0.66173762510E+02 -0.52694617406E+02  0.85051171461E+02  0.11995578900E+03  0.00000000000E+00 0.  1.
         21    1    1    2  502  501 -0.62533420813E+02 -0.57828378723E+02 -0.99528891096E+01  0.85753192978E+02  0.00000000000E+00 0. -1.
<scales pt_clust_5="13000.00000" pt_clust_6="13000.00000" pt_clust_7="13000.00000" pt_clust_8="13000.00000" pt_clust_9="85.17365"></scales>
<clustering>
<clus scale="   80.797">  5  6 -1 -1</clus>
<clus scale="   85.174">  1  9  2 -1</clus>
<clus scale="   87.701">  7  8 -1 -1</clus>
<clus scale="  127.145">  2  5  1 -1</clus>
<clus scale="  127.145">  2  5  1 -1</clus>
</clustering>
</event>
<event>
 9    2  0.2984928E-005  0.1140457E+03  0.7546771E-02  0.1256962E+00
          2   -1    0    0  502    0  0.00000000000E+00  0.00000000000E+00  0.31843365427E+03  0.31843365427E+03  0.00000000000E+00 0. -1.
         -1   -1    0    0    0  501 -0.00000000000E+00 -0.00000000000E+00 -0.10465167731E+03  0.10465167731E+03  0.00000000000E+00 0.  1.
         23    2    1    2    0    0  0.25709058160E+01  0.70298697375E+02 -0.52634932805E+02  0.12667010397E+03  0.91248905083E+02 0.  0.
         24    2    1    2    0    0 -0.26333019976E+02 -0.55753030293E+02  0.20003438156E+03  0.22442318254E+03  0.80933199187E+02 0.  0.
        -11    1    4    4    0    0 -0.39302701333E+02 -0.65544494238E+02  0.11655419745E+03  0.13937598072E+03  0.00000000000E+00 0.  1.
         12    1    4    4    0    0  0.12969681357E+02  0.97914639447E+01  0.83480184103E+02  0.85047201827E+02  0.00000000000E+00 0. -1.
        -11    1    3    3    0    0  0.36295260631E+02  0.21446012626E+00 -0.86286656909E+01  0.37307449780E+02  0.00000000000E+00 0. -1.
         11    1    3    3    0    0 -0.33724354815E+02  0.70084237249E+02 -0.44006267114E+02  0.89362654189E+02  0.00000000000E+00 0.  1.
         21    1    1    2  502  501  0.23762114160E+02 -0.14545667082E+02  0.66382528208E+02  0.71992045057E+02  0.00000000000E+00 0. -1.
<scales pt_clust_5="13000.00000" pt_clust_6="13000.00000" pt_clust_7="13000.00000" pt_clust_8="13000.00000" pt_clust_9="27.86063"></scales>
<clustering>
<clus scale="   27.861">  1  9  2 -1</clus>
<clus scale="   80.933">  5  6 -1 -1</clus>
<clus scale="   91.249">  7  8 -1 -1</clus>
<clus scale="  105.973">  1  5  2 -1</clus>
<clus scale="   27.861">  1  5  2 -1</clus>
</clustering>
</event>
<event>
 9    2  0.2984928E-005  0.2676865E+03  0.7546771E-02  0.1102983E+00
         -1   -1    0    0    0  501 -0.00000000000E+00  0.00000000000E+00  0.18797435649E+03  0.18797435649E+03  0.00000000000E+00 0.  1.
          2   -1    0    0  502    0  0.00000000000E+00 -0.00000000000E+00 -0.81896611452E+03  0.81896611452E+03  0.00000000000E+00 0. -1.
         23    2    1    2    0    0 -0.24817086346E+03 -0.91343639192E+02 -0.74102502234E+02  0.28877045162E+03  0.89245476077E+02 0.  0.
         24    2    1    2    0    0  0.17611629714E+03  0.18434937429E+03 -0.53543502630E+03  0.59857816660E+03  0.81261997431E+02 0.  0.
        -13    1    4    4    0    0  0.55635822175E+02  0.12033022934E+02 -0.10095453426E+03  0.11589631719E+03  0.00000000000E+00 0.  1.
         14    1    4    4    0    0  0.12048047497E+03  0.17231635136E+03 -0.43448049204E+03  0.48268184941E+03  0.00000000000E+00 0. -1.
        -11    1    3    3    0    0 -0.16212109662E+03 -0.73621648108E+02 -0.89968329600E+02  0.19949360233E+03  0.00000000000E+00 0. -1.
         11    1    3    3    0    0 -0.86049766844E+02 -0.17721991084E+02  0.15865827366E+02  0.89276849294E+02  0.00000000000E+00 0.  1.
         21    1    1    2  502  501  0.72054566322E+02 -0.93005735099E+02 -0.21454229497E+02  0.11959185278E+03  0.00000000000E+00 0.  1.
<scales pt_clust_5="13000.00000" pt_clust_6="13000.00000" pt_clust_7="13000.00000" pt_clust_8="13000.00000" pt_clust_9="117.65172"></scales>
<clustering>
<clus scale="   81.262">  5  6 -1 -1</clus>
<clus scale="   89.245">  7  8 -1 -1</clus>
<clus scale="  117.652">  1  9  2 -1</clus>
<clus scale="  265.132">  2  5  1 -1</clus>
<clus scale="  265.132">  2  5  1 -1</clus>
</clustering>
</event>
<event>
 9    2  0.2984928E-005  0.9716587E+02  0.7546771E-02  0.1292224E+00
          2   -1    0    0  502    0  0.00000000000E+00  0.00000000000E+00  0.17048326846E+03  0.17048326846E+03  0.00000000000E+00 0. -1.
         -1   -1    0    0    0  501 -0.00000000000E+00 -0.00000000000E+00 -0.34627781468E+03  0.34627781468E+03  0.00000000000E+00 0.  1.
         24    2    1    2    0    0 -0.30503774406E+02  0.82083232024E+01 -0.28410025852E+03  0.29711291598E+03  0.81026360698E+02 0.  0.
         23    2    1    2    0    0  0.20920022920E+02 -0.60622400941E+02  0.12101159757E+03  0.16487113403E+03  0.91793034783E+02 0.  0.
        -11    1    3    3    0    0 -0.12517089571E+02  0.44113031909E+02 -0.17314560566E+03  0.17911459425E+03  0.00000000000E+00 0.  1.
         12    1    3    3    0    0 -0.17986684835E+02 -0.35904708707E+02 -0.11095465286E+03  0.11799832173E+03  0.00000000000E+00 0. -1.
        -11    1    4    4    0    0  0.16555169804E+02 -0.83547194965E+02  0.10985502977E+03  0.13900480207E+03  0.00000000000E+00 0. -1.
         11    1    4    4    0    0  0.43648531162E+01  0.22924794024E+02  0.11156567802E+02  0.25866331957E+02  0.00000000000E+00 0.  1.
         21    1    1    2  502  501  0.95837514861E+01  0.52414077739E+02 -0.12705885268E+02  0.54777033127E+02  0.00000000000E+00 0.  1.
<scales pt_clust_5="13000.00000" pt_clust_6="13000.00000" pt_clust_7="13000.00000" pt_clust_8="13000.00000" pt_clust_9="53.28305"></scales>
<clustering>
<clus scale="   53.283">  1  9  2 -1</clus>
<clus scale="   81.026">  5  6 -1 -1</clus>
<clus scale="   87.066">  2  5  1 -1</clus>
<clus scale="   91.793">  7  8 -1 -1</clus>
<clus scale="   53.283">  1  5  2 -1</clus>
</clustering>
</event>
<event>
 9    2  0.2984928E-005  0.9753797E+02  0.7546771E-02  0.1287963E+00
         -1   -1    0    0    0  501 -0.00000000000E+00  0.00000000000E+00  0.12357091314E+03  0.12357091314E+03  0.00000000000E+00 0.  1.
          2   -1    0    0  502    0  0.00000000000E+00 -0.00000000000E+00 -0.50670052293E+03  0.50670052293E+03  0.00000000000E+00 0. -1.
         23    2    1    2    0    0 -0.23878226455E+02 -0.26396605634E+02  0.88278211043E+02  0.13115496447E+03  0.90230990642E+02 0.  0.
         24    2    1    2    0    0  0.68106915612E+02  0.24117406743E+02 -0.39734845559E+03  0.41282532912E+03  0.85549727843E+02 0.  0.
        -13    1    4    4    0    0 -0.66708703057E+01  0.24976633360E+02 -0.39230731713E+02  0.46982795100E+02  0.00000000000E+00 0.  1.
         14    1    4    4    0    0  0.74777785918E+02 -0.85922661699E+00 -0.35811772388E+03  0.36584253402E+03  0.00000000000E+00 0. -1.
        -11    1    3    3    0    0  0.20463845329E+02  0.20721911446E+02  0.13003665350E+02  0.31894543297E+02  0.00000000000E+00 0. -1.
         11    1    3    3    0    0 -0.44342071783E+02 -0.47118517080E+02  0.75274545693E+02  0.99260421171E+02  0.00000000000E+00 0.  1.
         21    1    1    2  502  501 -0.44228689158E+02  0.22791988907E+01 -0.74059365236E+02  0.86291142485E+02  0.00000000000E+00 0. -1.
<scales pt_clust_5="13000.00000" pt_clust_6="13000.00000" pt_clust_7="13000.00000" pt_clust_8="13000.00000" pt_clust_9="44.28738"></scales>
<clustering>
<clus scale="   44.287">  2  9  1 -1</clus>
<clus scale="   85.550">  5  6 -1 -1</clus>
<clus scale="   90.231">  7  8 -1 -1</clus>
<clus scale="   93.224">  2  5  1 -1</clus>
<clus scale="   44.287">  2  5  1 -1</clus>
</clustering>
</event>
<event>
 9    2  0.2984928E-005  0.1008479E+03  0.7546771E-02  0.1282931E+00
         -1   -1    0    0    0  501 -0.00000000000E+00  0.00000000000E+00  0.16730563218E+03  0.16730563218E+03  0.00000000000E+00 0.  1.
          2   -1    0    0  502    0  0.00000000000E+00 -0.00000000000E+00 -0.27787018505E+03  0.27787018505E+03  0.00000000000E+00 0. -1.
         23    2    1    2    0    0 -0.21632724215E+02 -0.36756323896E+02  0.11654619942E+03  0.15273245296E+03  0.89023499629E+02 0.  0.
         24    2    1    2    0    0  0.51635724694E+02  0.53072214424E+02 -0.64933688412E+02  0.12670927492E+03  0.79724202425E+02 0.  0.
        -11    1    4    4    0    0  0.65996266493E+02  0.58389495530E+02 -0.38503163460E+02  0.96163059309E+02  0.00000000000E+00 0.  1.
         12    1    4    4    0    0 -0.14360541799E+02 -0.53172811058E+01 -0.26430524953E+02  0.30546215615E+02  0.00000000000E+00 0. -1.
        -13    1    3    3    0    0  0.27489616790E+02  0.11252751804E+02  0.29670820079E+02  0.41984056719E+02  0.00000000000E+00 0.  1.
         13    1    3    3    0    0 -0.49122341005E+02 -0.48009075700E+02  0.86875379338E+02  0.11074839624E+03  0.00000000000E+00 0. -1.
         21    1    1    2  502  501 -0.30003000479E+02 -0.16315890528E+02 -0.16217706388E+03  0.16573408934E+03  0.00000000000E+00 0. -1.
<scales pt_clust_5="13000.00000" pt_clust_6="13000.00000" pt_clust_7="13000.00000" pt_clust_8="13000.00000" pt_clust_9="34.15243"></scales>
<clustering>
<clus scale="   34.152">  2  9  1 -1</clus>
<clus scale="   79.724">  5  6 -1 -1</clus>
<clus scale="   89.023">  7  8 -1 -1</clus>
<clus scale="   92.742">  2  5  1 -1</clus>
<clus scale="   34.152">  2  5  1 -1</clus>
</clustering>
</event>
<event>
 9    2  0.2984928E-005  0.1592538E+03  0.7546771E-02  0.1191400E+00
         -1   -1    0    0    0  501 -0.00000000000E+00  0.00000000000E+00  0.20275737529E+03  0.20275737529E+03  0.00000000000E+00 0.  1.
          2   -1    0    0  502    0  0.00000000000E+00 -0.00000000000E+00 -0.25543155161E+03  0.25543155161E+03  0.00000000000E+00 0. -1.
         23    2    1    2    0    0 -0.11184085635E+03  0.15444951664E+02  0.31518925844E+02  0.14874425844E+03  0.91566850182E+02 0.  0.
         24    2    1    2    0    0  0.12192100113E+03  0.98837711599E+02 -0.83023905240E+02  0.19471235627E+03  0.79914386016E+02 0.  0.
        -13    1    4    4    0    0  0.42247228166E+02  0.71384690726E+02 -0.71779597491E+02  0.10969463512E+03  0.00000000000E+00 0.  1.
         14    1    4    4    0    0  0.79673772959E+02  0.27453020874E+02 -0.11244307749E+02  0.85017721149E+02  0.00000000000E+00 0. -1.
        -13    1    3    3    0    0 -0.66315964861E+02  0.41846624684E+02 -0.13402707822E+02  0.79552371240E+02  0.00000000000E+00 0.  1.
         13    1    3    3    0    0 -0.45524891485E+02 -0.26401673020E+02  0.44921633666E+02  0.69191887199E+02  0.00000000000E+00 0. -1.
         21    1    1    2  502  501 -0.10080144779E+02 -0.11428266326E+03 -0.11691969225E+01  0.11473231220E+03  0.00000000000E+00 0. -1.
<scales pt_clust_5="13000.00000" pt_clust_6="13000.00000" pt_clust_7="13000.00000" pt_clust_8="13000.00000" pt_clust_9="114.72635"></scales>
<clustering>
<clus scale="   79.914">  5  6 -1 -1</clus>
<clus scale="   91.567">  7  8 -1 -1</clus>
<clus scale="  114.726">  1  9  2 -1</clus>
<clus scale="  152.852">  2  5  1 -1</clus>
<clus scale="  152.852">  2  5  1 -1</clus>
</clustering>
</event>
<event>
 9    2  0.2984928E-005  0.1034585E+03  0.7546771E-02  0.1277295E+00
         -1   -1    0    0    0  501 -0.00000000000E+00  0.00000000000E+00  0.24233092887E+03  0.24233092887E+03  0.00000000000E+00 0.  1.
          2   -1    0    0  502    0  0.00000000000E+00 -0.00000000000E+00 -0.13578490901E+03  0.13578490901E+03  0.00000000000E+00 0. -1.
         23    2    1    2    0    0  0.29882733024E+02  0.30439283423E+02  0.16419880610E+03  0.19216243858E+03  0.90253128290E+02 0.  0.
         24    2    1    2    0    0 -0.64048046605E+02 -0.66732013471E+02 -0.22822537060E+02  0.12514569284E+03  0.81149629345E+02 0.  0.
        -13    1    4    4    0    0 -0.29802384002E+02 -0.68423973450E+02  0.12778177674E+02  0.75718584638E+02  0.00000000000E+00 0.  1.
         14    1    4    4    0    0 -0.34245662604E+02  0.16919599793E+01 -0.35600714734E+02  0.49427108203E+02  0.00000000000E+00 0. -1.
        -11    1    3    3    0    0  0.59929339814E+02  0.16354871515E+02  0.13217985742E+03  0.14604972544E+03  0.00000000000E+00 0.  1.
         11    1    3    3    0    0 -0.30046606790E+02  0.14084411907E+02  0.32018948680E+02  0.46112713138E+02  0.00000000000E+00 0. -1.
         21    1    1    2  502  501  0.34165313581E+02  0.36292730048E+02 -0.34830249181E+02  0.60807706456E+02  0.00000000000E+00 0.  1.
<scales pt_clust_5="13000.00000" pt_clust_6="13000.00000" pt_clust_7="13000.00000" pt_clust_8="13000.00000" pt_clust_9="49.84407"></scales>
<clustering>
<clus scale="   49.844">  2  9  1 -1</clus>
<clus scale="   81.150">  5  6 -1 -1</clus>
<clus scale="   90.253">  7  8 -1 -1</clus>
<clus scale="   95.621">  2  5  1 -1</clus>
<clus scale="   49.844">  2  5  1 -1</clus>
</clustering>
</event>
<event>
 9    2  0.2984928E-005  0.1309452E+03  0.7546771E-02  0.1229138E+00
         -1   -1    0    0    0  501 -0.00000000000E+00  0.00000000000E+00  0.79635280852E+02  0.79635280852E+02  0.00000000000E+00 0.  1.
          2   -1    0    0  502    0  0.00000000000E+00 -0.00000000000E+00 -0.30730834378E+03  0.30730834378E+03  0.00000000000E+00 0. -1.
         23    2    1    2    0    0  0.74005697542E+02 -0.44900214762E+01 -0.22818726269E+02  0.12019747769E+03  0.91813592752E+02 0.  0.
         24    2    1    2    0    0 -0.10084232147E+03 -0.55415813906E+01 -0.19975000658E+03  0.23764474447E+03  0.79844076317E+02 0.  0.
        -13    1    4    4    0    0 -0.87160344834E+01 -0.29825252851E+02 -0.70784364546E+02  0.77304212233E+02  0.00000000000E+00 0.  1.
         14    1    4    4    0    0 -0.92126286987E+02  0.24283671461E+02 -0.12896564203E+03  0.16034053224E+03  0.00000000000E+00 0. -1.
        -11    1    3    3    0    0  0.42637222794E+02 -0.30346269954E+02  0.24525461632E+02  0.57795563290E+02  0.00000000000E+00 0.  1.
         11    1    3    3    0    0  0.31368474748E+02  0.25856248478E+02 -0.47344187901E+02  0.62401914405E+02  0.00000000000E+00 0. -1.
         21    1    1    2  502  501  0.26836623929E+02  0.10031602867E+02 -0.51043300807E+01  0.29101402467E+02  0.00000000000E+00 0. -1.
<scales pt_clust_5="13000.00000" pt_clust_6="13000.00000" pt_clust_7="13000.00000" pt_clust_8="13000.00000" pt_clust_9="28.65026"></scales>
<clustering>
<clus scale="   28.650">  1  9  2 -1</clus>
<clus scale="   79.844">  5  6 -1 -1</clus>
<clus scale="   91.814">  7  8 -1 -1</clus>
<clus scale="  122.849">  2  5  1 -1</clus>
<clus scale="  122.849">  2  5  1 -1</clus>
</clustering>
</event>
<event>
 9    2  0.2984928E-005  0.1084887E+03  0.7546771E-02  0.1271712E+00
          4   -1    0    0  502    0  0.00000000000E+00  0.00000000000E+00  0.17256265803E+03  0.17256265803E+03  0.00000000000E+00 0. -1.
         -3   -1    0    0    0  501 -0.00000000000E+00 -0.00000000000E+00 -0.30421616600E+03  0.30421616600E+03  0.00000000000E+00 0.  1.
         24    2    1    2    0    0  0.45780028221E+02  0.17456356503E+02 -0.20831196412E+03  0.22768240845E+03  0.77748757915E+02 0.  0.
         23    2    1    2    0    0 -0.21504270426E+02 -0.97459527416E+02  0.88613623221E+02  0.16464083085E+03  0.96402467973E+02 0.  0.
        -11    1    3    3    0    0  0.59842374746E+02  0.21452788480E+02 -0.20198494907E+03  0.21175280778E+03  0.00000000000E+00 0.  1.
         12    1    3    3    0    0 -0.14062346525E+02 -0.39964319778E+01 -0.63270150471E+01  0.15929600678E+02  0.00000000000E+00 0. -1.
        -13    1    4    4    0    0  0.33534297791E+02 -0.58868832430E+02  0.25363966950E+02  0.72342376098E+02  0.00000000000E+00 0.  1.
         13    1    4    4    0    0 -0.55038568217E+02 -0.38590694985E+02  0.63249656271E+02  0.92298454750E+02  0.00000000000E+00 0. -1.
         21    1    1    2  502  501 -0.24275757795E+02  0.80003170913E+02 -0.11955167065E+02  0.84455584731E+02  0.00000000000E+00 0. -1.
<scales pt_clust_5="13000.00000" pt_clust_6="13000.00000" pt_clust_7="13000.00000" pt_clust_8="13000.00000" pt_clust_9="83.60514"></scales>
<clustering>
<clus scale="   77.749">  5  6 -1 -1</clus>
<clus scale="   83.605">  1  9  2 -1</clus>
<clus scale="   92.310">  2  5  1 -1</clus>
<clus scale="   96.402">  7  8 -1 -1</clus>
<clus scale="   83.605">  1  5  2 -1</clus>
</clustering>
</event>
<event>
 9    2  0.2984928E-005  0.1069732E+03  0.7546771E-02  0.1281164E+00
          2   -1    0    0  502    0  0.00000000000E+00  0.00000000000E+00  0.13623489221E+03  0.13623489221E+03  0.00000000000E+00 0. -1.
         -1   -1    0    0    0  501 -0.00000000000E+00 -0.00000000000E+00 -0.12230337629E+03  0.12230337629E+03  0.00000000000E+00 0.  1.
         23    2    1    2    0    0 -0.45802548666E+01 -0.19861886729E+01 -0.64035763219E+02  0.12475528487E+03  0.10695035508E+03 0.  0.
         24    2    1    2    0    0 -0.18404850310E+02 -0.76128191364E+01  0.51675230372E+02  0.97565200157E+02  0.80324002126E+02 0.  0.
        -11    1    4    4    0    0  0.54703591660E+01  0.21687523562E+02  0.55244984126E+02  0.59601021625E+02  0.00000000000E+00 0.  1.
         12    1    4    4    0    0 -0.23875209476E+02 -0.29300342698E+02 -0.35697537542E+01  0.37964178532E+02  0.00000000000E+00 0. -1.
        -13    1    3    3    0    0  0.40328537392E+02  0.31394887388E+02 -0.30134333563E+02  0.59330497567E+02  0.00000000000E+00 0.  1.
         13    1    3    3    0    0 -0.44908792259E+02 -0.33381076061E+02 -0.33901429656E+02  0.65424787305E+02  0.00000000000E+00 0. -1.
         21    1    1    2  502  501  0.22985105176E+02  0.95990078093E+01  0.26292048768E+02  0.36217783468E+02  0.00000000000E+00 0.  1.
<scales pt_clust_5="13000.00000" pt_clust_6="13000.00000" pt_clust_7="13000.00000" pt_clust_8="13000.00000" pt_clust_9="24.90895"></scales>
<clustering>
<clus scale="   24.909">  1  9  2 -1</clus>
<clus scale="   80.324">  5  6 -1 -1</clus>
<clus scale="   80.354">  1  5  2 -1</clus>
<clus scale="  106.950">  7  8 -1 -1</clus>
<clus scale="   24.909">  1  5  2 -1</clus>
</clustering>
</event>
<event>
 9    2  0.2984928E-005  0.1168277E+03  0.7546771E-02  0.1252545E+00
         -3   -1    0    0    0  501 -0.00000000000E+00  0.00000000000E+00  0.16554675013E+03  0.16554675013E+03  0.00000000000E+00 0.  1.
          4   -1    0    0  502    0  0.00000000000E+00 -0.00000000000E+00 -0.51475116886E+03  0.51475116886E+03  0.00000000000E+00 0. -1.
         23    2    1    2    0    0 -0.70480801309E+02 -0.92424417123E+01  0.12335621396E+03  0.16926028569E+03  0.91538640506E+02 0.  0.
         24    2    1    2    0    0  0.91812602906E+02  0.57487593531E+02 -0.39519716956E+03  0.41740139106E+03  0.79427583153E+02 0.  0.
        -11    1    4    4    0    0  0.10095047524E+02  0.42117431585E+02 -0.75228558797E+02  0.86805092515E+02  0.00000000000E+00 0.  1.
         12    1    4    4    0    0  0.81717555381E+02  0.15370161945E+02 -0.31996861077E+03  0.33059629855E+03  0.00000000000E+00 0. -1.
        -13    1    3    3    0    0 -0.28875479956E+02 -0.13863074891E+02  0.12330678353E+03  0.12739914071E+03  0.00000000000E+00 0.  1.
         13    1    3    3    0    0 -0.41605321353E+02  0.46206331786E+01  0.49430434388E-01  0.41861144983E+02  0.00000000000E+00 0. -1.
         21    1    1    2  502  501 -0.21331801596E+02 -0.48245151818E+02 -0.77363463129E+02  0.93636242239E+02  0.00000000000E+00 0. -1.
<scales pt_clust_5="13000.00000" pt_clust_6="13000.00000" pt_clust_7="13000.00000" pt_clust_8="13000.00000" pt_clust_9="52.75074"></scales>
<clustering>
<clus scale="   52.751">  2  9  1 -1</clus>
<clus scale="   79.428">  5  6 -1 -1</clus>
<clus scale="   91.539">  7  8 -1 -1</clus>
<clus scale="  107.602">  2  5  1 -1</clus>
<clus scale="   52.751">  2  5  1 -1</clus>
</clustering>
</event>
<event>
 9    2  0.2984928E-005  0.1234286E+03  0.7546771E-02  0.1240867E+00
         -1   -1    0    0    0  501 -0.00000000000E+00  0.00000000000E+00  0.65139680429E+02  0.65139680429E+02  0.00000000000E+00 0.  1.
          2   -1    0    0  502    0  0.00000000000E+00 -0.00000000000E+00 -0.58877253697E+03  0.58877253697E+03  0.00000000000E+00 0. -1.
         24    2    1    2    0    0  0.99287230545E+02  0.10354050005E+02 -0.28215478510E+02  0.13075043454E+03  0.79588959053E+02 0.  0.
         23    2    1    2    0    0 -0.34360852458E+02  0.27125689375E+01 -0.23181868863E+03  0.25137061274E+03  0.90880439809E+02 0.  0.
        -13    1    3    3    0    0  0.11003826422E+03  0.22224999375E+01 -0.13649019947E+02  0.11090380897E+03  0.00000000000E+00 0.  1.
         14    1    3    3    0    0 -0.10751033671E+02  0.81315500679E+01 -0.14566458563E+02  0.19846625571E+02  0.00000000000E+00 0. -1.
        -11    1    4    4    0    0 -0.59645131488E+02  0.22757000138E+02 -0.17090957805E+03  0.18244316001E+03  0.00000000000E+00 0. -1.
         11    1    4    4    0    0  0.25284279030E+02 -0.20044431200E+02 -0.60909110572E+02  0.68927452723E+02  0.00000000000E+00 0.  1.
         21    1    1    2  502  501 -0.64926378087E+02 -0.13066618943E+02 -0.26359868940E+03  0.27179117013E+03  0.00000000000E+00 0. -1.
<scales pt_clust_5="13000.00000" pt_clust_6="13000.00000" pt_clust_7="13000.00000" pt_clust_8="13000.00000" pt_clust_9="66.22817"></scales>
<clustering>
<clus scale="   66.228">  2  9  1 -1</clus>
<clus scale="   79.589">  5  6 -1 -1</clus>
<clus scale="   90.880">  7  8 -1 -1</clus>
<clus scale="  115.368">  1  5  2 -1</clus>
<clus scale="   66.228">  2  5  1 -1</clus>
</clustering>
</event>
<event>
 9    2  0.2984928E-005  0.1880703E+03  0.7546771E-02  0.1161245E+00
         -1   -1    0    0    0  501 -0.00000000000E+00  0.00000000000E+00  0.56310907182E+02  0.56310907182E+02  0.00000000000E+00 0.  1.
          2   -1    0    0  502    0  0.00000000000E+00 -0.00000000000E+00 -0.84008089826E+03  0.84008089826E+03  0.00000000000E+00 0. -1.
         23    2    1    2    0    0  0.10507597839E+03 -0.13069342232E+03 -0.21061718982E+03  0.28391213701E+03  0.90137500611E+02 0.  0.
         24    2    1    2    0    0 -0.79302338194E+02  0.14098876403E+03 -0.42583045601E+03  0.46256586654E+03  0.80429541823E+02 0.  0.
        -11    1    4    4    0    0 -0.14454947944E+02  0.36101432201E+02 -0.21359575774E+03  0.21710690143E+03  0.00000000000E+00 0.  1.
         12    1    4    4    0    0 -0.64847390250E+02  0.10488733183E+03 -0.21223469827E+03  0.24545896511E+03  0.00000000000E+00 0. -1.
        -13    1    3    3    0    0  0.43322650477E+02 -0.11962642573E+03 -0.13205183488E+03  0.18337126512E+03  0.00000000000E+00 0.  1.
         13    1    3    3    0    0  0.61753327915E+02 -0.11066996598E+02 -0.78565354945E+02  0.10054087189E+03  0.00000000000E+00 0. -1.
         21    1    1    2  502  501 -0.25773640199E+02 -0.10295341709E+02 -0.14732234525E+03  0.14991380190E+03  0.00000000000E+00 0. -1.
<scales pt_clust_5="13000.00000" pt_clust_6="13000.00000" pt_clust_7="13000.00000" pt_clust_8="13000.00000" pt_clust_9="27.75382"></scales>
<clustering>
<clus scale="   27.754">  2  9  1 -1</clus>
<clus scale="   80.430">  5  6 -1 -1</clus>
<clus scale="   90.138">  7  8 -1 -1</clus>
<clus scale="  183.615">  2  5  1 -1</clus>
<clus scale="   27.754">  2  5  1 -1</clus>
</clustering>
</event>
<event>
 9    2  0.2984928E-005  0.1128428E+03  0.7546771E-02  0.1258995E+00
         -1   -1    0    0    0  501 -0.00000000000E+00  0.00000000000E+00  0.13896900720E+03  0.13896900720E+03  0.00000000000E+00 0.  1.
          2   -1    0    0  502    0  0.00000000000E+00 -0.00000000000E+00 -0.54715286673E+03  0.54715286673E+03  0.00000000000E+00 0. -1.
         23    2    1    2    0    0 -0.58294334401E+02 -0.28581216690E+02  0.10297140530E+03  0.15204501689E+03  0.91101380246E+02 0.  0.
         24    2    1    2    0    0  0.80904384476E+02  0.47953672296E+02 -0.39113880505E+03  0.41042226949E+03  0.81312977866E+02 0.  0.
        -13    1    4    4    0    0  0.25014332030E+02  0.17305193771E+02 -0.26767912690E+02  0.40517992154E+02  0.00000000000E+00 0.  1.
         14    1    4    4    0    0  0.55890052446E+02  0.30648478525E+02 -0.36437089236E+03  0.36990427734E+03  0.00000000000E+00 0. -1.
        -13    1    3    3    0    0 -0.59939873331E+02  0.15987324307E+01  0.10588107502E+03  0.12168050957E+03  0.00000000000E+00 0.  1.
         13    1    3    3    0    0  0.16455389301E+01 -0.30179949121E+02 -0.29096697263E+01  0.30364507328E+02  0.00000000000E+00 0. -1.
         21    1    1    2  502  501 -0.22610050075E+02 -0.19372455605E+02 -0.12001645978E+03  0.12365458754E+03  0.00000000000E+00 0.  1.
<scales pt_clust_5="13000.00000" pt_clust_6="13000.00000" pt_clust_7="13000.00000" pt_clust_8="13000.00000" pt_clust_9="29.77426"></scales>
<clustering>
<clus scale="   29.774">  2  9  1 -1</clus>
<clus scale="   81.313">  5  6 -1 -1</clus>
<clus scale="   91.101">  7  8 -1 -1</clus>
<clus scale="  105.099">  2  5  1 -1</clus>
<clus scale="   29.774">  2  5  1 -1</clus>
</clustering>
</event>
<event>
 9    2  0.2984928E-005  0.1440102E+03  0.7546771E-02  0.1210320E+00
         -1   -1    0    0    0  501 -0.00000000000E+00  0.00000000000E+00  0.50908394746E+03  0.50908394746E+03  0.00000000000E+00 0.  1.
          2   -1    0    0  502    0  0.00000000000E+00 -0.00000000000E+00 -0.60087292376E+02  0.60087292376E+02  0.00000000000E+00 0. -1.
         23    2    1    2    0    0 -0.72026061872E+02 -0.74695507074E+02  0.29491881140E+03  0.32564451795E+03  0.91104744027E+02 0.  0.
         24    2    1    2    0    0  0.77729155730E+02  0.10082443530E+03  0.15615737182E+03  0.21670190862E+03  0.79794761896E+02 0.  0.
        -11    1    4    4    0    0  0.64406586577E+02  0.10574864417E+03  0.15968681733E+03  0.20206648354E+03  0.00000000000E+00 0.  1.
         12    1    4    4    0    0  0.13322569153E+02 -0.49242088749E+01 -0.35294455175E+01  0.14635425089E+02  0.00000000000E+00 0. -1.
        -11    1    3    3    0    0 -0.22123442460E+02  0.18146014325E+02  0.35267896718E+02  0.45415295674E+02  0.00000000000E+00 0.  1.
         11    1    3    3    0    0 -0.49902619412E+02 -0.92841521399E+02  0.25965091468E+03  0.28022922227E+03  0.00000000000E+00 0. -1.
         21    1    1    2  502  501 -0.57030938576E+01 -0.26128928222E+02 -0.20795281306E+01  0.26824813268E+02  0.00000000000E+00 0. -1.
<scales pt_clust_5="13000.00000" pt_clust_6="13000.00000" pt_clust_7="13000.00000" pt_clust_8="13000.00000" pt_clust_9="26.74409"></scales>
<clustering>
<clus scale="   26.744">  2  9  1 -1</clus>
<clus scale="   79.795">  5  6 -1 -1</clus>
<clus scale="   91.105">  7  8 -1 -1</clus>
<clus scale="  137.135">  2  5  1 -1</clus>
<clus scale="   26.744">  2  5  1 -1</clus>
</clustering>
</event>
<event>
 9    2  0.2984928E-005  0.1193427E+03  0.7546771E-02  0.1250697E+00
          2   -1    0    0  502    0  0.00000000000E+00  0.00000000000E+00  0.55813183176E+02  0.55813183176E+02  0.00000000000E+00 0. -1.
         -1   -1    0    0    0  501 -0.00000000000E+00 -0.00000000000E+00 -0.31163764804E+03  0.31163764804E+03  0.00000000000E+00 0.  1.
         24    2    1    2    0    0 -0.54096310824E+02 -0.33273334378E+02 -0.11849626853E+03  0.15366052355E+03  0.74408771109E+02 0.  0.
         23    2    1    2    0    0  0.76692335835E+02  0.44135341907E+02 -0.13774129665E+03  0.18871573478E+03  0.93868636764E+02 0.  0.
        -11    1    3    3    0    0 -0.28926193090E+02  0.93636798266E+00 -0.10527185620E+03  0.10917767693E+03  0.00000000000E+00 0.  1.
         12    1    3    3    0    0 -0.25170117735E+02 -0.34209702360E+02 -0.13224412328E+02  0.44482846624E+02  0.00000000000E+00 0. -1.
        -13    1    4    4    0    0 -0.22107495140E+02  0.46305409218E+01 -0.23347596330E+02  0.32485281359E+02  0.00000000000E+00 0.  1.
         13    1    4    4    0    0  0.98799830975E+02  0.39504800985E+02 -0.11439370032E+03  0.15623045342E+03  0.00000000000E+00 0. -1.
         21    1    1    2  502  501 -0.22596025010E+02 -0.10862007529E+02  0.41310031225E+00  0.25074572892E+02  0.00000000000E+00 0. -1.
<scales pt_clust_5="13000.00000" pt_clust_6="13000.00000" pt_clust_7="13000.00000" pt_clust_8="13000.00000" pt_clust_9="25.07117"></scales>
<clustering>
<clus scale="   25.071">  1  9  2 -1</clus>
<clus scale="   74.409">  5  6 -1 -1</clus>
<clus scale="   93.869">  7  8 -1 -1</clus>
<clus scale="  104.728">  2  5  1 -1</clus>
<clus scale="   25.071">  1  5  2 -1</clus>
</clustering>
</event>
<event>
 9    2  0.2984928E-005  0.9652557E+02  0.7546771E-02  0.1291906E+00
         -1   -1    0    0    0  501 -0.00000000000E+00  0.00000000000E+00  0.14392297875E+03  0.14392297875E+03  0.00000000000E+00 0.  1.
          2   -1    0    0  502    0  0.00000000000E+00 -0.00000000000E+00 -0.86932819307E+02  0.86932819307E+02  0.00000000000E+00 0. -1.
         23    2    1    2    0    0 -0.19618667551E+02  0.24772093533E+02  0.64297686143E+02  0.11604678714E+03  0.91291377619E+02 0.  0.
         24    2    1    2    0    0  0.33393656530E+02 -0.99025990361E+01  0.55799610776E+01  0.90789445371E+02  0.83656378483E+02 0.  0.
        -13    1    4    4    0    0  0.50057005785E+02  0.10377126059E+02 -0.19281460828E+02  0.54636648003E+02  0.00000000000E+00 0.  1.
         14    1    4    4    0    0 -0.16663349255E+02 -0.20279725095E+02  0.24861421905E+02  0.36152797367E+02  0.00000000000E+00 0. -1.
        -13    1    3    3    0    0  0.37942699969E+01  0.51484248871E+02  0.12290074717E+02  0.53066659054E+02  0.00000000000E+00 0.  1.
         13    1    3    3    0    0 -0.23412937548E+02 -0.26712155338E+02  0.52007611426E+02  0.62980128085E+02  0.00000000000E+00 0. -1.
         21    1    1    2  502  501 -0.13774988979E+02 -0.14869494497E+02 -0.12887487776E+02  0.24019565549E+02  0.00000000000E+00 0. -1.
<scales pt_clust_5="13000.00000" pt_clust_6="13000.00000" pt_clust_7="13000.00000" pt_clust_8="13000.00000" pt_clust_9="20.26949"></scales>
<clustering>
<clus scale="   20.269">  2  9  1 -1</clus>
<clus scale="   83.656">  5  6 -1 -1</clus>
<clus scale="   89.339">  2  5  1 -1</clus>
<clus scale="   91.291">  7  8 -1 -1</clus>
<clus scale="   20.269">  2  5  1 -1</clus>
</clustering>
</event>
<event>
 9    2  0.2984928E-005  0.1375291E+03  0.7546771E-02  0.1220018E+00
          2   -1    0    0  502    0  0.00000000000E+00  0.00000000000E+00  0.10515269755E+04  0.10515269755E+04  0.00000000000E+00 0. -1.
         -1   -1    0    0    0  501 -0.00000000000E+00 -0.00000000000E+00 -0.30468248381E+02  0.30468248381E+02  0.00000000000E+00 0.  1.
         23    2    1    2    0    0  0.75053053385E+01  0.11113008341E+03  0.21025762809E+03  0.25522787548E+03  0.92340528508E+02 0.  0.
         24    2    1    2    0    0 -0.33608237885E+02 -0.78038636319E+02  0.49890371622E+03  0.51203510607E+03  0.77817025007E+02 0.  0.
        -13    1    4    4    0    0 -0.39254595177E+02 -0.22773542786E+02  0.10718284649E+03  0.11639467374E+03  0.00000000000E+00 0.  1.
         14    1    4    4    0    0  0.56463572924E+01 -0.55265093533E+02  0.39172086973E+03  0.39564043233E+03  0.00000000000E+00 0. -1.
        -13    1    3    3    0    0 -0.17320638735E+02  0.81527054900E+02  0.67253458206E+02  0.10709665190E+03  0.00000000000E+00 0.  1.
         13    1    3    3    0    0  0.24825944074E+02  0.29603028510E+02  0.14300416988E+03  0.14813122358E+03  0.00000000000E+00 0. -1.
         21    1    1    2  502  501  0.26102932546E+02 -0.33091447090E+02  0.31189738278E+03  0.31473224230E+03  0.00000000000E+00 0.  1.
<scales pt_clust_5="13000.00000" pt_clust_6="13000.00000" pt_clust_7="13000.00000" pt_clust_8="13000.00000" pt_clust_9="42.14744"></scales>
<clustering>
<clus scale="   42.147">  1  9  2 -1</clus>
<clus scale="   77.817">  5  6 -1 -1</clus>
<clus scale="   92.341">  7  8 -1 -1</clus>
<clus scale="  128.230">  1  5  2 -1</clus>
<clus scale="   42.147">  1  5  2 -1</clus>
</clustering>
</event>
<event>
 9    2  0.2984928E-005  0.2697300E+03  0.7546771E-02  0.1101902E+00
         -1   -1    0    0    0  501 -0.00000000000E+00  0.00000000000E+00  0.12665765473E+03  0.12665765473E+03  0.00000000000E+00 0.  1.
          2   -1    0    0  502    0  0.00000000000E+00 -0.00000000000E+00 -0.73531917163E+03  0.73531917163E+03  0.00000000000E+00 0. -1.
         23    2    1    2    0    0  0.18521062076E+03 -0.18466332701E+03 -0.12508560465E+03  0.30396821178E+03  0.91360532492E+02 0.  0.
         24    2    1    2    0    0 -0.15877912898E+03  0.17608034082E+03 -0.43470689173E+03  0.50179053407E+03  0.81293051011E+02 0.  0.
        -11    1    4    4    0    0 -0.80837096027E+02  0.48243391276E+02 -0.22699030539E+03  0.24573697247E+03  0.00000000000E+00 0.  1.
         12    1    4    4    0    0 -0.77942032958E+02  0.12783694954E+03 -0.20771658634E+03  0.25605356160E+03  0.00000000000E+00 0. -1.
        -13    1    3    3    0    0  0.18045414308E+03 -0.13775440803E+03 -0.86150287350E+02  0.24282060599E+03  0.00000000000E+00 0.  1.
         13    1    3    3    0    0  0.47564776803E+01 -0.46908918981E+02 -0.38935317298E+02  0.61147605783E+02  0.00000000000E+00 0. -1.
         21    1    1    2  502  501 -0.26431491772E+02  0.85829861893E+01 -0.48869020521E+02  0.56218080507E+02  0.00000000000E+00 0.  1.
<scales pt_clust_5="13000.00000" pt_clust_6="13000.00000" pt_clust_7="13000.00000" pt_clust_8="13000.00000" pt_clust_9="27.79013"></scales>
<clustering>
<clus scale="   27.790">  2  9  1 -1</clus>
<clus scale="   81.293">  5  6 -1 -1</clus>
<clus scale="   91.361">  7  8 -1 -1</clus>
<clus scale="  266.488">  2  5  1 -1</clus>
<clus scale="   27.790">  2  5  1 -1</clus>
</clustering>
</event>
<event>
 9    2  0.2984928E-005  0.1092275E+03  0.7546771E-02  0.1270164E+00
          2   -1    0    0  502    0  0.00000000000E+00  0.00000000000E+00  0.72442859071E+02  0.72442859071E+02  0.00000000000E+00 0. -1.
         -1   -1    0    0    0  501 -0.00000000000E+00 -0.00000000000E+00 -0.24127546226E+03  0.24127546226E+03  0.00000000000E+00 0.  1.
         24    2    1    2    0    0  0.49758038882E+02 -0.10883143274E+01 -0.15520812183E+03  0.18164467886E+03  0.80175940386E+02 0.  0.
         23    2    1    2    0    0 -0.38931518220E+02 -0.19703534590E+02 -0.14744975623E+02  0.10860515214E+03  0.98355337316E+02 0.  0.
        -13    1    3    3    0    0  0.70926948936E+02  0.70951564286E+01 -0.12447293209E+03  0.14343808474E+03  0.00000000000E+00 0.  1.
         14    1    3    3    0    0 -0.21168910054E+02 -0.81834707560E+01 -0.30735189733E+02  0.38206594122E+02  0.00000000000E+00 0. -1.
        -11    1    4    4    0    0  0.93174835411E+01  0.26009328363E+02 -0.29610328489E+02  0.40497805060E+02  0.00000000000E+00 0.  1.
         11    1    4    4    0    0 -0.48249001761E+02 -0.45712862953E+02  0.14865352865E+02  0.68107347078E+02  0.00000000000E+00 0. -1.
         21    1    1    2  502  501 -0.10826520663E+02  0.20791848917E+02  0.11204942599E+01  0.23468490331E+02  0.00000000000E+00 0.  1.
<scales pt_clust_5="13000.00000" pt_clust_6="13000.00000" pt_clust_7="13000.00000" pt_clust_8="13000.00000" pt_clust_9="23.44173"></scales>
<clustering>
<clus scale="   23.442">  1  9  2 -1</clus>
<clus scale="   80.176">  5  6 -1 -1</clus>
<clus scale="   93.194">  2  5  1 -1</clus>
<clus scale="   98.355">  7  8 -1 -1</clus>
<clus scale="   23.442">  1  5  2 -1</clus>
</clustering>
</event>
<event>
 9    2  0.2984928E-005  0.1644115E+03  0.7546771E-02  0.1185492E+00
          2   -1    0    0  502    0  0.00000000000E+00  0.00000000000E+00  0.11833226746E+04  0.11833226746E+04  0.00000000000E+00 0. -1.
         -1   -1    0    0    0  501 -0.00000000000E+00 -0.00000000000E+00 -0.52115979331E+02  0.52115979331E+02  0.00000000000E+00 0.  1.
         24    2    1    2    0    0 -0.14796116613E+03 -0.46200749187E+02  0.13845175722E+03  0.22229519280E+03  0.78862207430E+02 0.  0.
         23    2    1    2    0    0  0.76146818609E+02  0.49940215230E+01  0.63515705399E+03  0.64608550712E+03  0.90436281654E+02 0.  0.
        -11    1    3    3    0    0 -0.41814310766E+02 -0.47256500334E+02  0.27780688641E+02  0.68944761005E+02  0.00000000000E+00 0.  1.
         12    1    3    3    0    0 -0.10614685536E+03  0.10557511477E+01  0.11067106858E+03  0.15335043180E+03  0.00000000000E+00 0. -1.
        -13    1    4    4    0    0  0.20226184169E+02  0.44789773451E+02  0.23483456332E+03  0.23992185074E+03  0.00000000000E+00 0.  1.
         13    1    4    4    0    0  0.55920634441E+02 -0.39795751928E+02  0.40032249067E+03  0.40616365638E+03  0.00000000000E+00 0. -1.
         21    1    1    2  502  501  0.71814347518E+02  0.41206727664E+02  0.35759788405E+03  0.36705795400E+03  0.00000000000E+00 0. -1.
<scales pt_clust_5="13000.00000" pt_clust_6="13000.00000" pt_clust_7="13000.00000" pt_clust_8="13000.00000" pt_clust_9="82.79671"></scales>
<clustering>
<clus scale="   78.862">  5  6 -1 -1</clus>
<clus scale="   82.797">  1  9  2 -1</clus>
<clus scale="   90.436">  7  8 -1 -1</clus>
<clus scale="  158.340">  2  5  1 -1</clus>
<clus scale="   82.797">  1  5  2 -1</clus>
</clustering>
</event>
<event>
 9    2  0.2984928E-005  0.1357491E+03  0.7546771E-02  0.1238495E+00
          2   -1    0    0  502    0  0.00000000000E+00  0.00000000000E+00  0.53616376434E+03  0.53616376434E+03  0.00000000000E+00 0. -1.
         -1   -1    0    0    0  501 -0.00000000000E+00 -0.00000000000E+00 -0.87372403067E+02  0.87372403067E+02  0.00000000000E+00 0.  1.
         24    2    1    2    0    0  0.26158977190E+02  0.10815666021E+03  0.73047245336E+01  0.13675243339E+03  0.79156261931E+02 0.  0.
         23    2    1    2    0    0  0.36763976920E+01 -0.63655783007E+01  0.13809398182E+03  0.16538261857E+03  0.90705160943E+02 0.  0.
        -13    1    3    3    0    0  0.73608809654E+01  0.89653570427E+02  0.36792853682E+02  0.97188781970E+02  0.00000000000E+00 0.  1.
         14    1    3    3    0    0  0.18798096225E+02  0.18503089785E+02 -0.29488129149E+02  0.39563651423E+02  0.00000000000E+00 0. -1.
        -13    1    4    4    0    0 -0.30080920155E+02  0.25247941281E+01  0.87769637277E+01  0.31436784744E+02  0.00000000000E+00 0. -1.
         13    1    4    4    0    0  0.33757317847E+02 -0.88903724288E+01  0.12931701809E+03  0.13394583382E+03  0.00000000000E+00 0.  1.
         21    1    1    2  502  501 -0.29835374882E+02 -0.10179108191E+03  0.30339265492E+03  0.32140111544E+03  0.00000000000E+00 0. -1.
<scales pt_clust_5="13000.00000" pt_clust_6="13000.00000" pt_clust_7="13000.00000" pt_clust_8="13000.00000" pt_clust_9="110.28189"></scales>
<clustering>
<clus scale="   79.156">  5  6 -1 -1</clus>
<clus scale="   90.705">  7  8 -1 -1</clus>
<clus scale="   91.003">  1  7  2 -1</clus>
<clus scale="  110.282">  1  9  2 -1</clus>
<clus scale="   91.003">  1  5  2 -1</clus>
</clustering>
</event>
<event>
 9    2  0.2984928E-005  0.1173515E+03  0.7546771E-02  0.1251217E+00
         -1   -1    0    0    0  501 -0.00000000000E+00  0.00000000000E+00  0.44186826136E+03  0.44186826136E+03  0.00000000000E+00 0.  1.
          2   -1    0    0  502    0  0.00000000000E+00 -0.00000000000E+00 -0.85519734409E+02  0.85519734409E+02  0.00000000000E+00 0. -1.
         23    2    1    2    0    0  0.39387809988E+02 -0.56072747363E+02  0.31285849032E+03  0.33268162227E+03  0.90005967903E+02 0.  0.
         24    2    1    2    0    0 -0.56559884677E+02  0.82189801627E+02  0.77185240811E+02  0.14874609220E+03  0.78826737210E+02 0.  0.
        -13    1    4    4    0    0 -0.61070478767E+02  0.19287660611E+02  0.36905233760E+02  0.73916260103E+02  0.00000000000E+00 0.  1.
         14    1    4    4    0    0  0.45105940898E+01  0.62902141016E+02  0.40280007052E+02  0.74829832096E+02  0.00000000000E+00 0. -1.
        -13    1    3    3    0    0  0.53914985628E+02 -0.42027566532E+02  0.30220172083E+03  0.30983708961E+03  0.00000000000E+00 0.  1.
         13    1    3    3    0    0 -0.14527175640E+02 -0.14045180831E+02  0.10656769493E+02  0.22844532665E+02  0.00000000000E+00 0. -1.
         21    1    1    2  502  501  0.17172074690E+02 -0.26117054264E+02 -0.33695204180E+02  0.45960281301E+02  0.00000000000E+00 0. -1.
<scales pt_clust_5="13000.00000" pt_clust_6="13000.00000" pt_clust_7="13000.00000" pt_clust_8="13000.00000" pt_clust_9="31.25669"></scales>
<clustering>
<clus scale="   31.257">  2  9  1 -1</clus>
<clus scale="   78.827">  5  6 -1 -1</clus>
<clus scale="   90.006">  7  8 -1 -1</clus>
<clus scale="  109.014">  2  5  1 -1</clus>
<clus scale="   31.257">  2  5  1 -1</clus>
</clustering>
</event>
<event>
 9    2  0.2984928E-005  0.1347819E+03  0.7546771E-02  0.1223397E+00
          2   -1    0    0  502    0  0.00000000000E+00  0.00000000000E+00  0.69346227691E+02  0.69346227691E+02  0.00000000000E+00 0. -1.
         -1   -1    0    0    0  501 -0.00000000000E+00 -0.00000000000E+00 -0.77483226745E+03  0.77483226745E+03  0.00000000000E+00 0.  1.
         24    2    1    2    0    0  0.56088779246E+02  0.84305149409E+02 -0.46399308780E+03  0.48160142019E+03  0.79981454296E+02 0.  0.
         23    2    1    2    0    0 -0.20704857410E+02 -0.96054616530E+02 -0.27896029502E+03  0.30971996854E+03  0.91937110228E+02 0.  0.
        -13    1    3    3    0    0  0.65130713687E+02  0.36689142773E+02 -0.20714940881E+03  0.22022484109E+03  0.00000000000E+00 0.  1.
         14    1    3    3    0    0 -0.90419344407E+01  0.47616006636E+02 -0.25684367899E+03  0.26137657910E+03  0.00000000000E+00 0. -1.
        -11    1    4    4    0    0 -0.28777854767E+02 -0.49816485682E+02 -0.24531100789E+03  0.25196693784E+03  0.00000000000E+00 0.  1.
         11    1    4    4    0    0  0.80729973569E+01 -0.46238130848E+02 -0.33649287122E+02  0.57753030695E+02  0.00000000000E+00 0. -1.
         21    1    1    2  502  501 -0.35383921836E+02  0.11749467121E+02  0.37467343060E+02  0.52857106411E+02  0.00000000000E+00 0. -1.
<scales pt_clust_5="13000.00000" pt_clust_6="13000.00000" pt_clust_7="13000.00000" pt_clust_8="13000.00000" pt_clust_9="37.28367"></scales>
<clustering>
<clus scale="   37.284">  1  9  2 -1</clus>
<clus scale="   79.981">  5  6 -1 -1</clus>
<clus scale="   91.937">  7  8 -1 -1</clus>
<clus scale="  126.928">  2  5  1 -1</clus>
<clus scale="   37.284">  1  5  2 -1</clus>
</clustering>
</event>
<event>
 9    2  0.2984928E-005  0.9904245E+02  0.7546771E-02  0.1287385E+00
         -1   -1    0    0    0  501 -0.00000000000E+00  0.00000000000E+00  0.28070664352E+03  0.28070664352E+03  0.00000000000E+00 0.  1.
          2   -1    0    0  502    0  0.00000000000E+00 -0.00000000000E+00 -0.28446531812E+03  0.28446531812E+03  0.00000000000E+00 0. -1.
         23    2    1    2    0    0  0.44967936535E+02  0.65863441466E+00  0.23819330746E+03  0.25887871865E+03  0.90882287246E+02 0.  0.
         24    2    1    2    0    0  0.32510402641E+02  0.45160760979E+02 -0.11232647540E+03  0.14847980245E+03  0.79577597649E+02 0.  0.
        -13    1    4    4    0    0  0.19458750015E+02 -0.21219333268E+02 -0.25912656971E+02  0.38734594973E+02  0.00000000000E+00 0.  1.
         14    1    4    4    0    0  0.13051652626E+02  0.66380094246E+02 -0.86413818431E+02  0.10974520748E+03  0.00000000000E+00 0. -1.
        -11    1    3    3    0    0  0.68438553088E+02  0.19625326156E+02  0.17003510886E+03  0.18433916355E+03  0.00000000000E+00 0.  1.
         11    1    3    3    0    0 -0.23470616554E+02 -0.18966691741E+02  0.68158198606E+02  0.74539555098E+02  0.00000000000E+00 0. -1.
         21    1    1    2  502  501 -0.77478339175E+02 -0.45819395393E+02 -0.12962550667E+03  0.15781344054E+03  0.00000000000E+00 0. -1.
<scales pt_clust_5="13000.00000" pt_clust_6="13000.00000" pt_clust_7="13000.00000" pt_clust_8="13000.00000" pt_clust_9="90.01283"></scales>
<clustering>
<clus scale="   79.578">  5  6 -1 -1</clus>
<clus scale="   90.013">  2  9  1 -1</clus>
<clus scale="   90.013">  2  5  1 -1</clus>
<clus scale="   90.882">  7  8 -1 -1</clus>
<clus scale="   90.013">  2  5  1 -1</clus>
</clustering>
</event>
<event>
 9    2  0.2984928E-005  0.9626405E+02  0.7546771E-02  0.1294829E+00
         -1   -1    0    0    0  501 -0.00000000000E+00  0.00000000000E+00  0.47880534823E+02  0.47880534823E+02  0.00000000000E+00 0.  1.
          2   -1    0    0  502    0  0.00000000000E+00 -0.00000000000E+00 -0.62471663702E+03  0.62471663702E+03  0.00000000000E+00 0. -1.
         23    2    1    2    0    0  0.36741824480E+02  0.62077923292E+02 -0.68786413433E+02  0.13555337991E+03  0.91866848784E+02 0.  0.
         24    2    1    2    0    0  0.13020817288E+02 -0.23459077577E+02 -0.42196413495E+03  0.43037393520E+03  0.80300204941E+02 0.  0.
        -11    1    4    4    0    0 -0.26439161173E+02 -0.33865632129E+02 -0.18517234235E+03  0.19009131136E+03  0.00000000000E+00 0.  1.
         12    1    4    4    0    0  0.39459978462E+02  0.10406554552E+02 -0.23679179259E+03  0.24028262384E+03  0.00000000000E+00 0. -1.
        -13    1    3    3    0    0 -0.28026504345E+02  0.45213561897E+01 -0.73161605222E+01  0.29316442697E+02  0.00000000000E+00 0.  1.
         13    1    3    3    0    0  0.64768328826E+02  0.57556567102E+02 -0.61470252911E+02  0.10623693721E+03  0.00000000000E+00 0. -1.
         21    1    1    2  502  501 -0.49762641769E+02 -0.38618845715E+02 -0.86085553822E+02  0.10666985674E+03  0.00000000000E+00 0.  1.
<scales pt_clust_5="13000.00000" pt_clust_6="13000.00000" pt_clust_7="13000.00000" pt_clust_8="13000.00000" pt_clust_9="62.98997"></scales>
<clustering>
<clus scale="   62.990">  1  9  2 -1</clus>
<clus scale="   80.300">  5  6 -1 -1</clus>
<clus scale="   85.296">  2  5  1 -1</clus>
<clus scale="   91.867">  7  8 -1 -1</clus>
<clus scale="   85.296">  2  5  1 -1</clus>
</clustering>
</event>
<event>
 9    2  0.2984928E-005  0.1028013E+03  0.7546771E-02  0.1280695E+00
         -1   -1    0    0    0  501 -0.00000000000E+00  0.00000000000E+00  0.23299991711E+03  0.23299991711E+03  0.00000000000E+00 0.  1.
          2   -1    0    0  502    0  0.00000000000E+00 -0.00000000000E+00 -0.48483362781E+03  0.48483362781E+03  0.00000000000E+00 0. -1.
         24    2    1    2    0    0  0.47849359353E+02 -0.10505911030E+02  0.21107353206E+03  0.23027701029E+03  0.77945687341E+02 0.  0.
         23    2    1    2    0    0 -0.16594263939E+02 -0.32220053907E+02 -0.26042466190E+03  0.27826825350E+03  0.91097282666E+02 0.  0.
        -13    1    3    3    0    0  0.35145676314E+02 -0.17821708518E+02  0.21195875252E+03  0.21559068771E+03  0.00000000000E+00 0.  1.
         14    1    3    3    0    0  0.12703683040E+02  0.73157974875E+01 -0.88522045996E+00  0.14686322580E+02  0.00000000000E+00 0. -1.
        -11    1    4    4    0    0 -0.37689799589E+02 -0.19009344465E+01 -0.22117740006E+03  0.22437374365E+03  0.00000000000E+00 0.  1.
         11    1    4    4    0    0  0.21095535650E+02 -0.30319119461E+02 -0.39247261845E+02  0.53894509846E+02  0.00000000000E+00 0. -1.
         21    1    1    2  502  501 -0.31255095414E+02  0.42725964937E+02 -0.20248258086E+03  0.20928828114E+03  0.00000000000E+00 0. -1.
<scales pt_clust_5="13000.00000" pt_clust_6="13000.00000" pt_clust_7="13000.00000" pt_clust_8="13000.00000" pt_clust_9="52.93760"></scales>
<clustering>
<clus scale="   52.938">  2  9  1 -1</clus>
<clus scale="   77.946">  5  6 -1 -1</clus>
<clus scale="   91.097">  7  8 -1 -1</clus>
<clus scale="   91.351">  1  5  2 -1</clus>
<clus scale="   52.938">  2  5  1 -1</clus>
</clustering>
</event>
<event>
 9    2  0.2984928E-005  0.1043369E+03  0.7546771E-02  0.1278448E+00
          2   -1    0    0  502    0  0.00000000000E+00  0.00000000000E+00  0.41191361344E+03  0.41191361344E+03  0.00000000000E+00 0. -1.
         -1   -1    0    0    0  501 -0.00000000000E+00 -0.00000000000E+00 -0.15027362390E+03  0.15027362390E+03  0.00000000000E+00 0.  1.
         24    2    1    2    0    0 -0.34498080271E+02 -0.34360760626E+02 -0.12549587874E+03  0.15525474031E+03  0.77356573051E+02 0.  0.
         23    2    1    2    0    0  0.13477037564E+02  0.42643335894E+02  0.31261867548E+03  0.32906531965E+03  0.92484937700E+02 0.  0.
        -13    1    3    3    0    0 -0.18366698333E+02 -0.14998920629E+02 -0.12776933153E+03  0.12995116509E+03  0.00000000000E+00 0.  1.
         14    1    3    3    0    0 -0.16131381938E+02 -0.19361839997E+02  0.22734527923E+01  0.25303575220E+02  0.00000000000E+00 0. -1.
        -11    1    4    4    0    0 -0.30025337764E+02  0.43439869517E+02  0.11257994342E+03  0.12434945449E+03  0.00000000000E+00 0.  1.
         11    1    4    4    0    0  0.43502375328E+02 -0.79653362356E+00  0.20003873206E+03  0.20471586516E+03  0.00000000000E+00 0. -1.
         21    1    1    2  502  501  0.21021042708E+02 -0.82825752678E+01  0.74517192803E+02  0.77867177378E+02  0.00000000000E+00 0. -1.
<scales pt_clust_5="13000.00000" pt_clust_6="13000.00000" pt_clust_7="13000.00000" pt_clust_8="13000.00000" pt_clust_9="22.59392"></scales>
<clustering>
<clus scale="   22.594">  1  9  2 -1</clus>
<clus scale="   77.357">  5  6 -1 -1</clus>
<clus scale="   91.196">  2  5  1 -1</clus>
<clus scale="   92.485">  7  8 -1 -1</clus>
<clus scale="   22.594">  1  5  2 -1</clus>
</clustering>
</event>
<event>
 9    2  0.2984928E-005  0.1258896E+03  0.7546771E-02  0.1236598E+00
         -1   -1    0    0    0  501 -0.00000000000E+00  0.00000000000E+00  0.23062530686E+03  0.23062530686E+03  0.00000000000E+00 0.  1.
          2   -1    0    0  502    0  0.00000000000E+00 -0.00000000000E+00 -0.78094776054E+03  0.78094776054E+03  0.00000000000E+00 0. -1.
         23    2    1    2    0    0 -0.86613657128E+02  0.18726476743E+01  0.20498540018E+03  0.24067556106E+03  0.91653035913E+02 0.  0.
         24    2    1    2    0    0  0.72817321934E+02 -0.30239454432E+02 -0.67802475724E+03  0.68742480652E+03  0.81354202213E+02 0.  0.
        -11    1    4    4    0    0  0.61882573395E+02 -0.94848884934E+01 -0.21824301641E+03  0.22704499601E+03  0.00000000000E+00 0.  1.
         12    1    4    4    0    0  0.10934748539E+02 -0.20754565939E+02 -0.45978174082E+03  0.46037981051E+03  0.00000000000E+00 0. -1.
        -13    1    3    3    0    0 -0.26641930321E+02 -0.18903623780E+02  0.15894316605E+03  0.16226542908E+03  0.00000000000E+00 0.  1.
         13    1    3    3    0    0 -0.59971726807E+02  0.20776271454E+02  0.46042234135E+02  0.78410131972E+02  0.00000000000E+00 0. -1.
         21    1    1    2  502  501  0.13796335194E+02  0.28366806758E+02 -0.77283096621E+02  0.83472699811E+02  0.00000000000E+00 0. -1.
<scales pt_clust_5="13000.00000" pt_clust_6="13000.00000" pt_clust_7="13000.00000" pt_clust_8="13000.00000" pt_clust_9="31.54385"></scales>
<clustering>
<clus scale="   31.544">  2  9  1 -1</clus>
<clus scale="   81.354">  5  6 -1 -1</clus>
<clus scale="   91.653">  7  8 -1 -1</clus>
<clus scale="  118.602">  2  5  1 -1</clus>
<clus scale="   31.544">  2  5  1 -1</clus>
</clustering>
</event>
<event>
 9    2  0.2984928E-005  0.9804506E+02  0.7546771E-02  0.1292359E+00
         -1   -1    0    0    0  501 -0.00000000000E+00  0.00000000000E+00  0.11208931874E+03  0.11208931874E+03  0.00000000000E+00 0.  1.
          2   -1    0    0  502    0  0.00000000000E+00 -0.00000000000E+00 -0.17281323218E+03  0.17281323218E+03  0.00000000000E+00 0. -1.
         24    2    1    2    0    0 -0.44363260378E+02  0.54790154251E+02  0.59083114241E+02  0.12130501576E+03  0.79082441700E+02 0.  0.
         23    2    1    2    0    0  0.24465905829E+02 -0.50731711509E+02 -0.11608701849E+03  0.14295258072E+03  0.61538259423E+02 0.  0.
        -11    1    3    3    0    0 -0.31670602968E+02  0.45577653197E+02  0.78629613612E+02  0.96244302170E+02  0.00000000000E+00 0.  1.
         12    1    3    3    0    0 -0.12692657410E+02  0.92125010544E+01 -0.19546499372E+02  0.25060713587E+02  0.00000000000E+00 0. -1.
        -13    1    4    4    0    0  0.31949919718E+02 -0.21176747485E+02 -0.10276564382E+03  0.10968149139E+03  0.00000000000E+00 0. -1.
         13    1    4    4    0    0 -0.74840138885E+01 -0.29554964025E+02 -0.13321374674E+02  0.33271089336E+02  0.00000000000E+00 0.  1.
         21    1    1    2  502  501  0.19897354548E+02 -0.40584427419E+01 -0.37200091884E+01  0.20644954441E+02  0.00000000000E+00 0.  1.
<scales pt_clust_5="13000.00000" pt_clust_6="13000.00000" pt_clust_7="13000.00000" pt_clust_8="13000.00000" pt_clust_9="20.30704"></scales>
<clustering>
<clus scale="   20.307">  1  9  2 -1</clus>
<clus scale="   61.538">  7  8 -1 -1</clus>
<clus scale="   79.082">  5  6 -1 -1</clus>
<clus scale="   84.533">  2  7  1 -1</clus>
<clus scale="   84.533">  2  5  1 -1</clus>
</clustering>
</event>
<event>
 9    2  0.2984928E-005  0.2522772E+03  0.7546771E-02  0.1131171E+00
         -1   -1    0    0    0  501 -0.00000000000E+00  0.00000000000E+00  0.56095717285E+03  0.56095717285E+03  0.00000000000E+00 0.  1.
          2   -1    0    0  502    0  0.00000000000E+00 -0.00000000000E+00 -0.36994035912E+03  0.36994035912E+03  0.00000000000E+00 0. -1.
         23    2    1    2    0    0 -0.16279936008E+03  0.18123880038E+03  0.40582266989E+03  0.48179552452E+03  0.89909697147E+02 0.  0.
         24    2    1    2    0    0  0.12558501189E+03  0.28338175144E+02 -0.14090157767E+02  0.15653712924E+03  0.87924358990E+02 0.  0.
        -13    1    4    4    0    0  0.88038168368E+02  0.53674511816E+02  0.12736061429E+02  0.10389359734E+03  0.00000000000E+00 0.  1.
         14    1    4    4    0    0  0.37546843518E+02 -0.25336336672E+02 -0.26826219196E+02  0.52643531896E+02  0.00000000000E+00 0. -1.
        -13    1    3    3    0    0 -0.32583193084E+02  0.11743902514E+02  0.11996727284E+03  0.12486685017E+03  0.00000000000E+00 0. -1.
         13    1    3    3    0    0 -0.13021616700E+03  0.16949489786E+03  0.28585539705E+03  0.35692867435E+03  0.00000000000E+00 0.  1.
         21    1    1    2  502  501  0.37214348198E+02 -0.20957697552E+03 -0.20071569839E+03  0.29256487821E+03  0.00000000000E+00 0. -1.
<scales pt_clust_5="13000.00000" pt_clust_6="13000.00000" pt_clust_7="13000.00000" pt_clust_8="13000.00000" pt_clust_9="235.71172"></scales>
<clustering>
<clus scale="   87.924">  5  6 -1 -1</clus>
<clus scale="   89.910">  7  8 -1 -1</clus>
<clus scale="  155.902">  2  5  1 -1</clus>
<clus scale="  235.712">  2  9  1 -1</clus>
<clus scale="  155.902">  2  5  1 -1</clus>
</clustering>
</event>
<event>
 9    2  0.2984928E-005  0.1054652E+03  0.7546771E-02  0.1274399E+00
          4   -1    0    0  502    0  0.00000000000E+00  0.00000000000E+00  0.10945134607E+03  0.10945134607E+03  0.00000000000E+00 0. -1.
         -3   -1    0    0    0  501 -0.00000000000E+00 -0.00000000000E+00 -0.20161107989E+03  0.20161107989E+03  0.00000000000E+00 0.  1.
         24    2    1    2    0    0 -0.29540267917E+01  0.58852849748E+02 -0.13491993407E+03  0.16659407451E+03  0.77960328726E+02 0.  0.
         23    2    1    2    0    0 -0.25863983318E+02 -0.39393997843E+02  0.21867662835E+02  0.10390207550E+03  0.89981186459E+02 0.  0.
        -11    1    3    3    0    0 -0.31681379460E+02  0.50223095021E+02 -0.11814062179E+03  0.13222433814E+03  0.00000000000E+00 0.  1.
         12    1    3    3    0    0  0.28727352668E+02  0.86297547275E+01 -0.16779312275E+02  0.34369736373E+02  0.00000000000E+00 0. -1.
        -11    1    4    4    0    0 -0.50112435672E+02 -0.16167787048E+02  0.39642228729E+02  0.65910240825E+02  0.00000000000E+00 0.  1.
         11    1    4    4    0    0  0.24248452354E+02 -0.23226210794E+02 -0.17774565894E+02  0.37991834677E+02  0.00000000000E+00 0. -1.
         21    1    1    2  502  501  0.28818010110E+02 -0.19458851905E+02  0.20892537412E+02  0.40566275940E+02  0.00000000000E+00 0. -1.
<scales pt_clust_5="13000.00000" pt_clust_6="13000.00000" pt_clust_7="13000.00000" pt_clust_8="13000.00000" pt_clust_9="34.77247"></scales>
<clustering>
<clus scale="   34.772">  1  9  2 -1</clus>
<clus scale="   77.960">  5  6 -1 -1</clus>
<clus scale="   89.981">  7  8 -1 -1</clus>
<clus scale="   95.415">  2  5  1 -1</clus>
<clus scale="   34.772">  1  5  2 -1</clus>
</clustering>
</event>
<event>
 9    2  0.2984928E-005  0.9939059E+02  0.7546771E-02  0.1289147E+00
         -1   -1    0    0    0  501 -0.00000000000E+00  0.00000000000E+00  0.67556415191E+02  0.67556415191E+02  0.00000000000E+00 0.  1.
          2   -1    0    0  502    0  0.00000000000E+00 -0.00000000000E+00 -0.43455643557E+03  0.43455643557E+03  0.00000000000E+00 0. -1.
         24    2    1    2    0    0  0.54148665252E+01 -0.34095734741E+02  0.23082239030E+02  0.90146626621E+02  0.80011153132E+02 0.  0.
         23    2    1    2    0    0  0.22142735433E+02  0.12506871278E+02 -0.28639240262E+03  0.30252634634E+03  0.94100262441E+02 0.  0.
        -13    1    3    3    0    0  0.26432120030E+02 -0.51115387706E+02  0.25605720690E+02  0.62984861369E+02  0.00000000000E+00 0.  1.
         14    1    3    3    0    0 -0.21017253505E+02  0.17019652965E+02 -0.25234816599E+01  0.27161765252E+02  0.00000000000E+00 0. -1.
        -13    1    4    4    0    0 -0.28307300254E+02  0.30775096786E+02 -0.95852262519E+02  0.10457564755E+03  0.00000000000E+00 0.  1.
         13    1    4    4    0    0  0.50450035688E+02 -0.18268225507E+02 -0.19054014010E+03  0.19795069879E+03  0.00000000000E+00 0. -1.
         21    1    1    2  502  501 -0.27557601959E+02  0.21588863462E+02 -0.10368985680E+03  0.10943987780E+03  0.00000000000E+00 0.  1.
<scales pt_clust_5="13000.00000" pt_clust_6="13000.00000" pt_clust_7="13000.00000" pt_clust_8="13000.00000" pt_clust_9="35.00715"></scales>
<clustering>
<clus scale="   35.007">  2  9  1 -1</clus>
<clus scale="   80.011">  5  6 -1 -1</clus>
<clus scale="   86.171">  1  5  2 -1</clus>
<clus scale="   94.100">  7  8 -1 -1</clus>
<clus scale="   35.007">  2  5  1 -1</clus>
</clustering>
</event>
<event>
 9    2  0.2984928E-005  0.1693134E+03  0.7546771E-02  0.1205619E+00
          2   -1    0    0  502    0  0.00000000000E+00  0.00000000000E+00  0.28753300241E+03  0.28753300241E+03  0.00000000000E+00 0. -1.
         -1   -1    0    0    0  501 -0.00000000000E+00 -0.00000000000E+00 -0.23165931982E+03  0.23165931982E+03  0.00000000000E+00 0.  1.
         24    2    1    2    0    0 -0.19710493378E+01 -0.47715394049E+02 -0.10225624057E+03  0.13844098213E+03  0.80180564565E+02 0.  0.
         23    2    1    2    0    0 -0.12163971000E+03  0.88357966785E+02  0.17648300545E+03  0.24934253456E+03  0.91771994547E+02 0.  0.
        -11    1    3    3    0    0  0.37015124964E+02 -0.29198688348E+02 -0.70690678106E+02  0.84969729012E+02  0.00000000000E+00 0.  1.
         12    1    3    3    0    0 -0.38986174301E+02 -0.18516705701E+02 -0.31565562462E+02  0.53471253120E+02  0.00000000000E+00 0. -1.
        -13    1    4    4    0    0 -0.36339182904E+02  0.19125784495E+02  0.11788241949E+03  0.12483027146E+03  0.00000000000E+00 0.  1.
         13    1    4    4    0    0 -0.85300527097E+02  0.69232182290E+02  0.58600585958E+02  0.12451226310E+03  0.00000000000E+00 0. -1.
         21    1    1    2  502  501  0.12361075934E+03 -0.40642572736E+02 -0.18353082293E+02  0.13140880554E+03  0.00000000000E+00 0. -1.
<scales pt_clust_5="13000.00000" pt_clust_6="13000.00000" pt_clust_7="13000.00000" pt_clust_8="13000.00000" pt_clust_9="142.28465"></scales>
<clustering>
<clus scale="   80.181">  5  6 -1 -1</clus>
<clus scale="   91.772">  7  8 -1 -1</clus>
<clus scale="   93.325">  2  5  1 -1</clus>
<clus scale="  142.285">  2  9  1 -1</clus>
<clus scale="  169.313">  1  5  2 -1</clus>
</clustering>
</event>
<event>
 9    2  0.2984928E-005  0.9100631E+02  0.7546771E-02  0.1305575E+00
         -1   -1    0    0    0  501 -0.00000000000E+00  0.00000000000E+00  0.66903169653E+02  0.66903169653E+02  0.00000000000E+00 0.  1.
          2   -1    0    0  502    0  0.00000000000E+00 -0.00000000000E+00 -0.27631990732E+03  0.27631990732E+03  0.00000000000E+00 0. -1.
         23    2    1    2    0    0 -0.42562644143E+01  0.11121276033E+02  0.10793293861E+02  0.90705721119E+02  0.89270566728E+02 0.  0.
         24    2    1    2    0    0  0.11594101458E+01 -0.41773547878E+02 -0.14472344474E+03  0.17098590756E+03  0.80900751499E+02 0.  0.
        -11    1    4    4    0    0  0.17201810800E+02  0.20491721524E+02 -0.41871270654E+02  0.49689196532E+02  0.00000000000E+00 0.  1.
         12    1    4    4    0    0 -0.16042400654E+02 -0.62265269402E+02 -0.10285217409E+03  0.12129671103E+03  0.00000000000E+00 0. -1.
        -11    1    3    3    0    0 -0.12066274152E+02 -0.24449371847E+02  0.36912190727E+02  0.45889830899E+02  0.00000000000E+00 0.  1.
         11    1    3    3    0    0  0.78100097380E+01  0.35570647880E+02 -0.26118896866E+02  0.44815890220E+02  0.00000000000E+00 0. -1.
         21    1    1    2  502  501  0.30968542685E+01  0.30652271845E+02 -0.75486586784E+02  0.81531448288E+02  0.00000000000E+00 0.  1.
<scales pt_clust_5="13000.00000" pt_clust_6="13000.00000" pt_clust_7="13000.00000" pt_clust_8="13000.00000" pt_clust_9="30.80832"></scales>
<clustering>
<clus scale="   30.808">  2  9  1 -1</clus>
<clus scale="   80.901">  5  6 -1 -1</clus>
<clus scale="   82.812">  2  5  1 -1</clus>
<clus scale="   89.271">  7  8 -1 -1</clus>
<clus scale="   30.808">  2  5  1 -1</clus>
</clustering>
</event>
<event>
 9    2  0.2984928E-005  0.1483211E+03  0.7546771E-02  0.1205116E+00
          2   -1    0    0  502    0  0.00000000000E+00  0.00000000000E+00  0.14727269093E+04  0.14727269093E+04  0.00000000000E+00 0. -1.
         -1   -1    0    0    0  501 -0.00000000000E+00 -0.00000000000E+00 -0.26806717528E+02  0.26806717528E+02  0.00000000000E+00 0.  1.
         23    2    1    2    0    0 -0.24123768539E+02  0.11575205799E+03  0.28482109778E+03  0.32290223995E+03  0.95719923126E+02 0.  0.
         24    2    1    2    0    0  0.68163862938E+02 -0.84633575293E+02  0.83495773411E+03  0.84606206510E+03  0.82809697313E+02 0.  0.
        -13    1    4    4    0    0  0.60925232091E+02 -0.68104711078E+02  0.38322009161E+03  0.39396417881E+03  0.00000000000E+00 0.  1.
         14    1    4    4    0    0  0.72386308471E+01 -0.16528864215E+02  0.45173764250E+03  0.45209788629E+03  0.00000000000E+00 0. -1.
        -13    1    3    3    0    0  0.31714577146E+02  0.72919883053E+02  0.12331877999E+03  0.14673324519E+03  0.00000000000E+00 0.  1.
         13    1    3    3    0    0 -0.55838345685E+02  0.42832174941E+02  0.16150231780E+03  0.17616899475E+03  0.00000000000E+00 0. -1.
         21    1    1    2  502  501 -0.44040094399E+02 -0.31118482701E+02  0.32614135989E+03  0.33056932179E+03  0.00000000000E+00 0.  1.
<scales pt_clust_5="13000.00000" pt_clust_6="13000.00000" pt_clust_7="13000.00000" pt_clust_8="13000.00000" pt_clust_9="53.92485"></scales>
<clustering>
<clus scale="   53.925">  1  9  2 -1</clus>
<clus scale="   82.810">  5  6 -1 -1</clus>
<clus scale="   95.720">  7  8 -1 -1</clus>
<clus scale="  140.336">  1  5  2 -1</clus>
<clus scale="   53.925">  1  5  2 -1</clus>
</clustering>
</event>
<event>
 9    2  0.2984928E-005  0.9689068E+02  0.7546771E-02  0.1293199E+00
          2   -1    0    0  502    0  0.00000000000E+00  0.00000000000E+00  0.72259170202E+03  0.72259170202E+03  0.00000000000E+00 0. -1.
         -1   -1    0    0    0  501 -0.00000000000E+00 -0.00000000000E+00 -0.67454117807E+02  0.67454117807E+02  0.00000000000E+00 0.  1.
         24    2    1    2    0    0 -0.22881217818E+02  0.19852823413E+02 -0.52419482295E+01  0.87109333882E+02  0.81503823848E+02 0.  0.
         23    2    1    2    0    0 -0.48042283525E+02 -0.55774328401E+02  0.17620915468E+03  0.21228237940E+03  0.92710871515E+02 0.  0.
        -11    1    3    3    0    0 -0.24411989161E+02  0.44980070800E+02 -0.23195931248E+02  0.56188995457E+02  0.00000000000E+00 0.  1.
         12    1    3    3    0    0  0.15307713437E+01 -0.25127247386E+02  0.17953983018E+02  0.30920338426E+02  0.00000000000E+00 0. -1.
        -13    1    4    4    0    0 -0.30137402591E+02 -0.76520725338E+02  0.16136924442E+03  0.18111796566E+03  0.00000000000E+00 0. -1.
         13    1    4    4    0    0 -0.17904880934E+02  0.20746396937E+02  0.14839910256E+02  0.31164413737E+02  0.00000000000E+00 0.  1.
         21    1    1    2  502  501  0.70923501343E+02  0.35921504988E+02  0.48417037776E+03  0.49065410654E+03  0.00000000000E+00 0. -1.
<scales pt_clust_5="13000.00000" pt_clust_6="13000.00000" pt_clust_7="13000.00000" pt_clust_8="13000.00000" pt_clust_9="79.50156"></scales>
<clustering>
<clus scale="   79.502">  1  9  2 -1</clus>
<clus scale="   81.504">  5  6 -1 -1</clus>
<clus scale="   86.229">  2  5  1 -1</clus>
<clus scale="   92.711">  7  8 -1 -1</clus>
<clus scale="   79.502">  1  5  2 -1</clus>
</clustering>
</event>
<event>
 9    2  0.2984928E-005  0.9178096E+02  0.7546771E-02  0.1304557E+00
         -1   -1    0    0    0  501 -0.00000000000E+00  0.00000000000E+00  0.50707197539E+02  0.50707197539E+02  0.00000000000E+00 0.  1.
          2   -1    0    0  502    0  0.00000000000E+00 -0.00000000000E+00 -0.69365075452E+03  0.69365075452E+03  0.00000000000E+00 0. -1.
         23    2    1    2    0    0 -0.12826419272E+02 -0.11383664031E+02 -0.27511844917E+01  0.91450644436E+02  0.89786115372E+02 0.  0.
         24    2    1    2    0    0  0.45236319651E+01  0.44188383312E+02 -0.39958870232E+03  0.40993567968E+03  0.80019085164E+02 0.  0.
        -13    1    4    4    0    0 -0.32993831497E+02  0.60227984570E+01 -0.96598136523E+02  0.10225491185E+03  0.00000000000E+00 0.  1.
         14    1    4    4    0    0  0.37517463462E+02  0.38165584855E+02 -0.30299056580E+03  0.30768076783E+03  0.00000000000E+00 0. -1.
        -13    1    3    3    0    0 -0.50135554674E+02 -0.17329902670E+02  0.34799453064E+01  0.53160223742E+02  0.00000000000E+00 0.  1.
         13    1    3    3    0    0  0.37309135402E+02  0.59462386384E+01 -0.62311297981E+01  0.38290420694E+02  0.00000000000E+00 0. -1.
         21    1    1    2  502  501  0.83027873069E+01 -0.32804719281E+02 -0.24060367018E+03  0.24297162794E+03  0.00000000000E+00 0.  1.
<scales pt_clust_5="13000.00000" pt_clust_6="13000.00000" pt_clust_7="13000.00000" pt_clust_8="13000.00000" pt_clust_9="33.83912"></scales>
<clustering>
<clus scale="   33.839">  2  9  1 -1</clus>
<clus scale="   80.019">  5  6 -1 -1</clus>
<clus scale="   82.251">  2  5  1 -1</clus>
<clus scale="   89.786">  7  8 -1 -1</clus>
<clus scale="   33.839">  2  5  1 -1</clus>
</clustering>
</event>
<event>
 9    2  0.2984928E-005  0.1000825E+03  0.7546771E-02  0.1292682E+00
         -1   -1    0    0    0  501 -0.00000000000E+00  0.00000000000E+00  0.30275577930E+02  0.30275577930E+02  0.00000000000E+00 0.  1.
          2   -1    0    0  502    0  0.00000000000E+00 -0.00000000000E+00 -0.47723690514E+03  0.47723690514E+03  0.00000000000E+00 0. -1.
         23    2    1    2    0    0  0.16213837146E+02  0.39827605446E+02 -0.11014863742E+03  0.15121123751E+03  0.94249611948E+02 0.  0.
         24    2    1    2    0    0  0.18583835792E+02 -0.21965755760E+02 -0.22920124853E+03  0.24180169968E+03  0.71463251142E+02 0.  0.
        -13    1    4    4    0    0  0.55502309681E+01  0.25181679231E+02 -0.10942076669E+03  0.11241808669E+03  0.00000000000E+00 0.  1.
         14    1    4    4    0    0  0.13033604824E+02 -0.47147434991E+02 -0.11978048184E+03  0.12938361299E+03  0.00000000000E+00 0. -1.
        -11    1    3    3    0    0 -0.14634270088E+02  0.62687122638E+02 -0.78011943434E+02  0.10114198201E+03  0.00000000000E+00 0.  1.
         11    1    3    3    0    0  0.30848107234E+02 -0.22859517192E+02 -0.32136693987E+02  0.50069255502E+02  0.00000000000E+00 0. -1.
         21    1    1    2  502  501 -0.34797672938E+02 -0.17861849686E+02 -0.10761144126E+03  0.11449954588E+03  0.00000000000E+00 0. -1.
<scales pt_clust_5="13000.00000" pt_clust_6="13000.00000" pt_clust_7="13000.00000" pt_clust_8="13000.00000" pt_clust_9="39.11424"></scales>
<clustering>
<clus scale="   39.114">  2  9  1 -1</clus>
<clus scale="   71.463">  5  6 -1 -1</clus>
<clus scale="   78.997">  2  5  1 -1</clus>
<clus scale="   94.250">  7  8 -1 -1</clus>
<clus scale="   39.114">  2  5  1 -1</clus>
</clustering>
</event>
<event>
 9    2  0.2984928E-005  0.1003478E+03  0.7546771E-02  0.1282322E+00
          2   -1    0    0  502    0  0.00000000000E+00  0.00000000000E+00  0.95609383393E+02  0.95609383393E+02  0.00000000000E+00 0. -1.
         -1   -1    0    0    0  501 -0.00000000000E+00 -0.00000000000E+00 -0.20430614044E+03  0.20430614044E+03  0.00000000000E+00 0.  1.
         24    2    1    2    0    0  0.25552827717E+02 -0.71842197998E+02 -0.11024968002E+03  0.15653706259E+03  0.80836944534E+02 0.  0.
         23    2    1    2    0    0  0.37682091876E+01  0.40302922931E+02 -0.30161400901E+02  0.89897180259E+02  0.74385938973E+02 0.  0.
        -13    1    3    3    0    0  0.49658984869E+02 -0.68711514258E+02 -0.97092221297E+02  0.12889602944E+03  0.00000000000E+00 0.  1.
         14    1    3    3    0    0 -0.24106157152E+02 -0.31306837395E+01 -0.13157458727E+02  0.27641033148E+02  0.00000000000E+00 0. -1.
        -11    1    4    4    0    0  0.22021459051E+02  0.55417648639E+02 -0.14125894377E+02  0.61282961183E+02  0.00000000000E+00 0. -1.
         11    1    4    4    0    0 -0.18253249864E+02 -0.15114725708E+02 -0.16035506524E+02  0.28614219075E+02  0.00000000000E+00 0.  1.
         21    1    1    2  502  501 -0.29321036905E+02  0.31539275066E+02  0.31714323876E+02  0.53481280985E+02  0.00000000000E+00 0. -1.
<scales pt_clust_5="13000.00000" pt_clust_6="13000.00000" pt_clust_7="13000.00000" pt_clust_8="13000.00000" pt_clust_9="43.06331"></scales>
<clustering>
<clus scale="   43.063">  1  9  2 -1</clus>
<clus scale="   74.386">  7  8 -1 -1</clus>
<clus scale="   80.837">  5  6 -1 -1</clus>
<clus scale="   95.228">  1  7  2 -1</clus>
<clus scale="   43.063">  1  5  2 -1</clus>
</clustering>
</event>
<event>
 9    2  0.2984928E-005  0.1003368E+03  0.7546771E-02  0.1283503E+00
         -1   -1    0    0    0  501 -0.00000000000E+00  0.00000000000E+00  0.71475716019E+02  0.71475716019E+02  0.00000000000E+00 0.  1.
          2   -1    0    0  502    0  0.00000000000E+00 -0.00000000000E+00 -0.36776974024E+03  0.36776974024E+03  0.00000000000E+00 0. -1.
         24    2    1    2    0    0  0.36474675137E+02 -0.21631850139E+02  0.12693517740E+02  0.92758043504E+02  0.81514356867E+02 0.  0.
         23    2    1    2    0    0 -0.38605464398E+02  0.42568720380E+02 -0.13846060356E+03  0.17466678093E+03  0.89636308423E+02 0.  0.
        -11    1    3    3    0    0 -0.65672529384E+00 -0.39572950576E+02  0.28310473316E+02  0.48661407756E+02  0.00000000000E+00 0.  1.
         12    1    3    3    0    0  0.37131400431E+02  0.17941100437E+02 -0.15616955577E+02  0.44096635748E+02  0.00000000000E+00 0. -1.
        -13    1    4    4    0    0  0.18291598298E+02 -0.15663322116E+02 -0.22332466947E+02  0.32842979583E+02  0.00000000000E+00 0.  1.
         13    1    4    4    0    0 -0.56897062695E+02  0.58232042495E+02 -0.11612813661E+03  0.14182380135E+03  0.00000000000E+00 0. -1.
         21    1    1    2  502  501  0.21307892610E+01 -0.20936870241E+02 -0.17052693840E+03  0.17182063182E+03  0.00000000000E+00 0. -1.
<scales pt_clust_5="13000.00000" pt_clust_6="13000.00000" pt_clust_7="13000.00000" pt_clust_8="13000.00000" pt_clust_9="21.04502"></scales>
<clustering>
<clus scale="   21.045">  2  9  1 -1</clus>
<clus scale="   81.514">  5  6 -1 -1</clus>
<clus scale="   89.636">  7  8 -1 -1</clus>
<clus scale="   93.153">  1  5  2 -1</clus>
<clus scale="   21.045">  2  5  1 -1</clus>
</clustering>
</event>
<event>
 9    2  0.2984928E-005  0.9720131E+02  0.7546771E-02  0.1291673E+00
          2   -1    0    0  502    0  0.00000000000E+00  0.00000000000E+00  0.17198967051E+03  0.17198967051E+03  0.00000000000E+00 0. -1.
         -1   -1    0    0    0  501 -0.00000000000E+00 -0.00000000000E+00 -0.68918931600E+02  0.68918931600E+02  0.00000000000E+00 0.  1.
         24    2    1    2    0    0 -0.72056018513E+01 -0.38703044870E+02  0.16083702726E+02  0.92642964238E+02  0.82305449086E+02 0.  0.
         23    2    1    2    0    0 -0.62700849672E+01  0.18149446511E+02  0.59531846046E+02  0.11141686576E+03  0.92200655680E+02 0.  0.
        -13    1    3    3    0    0 -0.29461057844E+02  0.73585026396E+01 -0.13846646411E+02  0.33374108336E+02  0.00000000000E+00 0.  1.
         14    1    3    3    0    0  0.22255455993E+02 -0.46061547510E+02  0.29930349138E+02  0.59268855902E+02  0.00000000000E+00 0. -1.
        -11    1    4    4    0    0 -0.10405600416E+02 -0.26401843548E+02 -0.88248662842E+01  0.29718885034E+02  0.00000000000E+00 0.  1.
         11    1    4    4    0    0  0.41355154489E+01  0.44551290059E+02  0.68356712331E+02  0.81697980726E+02  0.00000000000E+00 0. -1.
         21    1    1    2  502  501  0.13475686819E+02  0.20553598359E+02  0.27455190137E+02  0.36848772112E+02  0.00000000000E+00 0. -1.
<scales pt_clust_5="13000.00000" pt_clust_6="13000.00000" pt_clust_7="13000.00000" pt_clust_8="13000.00000" pt_clust_9="24.57732"></scales>
<clustering>
<clus scale="   24.577">  1  9  2 -1</clus>
<clus scale="   82.305">  5  6 -1 -1</clus>
<clus scale="   87.871">  2  5  1 -1</clus>
<clus scale="   92.201">  7  8 -1 -1</clus>
<clus scale="   24.577">  1  5  2 -1</clus>
</clustering>
</event>
<event>
 9    2  0.2984928E-005  0.1152306E+03  0.7546771E-02  0.1258883E+00
          2   -1    0    0  502    0  0.00000000000E+00  0.00000000000E+00  0.91705762105E+02  0.91705762105E+02  0.00000000000E+00 0. -1.
         -1   -1    0    0    0  501 -0.00000000000E+00 -0.00000000000E+00 -0.24609816168E+03  0.24609816168E+03  0.00000000000E+00 0.  1.
         24    2    1    2    0    0 -0.54983825584E+02  0.14324368573E+02 -0.15699877823E+03  0.18552208957E+03  0.80879050082E+02 0.  0.
         23    2    1    2    0    0  0.47613249111E+02 -0.39667230914E+02 -0.17522225326E+02  0.11908926325E+03  0.10017341735E+03 0.  0.
        -13    1    3    3    0    0 -0.60412043251E+02  0.45942055936E+01 -0.51732775396E+02  0.79668072306E+02  0.00000000000E+00 0.  1.
         14    1    3    3    0    0  0.54282176669E+01  0.97301629798E+01 -0.10526600283E+03  0.10585401726E+03  0.00000000000E+00 0. -1.
        -11    1    4    4    0    0 -0.20266179781E+02 -0.11782421098E+02 -0.36419000262E+02  0.43311511979E+02  0.00000000000E+00 0.  1.
         11    1    4    4    0    0  0.67879428892E+02 -0.27884809816E+02  0.18896774937E+02  0.75777751274E+02  0.00000000000E+00 0. -1.
         21    1    1    2  502  501  0.73705764726E+01  0.25342862340E+02  0.20128603977E+02  0.33192570964E+02  0.00000000000E+00 0. -1.
<scales pt_clust_5="13000.00000" pt_clust_6="13000.00000" pt_clust_7="13000.00000" pt_clust_8="13000.00000" pt_clust_9="26.39292"></scales>
<clustering>
<clus scale="   26.393">  1  9  2 -1</clus>
<clus scale="   80.879">  5  6 -1 -1</clus>
<clus scale="   98.918">  2  5  1 -1</clus>
<clus scale="  100.173">  7  8 -1 -1</clus>
<clus scale="   26.393">  1  5  2 -1</clus>
</clustering>
</event>
<event>
 9    2  0.2984928E-005  0.1116433E+03  0.7546771E-02  0.1259376E+00
         -1   -1    0    0    0  501 -0.00000000000E+00  0.00000000000E+00  0.11938168261E+03  0.11938168261E+03  0.00000000000E+00 0.  1.
          2   -1    0    0  502    0  0.00000000000E+00 -0.00000000000E+00 -0.58340584945E+03  0.58340584945E+03  0.00000000000E+00 0. -1.
         24    2    1    2    0    0 -0.16813487656E+02 -0.83177248847E+02  0.10917054919E+02  0.11793459859E+03  0.81167970066E+02 0.  0.
         23    2    1    2    0    0 -0.47564864113E+02  0.54107066240E+02 -0.81252869770E+01  0.11272290407E+03  0.86315942320E+02 0.  0.
        -11    1    3    3    0    0 -0.27093956361E+02 -0.51590747934E+02  0.42480289855E+02  0.72112847467E+02  0.00000000000E+00 0.  1.
         12    1    3    3    0    0  0.10280468705E+02 -0.31586500913E+02 -0.31563234936E+02  0.45821751127E+02  0.00000000000E+00 0. -1.
        -13    1    4    4    0    0 -0.62041489807E+02  0.12446376841E+02  0.11729505320E+02  0.64355575120E+02  0.00000000000E+00 0. -1.
         13    1    4    4    0    0  0.14476625694E+02  0.41660689400E+02 -0.19854792297E+02  0.48367328952E+02  0.00000000000E+00 0.  1.
         21    1    1    2  502  501  0.64378351768E+02  0.29070182606E+02 -0.46681593478E+03  0.47213002939E+03  0.00000000000E+00 0.  1.
<scales pt_clust_5="13000.00000" pt_clust_6="13000.00000" pt_clust_7="13000.00000" pt_clust_8="13000.00000" pt_clust_9="70.63744"></scales>
<clustering>
<clus scale="   70.637">  2  9  1 -1</clus>
<clus scale="   81.168">  5  6 -1 -1</clus>
<clus scale="   86.316">  7  8 -1 -1</clus>
<clus scale="  107.713">  1  5  2 -1</clus>
<clus scale="   70.637">  2  5  1 -1</clus>
</clustering>
</event>
<event>
 9    2  0.2984928E-005  0.1043355E+03  0.7546771E-02  0.1276572E+00
          2   -1    0    0  502    0  0.00000000000E+00  0.00000000000E+00  0.17119757424E+03  0.17119757424E+03  0.00000000000E+00 0. -1.
         -1   -1    0    0    0  501 -0.00000000000E+00 -0.00000000000E+00 -0.15989433924E+03  0.15989433924E+03  0.00000000000E+00 0.  1.
         23    2    1    2    0    0  0.49109534700E+02 -0.41126532322E+01 -0.11434537559E+03  0.15460204704E+03  0.91642063014E+02 0.  0.
         24    2    1    2    0    0 -0.54126992216E+02 -0.19307910804E+02  0.90416183130E+02  0.13388679562E+03  0.80299820438E+02 0.  0.
        -11    1    4    4    0    0 -0.23262084772E+02 -0.12591664959E+02 -0.10260117182E+02  0.28371545939E+02  0.00000000000E+00 0.  1.
         12    1    4    4    0    0 -0.30864907444E+02 -0.67162458450E+01  0.10067630031E+03  0.10551524968E+03  0.00000000000E+00 0. -1.
        -11    1    3    3    0    0 -0.47372392036E+01  0.33097305697E+02 -0.63338822227E+02  0.71621780771E+02  0.00000000000E+00 0. -1.
         11    1    3    3    0    0  0.53846773904E+02 -0.37209958929E+02 -0.51006553366E+02  0.82980266266E+02  0.00000000000E+00 0.  1.
         21    1    1    2  502  501  0.50174575159E+01  0.23420564037E+02  0.35232427463E+02  0.42603070835E+02  0.00000000000E+00 0.  1.
<scales pt_clust_5="13000.00000" pt_clust_6="13000.00000" pt_clust_7="13000.00000" pt_clust_8="13000.00000" pt_clust_9="23.95199"></scales>
<clustering>
<clus scale="   23.952">  1  9  2 -1</clus>
<clus scale="   80.300">  5  6 -1 -1</clus>
<clus scale="   91.642">  7  8 -1 -1</clus>
<clus scale="   94.529">  1  5  2 -1</clus>
<clus scale="   23.952">  1  5  2 -1</clus>
</clustering>
</event>
<event>
 9    2  0.2984928E-005  0.1432099E+03  0.7546771E-02  0.1211112E+00
         -1   -1    0    0    0  501 -0.00000000000E+00  0.00000000000E+00  0.60966303138E+03  0.60966303138E+03  0.00000000000E+00 0.  1.
          2   -1    0    0  502    0  0.00000000000E+00 -0.00000000000E+00 -0.42842061913E+02  0.42842061913E+02  0.00000000000E+00 0. -1.
         23    2    1    2    0    0 -0.11538027758E+03  0.34852577211E+02  0.39721036086E+03  0.42490918782E+03  0.90798879557E+02 0.  0.
         24    2    1    2    0    0  0.89160880443E+02 -0.26952757002E+02  0.12772053425E+03  0.17754950425E+03  0.80840447041E+02 0.  0.
        -11    1    4    4    0    0  0.90011833798E+02 -0.45549899189E+02  0.88760956657E+02  0.13437049887E+03  0.00000000000E+00 0.  1.
         12    1    4    4    0    0 -0.85095335491E+00  0.18597142187E+02  0.38959577592E+02  0.43179005376E+02  0.00000000000E+00 0. -1.
        -13    1    3    3    0    0 -0.67612400528E+01  0.25471802968E+02  0.22473051468E+02  0.34634739147E+02  0.00000000000E+00 0. -1.
         13    1    3    3    0    0 -0.10861903753E+03  0.93807742429E+01  0.37473730939E+03  0.39027444867E+03  0.00000000000E+00 0.  1.
         21    1    1    2  502  501  0.26219397139E+02 -0.78998202093E+01  0.41890074357E+02  0.50046401223E+02  0.00000000000E+00 0. -1.
<scales pt_clust_5="13000.00000" pt_clust_6="13000.00000" pt_clust_7="13000.00000" pt_clust_8="13000.00000" pt_clust_9="27.38364"></scales>
<clustering>
<clus scale="   27.384">  2  9  1 -1</clus>
<clus scale="   80.840">  5  6 -1 -1</clus>
<clus scale="   90.799">  7  8 -1 -1</clus>
<clus scale="  137.112">  2  5  1 -1</clus>
<clus scale="   27.384">  2  5  1 -1</clus>
</clustering>
</event>
<event>
 9    2  0.2984928E-005  0.1134274E+03  0.7546771E-02  0.1262138E+00
         -1   -1    0    0    0  501 -0.00000000000E+00  0.00000000000E+00  0.33515128613E+02  0.33515128613E+02  0.00000000000E+00 0.  1.
          2   -1    0    0  502    0  0.00000000000E+00 -0.00000000000E+00 -0.85138164595E+03  0.85138164595E+03  0.00000000000E+00 0. -1.
         23    2    1    2    0    0 -0.14846834362E+02  0.48175508249E+02 -0.14844938804E+03  0.18224430831E+03  0.92921789775E+02 0.  0.
         24    2    1    2    0    0 -0.45504751887E+02  0.92044373827E+01 -0.49839277200E+03  0.51243127156E+03  0.10970436992E+03 0.  0.
        -11    1    4    4    0    0 -0.18974333567E+02 -0.14954692692E+02 -0.16619572148E+02  0.29323682344E+02  0.00000000000E+00 0.  1.
         12    1    4    4    0    0 -0.26530418319E+02  0.24159130074E+02 -0.48177319985E+03  0.48310758921E+03  0.00000000000E+00 0. -1.
        -13    1    3    3    0    0 -0.48717187529E+02  0.32629179117E+02 -0.50285592458E+02  0.77244213372E+02  0.00000000000E+00 0. -1.
         13    1    3    3    0    0  0.33870353167E+02  0.15546329133E+02 -0.98163795587E+02  0.10500009494E+03  0.00000000000E+00 0.  1.
         21    1    1    2  502  501  0.60351586248E+02 -0.57379945632E+02 -0.17102435729E+03  0.19022119470E+03  0.00000000000E+00 0.  1.
<scales pt_clust_5="13000.00000" pt_clust_6="13000.00000" pt_clust_7="13000.00000" pt_clust_8="13000.00000" pt_clust_9="83.27528"></scales>
<clustering>
<clus scale="   83.275">  1  9  2 -1</clus>
<clus scale="   92.922">  7  8 -1 -1</clus>
<clus scale="   97.289">  1  7  2 -1</clus>
<clus scale="  109.704">  5  6 -1 -1</clus>
<clus scale="  113.427">  2  5  1 -1</clus>
</clustering>
</event>
<event>
 9    2  0.2984928E-005  0.1207798E+03  0.7546771E-02  0.1243821E+00
         -1   -1    0    0    0  501 -0.00000000000E+00  0.00000000000E+00  0.68774783276E+02  0.68774783276E+02  0.00000000000E+00 0.  1.
          2   -1    0    0  502    0  0.00000000000E+00 -0.00000000000E+00 -0.48532350339E+03  0.48532350339E+03  0.00000000000E+00 0. -1.
         24    2    1    2    0    0  0.28690147120E+02 -0.66585675384E+02 -0.17857344091E+02  0.11292649053E+03  0.84715587812E+02 0.  0.
         23    2    1    2    0    0 -0.67423684019E+02  0.47605349819E+02 -0.36860922352E+03  0.38858400726E+03  0.91173178807E+02 0.  0.
        -13    1    3    3    0    0  0.46138663879E+02 -0.67504237488E+02  0.75255971412E+01  0.82111101537E+02  0.00000000000E+00 0.  1.
         14    1    3    3    0    0 -0.17448516759E+02  0.91856210438E+00 -0.25382941232E+02  0.30815388997E+02  0.00000000000E+00 0. -1.
        -13    1    4    4    0    0  0.22430573022E+02  0.90343509963E+01 -0.54928728156E+02  0.60015958551E+02  0.00000000000E+00 0.  1.
         13    1    4    4    0    0 -0.89854257040E+02  0.38570998823E+02 -0.31368049537E+03  0.32856804871E+03  0.00000000000E+00 0. -1.
         21    1    1    2  502  501  0.38733536899E+02  0.18980325565E+02 -0.30082152496E+02  0.52587788868E+02  0.00000000000E+00 0. -1.
<scales pt_clust_5="13000.00000" pt_clust_6="13000.00000" pt_clust_7="13000.00000" pt_clust_8="13000.00000" pt_clust_9="43.13397"></scales>
<clustering>
<clus scale="   43.134">  1  9  2 -1</clus>
<clus scale="   84.716">  5  6 -1 -1</clus>
<clus scale="   91.173">  7  8 -1 -1</clus>
<clus scale="  115.982">  1  5  2 -1</clus>
<clus scale="  120.780">  2  5  1 -1</clus>
</clustering>
</event>
<event>
 9    2  0.2984928E-005  0.1139629E+03  0.7546771E-02  0.1257546E+00
         -1   -1    0    0    0  501 -0.00000000000E+00  0.00000000000E+00  0.12818299329E+03  0.12818299329E+03  0.00000000000E+00 0.  1.
          2   -1    0    0  502    0  0.00000000000E+00 -0.00000000000E+00 -0.17031344230E+03  0.17031344230E+03  0.00000000000E+00 0. -1.
         23    2    1    2    0    0  0.68733487454E+02 -0.14035066114E+02  0.68364806470E+02  0.13428246396E+03  0.91851826241E+02 0.  0.
         24    2    1    2    0    0 -0.59913326618E+02 -0.50735335782E+01 -0.91600594450E+02  0.13593072509E+03  0.80443431494E+02 0.  0.
        -11    1    4    4    0    0 -0.62119503398E+02 -0.20540022659E+02 -0.29277219204E+02  0.71679012253E+02  0.00000000000E+00 0.  1.
         12    1    4    4    0    0  0.22061767800E+01  0.15466489080E+02 -0.62323375247E+02  0.64251712838E+02  0.00000000000E+00 0. -1.
        -13    1    3    3    0    0  0.41272889375E+02  0.35233307678E+02  0.52928124383E+02  0.75803850285E+02  0.00000000000E+00 0. -1.
         13    1    3    3    0    0  0.27460598079E+02 -0.49268373792E+02  0.15436682087E+02  0.58478613670E+02  0.00000000000E+00 0.  1.
         21    1    1    2  502  501 -0.88201608361E+01  0.19108599692E+02 -0.18894661036E+02  0.28283246543E+02  0.00000000000E+00 0. -1.
<scales pt_clust_5="13000.00000" pt_clust_6="13000.00000" pt_clust_7="13000.00000" pt_clust_8="13000.00000" pt_clust_9="21.04599"></scales>
<clustering>
<clus scale="   21.046">  2  9  1 -1</clus>
<clus scale="   80.443">  5  6 -1 -1</clus>
<clus scale="   91.852">  7  8 -1 -1</clus>
<clus scale="  104.985">  2  5  1 -1</clus>
<clus scale="   21.046">  2  5  1 -1</clus>
</clustering>
</event>
<event>
 9    2  0.2984928E-005  0.1038852E+03  0.7546771E-02  0.1277674E+00
          2   -1    0    0  502    0  0.00000000000E+00  0.00000000000E+00  0.54052380772E+03  0.54052380772E+03  0.00000000000E+00 0. -1.
         -1   -1    0    0    0  501 -0.00000000000E+00 -0.00000000000E+00 -0.57602676144E+02  0.57602676144E+02  0.00000000000E+00 0.  1.
         23    2    1    2    0    0  0.16714608197E+02 -0.63181930317E+02  0.25908715498E+02  0.11512692479E+03  0.91168047179E+02 0.  0.
         24    2    1    2    0    0 -0.23628939320E+02 -0.87845569332E+01  0.22267202430E+03  0.23776007922E+03  0.79445136105E+02 0.  0.
        -13    1    4    4    0    0 -0.45205886606E+02  0.11569009134E+02  0.17889361087E+03  0.18487925294E+03  0.00000000000E+00 0.  1.
         14    1    4    4    0    0  0.21576947286E+02 -0.20353566067E+02  0.43778413422E+02  0.52880826276E+02  0.00000000000E+00 0. -1.
        -13    1    3    3    0    0  0.48195116321E+02 -0.53929047322E+02  0.36010139869E+02  0.80795058980E+02  0.00000000000E+00 0. -1.
         13    1    3    3    0    0 -0.31480508124E+02 -0.92528829955E+01 -0.10101424371E+02  0.34331865807E+02  0.00000000000E+00 0.  1.
         21    1    1    2  502  501  0.69143311231E+01  0.71966487250E+02  0.23434039179E+03  0.24523947986E+03  0.00000000000E+00 0. -1.
<scales pt_clust_5="13000.00000" pt_clust_6="13000.00000" pt_clust_7="13000.00000" pt_clust_8="13000.00000" pt_clust_9="72.29788"></scales>
<clustering>
<clus scale="   72.298">  1  9  2 -1</clus>
<clus scale="   79.445">  5  6 -1 -1</clus>
<clus scale="   91.168">  7  8 -1 -1</clus>
<clus scale="   93.766">  1  5  2 -1</clus>
<clus scale="   72.298">  1  5  2 -1</clus>
</clustering>
</event>
<event>
 9    2  0.2984928E-005  0.1590859E+03  0.7546771E-02  0.1215824E+00
         -1   -1    0    0    0  501 -0.00000000000E+00  0.00000000000E+00  0.10145730277E+03  0.10145730277E+03  0.00000000000E+00 0.  1.
          2   -1    0    0  502    0  0.00000000000E+00 -0.00000000000E+00 -0.82683047132E+03  0.82683047132E+03  0.00000000000E+00 0. -1.
         24    2    1    2    0    0  0.12072509080E+02  0.37555728947E+02  0.46270889798E+02  0.10164502438E+03  0.81452670225E+02 0.  0.
         23    2    1    2    0    0 -0.65709649515E+02  0.97425805386E+02 -0.43484415792E+03  0.45985789400E+03  0.92575889993E+02 0.  0.
        -13    1    3    3    0    0  0.70946812857E+01  0.56500029823E+02  0.55919963059E+02  0.79809962669E+02  0.00000000000E+00 0.  1.
         14    1    3    3    0    0  0.49778277947E+01 -0.18944300876E+02 -0.96490732613E+01  0.21835061714E+02  0.00000000000E+00 0. -1.
        -13    1    4    4    0    0  0.20692960941E+02  0.31217250510E+02 -0.73775036303E+02  0.82737363648E+02  0.00000000000E+00 0.  1.
         13    1    4    4    0    0 -0.86402610456E+02  0.66208554877E+02 -0.36106912161E+03  0.37712053035E+03  0.00000000000E+00 0. -1.
         21    1    1    2  502  501  0.53637140435E+02 -0.13498153433E+03 -0.33679990044E+03  0.36678485571E+03  0.00000000000E+00 0. -1.
<scales pt_clust_5="13000.00000" pt_clust_6="13000.00000" pt_clust_7="13000.00000" pt_clust_8="13000.00000" pt_clust_9="129.37557"></scales>
<clustering>
<clus scale="   81.453">  5  6 -1 -1</clus>
<clus scale="   90.503">  1  5  2 -1</clus>
<clus scale="   92.576">  7  8 -1 -1</clus>
<clus scale="  129.376">  1  9  2 -1</clus>
<clus scale="  159.086">  2  5  1 -1</clus>
</clustering>
</event>
<event>
 9    2  0.2984928E-005  0.8942978E+02  0.7546771E-02  0.1309303E+00
          2   -1    0    0  502    0  0.00000000000E+00  0.00000000000E+00  0.23112539732E+03  0.23112539732E+03  0.00000000000E+00 0. -1.
         -1   -1    0    0    0  501 -0.00000000000E+00 -0.00000000000E+00 -0.54383767359E+02  0.54383767359E+02  0.00000000000E+00 0.  1.
         23    2    1    2    0    0  0.17107793654E+01 -0.30964356249E+02  0.37043824925E+02  0.10096868204E+03  0.88660654539E+02 0.  0.
         24    2    1    2    0    0 -0.12573650814E+02 -0.28309299730E+01  0.11586980885E+03  0.14178657347E+03  0.80693921425E+02 0.  0.
        -11    1    4    4    0    0 -0.10322244954E+02  0.23384466076E+02  0.11237275932E+03  0.11524330363E+03  0.00000000000E+00 0.  1.
         12    1    4    4    0    0 -0.22514058600E+01 -0.26215396049E+02  0.34970495260E+01  0.26543269839E+02  0.00000000000E+00 0. -1.
        -11    1    3    3    0    0  0.31683299660E+02  0.18041539621E+02  0.13300270913E+02  0.38810125426E+02  0.00000000000E+00 0.  1.
         11    1    3    3    0    0 -0.29972520295E+02 -0.49005895870E+02  0.23743554012E+02  0.62158556611E+02  0.00000000000E+00 0. -1.
         21    1    1    2  502  501  0.10862871448E+02  0.33795286222E+02  0.23827996186E+02  0.42753909168E+02  0.00000000000E+00 0.  1.
<scales pt_clust_5="13000.00000" pt_clust_6="13000.00000" pt_clust_7="13000.00000" pt_clust_8="13000.00000" pt_clust_9="35.49822"></scales>
<clustering>
<clus scale="   35.498">  2  9  1 -1</clus>
<clus scale="   80.694">  5  6 -1 -1</clus>
<clus scale="   81.538">  1  5  2 -1</clus>
<clus scale="   88.661">  7  8 -1 -1</clus>
<clus scale="   81.538">  1  5  2 -1</clus>
</clustering>
</event>
<event>
 9    2  0.2984928E-005  0.9648377E+02  0.7546771E-02  0.1294189E+00
         -1   -1    0    0    0  501 -0.00000000000E+00  0.00000000000E+00  0.41798064142E+03  0.41798064142E+03  0.00000000000E+00 0.  1.
          2   -1    0    0  502    0  0.00000000000E+00 -0.00000000000E+00 -0.72616370054E+02  0.72616370054E+02  0.00000000000E+00 0. -1.
         23    2    1    2    0    0  0.34329985959E+02  0.47984738472E+00  0.31510942819E+03  0.33023284154E+03  0.92633685610E+02 0.  0.
         24    2    1    2    0    0 -0.40893771292E+01 -0.22927689172E+02  0.66846798875E+02  0.10785349250E+03  0.81372473158E+02 0.  0.
        -13    1    4    4    0    0  0.36169430679E+02 -0.21036529460E+02  0.47006478278E+02  0.62931488839E+02  0.00000000000E+00 0.  1.
         14    1    4    4    0    0 -0.40258807809E+02 -0.18911597117E+01  0.19840320598E+02  0.44922003658E+02  0.00000000000E+00 0. -1.
        -11    1    3    3    0    0  0.84666129802E+01 -0.42442242834E+02  0.93533748310E+02  0.10306109637E+03  0.00000000000E+00 0. -1.
         11    1    3    3    0    0  0.25863372979E+02  0.42922090218E+02  0.22157567988E+03  0.22717174517E+03  0.00000000000E+00 0.  1.
         21    1    1    2  502  501 -0.30240608830E+02  0.22447841787E+02 -0.36591955696E+02  0.52510677438E+02  0.00000000000E+00 0. -1.
<scales pt_clust_5="13000.00000" pt_clust_6="13000.00000" pt_clust_7="13000.00000" pt_clust_8="13000.00000" pt_clust_9="37.66165"></scales>
<clustering>
<clus scale="   37.662">  2  9  1 -1</clus>
<clus scale="   81.372">  5  6 -1 -1</clus>
<clus scale="   85.730">  2  5  1 -1</clus>
<clus scale="   92.634">  7  8 -1 -1</clus>
<clus scale="   37.662">  2  5  1 -1</clus>
</clustering>
</event>
<event>
 9    2  0.2984928E-005  0.1076670E+03  0.7546771E-02  0.1271307E+00
         -1   -1    0    0    0  501 -0.00000000000E+00  0.00000000000E+00  0.16771690752E+03  0.16771690752E+03  0.00000000000E+00 0.  1.
          2   -1    0    0  502    0  0.00000000000E+00 -0.00000000000E+00 -0.40008526657E+03  0.40008526657E+03  0.00000000000E+00 0. -1.
         23    2    1    2    0    0  0.89608407052E+00 -0.50910994435E+02  0.12135325001E+03  0.16160699908E+03  0.93794874818E+02 0.  0.
         24    2    1    2    0    0 -0.56035863764E+02  0.62489828609E+02 -0.12276722946E+03  0.16846762052E+03  0.79148909193E+02 0.  0.
        -13    1    4    4    0    0 -0.66625422388E+02  0.56537847880E+02 -0.63625100267E+02  0.10809083465E+03  0.00000000000E+00 0.  1.
         14    1    4    4    0    0  0.10589558624E+02  0.59519807298E+01 -0.59142129190E+02  0.60376785866E+02  0.00000000000E+00 0. -1.
        -13    1    3    3    0    0  0.35479190907E+02 -0.51733924404E+02  0.43277697207E+02  0.76211094974E+02  0.00000000000E+00 0.  1.
         13    1    3    3    0    0 -0.34583106836E+02  0.82292996881E+00  0.78075552808E+02  0.85395904108E+02  0.00000000000E+00 0. -1.
         21    1    1    2  502  501  0.55139779694E+02 -0.11578834174E+02 -0.23095437961E+03  0.23772755449E+03  0.00000000000E+00 0. -1.
<scales pt_clust_5="13000.00000" pt_clust_6="13000.00000" pt_clust_7="13000.00000" pt_clust_8="13000.00000" pt_clust_9="56.34239"></scales>
<clustering>
<clus scale="   56.342">  2  9  1 -1</clus>
<clus scale="   79.149">  5  6 -1 -1</clus>
<clus scale="   93.795">  7  8 -1 -1</clus>
<clus scale="   95.180">  2  5  1 -1</clus>
<clus scale="   56.342">  2  5  1 -1</clus>
</clustering>
</event>
<event>
 9    2  0.2984928E-005  0.9892497E+02  0.7546771E-02  0.1290371E+00
         -1   -1    0    0    0  501 -0.00000000000E+00  0.00000000000E+00  0.26356152248E+03  0.26356152248E+03  0.00000000000E+00 0.  1.
          2   -1    0    0  502    0  0.00000000000E+00 -0.00000000000E+00 -0.93427403327E+02  0.93427403327E+02  0.00000000000E+00 0. -1.
         23    2    1    2    0    0 -0.30960451027E+02 -0.94647539011E+01  0.20984914640E+03  0.23235828952E+03  0.94369377289E+02 0.  0.
         24    2    1    2    0    0  0.59029195176E+01  0.20512048721E+02 -0.48299189801E+02  0.95932022122E+02  0.80090901676E+02 0.  0.
        -11    1    4    4    0    0 -0.12243478333E+02  0.42266794987E+02 -0.51370006311E+01  0.44303199610E+02  0.00000000000E+00 0.  1.
         12    1    4    4    0    0  0.18146397850E+02 -0.21754746266E+02 -0.43162189170E+02  0.51628822512E+02  0.00000000000E+00 0. -1.
        -11    1    3    3    0    0 -0.22490789644E+01 -0.49564955677E+02  0.90250137532E+02  0.10298946797E+03  0.00000000000E+00 0.  1.
         11    1    3    3    0    0 -0.28711372063E+02  0.40100201776E+02  0.11959900887E+03  0.12936882155E+03  0.00000000000E+00 0. -1.
         21    1    1    2  502  501  0.25057531510E+02 -0.11047294820E+02  0.85841625539E+01  0.28698614164E+02  0.00000000000E+00 0. -1.
<scales pt_clust_5="13000.00000" pt_clust_6="13000.00000" pt_clust_7="13000.00000" pt_clust_8="13000.00000" pt_clust_9="27.38471"></scales>
<clustering>
<clus scale="   27.385">  2  9  1 -1</clus>
<clus scale="   80.091">  5  6 -1 -1</clus>
<clus scale="   85.411">  2  5  1 -1</clus>
<clus scale="   94.369">  7  8 -1 -1</clus>
<clus scale="   27.385">  2  5  1 -1</clus>
</clustering>
</event>
<event>
 9    2  0.2984928E-005  0.1769802E+03  0.7546771E-02  0.1172352E+00
          2   -1    0    0  502    0  0.00000000000E+00  0.00000000000E+00  0.47552157907E+03  0.47552157907E+03  0.00000000000E+00 0. -1.
         -1   -1    0    0    0  501 -0.00000000000E+00 -0.00000000000E+00 -0.97858346600E+02  0.97858346600E+02  0.00000000000E+00 0.  1.
         24    2    1    2    0    0  0.14313370335E+03 -0.41771050457E+02  0.59080248866E+02  0.17873056071E+03  0.78880034447E+02 0.  0.
         23    2    1    2    0    0 -0.14264612578E+03  0.64345203665E+02  0.18472892395E+03  0.25890423830E+03  0.91751876448E+02 0.  0.
        -13    1    3    3    0    0  0.12191546740E+03 -0.31890233031E+00  0.38821838162E+02  0.12794771591E+03  0.00000000000E+00 0.  1.
         14    1    3    3    0    0  0.21218235954E+02 -0.41452148127E+02  0.20258410704E+02  0.50782844796E+02  0.00000000000E+00 0. -1.
        -11    1    4    4    0    0 -0.12049956857E+03  0.16283206184E+02  0.15870800882E+03  0.19993379128E+03  0.00000000000E+00 0. -1.
         11    1    4    4    0    0 -0.22146557209E+02  0.48061997481E+02  0.26020915123E+02  0.58970447022E+02  0.00000000000E+00 0.  1.
         21    1    1    2  502  501 -0.48757756742E+00 -0.22574153208E+02  0.13385405966E+03  0.13574512666E+03  0.00000000000E+00 0.  1.
<scales pt_clust_5="13000.00000" pt_clust_6="13000.00000" pt_clust_7="13000.00000" pt_clust_8="13000.00000" pt_clust_9="22.57942"></scales>
<clustering>
<clus scale="   22.579">  1  9  2 -1</clus>
<clus scale="   78.880">  5  6 -1 -1</clus>
<clus scale="   91.752">  7  8 -1 -1</clus>
<clus scale="  170.662">  2  5  1 -1</clus>
<clus scale="   22.579">  1  5  2 -1</clus>
</clustering>
</event>
<event>
 9    2  0.2984928E-005  0.2280914E+03  0.7546771E-02  0.1155644E+00
          2   -1    0    0  502    0  0.00000000000E+00  0.00000000000E+00  0.86606218633E+03  0.86606218633E+03  0.00000000000E+00 0. -1.
         -1   -1    0    0    0  501 -0.00000000000E+00 -0.00000000000E+00 -0.16678471072E+03  0.16678471072E+03  0.00000000000E+00 0.  1.
         24    2    1    2    0    0 -0.55627158080E+02  0.71967113564E+02 -0.74521921016E+02  0.13897594503E+03  0.74075302458E+02 0.  0.
         23    2    1    2    0    0  0.77192118026E+02  0.16785128735E+03  0.33313065386E+03  0.39170877327E+03  0.91252686326E+02 0.  0.
        -11    1    3    3    0    0 -0.65455488642E+02  0.34475813586E+02 -0.66330476862E+02  0.99361636845E+02  0.00000000000E+00 0.  1.
         12    1    3    3    0    0  0.98283305621E+01  0.37491299978E+02 -0.81914441544E+01  0.39614308185E+02  0.00000000000E+00 0. -1.
        -13    1    4    4    0    0  0.74235364426E+02  0.56772987943E+02  0.12901674214E+03  0.15930907458E+03  0.00000000000E+00 0. -1.
         13    1    4    4    0    0  0.29567535991E+01  0.11107829941E+03  0.20411391172E+03  0.23239969868E+03  0.00000000000E+00 0.  1.
         21    1    1    2  502  501 -0.21564959946E+02 -0.23981840092E+03  0.44066874277E+03  0.50216217875E+03  0.00000000000E+00 0. -1.
<scales pt_clust_5="13000.00000" pt_clust_6="13000.00000" pt_clust_7="13000.00000" pt_clust_8="13000.00000" pt_clust_9="209.04216"></scales>
<clustering>
<clus scale="   74.075">  5  6 -1 -1</clus>
<clus scale="   91.253">  7  8 -1 -1</clus>
<clus scale="  117.306">  2  5  1 -1</clus>
<clus scale="  209.042">  2  9  1 -1</clus>
<clus scale="  228.091">  1  5  2 -1</clus>
</clustering>
</event>
<event>
 9    2  0.2984928E-005  0.1883613E+03  0.7546771E-02  0.1161333E+00
          2   -1    0    0  502    0  0.00000000000E+00  0.00000000000E+00  0.16355516227E+04  0.16355516227E+04  0.00000000000E+00 0. -1.
         -1   -1    0    0    0  501 -0.00000000000E+00 -0.00000000000E+00 -0.45962188792E+02  0.45962188792E+02  0.00000000000E+00 0.  1.
         23    2    1    2    0    0  0.15170724414E+03 -0.73220685209E+01  0.27149364816E+03  0.32463246929E+03  0.92783287898E+02 0.  0.
         24    2    1    2    0    0 -0.20092947824E+03 -0.72703606349E+02  0.93269715867E+03  0.96019627982E+03  0.79965219810E+02 0.  0.
        -11    1    4    4    0    0 -0.19521080271E+03 -0.65357086625E+02  0.92630174858E+03  0.94890133085E+03  0.00000000000E+00 0.  1.
         12    1    4    4    0    0 -0.57186755335E+01 -0.73465197246E+01  0.63954100883E+01  0.11294948965E+02  0.00000000000E+00 0. -1.
        -11    1    3    3    0    0  0.26652443155E+02  0.23973759577E+02  0.17708618942E+02  0.39983609882E+02  0.00000000000E+00 0.  1.
         11    1    3    3    0    0  0.12505480098E+03 -0.31295828098E+02  0.25378502922E+03  0.28464885941E+03  0.00000000000E+00 0. -1.
         21    1    1    2  502  501  0.49222234105E+02  0.80025674870E+02  0.38539862711E+03  0.39668506242E+03  0.00000000000E+00 0. -1.
<scales pt_clust_5="13000.00000" pt_clust_6="13000.00000" pt_clust_7="13000.00000" pt_clust_8="13000.00000" pt_clust_9="93.95178"></scales>
<clustering>
<clus scale="   79.965">  5  6 -1 -1</clus>
<clus scale="   92.783">  7  8 -1 -1</clus>
<clus scale="   93.952">  1  9  2 -1</clus>
<clus scale="  182.389">  1  5  2 -1</clus>
<clus scale="   93.952">  1  5  2 -1</clus>
</clustering>
</event>
<event>
 9    2  0.2984928E-005  0.1189764E+03  0.7546771E-02  0.1256216E+00
          2   -1    0    0  502    0  0.00000000000E+00  0.00000000000E+00  0.12125867013E+03  0.12125867013E+03  0.00000000000E+00 0. -1.
         -1   -1    0    0    0  501 -0.00000000000E+00 -0.00000000000E+00 -0.37835382079E+03  0.37835382079E+03  0.00000000000E+00 0.  1.
         23    2    1    2    0    0 -0.38892291377E+02 -0.39754365787E+02 -0.33052280161E+03  0.35098047866E+03  0.10415831262E+03 0.  0.
         24    2    1    2    0    0  0.61335174101E+02  0.42809207167E+02  0.55541164566E+02  0.11977128746E+03  0.75270900998E+02 0.  0.
        -11    1    4    4    0    0  0.81598514287E+01  0.28516415828E+02 -0.12546336477E+02  0.32205274506E+02  0.00000000000E+00 0.  1.
         12    1    4    4    0    0  0.53175322672E+02  0.14292791339E+02  0.68087501043E+02  0.87566012949E+02  0.00000000000E+00 0. -1.
        -13    1    3    3    0    0 -0.48487554983E+02  0.15192630078E+02 -0.23441792686E+03  0.23986167562E+03  0.00000000000E+00 0. -1.
         13    1    3    3    0    0  0.95952636057E+01 -0.54946995865E+02 -0.96104874747E+02  0.11111880304E+03  0.00000000000E+00 0.  1.
         21    1    1    2  502  501 -0.22442882724E+02 -0.30548413799E+01  0.17886486389E+02  0.28860724804E+02  0.00000000000E+00 0. -1.
<scales pt_clust_5="13000.00000" pt_clust_6="13000.00000" pt_clust_7="13000.00000" pt_clust_8="13000.00000" pt_clust_9="22.64984"></scales>
<clustering>
<clus scale="   22.650">  1  9  2 -1</clus>
<clus scale="   75.271">  5  6 -1 -1</clus>
<clus scale="   94.721">  1  5  2 -1</clus>
<clus scale="  104.158">  7  8 -1 -1</clus>
<clus scale="   22.650">  1  5  2 -1</clus>
</clustering>
</event>
<event>
 9    2  0.2984928E-005  0.1224293E+03  0.7546771E-02  0.1242936E+00
         -1   -1    0    0    0  501 -0.00000000000E+00  0.00000000000E+00  0.39702726725E+02  0.39702726725E+02  0.00000000000E+00 0.  1.
          2   -1    0    0  502    0  0.00000000000E+00 -0.00000000000E+00 -0.84496283133E+03  0.84496283133E+03  0.00000000000E+00 0. -1.
         24    2    1    2    0    0 -0.96510085608E+01 -0.66973080643E+02 -0.85158392561E+02  0.13423636537E+03  0.78669654047E+02 0.  0.
         23    2    1    2    0    0 -0.52239116312E+02  0.72856658547E+02 -0.61629209199E+03  0.62942736930E+03  0.91246110105E+02 0.  0.
        -11    1    3    3    0    0  0.32630739036E+02 -0.32615504035E+02 -0.22902138249E+02  0.51507709810E+02  0.00000000000E+00 0.  1.
         12    1    3    3    0    0 -0.42281747597E+02 -0.34357576608E+02 -0.62256254311E+02  0.82728655562E+02  0.00000000000E+00 0. -1.
        -11    1    4    4    0    0  0.16243720642E+02  0.50504005650E+02 -0.19834994506E+03  0.20532221934E+03  0.00000000000E+00 0.  1.
         11    1    4    4    0    0 -0.68482836954E+02  0.22352652897E+02 -0.41794214693E+03  0.42410514996E+03  0.00000000000E+00 0. -1.
         21    1    1    2  502  501  0.61890124873E+02 -0.58835779036E+01 -0.10380962006E+03  0.12100182338E+03  0.00000000000E+00 0.  1.
<scales pt_clust_5="13000.00000" pt_clust_6="13000.00000" pt_clust_7="13000.00000" pt_clust_8="13000.00000" pt_clust_9="62.16916"></scales>
<clustering>
<clus scale="   62.169">  1  9  2 -1</clus>
<clus scale="   78.670">  5  6 -1 -1</clus>
<clus scale="   91.246">  7  8 -1 -1</clus>
<clus scale="  113.367">  1  5  2 -1</clus>
<clus scale="  122.429">  2  5  1 -1</clus>
</clustering>
</event>
<event>
 9    2  0.2984928E-005  0.1189667E+03  0.7546771E-02  0.1249480E+00
         -1   -1    0    0    0  501 -0.00000000000E+00  0.00000000000E+00  0.85237758411E+03  0.85237758411E+03  0.00000000000E+00 0.  1.
          2   -1    0    0  502    0  0.00000000000E+00 -0.00000000000E+00 -0.29570997399E+02  0.29570997399E+02  0.00000000000E+00 0. -1.
         23    2    1    2    0    0  0.21181755904E+02  0.56805673798E+02  0.52774981781E+03  0.53971694085E+03  0.95388441031E+02 0.  0.
         24    2    1    2    0    0 -0.17444165726E+02 -0.97153949146E+02  0.25425986516E+03  0.28473085580E+03  0.81733667876E+02 0.  0.
        -11    1    4    4    0    0  0.62237961854E+01 -0.99551102895E+02  0.23027332204E+03  0.25094812326E+03  0.00000000000E+00 0.  1.
         12    1    4    4    0    0 -0.23667961912E+02  0.23971537485E+01  0.23986543118E+02  0.33782732540E+02  0.00000000000E+00 0. -1.
        -13    1    3    3    0    0  0.56386945573E+02  0.25767234503E+02  0.36910447358E+03  0.37427469914E+03  0.00000000000E+00 0.  1.
         13    1    3    3    0    0 -0.35205189669E+02  0.31038439295E+02  0.15864534424E+03  0.16544224171E+03  0.00000000000E+00 0. -1.
         21    1    1    2  502  501 -0.37375901777E+01  0.40348275349E+02  0.40796903742E+02  0.57500784855E+02  0.00000000000E+00 0. -1.
<scales pt_clust_5="13000.00000" pt_clust_6="13000.00000" pt_clust_7="13000.00000" pt_clust_8="13000.00000" pt_clust_9="40.52102"></scales>
<clustering>
<clus scale="   40.521">  2  9  1 -1</clus>
<clus scale="   81.734">  5  6 -1 -1</clus>
<clus scale="   95.388">  7  8 -1 -1</clus>
<clus scale="  108.326">  2  5  1 -1</clus>
<clus scale="   40.521">  2  5  1 -1</clus>
</clustering>
</event>
<event>
 9    2  0.2984928E-005  0.9257920E+02  0.7546771E-02  0.1298403E+00
          2   -1    0    0  502    0  0.00000000000E+00  0.00000000000E+00  0.20705706861E+03  0.20705706861E+03  0.00000000000E+00 0. -1.
         -1   -1    0    0    0  501 -0.00000000000E+00 -0.00000000000E+00 -0.66814739134E+02  0.66814739134E+02  0.00000000000E+00 0.  1.
         23    2    1    2    0    0 -0.19461281509E+02 -0.17828883102E+02  0.52260726368E+02  0.10928737054E+03  0.92281825338E+02 0.  0.
         24    2    1    2    0    0 -0.15750722081E+02  0.43278112475E-01  0.86018460542E+02  0.12508675537E+03  0.89439553314E+02 0.  0.
        -13    1    4    4    0    0  0.13782810801E+02 -0.33667061491E+02  0.67328564849E+02  0.76528246731E+02  0.00000000000E+00 0.  1.
         14    1    4    4    0    0 -0.29533532882E+02  0.33710339604E+02  0.18689895693E+02  0.48558508644E+02  0.00000000000E+00 0. -1.
        -13    1    3    3    0    0 -0.51098915378E+01  0.32376296990E+02  0.46306390012E+02  0.56732859564E+02  0.00000000000E+00 0. -1.
         13    1    3    3    0    0 -0.14351389972E+02 -0.50205180092E+02  0.59543363554E+01  0.52554510973E+02  0.00000000000E+00 0.  1.
         21    1    1    2  502  501  0.35212003590E+02  0.17785604989E+02  0.19631425702E+01  0.39497681836E+02  0.00000000000E+00 0.  1.
<scales pt_clust_5="13000.00000" pt_clust_6="13000.00000" pt_clust_7="13000.00000" pt_clust_8="13000.00000" pt_clust_9="39.44886"></scales>
<clustering>
<clus scale="   39.449">  2  9  1 -1</clus>
<clus scale="   89.440">  5  6 -1 -1</clus>
<clus scale="   89.746">  1  5  2 -1</clus>
<clus scale="   92.282">  7  8 -1 -1</clus>
<clus scale="   89.746">  1  5  2 -1</clus>
</clustering>
</event>
<event>
 9    2  0.2984928E-005  0.9836723E+02  0.7546771E-02  0.1293728E+00
          2   -1    0    0  502    0  0.00000000000E+00  0.00000000000E+00  0.17216137032E+03  0.17216137032E+03  0.00000000000E+00 0. -1.
         -1   -1    0    0    0  501 -0.00000000000E+00 -0.00000000000E+00 -0.13763989291E+03  0.13763989291E+03  0.00000000000E+00 0.  1.
         24    2    1    2    0    0  0.38143577936E+02  0.93712217469E+01 -0.10156029973E+03  0.13084941899E+03  0.72555658866E+02 0.  0.
         23    2    1    2    0    0 -0.23305303951E+02  0.49690638760E+01  0.99376899069E+02  0.13684405113E+03  0.91009326299E+02 0.  0.
        -11    1    3    3    0    0  0.59927855813E+02  0.40253768223E+01 -0.74910333962E+02  0.96016194963E+02  0.00000000000E+00 0.  1.
         12    1    3    3    0    0 -0.21784277877E+02  0.53458449246E+01 -0.26649965767E+02  0.34833224025E+02  0.00000000000E+00 0. -1.
        -13    1    4    4    0    0 -0.17188253707E+02  0.36067118550E+02  0.88396339986E+01  0.40919582540E+02  0.00000000000E+00 0.  1.
         13    1    4    4    0    0 -0.61170502435E+01 -0.31098054674E+02  0.90537265070E+02  0.95924468592E+02  0.00000000000E+00 0. -1.
         21    1    1    2  502  501 -0.14838273985E+02 -0.14340285623E+02  0.36704878072E+02  0.42107793113E+02  0.00000000000E+00 0. -1.
<scales pt_clust_5="13000.00000" pt_clust_6="13000.00000" pt_clust_7="13000.00000" pt_clust_8="13000.00000" pt_clust_9="20.63536"></scales>
<clustering>
<clus scale="   20.635">  1  9  2 -1</clus>
<clus scale="   72.556">  5  6 -1 -1</clus>
<clus scale="   81.595">  2  5  1 -1</clus>
<clus scale="   91.009">  7  8 -1 -1</clus>
<clus scale="   20.635">  1  5  2 -1</clus>
</clustering>
</event>
<event>
 9    2  0.2984928E-005  0.1185540E+03  0.7546771E-02  0.1253038E+00
         -1   -1    0    0    0  501 -0.00000000000E+00  0.00000000000E+00  0.44605950845E+03  0.44605950845E+03  0.00000000000E+00 0.  1.
          2   -1    0    0  502    0  0.00000000000E+00 -0.00000000000E+00 -0.84662334568E+02  0.84662334568E+02  0.00000000000E+00 0. -1.
         23    2    1    2    0    0 -0.75838690625E+02  0.12980108826E+02  0.33336804690E+03  0.35671795290E+03  0.10096263175E+03 0.  0.
         24    2    1    2    0    0  0.35912217586E+02  0.10192348961E+02  0.68712009218E+02  0.11247192317E+03  0.80839482560E+02 0.  0.
        -11    1    4    4    0    0 -0.16997462402E+01 -0.25277265530E+02 -0.13851415701E+01  0.25372187669E+02  0.00000000000E+00 0.  1.
         12    1    4    4    0    0  0.37611963827E+02  0.35469614490E+02  0.70097150788E+02  0.87099735497E+02  0.00000000000E+00 0. -1.
        -11    1    3    3    0    0 -0.13661426967E+02  0.51529383266E+02  0.15588586000E+03  0.16474924363E+03  0.00000000000E+00 0.  1.
         11    1    3    3    0    0 -0.62177263658E+02 -0.38549274440E+02  0.17748218689E+03  0.19196870927E+03  0.00000000000E+00 0. -1.
         21    1    1    2  502  501  0.39926473039E+02 -0.23172457787E+02 -0.40682882238E+02  0.61531966947E+02  0.00000000000E+00 0. -1.
<scales pt_clust_5="13000.00000" pt_clust_6="13000.00000" pt_clust_7="13000.00000" pt_clust_8="13000.00000" pt_clust_9="46.16369"></scales>
<clustering>
<clus scale="   46.164">  2  9  1 -1</clus>
<clus scale="   80.839">  5  6 -1 -1</clus>
<clus scale="  100.963">  7  8 -1 -1</clus>
<clus scale="  101.964">  2  5  1 -1</clus>
<clus scale="   46.164">  2  5  1 -1</clus>
</clustering>
</event>
<event>
 9    2  0.2984928E-005  0.9293777E+02  0.7546771E-02  0.1302639E+00
          2   -1    0    0  502    0  0.00000000000E+00  0.00000000000E+00  0.51118527833E+03  0.51118527833E+03  0.00000000000E+00 0. -1.
         -1   -1    0    0    0  501 -0.00000000000E+00 -0.00000000000E+00 -0.48258088509E+02  0.48258088509E+02  0.00000000000E+00 0.  1.
         24    2    1    2    0    0  0.15206086855E+02  0.22855163179E+02  0.20829197623E+01  0.83077431363E+02  0.78383272997E+02 0.  0.
         23    2    1    2    0    0  0.40174076098E+01 -0.46048279789E+01  0.29449179300E+03  0.30791486217E+03  0.89715116877E+02 0.  0.
        -11    1    3    3    0    0 -0.53509648307E+01 -0.22890555372E+02 -0.17428123785E+02  0.29263455854E+02  0.00000000000E+00 0.  1.
         12    1    3    3    0    0  0.20557051686E+02  0.45745718551E+02  0.19511043547E+02  0.53813975509E+02  0.00000000000E+00 0. -1.
        -13    1    4    4    0    0  0.44385701140E+02 -0.35451435280E+01  0.20429061384E+03  0.20908685614E+03  0.00000000000E+00 0.  1.
         13    1    4    4    0    0 -0.40368293530E+02 -0.10596844509E+01  0.90201179168E+02  0.98828006036E+02  0.00000000000E+00 0. -1.
         21    1    1    2  502  501 -0.19223494465E+02 -0.18250335200E+02  0.16635247705E+03  0.16845107330E+03  0.00000000000E+00 0.  1.
<scales pt_clust_5="13000.00000" pt_clust_6="13000.00000" pt_clust_7="13000.00000" pt_clust_8="13000.00000" pt_clust_9="26.50693"></scales>
<clustering>
<clus scale="   26.507">  1  9  2 -1</clus>
<clus scale="   78.383">  5  6 -1 -1</clus>
<clus scale="   82.052">  2  5  1 -1</clus>
<clus scale="   89.715">  7  8 -1 -1</clus>
<clus scale="   26.507">  1  5  2 -1</clus>
</clustering>
</event>
<event>
 9    2  0.2984928E-005  0.2698859E+03  0.7546771E-02  0.1101881E+00
          2   -1    0    0  502    0  0.00000000000E+00  0.00000000000E+00  0.97475815286E+03  0.97475815286E+03  0.00000000000E+00 0. -1.
         -1   -1    0    0    0  501 -0.00000000000E+00 -0.00000000000E+00 -0.11576896735E+03  0.11576896735E+03  0.00000000000E+00 0.  1.
         23    2    1    2    0    0 -0.13188113113E+03  0.19740013774E+03  0.25170655313E+03  0.35801365246E+03  0.91968143012E+02 0.  0.
         24    2    1    2    0    0  0.20925234341E+03 -0.18313149008E+03  0.30637826323E+03  0.42149363210E+03  0.80408680094E+02 0.  0.
        -11    1    4    4    0    0  0.28242432169E+02 -0.42846262736E+02  0.20647028131E+02  0.55314889278E+02  0.00000000000E+00 0.  1.
         12    1    4    4    0    0  0.18100991124E+03 -0.14028522734E+03  0.28573123510E+03  0.36617874282E+03  0.00000000000E+00 0. -1.
        -11    1    3    3    0    0 -0.69832146266E+01  0.53054483953E+02  0.18433869002E+02  0.56598154391E+02  0.00000000000E+00 0.  1.
         11    1    3    3    0    0 -0.12489791651E+03  0.14434565378E+03  0.23327268413E+03  0.30141549807E+03  0.00000000000E+00 0. -1.
         21    1    1    2  502  501 -0.77371212276E+02 -0.14268647658E+02  0.30090436915E+03  0.31101983565E+03  0.00000000000E+00 0. -1.
<scales pt_clust_5="13000.00000" pt_clust_6="13000.00000" pt_clust_7="13000.00000" pt_clust_8="13000.00000" pt_clust_9="78.67591"></scales>
<clustering>
<clus scale="   78.676">  1  9  2 -1</clus>
<clus scale="   80.409">  5  6 -1 -1</clus>
<clus scale="   91.968">  7  8 -1 -1</clus>
<clus scale="  266.169">  1  5  2 -1</clus>
<clus scale="   78.676">  1  5  2 -1</clus>
</clustering>
</event>
<event>
 9    2  0.2984928E-005  0.9962746E+02  0.7546771E-02  0.1286102E+00
         -1   -1    0    0    0  501 -0.00000000000E+00  0.00000000000E+00  0.61363072571E+02  0.61363072571E+02  0.00000000000E+00 0.  1.
          2   -1    0    0  502    0  0.00000000000E+00 -0.00000000000E+00 -0.41859162473E+03  0.41859162473E+03  0.00000000000E+00 0. -1.
         24    2    1    2    0    0 -0.12527305161E+02 -0.31654016891E+02  0.13266916902E+01  0.88451410175E+02  0.81627089199E+02 0.  0.
         23    2    1    2    0    0  0.27026947303E+02  0.58580198233E+02 -0.19294447152E+03  0.22309251914E+03  0.91545658002E+02 0.  0.
        -13    1    3    3    0    0  0.25156314046E+02 -0.23842249570E+02  0.25477649120E+02  0.43016317900E+02  0.00000000000E+00 0.  1.
         14    1    3    3    0    0 -0.37683619207E+02 -0.78117673203E+01 -0.24150957430E+02  0.45435092275E+02  0.00000000000E+00 0. -1.
        -11    1    4    4    0    0  0.14066890506E+02 -0.16142119155E+02 -0.10411247024E+03  0.10629135373E+03  0.00000000000E+00 0. -1.
         11    1    4    4    0    0  0.12960056797E+02  0.74722317388E+02 -0.88832001287E+02  0.11680116541E+03  0.00000000000E+00 0.  1.
         21    1    1    2  502  501 -0.14499642141E+02 -0.26926181342E+02 -0.16561077233E+03  0.16841076799E+03  0.00000000000E+00 0. -1.
<scales pt_clust_5="13000.00000" pt_clust_6="13000.00000" pt_clust_7="13000.00000" pt_clust_8="13000.00000" pt_clust_9="30.58200"></scales>
<clustering>
<clus scale="   30.582">  2  9  1 -1</clus>
<clus scale="   81.627">  5  6 -1 -1</clus>
<clus scale="   90.598">  1  5  2 -1</clus>
<clus scale="   91.546">  7  8 -1 -1</clus>
<clus scale="   30.582">  2  5  1 -1</clus>
</clustering>
</event>
<event>
 9    2  0.2984928E-005  0.2426223E+03  0.7546771E-02  0.1155848E+00
         -1   -1    0    0    0  501 -0.00000000000E+00  0.00000000000E+00  0.18985246969E+03  0.18985246969E+03  0.00000000000E+00 0.  1.
          2   -1    0    0  502    0  0.00000000000E+00 -0.00000000000E+00 -0.90338362567E+03  0.90338362567E+03  0.00000000000E+00 0. -1.
         23    2    1    2    0    0  0.29678617218E+02 -0.56758760020E+01  0.58785278134E+02  0.11342396599E+03  0.92175111862E+02 0.  0.
         24    2    1    2    0    0  0.15583911724E+03  0.14583783707E+03 -0.67853213594E+02  0.23796940062E+03  0.80441729561E+02 0.  0.
        -13    1    4    4    0    0  0.75167222936E+02  0.10523277110E+03 -0.71135702586E+02  0.14759517505E+03  0.00000000000E+00 0.  1.
         14    1    4    4    0    0  0.80671894305E+02  0.40605065969E+02  0.32824889917E+01  0.90374225568E+02  0.00000000000E+00 0. -1.
        -13    1    3    3    0    0  0.10294020131E+02  0.23580653770E+02  0.71583812374E+02  0.76067445577E+02  0.00000000000E+00 0.  1.
         13    1    3    3    0    0  0.19384597087E+02 -0.29256529772E+02 -0.12798534240E+02  0.37356520411E+02  0.00000000000E+00 0. -1.
         21    1    1    2  502  501 -0.18551773446E+03 -0.14016196107E+03 -0.70446322052E+03  0.74184272875E+03  0.00000000000E+00 0. -1.
<scales pt_clust_5="13000.00000" pt_clust_6="13000.00000" pt_clust_7="13000.00000" pt_clust_8="13000.00000" pt_clust_9="228.89895"></scales>
<clustering>
<clus scale="   80.442">  5  6 -1 -1</clus>
<clus scale="   92.175">  7  8 -1 -1</clus>
<clus scale="   97.001">  1  7  2 -1</clus>
<clus scale="  228.899">  2  9  1 -1</clus>
<clus scale="  228.899">  2  5  1 -1</clus>
</clustering>
</event>
<event>
 9    2  0.2984928E-005  0.4308025E+03  0.7546771E-02  0.1091015E+00
          2   -1    0    0  502    0  0.00000000000E+00  0.00000000000E+00  0.24123234506E+04  0.24123234506E+04  0.00000000000E+00 0. -1.
         -1   -1    0    0    0  501 -0.00000000000E+00 -0.00000000000E+00 -0.96289792253E+02  0.96289792253E+02  0.00000000000E+00 0.  1.
         23    2    1    2    0    0  0.12785684568E+01 -0.75415239571E+01  0.10223408361E+03  0.13419045024E+03  0.86583830842E+02 0.  0.
         24    2    1    2    0    0 -0.30786058160E+03 -0.28886987332E+03  0.10021754698E+04  0.10899442140E+04  0.73476363375E+02 0.  0.
        -13    1    4    4    0    0 -0.11877760437E+03 -0.14575659486E+03  0.37652983313E+03  0.42086555987E+03  0.00000000000E+00 0.  1.
         14    1    4    4    0    0 -0.18908297723E+03 -0.14311327846E+03  0.62564563666E+03  0.66907865413E+03  0.00000000000E+00 0. -1.
        -13    1    3    3    0    0  0.42325069547E+02 -0.14839774709E+02  0.59227104521E+02  0.74293205177E+02  0.00000000000E+00 0. -1.
         13    1    3    3    0    0 -0.41046501091E+02  0.72982507516E+01  0.43006979088E+02  0.59897245062E+02  0.00000000000E+00 0.  1.
         21    1    1    2  502  501  0.30658201315E+03  0.29641139728E+03  0.12116241050E+04  0.12844785787E+04  0.00000000000E+00 0. -1.
<scales pt_clust_5="13000.00000" pt_clust_6="13000.00000" pt_clust_7="13000.00000" pt_clust_8="13000.00000" pt_clust_9="424.49033"></scales>
<clustering>
<clus scale="   73.476">  5  6 -1 -1</clus>
<clus scale="   86.584">  7  8 -1 -1</clus>
<clus scale="   86.921">  2  7  1 -1</clus>
<clus scale="  424.490">  1  9  2 -1</clus>
<clus scale="  424.490">  1  5  2 -1</clus>
</clustering>
</event>
<event>
 9    2  0.2984928E-005  0.1438275E+03  0.7546771E-02  0.1220181E+00
          2   -1    0    0  502    0  0.00000000000E+00  0.00000000000E+00  0.87944442005E+03  0.87944442005E+03  0.00000000000E+00 0. -1.
         -1   -1    0    0    0  501 -0.00000000000E+00 -0.00000000000E+00 -0.37726974238E+02  0.37726974238E+02  0.00000000000E+00 0.  1.
         23    2    1    2    0    0 -0.68529946688E+00 -0.71771264895E+02  0.15255801336E+03  0.20750375715E+03  0.12096395204E+03 0.  0.
         24    2    1    2    0    0 -0.34190297572E+02  0.91822015717E+02  0.46503489133E+03  0.48196135744E+03  0.80181300154E+02 0.  0.
        -11    1    4    4    0    0 -0.16139216602E+02 -0.12490666790E+02  0.88933701595E+02  0.91245242883E+02  0.00000000000E+00 0.  1.
         12    1    4    4    0    0 -0.18051080970E+02  0.10431268251E+03  0.37610118973E+03  0.39071611456E+03  0.00000000000E+00 0. -1.
        -13    1    3    3    0    0 -0.49790126429E+02 -0.73269814387E+02  0.11748916464E+03  0.14714355642E+03  0.00000000000E+00 0. -1.
         13    1    3    3    0    0  0.49104826962E+02  0.14985494914E+01  0.35068848721E+02  0.60360200730E+02  0.00000000000E+00 0.  1.
         21    1    1    2  502  501  0.34875597039E+02 -0.20050750821E+02  0.22412454113E+03  0.22770627970E+03  0.00000000000E+00 0.  1.
<scales pt_clust_5="13000.00000" pt_clust_6="13000.00000" pt_clust_7="13000.00000" pt_clust_8="13000.00000" pt_clust_9="40.22860"></scales>
<clustering>
<clus scale="   40.229">  1  9  2 -1</clus>
<clus scale="   80.181">  5  6 -1 -1</clus>
<clus scale="  111.728">  1  5  2 -1</clus>
<clus scale="  120.964">  7  8 -1 -1</clus>
<clus scale="   40.229">  1  5  2 -1</clus>
</clustering>
</event>
<event>
 9    2  0.2984928E-005  0.1581936E+03  0.7546771E-02  0.1194227E+00
          4   -1    0    0  502    0  0.00000000000E+00  0.00000000000E+00  0.36439791644E+03  0.36439791644E+03  0.00000000000E+00 0. -1.
         -3   -1    0    0    0  501 -0.00000000000E+00 -0.00000000000E+00 -0.11102358043E+03  0.11102358043E+03  0.00000000000E+00 0.  1.
         24    2    1    2    0    0  0.89894789732E+02 -0.75092870523E+02  0.12552592425E+01  0.14078116681E+03  0.78088083772E+02 0.  0.
         23    2    1    2    0    0 -0.12355035795E+03  0.37764804717E+02  0.22532536438E+03  0.27768434011E+03  0.98215077676E+02 0.  0.
        -11    1    3    3    0    0  0.93431564777E+02 -0.40391677860E+02  0.15765648490E+02  0.10300243011E+03  0.00000000000E+00 0.  1.
         12    1    3    3    0    0 -0.35367750445E+01 -0.34701192663E+02 -0.14510389247E+02  0.37778736693E+02  0.00000000000E+00 0. -1.
        -11    1    4    4    0    0 -0.13170933059E+03  0.86082655201E+01  0.18156429430E+03  0.22447058373E+03  0.00000000000E+00 0.  1.
         11    1    4    4    0    0  0.81589726361E+01  0.29156539197E+02  0.43761070083E+02  0.53213756372E+02  0.00000000000E+00 0. -1.
         21    1    1    2  502  501  0.33655568219E+02  0.37328065806E+02  0.26793712385E+02  0.56955989961E+02  0.00000000000E+00 0.  1.
<scales pt_clust_5="13000.00000" pt_clust_6="13000.00000" pt_clust_7="13000.00000" pt_clust_8="13000.00000" pt_clust_9="50.26014"></scales>
<clustering>
<clus scale="   50.260">  2  9  1 -1</clus>
<clus scale="   78.088">  5  6 -1 -1</clus>
<clus scale="   98.215">  7  8 -1 -1</clus>
<clus scale="  146.550">  2  5  1 -1</clus>
<clus scale="  158.194">  1  5  2 -1</clus>
</clustering>
</event>
<event>
 9    2  0.2984928E-005  0.9522686E+02  0.7546771E-02  0.1299406E+00
         -1   -1    0    0    0  501 -0.00000000000E+00  0.00000000000E+00  0.12065761658E+03  0.12065761658E+03  0.00000000000E+00 0.  1.
          2   -1    0    0  502    0  0.00000000000E+00 -0.00000000000E+00 -0.33281685428E+03  0.33281685428E+03  0.00000000000E+00 0. -1.
         23    2    1    2    0    0 -0.17815049008E+02  0.26974439405E+02  0.92377632475E+02  0.13302477193E+03  0.90094209653E+02 0.  0.
         24    2    1    2    0    0 -0.23149520791E+01 -0.18434045401E+02 -0.21978030496E+03  0.23291781547E+03  0.74847533569E+02 0.  0.
        -11    1    4    4    0    0 -0.30814790884E+02 -0.30954080474E+02 -0.15516587913E+03  0.16119601881E+03  0.00000000000E+00 0.  1.
         12    1    4    4    0    0  0.28499838805E+02  0.12520035073E+02 -0.64614425833E+02  0.71721796658E+02  0.00000000000E+00 0. -1.
        -13    1    3    3    0    0 -0.38455171703E+02  0.30288361501E+02  0.99541768700E+02  0.11092677219E+03  0.00000000000E+00 0.  1.
         13    1    3    3    0    0  0.20640122695E+02 -0.33139220966E+01 -0.71641362250E+01  0.22097999737E+02  0.00000000000E+00 0. -1.
         21    1    1    2  502  501  0.20130001087E+02 -0.85403940036E+01 -0.84756565223E+02  0.87531883459E+02  0.00000000000E+00 0. -1.
<scales pt_clust_5="13000.00000" pt_clust_6="13000.00000" pt_clust_7="13000.00000" pt_clust_8="13000.00000" pt_clust_9="21.86676"></scales>
<clustering>
<clus scale="   21.867">  2  9  1 -1</clus>
<clus scale="   74.848">  5  6 -1 -1</clus>
<clus scale="   80.953">  2  5  1 -1</clus>
<clus scale="   90.094">  7  8 -1 -1</clus>
<clus scale="   21.867">  2  5  1 -1</clus>
</clustering>
</event>
<event>
 9    2  0.2984928E-005  0.1035344E+03  0.7546771E-02  0.1277747E+00
         -1   -1    0    0    0  501 -0.00000000000E+00  0.00000000000E+00  0.37128572807E+02  0.37128572807E+02  0.00000000000E+00 0.  1.
          2   -1    0    0  502    0  0.00000000000E+00 -0.00000000000E+00 -0.36801471769E+03  0.36801471769E+03  0.00000000000E+00 0. -1.
         23    2    1    2    0    0 -0.20906006773E+02 -0.59898172749E+02 -0.13070157397E+03  0.17095761563E+03  0.90104121361E+02 0.  0.
         24    2    1    2    0    0  0.41326515084E+01  0.44815656550E+02 -0.18667109735E+03  0.20789039564E+03  0.79666781875E+02 0.  0.
        -11    1    4    4    0    0  0.27320449471E+02 -0.12221907229E+02 -0.61042853795E+02  0.67985380597E+02  0.00000000000E+00 0.  1.
         12    1    4    4    0    0 -0.23187797962E+02  0.57037563778E+02 -0.12562824356E+03  0.13990501505E+03  0.00000000000E+00 0. -1.
        -11    1    3    3    0    0  0.64237100598E+01 -0.62771792720E+02 -0.12878259747E+03  0.14341031840E+03  0.00000000000E+00 0. -1.
         11    1    3    3    0    0 -0.27329716833E+02  0.28736199710E+01 -0.19189764980E+01  0.27547297231E+02  0.00000000000E+00 0.  1.
         21    1    1    2  502  501  0.16773355265E+02  0.15082516199E+02 -0.13513473567E+02  0.26295279226E+02  0.00000000000E+00 0. -1.
<scales pt_clust_5="13000.00000" pt_clust_6="13000.00000" pt_clust_7="13000.00000" pt_clust_8="13000.00000" pt_clust_9="22.55721"></scales>
<clustering>
<clus scale="   22.557">  1  9  2 -1</clus>
<clus scale="   79.667">  5  6 -1 -1</clus>
<clus scale="   90.104">  7  8 -1 -1</clus>
<clus scale="   94.591">  2  5  1 -1</clus>
<clus scale="   94.591">  2  5  1 -1</clus>
</clustering>
</event>
<event>
 9    2  0.2984928E-005  0.1005873E+03  0.7546771E-02  0.1284098E+00
         -1   -1    0    0    0  501 -0.00000000000E+00  0.00000000000E+00  0.44500486721E+02  0.44500486721E+02  0.00000000000E+00 0.  1.
          2   -1    0    0  502    0  0.00000000000E+00 -0.00000000000E+00 -0.63653261428E+03  0.63653261428E+03  0.00000000000E+00 0. -1.
         23    2    1    2    0    0 -0.44353102068E+02  0.59112490782E+01 -0.34630672224E+02  0.10708009907E+03  0.90910525404E+02 0.  0.
         24    2    1    2    0    0  0.34441650662E+02  0.31274546573E+02 -0.45785356491E+03  0.46722529814E+03  0.80655240154E+02 0.  0.
        -11    1    4    4    0    0  0.18835519449E+02  0.53351611156E+02 -0.19668513036E+03  0.20466121204E+03  0.00000000000E+00 0.  1.
         12    1    4    4    0    0  0.15606131213E+02 -0.22077064584E+02 -0.26116843454E+03  0.26256408611E+03  0.00000000000E+00 0. -1.
        -11    1    3    3    0    0  0.49658742787E+00 -0.24869839179E+02  0.18532107537E+02  0.31019260301E+02  0.00000000000E+00 0.  1.
         11    1    3    3    0    0 -0.44849689495E+02  0.30781088257E+02 -0.53162779761E+02  0.76060838768E+02  0.00000000000E+00 0. -1.
         21    1    1    2  502  501  0.99114514054E+01 -0.37185795651E+02 -0.99547890424E+02  0.10672770378E+03  0.00000000000E+00 0.  1.
<scales pt_clust_5="13000.00000" pt_clust_6="13000.00000" pt_clust_7="13000.00000" pt_clust_8="13000.00000" pt_clust_9="38.48403"></scales>
<clustering>
<clus scale="   38.484">  2  9  1 -1</clus>
<clus scale="   80.655">  5  6 -1 -1</clus>
<clus scale="   90.911">  7  8 -1 -1</clus>
<clus scale="   91.424">  2  5  1 -1</clus>
<clus scale="   38.484">  2  5  1 -1</clus>
</clustering>
</event>
<event>
 9    2  0.2984928E-005  0.1059182E+03  0.7546771E-02  0.1277607E+00
         -1   -1    0    0    0  501 -0.00000000000E+00  0.00000000000E+00  0.11592928091E+03  0.11592928091E+03  0.00000000000E+00 0.  1.
          2   -1    0    0  502    0  0.00000000000E+00 -0.00000000000E+00 -0.23970710244E+03  0.23970710244E+03  0.00000000000E+00 0. -1.
         24    2    1    2    0    0 -0.22816910460E+02 -0.26863897709E+02  0.68609866706E+02  0.11215182344E+03  0.81415215341E+02 0.  0.
         23    2    1    2    0    0  0.20670382544E+01  0.35737301583E+02 -0.19366627176E+03  0.22088081534E+03  0.10000141197E+03 0.  0.
        -13    1    3    3    0    0 -0.44407865855E+02 -0.23328548833E+02  0.74204922469E+02  0.89569248401E+02  0.00000000000E+00 0.  1.
         14    1    3    3    0    0  0.21590955395E+02 -0.35353488759E+01 -0.55950557630E+01  0.22582575042E+02  0.00000000000E+00 0. -1.
        -11    1    4    4    0    0 -0.28969008911E+02 -0.22077944573E+02 -0.41788801824E+02  0.55434132732E+02  0.00000000000E+00 0.  1.
         11    1    4    4    0    0  0.31036047165E+02  0.57815246155E+02 -0.15187746993E+03  0.16544668260E+03  0.00000000000E+00 0. -1.
         21    1    1    2  502  501  0.20749872206E+02 -0.88734038741E+01  0.12785835198E+01  0.22603744572E+02  0.00000000000E+00 0. -1.
<scales pt_clust_5="13000.00000" pt_clust_6="13000.00000" pt_clust_7="13000.00000" pt_clust_8="13000.00000" pt_clust_9="22.56755"></scales>
<clustering>
<clus scale="   22.568">  1  9  2 -1</clus>
<clus scale="   81.415">  5  6 -1 -1</clus>
<clus scale="   88.582">  1  5  2 -1</clus>
<clus scale="  100.001">  7  8 -1 -1</clus>
<clus scale="  105.918">  2  5  1 -1</clus>
</clustering>
</event>
<event>
 9    2  0.2984928E-005  0.9654633E+02  0.7546771E-02  0.1293663E+00
          2   -1    0    0  502    0  0.00000000000E+00  0.00000000000E+00  0.28447837080E+03  0.28447837080E+03  0.00000000000E+00 0. -1.
         -1   -1    0    0    0  501 -0.00000000000E+00 -0.00000000000E+00 -0.67833578797E+02  0.67833578797E+02  0.00000000000E+00 0.  1.
         24    2    1    2    0    0 -0.19067645642E+02 -0.23656566150E+02  0.16953878242E+02  0.87566824128E+02  0.80357367230E+02 0.  0.
         23    2    1    2    0    0 -0.36302840300E+02  0.23631879005E+02  0.17925921802E+03  0.20572525158E+03  0.91173735109E+02 0.  0.
        -13    1    3    3    0    0  0.16284245251E+02 -0.17866535102E+02 -0.23373696981E+02  0.33626171809E+02  0.00000000000E+00 0.  1.
         14    1    3    3    0    0 -0.35351890893E+02 -0.57900310475E+01  0.40327575223E+02  0.53940652319E+02  0.00000000000E+00 0. -1.
        -11    1    4    4    0    0 -0.59644072462E+02 -0.72418239450E+01  0.87547397742E+02  0.10618100699E+03  0.00000000000E+00 0. -1.
         11    1    4    4    0    0  0.23341232161E+02  0.30873702950E+02  0.91711820276E+02  0.99544244590E+02  0.00000000000E+00 0.  1.
         21    1    1    2  502  501  0.55370485942E+02  0.24687145123E-01  0.20431695739E+02  0.59019873887E+02  0.00000000000E+00 0.  1.
<scales pt_clust_5="13000.00000" pt_clust_6="13000.00000" pt_clust_7="13000.00000" pt_clust_8="13000.00000" pt_clust_9="55.37049"></scales>
<clustering>
<clus scale="   55.370">  2  9  1 -1</clus>
<clus scale="   80.357">  5  6 -1 -1</clus>
<clus scale="   86.405">  2  5  1 -1</clus>
<clus scale="   91.174">  7  8 -1 -1</clus>
<clus scale="   96.546">  1  5  2 -1</clus>
</clustering>
</event>
<event>
 9    2  0.2984928E-005  0.1168864E+03  0.7546771E-02  0.1262187E+00
          4   -1    0    0  502    0  0.00000000000E+00  0.00000000000E+00  0.12175556661E+04  0.12175556661E+04  0.00000000000E+00 0. -1.
         -3   -1    0    0    0  501 -0.00000000000E+00 -0.00000000000E+00 -0.56158343219E+02  0.56158343219E+02  0.00000000000E+00 0.  1.
         24    2    1    2    0    0  0.11044535021E+02  0.49285392497E+02 -0.71340971066E+01  0.89105509472E+02  0.73060692642E+02 0.  0.
         23    2    1    2    0    0  0.18330283721E+01  0.39980858060E+02  0.51054933227E+03  0.52047393299E+03  0.92901373743E+02 0.  0.
        -13    1    3    3    0    0 -0.13124599540E+02  0.24860065644E+02 -0.34980713020E+02  0.44876812056E+02  0.00000000000E+00 0.  1.
         14    1    3    3    0    0  0.24169134561E+02  0.24425326853E+02  0.27846615913E+02  0.44228697416E+02  0.00000000000E+00 0. -1.
        -11    1    4    4    0    0 -0.91663242847E+01  0.68856615792E+02  0.38187897100E+03  0.38814533816E+03  0.00000000000E+00 0.  1.
         11    1    4    4    0    0  0.10999352657E+02 -0.28875757732E+02  0.12867036126E+03  0.13232859483E+03  0.00000000000E+00 0. -1.
         21    1    1    2  502  501 -0.12877563393E+02 -0.89266250557E+02  0.65798208775E+03  0.66413456688E+03  0.00000000000E+00 0. -1.
<scales pt_clust_5="13000.00000" pt_clust_6="13000.00000" pt_clust_7="13000.00000" pt_clust_8="13000.00000" pt_clust_9="70.93490"></scales>
<clustering>
<clus scale="   73.061">  5  6 -1 -1</clus>
<clus scale="   88.819">  2  5  1 -1</clus>
<clus scale="   70.935">  2  9  1 -1</clus>
<clus scale="   92.901">  7  8 -1 -1</clus>
<clus scale="  116.886">  1  5  2 -1</clus>
</clustering>
</event>
<event>
 9    2  0.2984928E-005  0.1116321E+03  0.7546771E-02  0.1261613E+00
          2   -1    0    0  502    0  0.00000000000E+00  0.00000000000E+00  0.40561205375E+03  0.40561205375E+03  0.00000000000E+00 0. -1.
         -1   -1    0    0    0  501 -0.00000000000E+00 -0.00000000000E+00 -0.40328924572E+02  0.40328924572E+02  0.00000000000E+00 0.  1.
         23    2    1    2    0    0 -0.15883116136E+01 -0.66181866134E+02  0.93183872429E+02  0.14628625257E+03  0.91290040374E+02 0.  0.
         24    2    1    2    0    0 -0.19697794785E+02  0.59920222849E+02  0.20821219452E+03  0.23202438328E+03  0.80650854086E+02 0.  0.
        -11    1    4    4    0    0 -0.25198874383E+02  0.10158196555E+02  0.12313579663E+02  0.29829456440E+02  0.00000000000E+00 0.  1.
         12    1    4    4    0    0  0.55010795981E+01  0.49762026294E+02  0.19589861485E+03  0.20219492684E+03  0.00000000000E+00 0. -1.
        -13    1    3    3    0    0 -0.28288774879E+02 -0.52804587508E+02  0.99140774876E+02  0.11583381410E+03  0.00000000000E+00 0.  1.
         13    1    3    3    0    0  0.26700463265E+02 -0.13377278626E+02 -0.59569024472E+01  0.30452438470E+02  0.00000000000E+00 0. -1.
         21    1    1    2  502  501  0.21286106398E+02  0.62616432848E+01  0.63887062232E+02  0.67630342472E+02  0.00000000000E+00 0.  1.
<scales pt_clust_5="13000.00000" pt_clust_6="13000.00000" pt_clust_7="13000.00000" pt_clust_8="13000.00000" pt_clust_9="22.18798"></scales>
<clustering>
<clus scale="   22.188">  1  9  2 -1</clus>
<clus scale="   80.651">  5  6 -1 -1</clus>
<clus scale="   91.290">  7  8 -1 -1</clus>
<clus scale="  103.114">  1  5  2 -1</clus>
<clus scale="   22.188">  1  5  2 -1</clus>
</clustering>
</event>
<event>
 9    2  0.2984928E-005  0.9631964E+02  0.7546771E-02  0.1295558E+00
          2   -1    0    0  502    0  0.00000000000E+00  0.00000000000E+00  0.27400991832E+03  0.27400991832E+03  0.00000000000E+00 0. -1.
         -1   -1    0    0    0  501 -0.00000000000E+00 -0.00000000000E+00 -0.17920460910E+03  0.17920460910E+03  0.00000000000E+00 0.  1.
         23    2    1    2    0    0 -0.34111383970E+02  0.80237106897E+01 -0.13483853215E+03  0.16639420711E+03  0.90981514385E+02 0.  0.
         24    2    1    2    0    0  0.15815004119E+02  0.51682502930E+02  0.77670522620E+02  0.12251731039E+03  0.77824069515E+02 0.  0.
        -13    1    4    4    0    0 -0.16824638055E+02  0.48341207905E+02  0.17702097096E+02  0.54159995098E+02  0.00000000000E+00 0.  1.
         14    1    4    4    0    0  0.32639642174E+02  0.33412950255E+01  0.59968425523E+02  0.68357315289E+02  0.00000000000E+00 0. -1.
        -11    1    3    3    0    0 -0.14588315472E+02 -0.31718769769E+02 -0.13853252004E+02  0.37560776018E+02  0.00000000000E+00 0. -1.
         11    1    3    3    0    0 -0.19523068498E+02  0.39742480459E+02 -0.12098528014E+03  0.12883343110E+03  0.00000000000E+00 0.  1.
         21    1    1    2  502  501  0.18296379851E+02 -0.59706213620E+02  0.15197331875E+03  0.16430300993E+03  0.00000000000E+00 0. -1.
<scales pt_clust_5="13000.00000" pt_clust_6="13000.00000" pt_clust_7="13000.00000" pt_clust_8="13000.00000" pt_clust_9="62.44669"></scales>
<clustering>
<clus scale="   62.447">  1  9  2 -1</clus>
<clus scale="   77.824">  5  6 -1 -1</clus>
<clus scale="   84.003">  1  5  2 -1</clus>
<clus scale="   90.982">  7  8 -1 -1</clus>
<clus scale="   62.447">  1  5  2 -1</clus>
</clustering>
</event>
<event>
 9    2  0.2984928E-005  0.1005932E+03  0.7546771E-02  0.1284525E+00
          2   -1    0    0  502    0  0.00000000000E+00  0.00000000000E+00  0.28248689349E+03  0.28248689349E+03  0.00000000000E+00 0. -1.
         -1   -1    0    0    0  501 -0.00000000000E+00 -0.00000000000E+00 -0.86346873449E+02  0.86346873449E+02  0.00000000000E+00 0.  1.
         24    2    1    2    0    0 -0.21463164281E+01 -0.45002187202E+02 -0.34722007671E+02  0.97999650012E+02  0.79802945175E+02 0.  0.
         23    2    1    2    0    0 -0.20115778053E+02  0.34610199531E+02  0.11308515737E+03  0.15052208326E+03  0.90918283599E+02 0.  0.
        -13    1    3    3    0    0  0.26186820657E+02  0.10708281814E+02 -0.47658738449E+01  0.28690249720E+02  0.00000000000E+00 0.  1.
         14    1    3    3    0    0 -0.28333137085E+02 -0.55710469015E+02 -0.29956133826E+02  0.69309400291E+02  0.00000000000E+00 0. -1.
        -11    1    4    4    0    0 -0.53946239100E+02  0.33599734654E+02  0.58993353572E+02  0.86714212489E+02  0.00000000000E+00 0.  1.
         11    1    4    4    0    0  0.33830461047E+02  0.10104648770E+01  0.54091803799E+02  0.63807870770E+02  0.00000000000E+00 0. -1.
         21    1    1    2  502  501  0.22262094482E+02  0.10391987670E+02  0.11777687034E+03  0.12031203367E+03  0.00000000000E+00 0.  1.
<scales pt_clust_5="13000.00000" pt_clust_6="13000.00000" pt_clust_7="13000.00000" pt_clust_8="13000.00000" pt_clust_9="24.56816"></scales>
<clustering>
<clus scale="   24.568">  1  9  2 -1</clus>
<clus scale="   79.803">  5  6 -1 -1</clus>
<clus scale="   90.672">  2  5  1 -1</clus>
<clus scale="   90.918">  7  8 -1 -1</clus>
<clus scale="   24.568">  1  5  2 -1</clus>
</clustering>
</event>
<event>
 9    2  0.2984928E-005  0.1218848E+03  0.7546771E-02  0.1243376E+00
         -1   -1    0    0    0  501 -0.00000000000E+00  0.00000000000E+00  0.30178443060E+03  0.30178443060E+03  0.00000000000E+00 0.  1.
          2   -1    0    0  502    0  0.00000000000E+00 -0.00000000000E+00 -0.27058707438E+03  0.27058707438E+03  0.00000000000E+00 0. -1.
         24    2    1    2    0    0 -0.14536565717E+02 -0.80148461355E+02  0.27178247362E+03  0.29496795413E+03  0.80655399060E+02 0.  0.
         23    2    1    2    0    0  0.27835894217E+02  0.57114839884E+02 -0.19288434145E+03  0.22278868215E+03  0.91615969006E+02 0.  0.
        -13    1    3    3    0    0  0.32851425745E+02 -0.37049467806E+02  0.98972924532E+02  0.11066850965E+03  0.00000000000E+00 0.  1.
         14    1    3    3    0    0 -0.47387991462E+02 -0.43098993549E+02  0.17280954909E+03  0.18429944448E+03  0.00000000000E+00 0. -1.
        -13    1    4    4    0    0 -0.20994487970E+02  0.18780555683E+01 -0.10939226497E+03  0.11140450284E+03  0.00000000000E+00 0. -1.
         13    1    4    4    0    0  0.48830382187E+02  0.55236784316E+02 -0.83492076477E+02  0.11138417931E+03  0.00000000000E+00 0.  1.
         21    1    1    2  502  501 -0.13299328499E+02  0.23033621471E+02 -0.47700775953E+02  0.54614868700E+02  0.00000000000E+00 0. -1.
<scales pt_clust_5="13000.00000" pt_clust_6="13000.00000" pt_clust_7="13000.00000" pt_clust_8="13000.00000" pt_clust_9="26.59737"></scales>
<clustering>
<clus scale="   26.597">  2  9  1 -1</clus>
<clus scale="   80.655">  5  6 -1 -1</clus>
<clus scale="   91.616">  7  8 -1 -1</clus>
<clus scale="  113.876">  1  5  2 -1</clus>
<clus scale="   26.597">  2  5  1 -1</clus>
</clustering>
</event>
<event>
 9    2  0.2984928E-005  0.1831401E+03  0.7546771E-02  0.1166403E+00
         -1   -1    0    0    0  501 -0.00000000000E+00  0.00000000000E+00  0.12977705444E+03  0.12977705444E+03  0.00000000000E+00 0.  1.
          2   -1    0    0  502    0  0.00000000000E+00 -0.00000000000E+00 -0.72058376201E+03  0.72058376201E+03  0.00000000000E+00 0. -1.
         23    2    1    2    0    0  0.78249216462E+02  0.13363922373E+03  0.34775091850E+02  0.18365102318E+03  0.92390526060E+02 0.  0.
         24    2    1    2    0    0 -0.78534799466E+02 -0.16511626630E+03 -0.53227035901E+03  0.56823182275E+03  0.78387327976E+02 0.  0.
        -11    1    4    4    0    0 -0.40593550333E+02 -0.14550285104E+02 -0.13380471431E+03  0.14058182207E+03  0.00000000000E+00 0.  1.
         12    1    4    4    0    0 -0.37941249134E+02 -0.15056598119E+03 -0.39846564470E+03  0.42765000068E+03  0.00000000000E+00 0. -1.
        -11    1    3    3    0    0  0.61245670056E+02  0.76443982604E+02  0.64204217847E+02  0.11711915371E+03  0.00000000000E+00 0.  1.
         11    1    3    3    0    0  0.17003546406E+02  0.57195241128E+02 -0.29429125997E+02  0.66531869469E+02  0.00000000000E+00 0. -1.
         21    1    1    2  502  501  0.28558300426E+00  0.31477042566E+02 -0.93311440406E+02  0.98477970517E+02  0.00000000000E+00 0.  1.
<scales pt_clust_5="13000.00000" pt_clust_6="13000.00000" pt_clust_7="13000.00000" pt_clust_8="13000.00000" pt_clust_9="31.47834"></scales>
<clustering>
<clus scale="   31.478">  2  9  1 -1</clus>
<clus scale="   78.387">  5  6 -1 -1</clus>
<clus scale="   92.391">  7  8 -1 -1</clus>
<clus scale="  176.490">  2  5  1 -1</clus>
<clus scale="   31.478">  2  5  1 -1</clus>
</clustering>
</event>
<event>
 9    2  0.2984928E-005  0.1570485E+03  0.7546771E-02  0.1194372E+00
         -1   -1    0    0    0  501 -0.00000000000E+00  0.00000000000E+00  0.68953145676E+02  0.68953145676E+02  0.00000000000E+00 0.  1.
          2   -1    0    0  502    0  0.00000000000E+00 -0.00000000000E+00 -0.59250217929E+03  0.59250217929E+03  0.00000000000E+00 0. -1.
         24    2    1    2    0    0 -0.11323062393E+03  0.65214277081E+02 -0.96366819612E+02  0.18242943552E+03  0.83185689232E+02 0.  0.
         23    2    1    2    0    0  0.86729405249E+02 -0.74876067268E+02 -0.19867073847E+03  0.24878002252E+03  0.96400322093E+02 0.  0.
        -13    1    3    3    0    0 -0.18923610843E+02  0.31870132268E+02  0.79456285063E+01  0.37907009780E+02  0.00000000000E+00 0.  1.
         14    1    3    3    0    0 -0.94307013087E+02  0.33344144813E+02 -0.10431244812E+03  0.14452242574E+03  0.00000000000E+00 0. -1.
        -11    1    4    4    0    0  0.59076032393E+02 -0.11402212161E+02 -0.15660886034E+03  0.16776865972E+03  0.00000000000E+00 0.  1.
         11    1    4    4    0    0  0.27653372856E+02 -0.63473855107E+02 -0.42061878124E+02  0.81011362807E+02  0.00000000000E+00 0. -1.
         21    1    1    2  502  501  0.26501218680E+02  0.96617901873E+01 -0.22851147554E+03  0.23024586692E+03  0.00000000000E+00 0. -1.
<scales pt_clust_5="13000.00000" pt_clust_6="13000.00000" pt_clust_7="13000.00000" pt_clust_8="13000.00000" pt_clust_9="28.20753"></scales>
<clustering>
<clus scale="   28.208">  2  9  1 -1</clus>
<clus scale="   83.186">  5  6 -1 -1</clus>
<clus scale="   96.400">  7  8 -1 -1</clus>
<clus scale="  149.302">  1  5  2 -1</clus>
<clus scale="   28.208">  2  5  1 -1</clus>
</clustering>
</event>
<event>
 9    2  0.2984928E-005  0.1117725E+03  0.7546771E-02  0.1260401E+00
          2   -1    0    0  502    0  0.00000000000E+00  0.00000000000E+00  0.81724251090E+03  0.81724251090E+03  0.00000000000E+00 0. -1.
         -1   -1    0    0    0  501 -0.00000000000E+00 -0.00000000000E+00 -0.46085048880E+02  0.46085048880E+02  0.00000000000E+00 0.  1.
         23    2    1    2    0    0  0.67972817015E+02  0.38368229286E+02  0.60416997465E+02  0.13278207591E+03  0.88816897197E+02 0.  0.
         24    2    1    2    0    0  0.57965339488E+01 -0.46324527280E+02  0.44718542387E+03  0.45674541212E+03  0.80386606727E+02 0.  0.
        -13    1    4    4    0    0  0.22088204902E+02  0.16733514627E+02  0.12307229692E+03  0.12615343664E+03  0.00000000000E+00 0.  1.
         14    1    4    4    0    0 -0.16291670953E+02 -0.63058041907E+02  0.32411312695E+03  0.33059197548E+03  0.00000000000E+00 0. -1.
        -13    1    3    3    0    0  0.77980651494E+02  0.57017306829E+02  0.44831346782E+02  0.10649791049E+03  0.00000000000E+00 0.  1.
         13    1    3    3    0    0 -0.10007834479E+02 -0.18649077543E+02  0.15585650683E+02  0.26284165411E+02  0.00000000000E+00 0. -1.
         21    1    1    2  502  501 -0.73769350964E+02  0.79562979941E+01  0.26355504069E+03  0.27380007175E+03  0.00000000000E+00 0. -1.
<scales pt_clust_5="13000.00000" pt_clust_6="13000.00000" pt_clust_7="13000.00000" pt_clust_8="13000.00000" pt_clust_9="74.19717"></scales>
<clustering>
<clus scale="   74.197">  1  9  2 -1</clus>
<clus scale="   80.387">  5  6 -1 -1</clus>
<clus scale="   88.817">  7  8 -1 -1</clus>
<clus scale="  105.198">  1  5  2 -1</clus>
<clus scale="   74.197">  1  5  2 -1</clus>
</clustering>
</event>
<event>
 9    2  0.2984928E-005  0.9631046E+02  0.7546771E-02  0.1295479E+00
         -1   -1    0    0    0  501 -0.00000000000E+00  0.00000000000E+00  0.42894025383E+02  0.42894025383E+02  0.00000000000E+00 0.  1.
          2   -1    0    0  502    0  0.00000000000E+00 -0.00000000000E+00 -0.40049676181E+03  0.40049676181E+03  0.00000000000E+00 0. -1.
         23    2    1    2    0    0 -0.29629358206E+01 -0.44510274830E+02 -0.50793541737E+02  0.11281987887E+03  0.90323848639E+02 0.  0.
         24    2    1    2    0    0  0.73490791643E+01  0.12543368553E+01 -0.22375913780E+03  0.23682856797E+03  0.77227174849E+02 0.  0.
        -11    1    4    4    0    0 -0.26427603634E+02 -0.23176825036E+02 -0.11890283062E+03  0.12398978419E+03  0.00000000000E+00 0.  1.
         12    1    4    4    0    0  0.33776682798E+02  0.24431161891E+02 -0.10485630717E+03  0.11283878379E+03  0.00000000000E+00 0. -1.
        -13    1    3    3    0    0  0.23448597427E+02 -0.49843632668E+02  0.26883063648E+00  0.55084450698E+02  0.00000000000E+00 0.  1.
         13    1    3    3    0    0 -0.26411533247E+02  0.53333578382E+01 -0.51062372373E+02  0.57735428176E+02  0.00000000000E+00 0. -1.
         21    1    1    2  502  501 -0.43861433437E+01  0.43255937974E+02 -0.83050056890E+02  0.93742340342E+02  0.00000000000E+00 0. -1.
<scales pt_clust_5="13000.00000" pt_clust_6="13000.00000" pt_clust_7="13000.00000" pt_clust_8="13000.00000" pt_clust_9="43.47775"></scales>
<clustering>
<clus scale="   43.478">  2  9  1 -1</clus>
<clus scale="   77.227">  5  6 -1 -1</clus>
<clus scale="   84.151">  2  5  1 -1</clus>
<clus scale="   90.324">  7  8 -1 -1</clus>
<clus scale="   43.478">  2  5  1 -1</clus>
</clustering>
</event>
<event>
 9    2  0.2984928E-005  0.1239026E+03  0.7546771E-02  0.1240545E+00
         -1   -1    0    0    0  501 -0.00000000000E+00  0.00000000000E+00  0.36351744233E+03  0.36351744233E+03  0.00000000000E+00 0.  1.
          2   -1    0    0  502    0  0.00000000000E+00 -0.00000000000E+00 -0.12221883383E+03  0.12221883383E+03  0.00000000000E+00 0. -1.
         24    2    1    2    0    0 -0.59998302931E+02  0.70472609587E+02  0.29356551532E+03  0.31644605188E+03  0.73424838488E+02 0.  0.
         23    2    1    2    0    0  0.50827870948E+02 -0.45220295497E+02  0.11247804587E+00  0.11042277871E+03  0.86976030132E+02 0.  0.
        -11    1    3    3    0    0 -0.32293839006E+02  0.81485054298E+02  0.23298397432E+03  0.24892617059E+03  0.00000000000E+00 0.  1.
         12    1    3    3    0    0 -0.27704463925E+02 -0.11012444711E+02  0.60581540997E+02  0.67519881290E+02  0.00000000000E+00 0. -1.
        -11    1    4    4    0    0 -0.10361653646E+02 -0.48056717323E+02 -0.54122068146E+00  0.49164060715E+02  0.00000000000E+00 0.  1.
         11    1    4    4    0    0  0.61189524593E+02  0.28364218264E+01  0.65369872733E+00  0.61258717998E+02  0.00000000000E+00 0. -1.
         21    1    1    2  502  501  0.91704319836E+01 -0.25252314090E+02 -0.52379384867E+02  0.58867445577E+02  0.00000000000E+00 0. -1.
<scales pt_clust_5="13000.00000" pt_clust_6="13000.00000" pt_clust_7="13000.00000" pt_clust_8="13000.00000" pt_clust_9="26.86589"></scales>
<clustering>
<clus scale="   26.866">  2  9  1 -1</clus>
<clus scale="   73.425">  5  6 -1 -1</clus>
<clus scale="   86.976">  7  8 -1 -1</clus>
<clus scale="  114.796">  1  5  2 -1</clus>
<clus scale="   26.866">  2  5  1 -1</clus>
</clustering>
</event>
<event>
 9    2  0.2984928E-005  0.9377860E+02  0.7546771E-02  0.1300658E+00
          2   -1    0    0  502    0  0.00000000000E+00  0.00000000000E+00  0.16207565754E+03  0.16207565754E+03  0.00000000000E+00 0. -1.
         -1   -1    0    0    0  501 -0.00000000000E+00 -0.00000000000E+00 -0.15588235407E+03  0.15588235407E+03  0.00000000000E+00 0.  1.
         24    2    1    2    0    0  0.52604777905E+01 -0.12119956373E+02 -0.65170534214E+02  0.10394678256E+03  0.79894737661E+02 0.  0.
         23    2    1    2    0    0 -0.82764315078E+02 -0.76037478100E+00  0.41533435242E+02  0.12997194874E+03  0.91198526279E+02 0.  0.
        -13    1    3    3    0    0  0.56527495095E+00  0.31693208950E+02 -0.46068792614E+02  0.55920592649E+02  0.00000000000E+00 0.  1.
         14    1    3    3    0    0  0.46952028396E+01 -0.43813165322E+02 -0.19101741600E+02  0.48026189912E+02  0.00000000000E+00 0. -1.
        -13    1    4    4    0    0 -0.32634368765E+02  0.30200469900E+02 -0.16351009755E+02  0.47375372578E+02  0.00000000000E+00 0.  1.
         13    1    4    4    0    0 -0.50129946312E+02 -0.30960844681E+02  0.57884444997E+02  0.82596576159E+02  0.00000000000E+00 0. -1.
         21    1    1    2  502  501  0.77503837287E+02  0.12880331154E+02  0.29830402448E+02  0.84039280311E+02  0.00000000000E+00 0. -1.
<scales pt_clust_5="13000.00000" pt_clust_6="13000.00000" pt_clust_7="13000.00000" pt_clust_8="13000.00000" pt_clust_9="78.56684"></scales>
<clustering>
<clus scale="   78.567">  1  9  2 -1</clus>
<clus scale="   79.895">  5  6 -1 -1</clus>
<clus scale="   82.828">  2  5  1 -1</clus>
<clus scale="   91.199">  7  8 -1 -1</clus>
<clus scale="   78.567">  1  5  2 -1</clus>
</clustering>
</event>
<event>
 9    2  0.2984928E-005  0.8950761E+02  0.7546771E-02  0.1308447E+00
          2   -1    0    0  502    0  0.00000000000E+00  0.00000000000E+00  0.32240396992E+02  0.32240396992E+02  0.00000000000E+00 0. -1.
         -1   -1    0    0    0  501 -0.00000000000E+00 -0.00000000000E+00 -0.32112504641E+03  0.32112504641E+03  0.00000000000E+00 0.  1.
         24    2    1    2    0    0 -0.45772303283E+01  0.12795435043E+02 -0.13259415363E+03  0.15611362841E+03  0.81274726709E+02 0.  0.
         23    2    1    2    0    0 -0.23048844789E+02 -0.88585995004E+01 -0.10990095854E+03  0.14311598705E+03  0.88284998908E+02 0.  0.
        -13    1    3    3    0    0 -0.33602047339E+02 -0.10474992820E+02 -0.27612962020E+02  0.44735877453E+02  0.00000000000E+00 0.  1.
         14    1    3    3    0    0  0.29024817010E+02  0.23270427863E+02 -0.10498119161E+03  0.11137775096E+03  0.00000000000E+00 0. -1.
        -11    1    4    4    0    0 -0.42744693541E+02  0.26975666585E+02 -0.65844837487E+02  0.83008060074E+02  0.00000000000E+00 0.  1.
         11    1    4    4    0    0  0.19695848752E+02 -0.35834266086E+02 -0.44056121050E+02  0.60107926981E+02  0.00000000000E+00 0. -1.
         21    1    1    2  502  501  0.27626075117E+02 -0.39368355425E+01 -0.46389537244E+02  0.54135827935E+02  0.00000000000E+00 0. -1.
<scales pt_clust_5="13000.00000" pt_clust_6="13000.00000" pt_clust_7="13000.00000" pt_clust_8="13000.00000" pt_clust_9="27.90517"></scales>
<clustering>
<clus scale="   27.905">  2  9  1 -1</clus>
<clus scale="   81.275">  5  6 -1 -1</clus>
<clus scale="   82.601">  2  5  1 -1</clus>
<clus scale="   88.285">  7  8 -1 -1</clus>
<clus scale="   89.508">  1  5  2 -1</clus>
</clustering>
</event>
<event>
 9    2  0.2984928E-005  0.9556036E+02  0.7546771E-02  0.1294038E+00
          2   -1    0    0  502    0  0.00000000000E+00  0.00000000000E+00  0.20253691763E+02  0.20253691763E+02  0.00000000000E+00 0. -1.
         -1   -1    0    0    0  501 -0.00000000000E+00 -0.00000000000E+00 -0.68823744419E+03  0.68823744419E+03  0.00000000000E+00 0.  1.
         23    2    1    2    0    0  0.25800860516E+02 -0.15501978396E+02 -0.43816429272E+03  0.44867998836E+03  0.91759407152E+02 0.  0.
         24    2    1    2    0    0  0.13736594845E+00  0.30479476461E+02 -0.18872593497E+03  0.20896043653E+03  0.84368051714E+02 0.  0.
        -13    1    4    4    0    0  0.21972190030E+02  0.49305914838E+02 -0.15734242201E+03  0.16634448635E+03  0.00000000000E+00 0.  1.
         14    1    4    4    0    0 -0.21834824082E+02 -0.18826438377E+02 -0.31383512954E+02  0.42615950183E+02  0.00000000000E+00 0. -1.
        -11    1    3    3    0    0  0.47704204650E+02 -0.40060635581E+02 -0.32065892703E+03  0.32665378177E+03  0.00000000000E+00 0.  1.
         11    1    3    3    0    0 -0.21903344134E+02  0.24558657186E+02 -0.11750536570E+03  0.12202620659E+03  0.00000000000E+00 0. -1.
         21    1    1    2  502  501 -0.25938226465E+02 -0.14977498066E+02 -0.41093524737E+02  0.50850711064E+02  0.00000000000E+00 0. -1.
<scales pt_clust_5="13000.00000" pt_clust_6="13000.00000" pt_clust_7="13000.00000" pt_clust_8="13000.00000" pt_clust_9="29.95191"></scales>
<clustering>
<clus scale="   29.952">  1  9  2 -1</clus>
<clus scale="   84.368">  5  6 -1 -1</clus>
<clus scale="   88.487">  1  5  2 -1</clus>
<clus scale="   91.759">  7  8 -1 -1</clus>
<clus scale="   29.952">  1  5  2 -1</clus>
</clustering>
</event>
<event>
 9    2  0.2984928E-005  0.9619613E+02  0.7546771E-02  0.1294751E+00
         -1   -1    0    0    0  501 -0.00000000000E+00  0.00000000000E+00  0.12155013670E+03  0.12155013670E+03  0.00000000000E+00 0.  1.
          2   -1    0    0  502    0  0.00000000000E+00 -0.00000000000E+00 -0.47157763081E+03  0.47157763081E+03  0.00000000000E+00 0. -1.
         24    2    1    2    0    0 -0.37539862714E+02  0.13996403781E+02  0.81710941367E+02  0.12038660231E+03  0.78810630402E+02 0.  0.
         23    2    1    2    0    0 -0.23611609612E+01  0.27895078178E+01 -0.87275109994E+02  0.12556852642E+03  0.90206172560E+02 0.  0.
        -13    1    3    3    0    0 -0.17630535713E+02  0.44002465979E+02  0.65604769658E+02  0.80938486542E+02  0.00000000000E+00 0.  1.
         14    1    3    3    0    0 -0.19909327001E+02 -0.30006062198E+02  0.16106171709E+02  0.39448115765E+02  0.00000000000E+00 0. -1.
        -11    1    4    4    0    0  0.34430308352E+02 -0.23190820773E+02 -0.24160434218E+02  0.48031103287E+02  0.00000000000E+00 0. -1.
         11    1    4    4    0    0 -0.36791469313E+02  0.25980328590E+02 -0.63114675776E+02  0.77537423134E+02  0.00000000000E+00 0.  1.
         21    1    1    2  502  501  0.39901023675E+02 -0.16785911599E+02 -0.34446332548E+03  0.34717263878E+03  0.00000000000E+00 0. -1.
<scales pt_clust_5="13000.00000" pt_clust_6="13000.00000" pt_clust_7="13000.00000" pt_clust_8="13000.00000" pt_clust_9="43.28809"></scales>
<clustering>
<clus scale="   43.288">  2  9  1 -1</clus>
<clus scale="   78.811">  5  6 -1 -1</clus>
<clus scale="   85.602">  1  5  2 -1</clus>
<clus scale="   90.206">  7  8 -1 -1</clus>
<clus scale="   43.288">  2  5  1 -1</clus>
</clustering>
</event>
<event>
 9    2  0.2984928E-005  0.1002258E+03  0.7546771E-02  0.1284612E+00
          2   -1    0    0  502    0  0.00000000000E+00  0.00000000000E+00  0.40255329069E+03  0.40255329069E+03  0.00000000000E+00 0. -1.
         -1   -1    0    0    0  501 -0.00000000000E+00 -0.00000000000E+00 -0.35030224117E+02  0.35030224117E+02  0.00000000000E+00 0.  1.
         23    2    1    2    0    0  0.24389978132E+02 -0.35643731358E+02  0.82469639647E+02  0.12974055700E+03  0.90366055848E+02 0.  0.
         24    2    1    2    0    0 -0.41669471528E+02  0.22539684358E+02  0.24606859483E+03  0.26323226320E+03  0.80604520951E+02 0.  0.
        -13    1    4    4    0    0  0.20978352172E+02  0.11379685115E+02  0.32088564637E+02  0.39990804864E+02  0.00000000000E+00 0.  1.
         14    1    4    4    0    0 -0.62647823699E+02  0.11159999243E+02  0.21398003020E+03  0.22324145834E+03  0.00000000000E+00 0. -1.
        -13    1    3    3    0    0  0.57189135661E+02 -0.16939206543E+02  0.35255752242E+02  0.69285655240E+02  0.00000000000E+00 0.  1.
         13    1    3    3    0    0 -0.32799157529E+02 -0.18704524815E+02  0.47213887405E+02  0.60454901762E+02  0.00000000000E+00 0. -1.
         21    1    1    2  502  501  0.17279493396E+02  0.13104047000E+02  0.38984832094E+02  0.44610694606E+02  0.00000000000E+00 0.  1.
<scales pt_clust_5="13000.00000" pt_clust_6="13000.00000" pt_clust_7="13000.00000" pt_clust_8="13000.00000" pt_clust_9="21.68633"></scales>
<clustering>
<clus scale="   21.686">  1  9  2 -1</clus>
<clus scale="   80.605">  5  6 -1 -1</clus>
<clus scale="   90.366">  7  8 -1 -1</clus>
<clus scale="   91.522">  1  5  2 -1</clus>
<clus scale="   21.686">  1  5  2 -1</clus>
</clustering>
</event>
<event>
 9    2  0.2984928E-005  0.1761913E+03  0.7546771E-02  0.1171990E+00
          2   -1    0    0  502    0  0.00000000000E+00  0.00000000000E+00  0.36158616056E+03  0.36158616056E+03  0.00000000000E+00 0. -1.
         -1   -1    0    0    0  501 -0.00000000000E+00 -0.00000000000E+00 -0.35208706105E+03  0.35208706105E+03  0.00000000000E+00 0.  1.
         23    2    1    2    0    0  0.45420017981E+01 -0.74695432311E+02 -0.24598799008E+03  0.26761350017E+03  0.74208199142E+02 0.  0.
         24    2    1    2    0    0 -0.26643724542E+01  0.16633523172E+03  0.29389676853E+03  0.34667822535E+03  0.78332452942E+02 0.  0.
        -11    1    4    4    0    0  0.77405900960E+01  0.86717315126E+02  0.80112800788E+02  0.11831259581E+03  0.00000000000E+00 0.  1.
         12    1    4    4    0    0 -0.10404962550E+02  0.79617916598E+02  0.21378396774E+03  0.22836562954E+03  0.00000000000E+00 0. -1.
        -11    1    3    3    0    0  0.27586391081E+02 -0.19465001346E+02 -0.15552114537E+03  0.15914371463E+03  0.00000000000E+00 0.  1.
         11    1    3    3    0    0 -0.23044389283E+02 -0.55230430965E+02 -0.90466844712E+02  0.10846978554E+03  0.00000000000E+00 0. -1.
         21    1    1    2  502  501 -0.18776293440E+01 -0.91639799413E+02 -0.38409678943E+02  0.99381496089E+02  0.00000000000E+00 0.  1.
<scales pt_clust_5="13000.00000" pt_clust_6="13000.00000" pt_clust_7="13000.00000" pt_clust_8="13000.00000" pt_clust_9="91.65903"></scales>
<clustering>
<clus scale="   74.208">  7  8 -1 -1</clus>
<clus scale="   78.332">  5  6 -1 -1</clus>
<clus scale="   91.659">  2  9  1 -1</clus>
<clus scale="  174.397">  2  7  1 -1</clus>
<clus scale="  176.191">  1  5  2 -1</clus>
</clustering>
</event>
<event>
 9    2  0.2984928E-005  0.1108803E+03  0.7546771E-02  0.1263381E+00
         -1   -1    0    0    0  501 -0.00000000000E+00  0.00000000000E+00  0.48863902845E+02  0.48863902845E+02  0.00000000000E+00 0.  1.
          2   -1    0    0  502    0  0.00000000000E+00 -0.00000000000E+00 -0.11559667624E+04  0.11559667624E+04  0.00000000000E+00 0. -1.
         23    2    1    2    0    0  0.25005315034E+02 -0.63109212051E+02 -0.29816256139E+02  0.11804804354E+03  0.91860181954E+02 0.  0.
         24    2    1    2    0    0  0.48946656341E+01  0.10336315617E+02 -0.69080470665E+03  0.69557009127E+03  0.80472429829E+02 0.  0.
        -13    1    4    4    0    0  0.67287708220E+00  0.41300495478E+02 -0.22799502735E+03  0.23170653031E+03  0.00000000000E+00 0.  1.
         14    1    4    4    0    0  0.42217885519E+01 -0.30964179861E+02 -0.46280967930E+03  0.46386356096E+03  0.00000000000E+00 0. -1.
        -13    1    3    3    0    0  0.13505556201E+02  0.18778181773E+02 -0.26661884779E+02  0.35296972377E+02  0.00000000000E+00 0.  1.
         13    1    3    3    0    0  0.11499758832E+02 -0.81887393824E+02 -0.31543713604E+01  0.82751071166E+02  0.00000000000E+00 0. -1.
         21    1    1    2  502  501 -0.29899980668E+02  0.52772896433E+02 -0.38648189680E+03  0.39121253047E+03  0.00000000000E+00 0.  1.
<scales pt_clust_5="13000.00000" pt_clust_6="13000.00000" pt_clust_7="13000.00000" pt_clust_8="13000.00000" pt_clust_9="60.65466"></scales>
<clustering>
<clus scale="   60.655">  2  9  1 -1</clus>
<clus scale="   80.472">  5  6 -1 -1</clus>
<clus scale="   91.860">  7  8 -1 -1</clus>
<clus scale="  101.646">  2  5  1 -1</clus>
<clus scale="   60.655">  2  5  1 -1</clus>
</clustering>
</event>
<event>
 9    2  0.2984928E-005  0.1084103E+03  0.7546771E-02  0.1272327E+00
         -1   -1    0    0    0  501 -0.00000000000E+00  0.00000000000E+00  0.14383553881E+03  0.14383553881E+03  0.00000000000E+00 0.  1.
          2   -1    0    0  502    0  0.00000000000E+00 -0.00000000000E+00 -0.32958285906E+03  0.32958285906E+03  0.00000000000E+00 0. -1.
         23    2    1    2    0    0  0.41347349614E+02 -0.75116548746E+01  0.99465728950E+02  0.14768044823E+03  0.10074748273E+03 0.  0.
         24    2    1    2    0    0 -0.94322711973E+01  0.54632738994E+02 -0.20067077977E+03  0.22382443669E+03  0.82188275918E+02 0.  0.
        -11    1    4    4    0    0 -0.12543364090E+02  0.49131918795E+02 -0.44321337509E+02  0.67347326493E+02  0.00000000000E+00 0.  1.
         12    1    4    4    0    0  0.31110928928E+01  0.55008201984E+01 -0.15634944226E+03  0.15647711020E+03  0.00000000000E+00 0. -1.
        -11    1    3    3    0    0  0.21817294092E+02  0.17213732308E+02  0.11077219990E+03  0.11420502254E+03  0.00000000000E+00 0.  1.
         11    1    3    3    0    0  0.19530055522E+02 -0.24725387183E+02 -0.11306470954E+02  0.33475425695E+02  0.00000000000E+00 0. -1.
         21    1    1    2  502  501 -0.31915078417E+02 -0.47121084119E+02 -0.84542269438E+02  0.10191351294E+03  0.00000000000E+00 0.  1.
<scales pt_clust_5="13000.00000" pt_clust_6="13000.00000" pt_clust_7="13000.00000" pt_clust_8="13000.00000" pt_clust_9="56.91194"></scales>
<clustering>
<clus scale="   56.912">  2  9  1 -1</clus>
<clus scale="   82.188">  5  6 -1 -1</clus>
<clus scale="   91.420">  2  5  1 -1</clus>
<clus scale="  100.747">  7  8 -1 -1</clus>
<clus scale="   56.912">  2  5  1 -1</clus>
</clustering>
</event>
<event>
 9    2  0.2984928E-005  0.1031502E+03  0.7546771E-02  0.1284213E+00
          2   -1    0    0  502    0  0.00000000000E+00  0.00000000000E+00  0.88161439814E+03  0.88161439814E+03  0.00000000000E+00 0. -1.
         -1   -1    0    0    0  501 -0.00000000000E+00 -0.00000000000E+00 -0.24659997187E+02  0.24659997187E+02  0.00000000000E+00 0.  1.
         23    2    1    2    0    0 -0.30923431551E+02  0.73895420796E+01  0.12937338220E+03  0.16768824474E+03  0.10183816304E+03 0.  0.
         24    2    1    2    0    0  0.10015706728E+02  0.13014777154E+02  0.65349784919E+03  0.65895082417E+03  0.82988258072E+02 0.  0.
        -13    1    4    4    0    0 -0.57602274646E+01  0.35968521416E+02  0.13881409167E+03  0.14351399513E+03  0.00000000000E+00 0.  1.
         14    1    4    4    0    0  0.15775934192E+02 -0.22953744262E+02  0.51468375751E+03  0.51543682903E+03  0.00000000000E+00 0. -1.
        -11    1    3    3    0    0 -0.66114785004E+02  0.64188354019E+01  0.10710729278E+03  0.12603308459E+03  0.00000000000E+00 0.  1.
         11    1    3    3    0    0  0.35191353453E+02  0.97070667764E+00  0.22266089424E+02  0.41655160155E+02  0.00000000000E+00 0. -1.
         21    1    1    2  502  501  0.20907724823E+02 -0.20404319234E+02  0.74083169569E+02  0.79635326421E+02  0.00000000000E+00 0.  1.
<scales pt_clust_5="13000.00000" pt_clust_6="13000.00000" pt_clust_7="13000.00000" pt_clust_8="13000.00000" pt_clust_9="29.21420"></scales>
<clustering>
<clus scale="   29.214">  2  9  1 -1</clus>
<clus scale="   82.988">  5  6 -1 -1</clus>
<clus scale="   84.593">  1  5  2 -1</clus>
<clus scale="  101.838">  7  8 -1 -1</clus>
<clus scale="   84.593">  1  5  2 -1</clus>
</clustering>
</event>
<event>
 9    2  0.2984928E-005  0.9555869E+02  0.7546771E-02  0.1295188E+00
         -1   -1    0    0    0  501 -0.00000000000E+00  0.00000000000E+00  0.12735987404E+03  0.12735987404E+03  0.00000000000E+00 0.  1.
          2   -1    0    0  502    0  0.00000000000E+00 -0.00000000000E+00 -0.26399807903E+03  0.26399807903E+03  0.00000000000E+00 0. -1.
         24    2    1    2    0    0 -0.23988184122E+02  0.22044694104E+02  0.94995603362E+02  0.12893489482E+03  0.80861863247E+02 0.  0.
         23    2    1    2    0    0  0.22994143335E+02  0.67034808355E+01 -0.19079979251E+03  0.21247445937E+03  0.90372383951E+02 0.  0.
        -13    1    3    3    0    0  0.14227979860E+02  0.33007969787E+02  0.77635257611E+02  0.85552292224E+02  0.00000000000E+00 0.  1.
         14    1    3    3    0    0 -0.38216163982E+02 -0.10963275683E+02  0.17360345751E+02  0.43382602593E+02  0.00000000000E+00 0. -1.
        -11    1    4    4    0    0  0.54227572356E+02 -0.13589026468E+02 -0.10547945569E+03  0.11937841855E+03  0.00000000000E+00 0.  1.
         11    1    4    4    0    0 -0.31233429021E+02  0.20292507303E+02 -0.85320336818E+02  0.93096040817E+02  0.00000000000E+00 0. -1.
         21    1    1    2  502  501  0.99404078714E+00 -0.28748174940E+02 -0.40834015855E+02  0.49948598882E+02  0.00000000000E+00 0. -1.
<scales pt_clust_5="13000.00000" pt_clust_6="13000.00000" pt_clust_7="13000.00000" pt_clust_8="13000.00000" pt_clust_9="28.76536"></scales>
<clustering>
<clus scale="   28.765">  2  9  1 -1</clus>
<clus scale="   80.862">  5  6 -1 -1</clus>
<clus scale="   86.619">  1  5  2 -1</clus>
<clus scale="   90.372">  7  8 -1 -1</clus>
<clus scale="   28.765">  2  5  1 -1</clus>
</clustering>
</event>
<event>
 9    2  0.2984928E-005  0.1183297E+03  0.7546771E-02  0.1254006E+00
          2   -1    0    0  502    0  0.00000000000E+00  0.00000000000E+00  0.27016843353E+03  0.27016843353E+03  0.00000000000E+00 0. -1.
         -1   -1    0    0    0  501 -0.00000000000E+00 -0.00000000000E+00 -0.30023763055E+03  0.30023763055E+03  0.00000000000E+00 0.  1.
         24    2    1    2    0    0  0.74323406400E+02 -0.47395718906E+02 -0.22644357173E+03  0.25461247480E+03  0.76029587913E+02 0.  0.
         23    2    1    2    0    0  0.21644582541E+02 -0.34213419802E+02  0.25991412100E+02  0.10389677389E+03  0.92086590091E+02 0.  0.
        -13    1    3    3    0    0  0.67014281754E+01 -0.39703434548E+02 -0.42799025685E+02  0.58762474881E+02  0.00000000000E+00 0.  1.
         14    1    3    3    0    0  0.67621978225E+02 -0.76922843575E+01 -0.18364454604E+03  0.19584999992E+03  0.00000000000E+00 0. -1.
        -13    1    4    4    0    0  0.19570813268E+02  0.20588964496E+02  0.38306228539E+02  0.47689509704E+02  0.00000000000E+00 0. -1.
         13    1    4    4    0    0  0.20737692735E+01 -0.54802384297E+02 -0.12314816439E+02  0.56207264189E+02  0.00000000000E+00 0.  1.
         21    1    1    2  502  501 -0.95967988941E+02  0.81609138707E+02  0.17038296261E+03  0.21189681539E+03  0.00000000000E+00 0. -1.
<scales pt_clust_5="13000.00000" pt_clust_6="13000.00000" pt_clust_7="13000.00000" pt_clust_8="13000.00000" pt_clust_9="90.67208"></scales>
<clustering>
<clus scale="   76.030">  5  6 -1 -1</clus>
<clus scale="   92.087">  7  8 -1 -1</clus>
<clus scale="  100.593">  1  7  2 -1</clus>
<clus scale="   90.672">  1  9  2 -1</clus>
<clus scale="  100.593">  1  5  2 -1</clus>
</clustering>
</event>
<event>
 9    2  0.2984928E-005  0.9454604E+02  0.7546771E-02  0.1301027E+00
         -1   -1    0    0    0  501 -0.00000000000E+00  0.00000000000E+00  0.23452410013E+03  0.23452410013E+03  0.00000000000E+00 0.  1.
          2   -1    0    0  502    0  0.00000000000E+00 -0.00000000000E+00 -0.15533941880E+03  0.15533941880E+03  0.00000000000E+00 0. -1.
         23    2    1    2    0    0 -0.11228141940E+02 -0.21823292614E+01  0.17083872350E+03  0.19552076294E+03  0.94401618428E+02 0.  0.
         24    2    1    2    0    0 -0.43915779166E+02 -0.41050967991E+02 -0.42776621715E+02  0.10890873316E+03  0.80109270125E+02 0.  0.
        -11    1    4    4    0    0 -0.36562058273E+02 -0.30590149961E+02  0.14810652951E+02  0.49918902438E+02  0.00000000000E+00 0.  1.
         12    1    4    4    0    0 -0.73537208934E+01 -0.10460818029E+02 -0.57587274666E+02  0.58989830719E+02  0.00000000000E+00 0. -1.
        -11    1    3    3    0    0 -0.40644416814E+02  0.13516441031E+02  0.15047146761E+03  0.15644911429E+03  0.00000000000E+00 0.  1.
         11    1    3    3    0    0  0.29416274874E+02 -0.15698770293E+02  0.20367255888E+02  0.39071648654E+02  0.00000000000E+00 0. -1.
         21    1    1    2  502  501  0.55143921106E+02  0.43233297252E+02 -0.48877420455E+02  0.85434022828E+02  0.00000000000E+00 0. -1.
<scales pt_clust_5="13000.00000" pt_clust_6="13000.00000" pt_clust_7="13000.00000" pt_clust_8="13000.00000" pt_clust_9="70.07118"></scales>
<clustering>
<clus scale="   70.071">  2  9  1 -1</clus>
<clus scale="   80.109">  5  6 -1 -1</clus>
<clus scale="   80.279">  2  5  1 -1</clus>
<clus scale="   94.402">  7  8 -1 -1</clus>
<clus scale="   70.071">  2  5  1 -1</clus>
</clustering>
</event>
<event>
 9    2  0.2984928E-005  0.9692440E+02  0.7546771E-02  0.1293172E+00
         -3   -1    0    0    0  501 -0.00000000000E+00  0.00000000000E+00  0.24900285563E+03  0.24900285563E+03  0.00000000000E+00 0.  1.
          4   -1    0    0  502    0  0.00000000000E+00 -0.00000000000E+00 -0.86822572712E+02  0.86822572712E+02  0.00000000000E+00 0. -1.
         24    2    1    2    0    0  0.31791852135E+02  0.13105574288E+02  0.19213236312E+03  0.21082594027E+03  0.79688482174E+02 0.  0.
         23    2    1    2    0    0 -0.27720706238E+02  0.11519560941E+02 -0.27756660112E+02  0.99943722605E+02  0.91198561770E+02 0.  0.
        -13    1    3    3    0    0  0.49441548869E+02  0.29234504169E+02  0.96956600876E+02  0.11269296980E+03  0.00000000000E+00 0.  1.
         14    1    3    3    0    0 -0.17649696734E+02 -0.16128929881E+02  0.95175762248E+02  0.98132970470E+02  0.00000000000E+00 0. -1.
        -13    1    4    4    0    0 -0.56806698348E+02  0.10434465220E+01 -0.36848666097E+02  0.67719376481E+02  0.00000000000E+00 0. -1.
         13    1    4    4    0    0  0.29085992109E+02  0.10476114419E+02  0.90920059852E+01  0.32224346124E+02  0.00000000000E+00 0.  1.
         21    1    1    2  502  501 -0.40711458968E+01 -0.24625135229E+02 -0.21954200920E+01  0.25055765471E+02  0.00000000000E+00 0. -1.
<scales pt_clust_5="13000.00000" pt_clust_6="13000.00000" pt_clust_7="13000.00000" pt_clust_8="13000.00000" pt_clust_9="24.95940"></scales>
<clustering>
<clus scale="   24.959">  2  9  1 -1</clus>
<clus scale="   79.688">  5  6 -1 -1</clus>
<clus scale="   86.182">  1  5  2 -1</clus>
<clus scale="   91.199">  7  8 -1 -1</clus>
<clus scale="   24.959">  2  5  1 -1</clus>
</clustering>
</event>
<event>
 9    2  0.2984928E-005  0.1029412E+03  0.7546771E-02  0.1279646E+00
          2   -1    0    0  502    0  0.00000000000E+00  0.00000000000E+00  0.30617810340E+03  0.30617810340E+03  0.00000000000E+00 0. -1.
         -1   -1    0    0    0  501 -0.00000000000E+00 -0.00000000000E+00 -0.65935026291E+02  0.65935026291E+02  0.00000000000E+00 0.  1.
         24    2    1    2    0    0  0.47447299459E+02 -0.19230572152E+01 -0.47600256106E+01  0.91568357174E+02  0.78148332143E+02 0.  0.
         23    2    1    2    0    0 -0.59806627833E+02  0.20107761460E+02  0.17023455018E+03  0.20261035832E+03  0.89944429634E+02 0.  0.
        -11    1    3    3    0    0  0.57057695944E+02 -0.43752189376E+01 -0.29883404793E+02  0.64558044342E+02  0.00000000000E+00 0.  1.
         12    1    3    3    0    0 -0.96103964853E+01  0.24521617224E+01  0.25123379183E+02  0.27010312832E+02  0.00000000000E+00 0. -1.
        -13    1    4    4    0    0 -0.37356972532E+02  0.31114678451E+02  0.17081679027E+03  0.17760079519E+03  0.00000000000E+00 0. -1.
         13    1    4    4    0    0 -0.22449655301E+02 -0.11006916991E+02 -0.58224009471E+00  0.25009563137E+02  0.00000000000E+00 0.  1.
         21    1    1    2  502  501  0.12359328374E+02 -0.18184704245E+02  0.74768552539E+02  0.77934414190E+02  0.00000000000E+00 0. -1.
<scales pt_clust_5="13000.00000" pt_clust_6="13000.00000" pt_clust_7="13000.00000" pt_clust_8="13000.00000" pt_clust_9="21.98719"></scales>
<clustering>
<clus scale="   21.987">  1  9  2 -1</clus>
<clus scale="   78.148">  5  6 -1 -1</clus>
<clus scale="   89.944">  7  8 -1 -1</clus>
<clus scale="   92.812">  2  5  1 -1</clus>
<clus scale="   21.987">  1  5  2 -1</clus>
</clustering>
</event>
<event>
 9    2  0.2984928E-005  0.1511542E+03  0.7546771E-02  0.1201252E+00
         -3   -1    0    0    0  501 -0.00000000000E+00  0.00000000000E+00  0.11655265668E+03  0.11655265668E+03  0.00000000000E+00 0.  1.
          4   -1    0    0  502    0  0.00000000000E+00 -0.00000000000E+00 -0.64779032098E+03  0.64779032098E+03  0.00000000000E+00 0. -1.
         24    2    1    2    0    0  0.86499012753E+02 -0.44708828548E+01  0.39448624082E+02  0.12414742735E+03  0.79713999868E+02 0.  0.
         23    2    1    2    0    0 -0.12289043032E+03 -0.19870545435E+02 -0.57571092361E+03  0.59612643003E+03  0.91797366924E+02 0.  0.
        -11    1    3    3    0    0  0.58845443643E+02  0.17506910212E+02  0.57817378294E+02  0.84333429762E+02  0.00000000000E+00 0.  1.
         12    1    3    3    0    0  0.27653569110E+02 -0.21977793066E+02 -0.18368754212E+02  0.39813997588E+02  0.00000000000E+00 0. -1.
        -13    1    4    4    0    0  0.26657516677E+01 -0.27910127482E+02 -0.83072616052E+02  0.87676342224E+02  0.00000000000E+00 0.  1.
         13    1    4    4    0    0 -0.12555618199E+03  0.80395820475E+01 -0.49263830756E+03  0.50845008780E+03  0.00000000000E+00 0. -1.
         21    1    1    2  502  501  0.36391417565E+02  0.24341428289E+02  0.50246352239E+01  0.44069120285E+02  0.00000000000E+00 0. -1.
<scales pt_clust_5="13000.00000" pt_clust_6="13000.00000" pt_clust_7="13000.00000" pt_clust_8="13000.00000" pt_clust_9="43.78174"></scales>
<clustering>
<clus scale="   43.782">  1  9  2 -1</clus>
<clus scale="   79.714">  5  6 -1 -1</clus>
<clus scale="   91.797">  7  8 -1 -1</clus>
<clus scale="  144.136">  1  5  2 -1</clus>
<clus scale="  151.154">  2  5  1 -1</clus>
</clustering>
</event>
<event>
 9    2  0.2984928E-005  0.1050200E+03  0.7546771E-02  0.1281978E+00
         -1   -1    0    0    0  501 -0.00000000000E+00  0.00000000000E+00  0.20367316656E+03  0.20367316656E+03  0.00000000000E+00 0.  1.
          2   -1    0    0  502    0  0.00000000000E+00 -0.00000000000E+00 -0.25548029721E+03  0.25548029721E+03  0.00000000000E+00 0. -1.
         24    2    1    2    0    0 -0.15821312033E+02  0.22682362004E+02  0.17677562122E+03  0.19562814065E+03  0.79094536455E+02 0.  0.
         23    2    1    2    0    0 -0.98032377547E+01 -0.25678062693E+02 -0.18938888209E+03  0.21660250136E+03  0.10145456401E+03 0.  0.
        -13    1    3    3    0    0 -0.27874715220E+02 -0.16997734717E+02  0.12552168588E+03  0.12969817408E+03  0.00000000000E+00 0.  1.
         14    1    3    3    0    0  0.12053403187E+02  0.39680096721E+02  0.51253935338E+02  0.65929966569E+02  0.00000000000E+00 0. -1.
        -13    1    4    4    0    0  0.27014655184E+02 -0.52835197387E+02 -0.10479918309E+03  0.12043346069E+03  0.00000000000E+00 0. -1.
         13    1    4    4    0    0 -0.36817892938E+02  0.27157134694E+02 -0.84589699004E+02  0.96169040667E+02  0.00000000000E+00 0.  1.
         21    1    1    2  502  501  0.25624549788E+02  0.29957006899E+01 -0.39193869776E+02  0.46922821766E+02  0.00000000000E+00 0.  1.
<scales pt_clust_5="13000.00000" pt_clust_6="13000.00000" pt_clust_7="13000.00000" pt_clust_8="13000.00000" pt_clust_9="25.79907"></scales>
<clustering>
<clus scale="   25.799">  2  9  1 -1</clus>
<clus scale="   79.095">  5  6 -1 -1</clus>
<clus scale="   83.619">  1  5  2 -1</clus>
<clus scale="  101.455">  7  8 -1 -1</clus>
<clus scale="   25.799">  2  5  1 -1</clus>
</clustering>
</event>
<event>
 9    2  0.2984928E-005  0.1382213E+03  0.7546771E-02  0.1217779E+00
          2   -1    0    0  502    0  0.00000000000E+00  0.00000000000E+00  0.45775717690E+03  0.45775717690E+03  0.00000000000E+00 0. -1.
         -1   -1    0    0    0  501 -0.00000000000E+00 -0.00000000000E+00 -0.16118498798E+03  0.16118498798E+03  0.00000000000E+00 0.  1.
         23    2    1    2    0    0 -0.69923798872E+02 -0.10118561950E+03 -0.59735147573E+02  0.16392701933E+03  0.90420752973E+02 0.  0.
         24    2    1    2    0    0  0.10657049985E+03 -0.19810346788E+02  0.97267016736E+02  0.16677064550E+03  0.81251796159E+02 0.  0.
        -13    1    4    4    0    0  0.39302397885E+02 -0.63438169126E+01 -0.84950298326E+01  0.40707346074E+02  0.00000000000E+00 0.  1.
         14    1    4    4    0    0  0.67268101963E+02 -0.13466529876E+02  0.10576204657E+03  0.12606329943E+03  0.00000000000E+00 0. -1.
        -13    1    3    3    0    0 -0.22527326672E+02 -0.16052264578E+02 -0.60459164524E+02  0.66486586768E+02  0.00000000000E+00 0.  1.
         13    1    3    3    0    0 -0.47396472200E+02 -0.85133354921E+02  0.72401695075E+00  0.97440432561E+02  0.00000000000E+00 0. -1.
         21    1    1    2  502  501 -0.36646700977E+02  0.12099596629E+03  0.25904031976E+03  0.28824450005E+03  0.00000000000E+00 0.  1.
<scales pt_clust_5="13000.00000" pt_clust_6="13000.00000" pt_clust_7="13000.00000" pt_clust_8="13000.00000" pt_clust_9="126.42391"></scales>
<clustering>
<clus scale="   81.252">  5  6 -1 -1</clus>
<clus scale="   90.421">  7  8 -1 -1</clus>
<clus scale="  126.424">  1  9  2 -1</clus>
<clus scale="  132.405">  1  5  2 -1</clus>
<clus scale="  126.424">  1  5  2 -1</clus>
</clustering>
</event>
<event>
 9    2  0.2984928E-005  0.1154150E+03  0.7546771E-02  0.1255296E+00
         -1   -1    0    0    0  501 -0.00000000000E+00  0.00000000000E+00  0.43252083705E+02  0.43252083705E+02  0.00000000000E+00 0.  1.
          2   -1    0    0  502    0  0.00000000000E+00 -0.00000000000E+00 -0.60579455538E+03  0.60579455538E+03  0.00000000000E+00 0. -1.
         24    2    1    2    0    0  0.25859797235E+02  0.79218637411E+02 -0.83034241397E+02  0.14281216819E+03  0.80971035024E+02 0.  0.
         23    2    1    2    0    0  0.14746388177E+01 -0.22379763583E+02 -0.33678487971E+03  0.35019670697E+03  0.93330863038E+02 0.  0.
        -13    1    3    3    0    0  0.43330374220E+02  0.39110482343E+02 -0.12316017667E+02  0.59655975814E+02  0.00000000000E+00 0.  1.
         14    1    3    3    0    0 -0.17470576985E+02  0.40108155067E+02 -0.70718223730E+02  0.83156192377E+02  0.00000000000E+00 0. -1.
        -11    1    4    4    0    0  0.64528003311E+01 -0.58738294522E+02 -0.19665311882E+03  0.20533941418E+03  0.00000000000E+00 0. -1.
         11    1    4    4    0    0 -0.49781615134E+01  0.36358530939E+02 -0.14013176089E+03  0.14485729279E+03  0.00000000000E+00 0.  1.
         21    1    1    2  502  501 -0.27334436053E+02 -0.56838873827E+02 -0.14272335057E+03  0.15603776392E+03  0.00000000000E+00 0. -1.
<scales pt_clust_5="13000.00000" pt_clust_6="13000.00000" pt_clust_7="13000.00000" pt_clust_8="13000.00000" pt_clust_9="63.07003"></scales>
<clustering>
<clus scale="   63.070">  2  9  1 -1</clus>
<clus scale="   80.971">  5  6 -1 -1</clus>
<clus scale="   93.331">  7  8 -1 -1</clus>
<clus scale="  105.671">  1  5  2 -1</clus>
<clus scale="   63.070">  2  5  1 -1</clus>
</clustering>
</event>
<event>
 9    2  0.2984928E-005  0.1069362E+03  0.7546771E-02  0.1273374E+00
         -1   -1    0    0    0  501 -0.00000000000E+00  0.00000000000E+00  0.15643428416E+03  0.15643428416E+03  0.00000000000E+00 0.  1.
          2   -1    0    0  502    0  0.00000000000E+00 -0.00000000000E+00 -0.12250118986E+03  0.12250118986E+03  0.00000000000E+00 0. -1.
         24    2    1    2    0    0  0.49664119130E+02 -0.25021785668E+02  0.61286478925E+02  0.11521999245E+03  0.80168570360E+02 0.  0.
         23    2    1    2    0    0 -0.25901661905E+01  0.49368815532E+02 -0.10858388993E+02  0.10821034857E+03  0.95643013431E+02 0.  0.
        -11    1    3    3    0    0  0.55066844218E+02  0.16829098272E+01  0.84018402897E+01  0.55729529317E+02  0.00000000000E+00 0.  1.
         12    1    3    3    0    0 -0.54027250883E+01 -0.26704695495E+02  0.52884638636E+02  0.59490463131E+02  0.00000000000E+00 0. -1.
        -13    1    4    4    0    0  0.20339374479E+02 -0.15684137678E+02  0.20091557163E+02  0.32609093795E+02  0.00000000000E+00 0.  1.
         13    1    4    4    0    0 -0.22929540669E+02  0.65052953210E+02 -0.30949946155E+02  0.75601254776E+02  0.00000000000E+00 0. -1.
         21    1    1    2  502  501 -0.47073952939E+02 -0.24347029864E+02 -0.16494995632E+02  0.55505133001E+02  0.00000000000E+00 0. -1.
<scales pt_clust_5="13000.00000" pt_clust_6="13000.00000" pt_clust_7="13000.00000" pt_clust_8="13000.00000" pt_clust_9="52.99750"></scales>
<clustering>
<clus scale="   52.997">  2  9  1 -1</clus>
<clus scale="   80.169">  5  6 -1 -1</clus>
<clus scale="   93.353">  1  5  2 -1</clus>
<clus scale="   95.643">  7  8 -1 -1</clus>
<clus scale="   52.997">  2  5  1 -1</clus>
</clustering>
</event>
<event>
 9    2  0.2984928E-005  0.1384093E+03  0.7546771E-02  0.1217981E+00
         -1   -1    0    0    0  501 -0.00000000000E+00  0.00000000000E+00  0.26060067048E+03  0.26060067048E+03  0.00000000000E+00 0.  1.
          2   -1    0    0  502    0  0.00000000000E+00 -0.00000000000E+00 -0.23563063275E+03  0.23563063275E+03  0.00000000000E+00 0. -1.
         23    2    1    2    0    0 -0.61204613138E+02 -0.79447773047E+02  0.16449258777E+03  0.21284610593E+03  0.90485910868E+02 0.  0.
         24    2    1    2    0    0  0.41126161493E+02  0.14047716317E+03 -0.14246066910E+03  0.21907063268E+03  0.79194099105E+02 0.  0.
        -13    1    4    4    0    0  0.34197789724E+02  0.15986306694E+02 -0.14583152004E+02  0.40468742828E+02  0.00000000000E+00 0.  1.
         14    1    4    4    0    0  0.69283717682E+01  0.12449085648E+03 -0.12787751710E+03  0.17860188986E+03  0.00000000000E+00 0. -1.
        -13    1    3    3    0    0  0.23540982576E+02 -0.17147005464E+02  0.26817194748E+02  0.39589892538E+02  0.00000000000E+00 0. -1.
         13    1    3    3    0    0 -0.84745595713E+02 -0.62300767583E+02  0.13767539302E+03  0.17325621339E+03  0.00000000000E+00 0.  1.
         21    1    1    2  502  501  0.20078451645E+02 -0.61029390122E+02  0.29381190556E+01  0.64314564623E+02  0.00000000000E+00 0.  1.
<scales pt_clust_5="13000.00000" pt_clust_6="13000.00000" pt_clust_7="13000.00000" pt_clust_8="13000.00000" pt_clust_9="64.24742"></scales>
<clustering>
<clus scale="   64.247">  2  9  1 -1</clus>
<clus scale="   79.194">  5  6 -1 -1</clus>
<clus scale="   90.486">  7  8 -1 -1</clus>
<clus scale="  131.306">  2  5  1 -1</clus>
<clus scale="   64.247">  2  5  1 -1</clus>
</clustering>
</event>
<event>
 9    2  0.2984928E-005  0.1202296E+03  0.7546771E-02  0.1245963E+00
          2   -1    0    0  502    0  0.00000000000E+00  0.00000000000E+00  0.79364841852E+03  0.79364841852E+03  0.00000000000E+00 0. -1.
         -1   -1    0    0    0  501 -0.00000000000E+00 -0.00000000000E+00 -0.60665910546E+02  0.60665910546E+02  0.00000000000E+00 0.  1.
         23    2    1    2    0    0  0.53338295526E+02 -0.12332355780E+02  0.56348563726E+02  0.11967448784E+03  0.90276030246E+02 0.  0.
         24    2    1    2    0    0 -0.30342543600E+02 -0.88817897624E+02  0.57974357462E+03  0.59269646485E+03  0.79857361861E+02 0.  0.
        -11    1    4    4    0    0 -0.42536714077E+02 -0.20164884641E+02  0.14649126519E+03  0.15386905275E+03  0.00000000000E+00 0.  1.
         12    1    4    4    0    0  0.12194170478E+02 -0.68653012983E+02  0.43325230943E+03  0.43882741210E+03  0.00000000000E+00 0. -1.
        -11    1    3    3    0    0 -0.20874409354E+02  0.56018273108E+01 -0.44606951629E+01  0.22068512329E+02  0.00000000000E+00 0.  1.
         11    1    3    3    0    0  0.74212704880E+02 -0.17934183091E+02  0.60809258889E+02  0.97605975511E+02  0.00000000000E+00 0. -1.
         21    1    1    2  502  501 -0.22995751927E+02  0.10115025340E+03  0.96890369628E+02  0.14194337638E+03  0.00000000000E+00 0.  1.
<scales pt_clust_5="13000.00000" pt_clust_6="13000.00000" pt_clust_7="13000.00000" pt_clust_8="13000.00000" pt_clust_9="103.73128"></scales>
<clustering>
<clus scale="   79.857">  5  6 -1 -1</clus>
<clus scale="   90.276">  7  8 -1 -1</clus>
<clus scale="  103.731">  2  9  1 -1</clus>
<clus scale="  112.617">  1  5  2 -1</clus>
<clus scale="  112.617">  1  5  2 -1</clus>
</clustering>
</event>
<event>
 9    2  0.2984928E-005  0.1281791E+03  0.7546771E-02  0.1233679E+00
         -1   -1    0    0    0  501 -0.00000000000E+00  0.00000000000E+00  0.12570340274E+04  0.12570340274E+04  0.00000000000E+00 0.  1.
          2   -1    0    0  502    0  0.00000000000E+00 -0.00000000000E+00 -0.67800518709E+02  0.67800518709E+02  0.00000000000E+00 0. -1.
         24    2    1    2    0    0 -0.17182949724E+02 -0.93550243748E+02  0.86574652772E+03  0.87463971767E+03  0.80191543255E+02 0.  0.
         23    2    1    2    0    0  0.38633800196E+02 -0.66177926851E+02  0.24155991675E+03  0.26940414472E+03  0.91407391902E+02 0.  0.
        -13    1    3    3    0    0 -0.23113852699E+02 -0.97271350819E+02  0.56275345565E+03  0.57156575975E+03  0.00000000000E+00 0.  1.
         14    1    3    3    0    0  0.59309029755E+01  0.37211070716E+01  0.30299307207E+03  0.30307395792E+03  0.00000000000E+00 0. -1.
        -11    1    4    4    0    0  0.15346473955E+02  0.22645868995E+02  0.60120158243E+02  0.66051366924E+02  0.00000000000E+00 0. -1.
         11    1    4    4    0    0  0.23287326241E+02 -0.88823795846E+02  0.18143975851E+03  0.20335277780E+03  0.00000000000E+00 0.  1.
         21    1    1    2  502  501 -0.21450850472E+02  0.15972817060E+03  0.81927064243E+02  0.18079068373E+03  0.00000000000E+00 0. -1.
<scales pt_clust_5="13000.00000" pt_clust_6="13000.00000" pt_clust_7="13000.00000" pt_clust_8="13000.00000" pt_clust_9="99.99603"></scales>
<clustering>
<clus scale="   80.192">  5  6 -1 -1</clus>
<clus scale="   91.407">  7  8 -1 -1</clus>
<clus scale="  119.279">  2  7  1 -1</clus>
<clus scale="   99.996">  2  9  1 -1</clus>
<clus scale="  119.279">  2  5  1 -1</clus>
</clustering>
</event>
<event>
 9    2  0.2984928E-005  0.9381054E+02  0.7546771E-02  0.1298812E+00
         -1   -1    0    0    0  501 -0.00000000000E+00  0.00000000000E+00  0.26578282876E+03  0.26578282876E+03  0.00000000000E+00 0.  1.
          2   -1    0    0  502    0  0.00000000000E+00 -0.00000000000E+00 -0.17253311766E+03  0.17253311766E+03  0.00000000000E+00 0. -1.
         23    2    1    2    0    0  0.22781659403E+02  0.15058538617E+02  0.23958818675E+03  0.25739136685E+03  0.90011404330E+02 0.  0.
         24    2    1    2    0    0 -0.25487552779E+01 -0.21580490107E+02 -0.10694064592E+03  0.13615745716E+03  0.81426885510E+02 0.  0.
        -11    1    4    4    0    0  0.35824394936E+02  0.35168872502E+01 -0.63511203618E+02  0.73002936608E+02  0.00000000000E+00 0.  1.
         12    1    4    4    0    0 -0.38373150214E+02 -0.25097377357E+02 -0.43429442304E+02  0.63154520554E+02  0.00000000000E+00 0. -1.
        -11    1    3    3    0    0  0.41986384443E+02  0.42792002025E+02  0.14196362909E+03  0.15410283547E+03  0.00000000000E+00 0.  1.
         11    1    3    3    0    0 -0.19204725040E+02 -0.27733463408E+02  0.97624557666E+02  0.10328853139E+03  0.00000000000E+00 0. -1.
         21    1    1    2  502  501 -0.20232904125E+02  0.65219514901E+01 -0.39397829731E+02  0.44767122401E+02  0.00000000000E+00 0. -1.
<scales pt_clust_5="13000.00000" pt_clust_6="13000.00000" pt_clust_7="13000.00000" pt_clust_8="13000.00000" pt_clust_9="21.25809"></scales>
<clustering>
<clus scale="   21.258">  2  9  1 -1</clus>
<clus scale="   81.427">  5  6 -1 -1</clus>
<clus scale="   85.608">  2  5  1 -1</clus>
<clus scale="   90.011">  7  8 -1 -1</clus>
<clus scale="   21.258">  2  5  1 -1</clus>
</clustering>
</event>
<event>
 9    2  0.2984928E-005  0.1696069E+03  0.7546771E-02  0.1179791E+00
          2   -1    0    0  502    0  0.00000000000E+00  0.00000000000E+00  0.56273228538E+03  0.56273228538E+03  0.00000000000E+00 0. -1.
         -1   -1    0    0    0  501 -0.00000000000E+00 -0.00000000000E+00 -0.12906104441E+03  0.12906104441E+03  0.00000000000E+00 0.  1.
         24    2    1    2    0    0 -0.64264690351E+01  0.17766942190E+03  0.83569040177E+01  0.19504610974E+03  0.79783607941E+02 0.  0.
         23    2    1    2    0    0  0.52753827283E+02 -0.12793797371E+03  0.38143889854E+03  0.41584916595E+03  0.91015405775E+02 0.  0.
        -13    1    3    3    0    0  0.26372717657E+01  0.18354963707E+03  0.11084818938E+02  0.18390295724E+03  0.00000000000E+00 0.  1.
         14    1    3    3    0    0 -0.90637408008E+01 -0.58802151698E+01 -0.27279149203E+01  0.11143152496E+02  0.00000000000E+00 0. -1.
        -11    1    4    4    0    0 -0.21316885561E+02 -0.14224091235E+02  0.32092965356E+02  0.41069365795E+02  0.00000000000E+00 0.  1.
         11    1    4    4    0    0  0.74070712844E+02 -0.11371388248E+03  0.34934593318E+03  0.37477980015E+03  0.00000000000E+00 0. -1.
         21    1    1    2  502  501 -0.46327358248E+02 -0.49731448188E+02  0.43875438414E+02  0.80898054100E+02  0.00000000000E+00 0. -1.
<scales pt_clust_5="13000.00000" pt_clust_6="13000.00000" pt_clust_7="13000.00000" pt_clust_8="13000.00000" pt_clust_9="67.96647"></scales>
<clustering>
<clus scale="   67.966">  2  9  1 -1</clus>
<clus scale="   79.784">  5  6 -1 -1</clus>
<clus scale="   91.015">  7  8 -1 -1</clus>
<clus scale="  163.854">  2  5  1 -1</clus>
<clus scale="  169.607">  1  5  2 -1</clus>
</clustering>
</event>
<event>
 9    2  0.2984928E-005  0.1006594E+03  0.7546771E-02  0.1286035E+00
         -1   -1    0    0    0  501 -0.00000000000E+00  0.00000000000E+00  0.80753412041E+02  0.80753412041E+02  0.00000000000E+00 0.  1.
          2   -1    0    0  502    0  0.00000000000E+00 -0.00000000000E+00 -0.42046773331E+03  0.42046773331E+03  0.00000000000E+00 0. -1.
         23    2    1    2    0    0  0.18399082706E+02  0.96596235224E+00  0.34712178085E+02  0.10097909002E+03  0.93018180947E+02 0.  0.
         24    2    1    2    0    0 -0.40017378116E+02 -0.10244652419E+01 -0.36673495874E+03  0.37729616427E+03  0.79091248171E+02 0.  0.
        -13    1    4    4    0    0  0.19380987905E+02 -0.17387697176E+02 -0.13643750624E+03  0.13889977615E+03  0.00000000000E+00 0.  1.
         14    1    4    4    0    0 -0.59398366022E+02  0.16363231934E+02 -0.23029745250E+03  0.23839638813E+03  0.00000000000E+00 0. -1.
        -13    1    3    3    0    0 -0.35711294660E+02  0.15275178561E+02  0.13372445347E+02  0.41078582508E+02  0.00000000000E+00 0. -1.
         13    1    3    3    0    0  0.54110377365E+02 -0.14309216209E+02  0.21339732738E+02  0.59900507514E+02  0.00000000000E+00 0.  1.
         21    1    1    2  502  501  0.21618295411E+02  0.58502889658E-01 -0.76915406137E+01  0.22945891050E+02  0.00000000000E+00 0.  1.
<scales pt_clust_5="13000.00000" pt_clust_6="13000.00000" pt_clust_7="13000.00000" pt_clust_8="13000.00000" pt_clust_9="21.61837"></scales>
<clustering>
<clus scale="   21.618">  1  9  2 -1</clus>
<clus scale="   79.091">  5  6 -1 -1</clus>
<clus scale="   87.951">  2  5  1 -1</clus>
<clus scale="   93.018">  7  8 -1 -1</clus>
<clus scale="   87.951">  2  5  1 -1</clus>
</clustering>
</event>
<event>
 9    2  0.2984928E-005  0.1578916E+03  0.7546771E-02  0.1191802E+00
          2   -1    0    0  502    0  0.00000000000E+00  0.00000000000E+00  0.30536017751E+03  0.30536017751E+03  0.00000000000E+00 0. -1.
         -1   -1    0    0    0  501 -0.00000000000E+00 -0.00000000000E+00 -0.12281132756E+03  0.12281132756E+03  0.00000000000E+00 0.  1.
         24    2    1    2    0    0  0.10222258313E+03  0.89498461211E+02 -0.17278737949E+02  0.16280545133E+03  0.88020617680E+02 0.  0.
         23    2    1    2    0    0 -0.79862758227E+02 -0.69804318371E+02  0.18423107699E+03  0.23173463711E+03  0.92245050235E+02 0.  0.
        -11    1    3    3    0    0  0.90591706098E+02  0.27411959855E+02 -0.28072063662E+02  0.98723419284E+02  0.00000000000E+00 0.  1.
         12    1    3    3    0    0  0.11630877031E+02  0.62086501355E+02  0.10793325713E+02  0.64082032045E+02  0.00000000000E+00 0. -1.
        -13    1    4    4    0    0 -0.27784239017E+02 -0.56664733368E+02  0.16153531587E+03  0.17342581762E+03  0.00000000000E+00 0. -1.
         13    1    4    4    0    0 -0.52078519210E+02 -0.13139585003E+02  0.22695761121E+02  0.58308819487E+02  0.00000000000E+00 0.  1.
         21    1    1    2  502  501 -0.22359824902E+02 -0.19694142840E+02  0.15596510922E+02  0.33631416633E+02  0.00000000000E+00 0.  1.
<scales pt_clust_5="13000.00000" pt_clust_6="13000.00000" pt_clust_7="13000.00000" pt_clust_8="13000.00000" pt_clust_9="29.79633"></scales>
<clustering>
<clus scale="   29.796">  1  9  2 -1</clus>
<clus scale="   88.021">  5  6 -1 -1</clus>
<clus scale="   92.245">  7  8 -1 -1</clus>
<clus scale="  155.461">  2  5  1 -1</clus>
<clus scale="   29.796">  1  5  2 -1</clus>
</clustering>
</event>
<event>
 9    2  0.2984928E-005  0.3827423E+03  0.7546771E-02  0.1050093E+00
         -1   -1    0    0    0  501 -0.00000000000E+00  0.00000000000E+00  0.12019155730E+03  0.12019155730E+03  0.00000000000E+00 0.  1.
          2   -1    0    0  502    0  0.00000000000E+00 -0.00000000000E+00 -0.14635287192E+04  0.14635287192E+04  0.00000000000E+00 0. -1.
         23    2    1    2    0    0 -0.15833634302E+03 -0.32320746647E+03 -0.44575271374E+03  0.57998511715E+03  0.90298341107E+02 0.  0.
         24    2    1    2    0    0  0.16286153262E+03  0.35439202760E+03 -0.71629051058E+03  0.81972307822E+03  0.82196358781E+02 0.  0.
        -13    1    4    4    0    0  0.88438271169E+02  0.10592296981E+03 -0.21882654409E+03  0.25870071461E+03  0.00000000000E+00 0.  1.
         14    1    4    4    0    0  0.74423261453E+02  0.24846905778E+03 -0.49746396649E+03  0.56102236361E+03  0.00000000000E+00 0. -1.
        -11    1    3    3    0    0 -0.27321073621E+01 -0.90214271112E+02 -0.12351678070E+03  0.15297867249E+03  0.00000000000E+00 0. -1.
         11    1    3    3    0    0 -0.15560423566E+03 -0.23299319536E+03 -0.32223593304E+03  0.42700644466E+03  0.00000000000E+00 0.  1.
         21    1    1    2  502  501 -0.45251896019E+01 -0.31184561128E+02 -0.18129393758E+03  0.18401208112E+03  0.00000000000E+00 0.  1.
<scales pt_clust_5="13000.00000" pt_clust_6="13000.00000" pt_clust_7="13000.00000" pt_clust_8="13000.00000" pt_clust_9="31.51118"></scales>
<clustering>
<clus scale="   31.511">  2  9  1 -1</clus>
<clus scale="   82.196">  5  6 -1 -1</clus>
<clus scale="   90.298">  7  8 -1 -1</clus>
<clus scale="  380.912">  2  5  1 -1</clus>
<clus scale="   31.511">  2  5  1 -1</clus>
</clustering>
</event>
<event>
 9    2  0.2984928E-005  0.9609246E+02  0.7546771E-02  0.1290459E+00
          2   -1    0    0  502    0  0.00000000000E+00  0.00000000000E+00  0.36908931568E+03  0.36908931568E+03  0.00000000000E+00 0. -1.
         -1   -1    0    0    0  501 -0.00000000000E+00 -0.00000000000E+00 -0.12017024705E+03  0.12017024705E+03  0.00000000000E+00 0.  1.
         24    2    1    2    0    0  0.27772233404E+02 -0.31282930062E+02 -0.86789861582E+02  0.12701820967E+03  0.82772138144E+02 0.  0.
         23    2    1    2    0    0 -0.12150828253E+02  0.54883158765E+02  0.21638505578E+03  0.23960699366E+03  0.86192895904E+02 0.  0.
        -13    1    3    3    0    0  0.33887878418E+02 -0.34513296723E+02 -0.10057156137E+03  0.11159836428E+03  0.00000000000E+00 0.  1.
         14    1    3    3    0    0 -0.61156450135E+01  0.32303666607E+01  0.13781699788E+02  0.15419845387E+02  0.00000000000E+00 0. -1.
        -13    1    4    4    0    0  0.26976692398E+02  0.31214236211E+02  0.16816320306E+03  0.17315003129E+03  0.00000000000E+00 0. -1.
         13    1    4    4    0    0 -0.39127520652E+02  0.23668922554E+02  0.48221852722E+02  0.66456962368E+02  0.00000000000E+00 0.  1.
         21    1    1    2  502  501 -0.15621405151E+02 -0.23600228702E+02  0.11932387444E+03  0.12263435939E+03  0.00000000000E+00 0. -1.
<scales pt_clust_5="13000.00000" pt_clust_6="13000.00000" pt_clust_7="13000.00000" pt_clust_8="13000.00000" pt_clust_9="28.30193"></scales>
<clustering>
<clus scale="   28.302">  1  9  2 -1</clus>
<clus scale="   82.772">  5  6 -1 -1</clus>
<clus scale="   86.193">  7  8 -1 -1</clus>
<clus scale="   93.036">  2  5  1 -1</clus>
<clus scale="   28.302">  1  5  2 -1</clus>
</clustering>
</event>
<event>
 9    2  0.2984928E-005  0.1376086E+03  0.7546771E-02  0.1220228E+00
         -1   -1    0    0    0  501 -0.00000000000E+00  0.00000000000E+00  0.70245178558E+03  0.70245178558E+03  0.00000000000E+00 0.  1.
          2   -1    0    0  502    0  0.00000000000E+00 -0.00000000000E+00 -0.19329751828E+03  0.19329751828E+03  0.00000000000E+00 0. -1.
         23    2    1    2    0    0  0.88686453449E+02 -0.52171184264E+02  0.60839484463E+03  0.62146044031E+03  0.74038317129E+02 0.  0.
         24    2    1    2    0    0 -0.59362827700E+02  0.13200259323E+03 -0.66637009264E+02  0.18320691399E+03  0.90419314298E+02 0.  0.
        -13    1    4    4    0    0  0.23367384769E+02  0.19259019102E+02 -0.64303623304E+01  0.30956324837E+02  0.00000000000E+00 0.  1.
         14    1    4    4    0    0 -0.82730212469E+02  0.11274357413E+03 -0.60206646934E+02  0.15225058916E+03  0.00000000000E+00 0. -1.
        -13    1    3    3    0    0 -0.20557785483E+01 -0.33392116743E+02  0.13520468264E+03  0.13928232441E+03  0.00000000000E+00 0. -1.
         13    1    3    3    0    0  0.90742231997E+02 -0.18779067521E+02  0.47319016199E+03  0.48217811589E+03  0.00000000000E+00 0.  1.
         21    1    1    2  502  501 -0.29323625748E+02 -0.79831408969E+02 -0.32603568061E+02  0.91081949559E+02  0.00000000000E+00 0. -1.
<scales pt_clust_5="13000.00000" pt_clust_6="13000.00000" pt_clust_7="13000.00000" pt_clust_8="13000.00000" pt_clust_9="85.04663"></scales>
<clustering>
<clus scale="   74.038">  7  8 -1 -1</clus>
<clus scale="   85.047">  2  9  1 -1</clus>
<clus scale="   90.419">  5  6 -1 -1</clus>
<clus scale="  127.445">  1  7  2 -1</clus>
<clus scale="   85.047">  2  5  1 -1</clus>
</clustering>
</event>
<event>
 9    2  0.2984928E-005  0.2175967E+03  0.7546771E-02  0.1178416E+00
         -1   -1    0    0    0  501 -0.00000000000E+00  0.00000000000E+00  0.12465912319E+03  0.12465912319E+03  0.00000000000E+00 0.  1.
          2   -1    0    0  502    0  0.00000000000E+00 -0.00000000000E+00 -0.10161709298E+04  0.10161709298E+04  0.00000000000E+00 0. -1.
         24    2    1    2    0    0  0.83715319913E+01 -0.95805906097E+01  0.14705000437E+02  0.81373728605E+02  0.79016304678E+02 0.  0.
         23    2    1    2    0    0  0.12490743174E+03  0.15445598471E+03 -0.81288167832E+03  0.84159488163E+03  0.89703980525E+02 0.  0.
        -11    1    3    3    0    0 -0.18290498177E+02 -0.36851645704E+02  0.20574935637E+01  0.41192467690E+02  0.00000000000E+00 0.  1.
         12    1    3    3    0    0  0.26662030168E+02  0.27271055094E+02  0.12647506873E+02  0.40181260915E+02  0.00000000000E+00 0. -1.
        -11    1    4    4    0    0  0.57304148255E+02  0.13443186551E+03 -0.58990431752E+03  0.60773579433E+03  0.00000000000E+00 0. -1.
         11    1    4    4    0    0  0.67603283486E+02  0.20024119208E+02 -0.22297736079E+03  0.23385908730E+03  0.00000000000E+00 0.  1.
         21    1    1    2  502  501 -0.13327896373E+03 -0.14487539410E+03 -0.93335128742E+02  0.21786144277E+03  0.00000000000E+00 0.  1.
<scales pt_clust_5="13000.00000" pt_clust_6="13000.00000" pt_clust_7="13000.00000" pt_clust_8="13000.00000" pt_clust_9="198.24610"></scales>
<clustering>
<clus scale="   79.016">  5  6 -1 -1</clus>
<clus scale="   80.034">  1  5  2 -1</clus>
<clus scale="   89.704">  7  8 -1 -1</clus>
<clus scale="  198.246">  1  9  2 -1</clus>
<clus scale="  217.597">  2  5  1 -1</clus>
</clustering>
</event>
<event>
 9    2  0.2984928E-005  0.9588267E+02  0.7546771E-02  0.1294321E+00
          2   -1    0    0  502    0  0.00000000000E+00  0.00000000000E+00  0.51720362324E+03  0.51720362324E+03  0.00000000000E+00 0. -1.
         -1   -1    0    0    0  501 -0.00000000000E+00 -0.00000000000E+00 -0.27461170403E+02  0.27461170403E+02  0.00000000000E+00 0.  1.
         23    2    1    2    0    0 -0.34277721793E+02 -0.14901774963E+02  0.97312325912E+02  0.13804987847E+03  0.90504447745E+02 0.  0.
         24    2    1    2    0    0  0.13445576135E+02  0.13546063081E+02  0.27586042248E+03  0.28819062610E+03  0.81182417690E+02 0.  0.
        -11    1    4    4    0    0 -0.10624724942E+02  0.36107722889E+02  0.67940332811E+02  0.77669435783E+02  0.00000000000E+00 0.  1.
         12    1    4    4    0    0  0.24070301077E+02 -0.22561659808E+02  0.20792008967E+03  0.21052119032E+03  0.00000000000E+00 0. -1.
        -11    1    3    3    0    0 -0.49743734418E+02 -0.33288686811E+02  0.97048486383E+02  0.11402185971E+03  0.00000000000E+00 0. -1.
         11    1    3    3    0    0  0.15466012625E+02  0.18386911848E+02  0.26383952863E+00  0.24028018751E+02  0.00000000000E+00 0.  1.
         21    1    1    2  502  501  0.20832145658E+02  0.13557118818E+01  0.11656970445E+03  0.11842428907E+03  0.00000000000E+00 0. -1.
<scales pt_clust_5="13000.00000" pt_clust_6="13000.00000" pt_clust_7="13000.00000" pt_clust_8="13000.00000" pt_clust_9="20.87621"></scales>
<clustering>
<clus scale="   20.876">  1  9  2 -1</clus>
<clus scale="   81.182">  5  6 -1 -1</clus>
<clus scale="   87.138">  1  5  2 -1</clus>
<clus scale="   90.504">  7  8 -1 -1</clus>
<clus scale="   20.876">  1  5  2 -1</clus>
</clustering>
</event>
<event>
 9    2  0.2984928E-005  0.1000498E+03  0.7546771E-02  0.1285611E+00
         -1   -1    0    0    0  501 -0.00000000000E+00  0.00000000000E+00  0.25545829658E+03  0.25545829658E+03  0.00000000000E+00 0.  1.
          2   -1    0    0  502    0  0.00000000000E+00 -0.00000000000E+00 -0.11896306888E+03  0.11896306888E+03  0.00000000000E+00 0. -1.
         23    2    1    2    0    0 -0.11457147355E+02  0.40305348724E+02  0.21256947207E+03  0.23485580815E+03  0.90640403810E+02 0.  0.
         24    2    1    2    0    0  0.33741313052E+02 -0.37581746227E+02 -0.64391710654E+02  0.11425777895E+03  0.79735085087E+02 0.  0.
        -11    1    4    4    0    0 -0.18326979922E+02  0.12232550020E+02 -0.11381617244E+02  0.24800296049E+02  0.00000000000E+00 0.  1.
         12    1    4    4    0    0  0.52068292974E+02 -0.49814296247E+02 -0.53010093410E+02  0.89457482902E+02  0.00000000000E+00 0. -1.
        -11    1    3    3    0    0 -0.24579068065E+01 -0.29431305513E+02  0.64286867703E+02  0.70746338485E+02  0.00000000000E+00 0. -1.
         11    1    3    3    0    0 -0.89992405487E+01  0.69736654236E+02  0.14828260437E+03  0.16410946967E+03  0.00000000000E+00 0.  1.
         21    1    1    2  502  501 -0.22284165697E+02 -0.27236024964E+01 -0.11682533716E+02  0.25307778358E+02  0.00000000000E+00 0.  1.
<scales pt_clust_5="13000.00000" pt_clust_6="13000.00000" pt_clust_7="13000.00000" pt_clust_8="13000.00000" pt_clust_9="22.44999"></scales>
<clustering>
<clus scale="   22.450">  2  9  1 -1</clus>
<clus scale="   79.735">  5  6 -1 -1</clus>
<clus scale="   90.288">  2  5  1 -1</clus>
<clus scale="   90.640">  7  8 -1 -1</clus>
<clus scale="   22.450">  2  5  1 -1</clus>
</clustering>
</event>
<event>
 9    2  0.2984928E-005  0.2022966E+03  0.7546771E-02  0.1149137E+00
         -1   -1    0    0    0  501 -0.00000000000E+00  0.00000000000E+00  0.84143715288E+03  0.84143715288E+03  0.00000000000E+00 0.  1.
          2   -1    0    0  502    0  0.00000000000E+00 -0.00000000000E+00 -0.16749993985E+03  0.16749993985E+03  0.00000000000E+00 0. -1.
         24    2    1    2    0    0 -0.58280012329E+02 -0.17726994985E+03  0.68859880448E+03  0.71791295106E+03  0.80059333099E+02 0.  0.
         23    2    1    2    0    0  0.79484695437E+02  0.12819345975E+03  0.69763205628E+02  0.19109573314E+03  0.94336071764E+02 0.  0.
        -11    1    3    3    0    0 -0.42317928094E+02 -0.13080486925E+03  0.60938200227E+03  0.62469764331E+03  0.00000000000E+00 0.  1.
         12    1    3    3    0    0 -0.15962084235E+02 -0.46465080602E+02  0.79216802207E+02  0.93215307758E+02  0.00000000000E+00 0. -1.
        -11    1    4    4    0    0  0.28615480186E+02  0.29240047238E+02 -0.22378418948E+02  0.46632817879E+02  0.00000000000E+00 0. -1.
         11    1    4    4    0    0  0.50869215251E+02  0.98953412508E+02  0.92141624576E+02  0.14446291526E+03  0.00000000000E+00 0.  1.
         21    1    1    2  502  501 -0.21204683108E+02  0.49076490101E+02 -0.84424797086E+02  0.99928408520E+02  0.00000000000E+00 0. -1.
<scales pt_clust_5="13000.00000" pt_clust_6="13000.00000" pt_clust_7="13000.00000" pt_clust_8="13000.00000" pt_clust_9="53.46158"></scales>
<clustering>
<clus scale="   53.462">  2  9  1 -1</clus>
<clus scale="   80.059">  5  6 -1 -1</clus>
<clus scale="   94.336">  7  8 -1 -1</clus>
<clus scale="  196.046">  1  5  2 -1</clus>
<clus scale="   53.462">  2  5  1 -1</clus>
</clustering>
</event>
<event>
 9    2  0.2984928E-005  0.1064264E+03  0.7546771E-02  0.1271166E+00
         -1   -1    0    0    0  501 -0.00000000000E+00  0.00000000000E+00  0.18033505872E+03  0.18033505872E+03  0.00000000000E+00 0.  1.
          2   -1    0    0  502    0  0.00000000000E+00 -0.00000000000E+00 -0.21078606255E+03  0.21078606255E+03  0.00000000000E+00 0. -1.
         24    2    1    2    0    0 -0.94171641831E+01 -0.67454247233E+02  0.12904648128E+03  0.16676875507E+03  0.80746918747E+02 0.  0.
         23    2    1    2    0    0  0.24472820013E+02  0.50501595575E+02 -0.16923347608E+03  0.19967738512E+03  0.89898601917E+02 0.  0.
        -11    1    3    3    0    0 -0.11943929788E+02 -0.50276702248E+02  0.13791071332E+03  0.14727446858E+03  0.00000000000E+00 0.  1.
         12    1    3    3    0    0  0.25267656046E+01 -0.17177544985E+02 -0.88642320410E+01  0.19494286492E+02  0.00000000000E+00 0. -1.
        -13    1    4    4    0    0 -0.27327327754E+02  0.30533744488E+02 -0.11494044190E+03  0.12202621677E+03  0.00000000000E+00 0.  1.
         13    1    4    4    0    0  0.51800147767E+02  0.19967851087E+02 -0.54293034185E+02  0.77651168354E+02  0.00000000000E+00 0. -1.
         21    1    1    2  502  501 -0.15055655830E+02  0.16952651658E+02  0.97359909813E+01  0.24674981076E+02  0.00000000000E+00 0.  1.
<scales pt_clust_5="13000.00000" pt_clust_6="13000.00000" pt_clust_7="13000.00000" pt_clust_8="13000.00000" pt_clust_9="22.67301"></scales>
<clustering>
<clus scale="   22.673">  1  9  2 -1</clus>
<clus scale="   80.747">  5  6 -1 -1</clus>
<clus scale="   89.899">  7  8 -1 -1</clus>
<clus scale="   98.817">  1  5  2 -1</clus>
<clus scale="  106.426">  2  5  1 -1</clus>
</clustering>
</event>
<event>
 9    2  0.2984928E-005  0.9843420E+02  0.7546771E-02  0.1289912E+00
         -1   -1    0    0    0  501 -0.00000000000E+00  0.00000000000E+00  0.71107003320E+02  0.71107003320E+02  0.00000000000E+00 0.  1.
          2   -1    0    0  502    0  0.00000000000E+00 -0.00000000000E+00 -0.33967973994E+03  0.33967973994E+03  0.00000000000E+00 0. -1.
         23    2    1    2    0    0 -0.11055429529E+02 -0.45947096863E+02  0.43136683563E+01  0.10399122106E+03  0.92532200288E+02 0.  0.
         24    2    1    2    0    0 -0.89934660559E+01 -0.87080742787E+01 -0.14974440983E+03  0.17058576883E+03  0.80742821728E+02 0.  0.
        -11    1    4    4    0    0  0.98976272804E+01 -0.30366274875E+02 -0.13412684841E+03  0.13787706532E+03  0.00000000000E+00 0.  1.
         12    1    4    4    0    0 -0.18891093336E+02  0.21658200596E+02 -0.15617561420E+02  0.32708703508E+02  0.00000000000E+00 0. -1.
        -11    1    3    3    0    0  0.18619976269E+02 -0.57882767653E+02  0.25168707627E+02  0.65807158813E+02  0.00000000000E+00 0.  1.
         11    1    3    3    0    0 -0.29675405798E+02  0.11935670790E+02 -0.20855039271E+02  0.38184062245E+02  0.00000000000E+00 0. -1.
         21    1    1    2  502  501  0.20048895585E+02  0.54655171141E+02 -0.12314199514E+03  0.13620975337E+03  0.00000000000E+00 0. -1.
<scales pt_clust_5="13000.00000" pt_clust_6="13000.00000" pt_clust_7="13000.00000" pt_clust_8="13000.00000" pt_clust_9="58.21637"></scales>
<clustering>
<clus scale="   58.216">  2  9  1 -1</clus>
<clus scale="   80.743">  5  6 -1 -1</clus>
<clus scale="   87.444">  2  5  1 -1</clus>
<clus scale="   92.532">  7  8 -1 -1</clus>
<clus scale="   58.216">  2  5  1 -1</clus>
</clustering>
</event>
<event>
 9    2  0.2984928E-005  0.1327458E+03  0.7546771E-02  0.1230790E+00
         -1   -1    0    0    0  501 -0.00000000000E+00  0.00000000000E+00  0.26588785572E+03  0.26588785572E+03  0.00000000000E+00 0.  1.
          2   -1    0    0  502    0  0.00000000000E+00 -0.00000000000E+00 -0.82914522956E+02  0.82914522956E+02  0.00000000000E+00 0. -1.
         23    2    1    2    0    0 -0.79368791498E+02  0.34615127270E+02  0.17470698661E+03  0.22196296765E+03  0.10605383415E+03 0.  0.
         24    2    1    2    0    0  0.62933647066E+02 -0.20461545624E+02  0.79379552835E+01  0.10514734597E+03  0.81324254982E+02 0.  0.
        -13    1    4    4    0    0  0.20434368452E+02 -0.27851259906E+02 -0.31463000912E+02  0.46724474516E+02  0.00000000000E+00 0.  1.
         14    1    4    4    0    0  0.42499278614E+02  0.73897142825E+01  0.39400956196E+02  0.58422871455E+02  0.00000000000E+00 0. -1.
        -11    1    3    3    0    0  0.45785494088E+01  0.26110720175E+02  0.11644777964E+03  0.11942704135E+03  0.00000000000E+00 0.  1.
         11    1    3    3    0    0 -0.83947340907E+02  0.85044070947E+01  0.58259206969E+02  0.10253592630E+03  0.00000000000E+00 0. -1.
         21    1    1    2  502  501  0.16435144432E+02 -0.14153581646E+02  0.32839087676E+00  0.21692065058E+02  0.00000000000E+00 0. -1.
<scales pt_clust_5="13000.00000" pt_clust_6="13000.00000" pt_clust_7="13000.00000" pt_clust_8="13000.00000" pt_clust_9="21.68958"></scales>
<clustering>
<clus scale="   21.690">  2  9  1 -1</clus>
<clus scale="   81.324">  5  6 -1 -1</clus>
<clus scale="  106.054">  7  8 -1 -1</clus>
<clus scale="  113.963">  2  5  1 -1</clus>
<clus scale="   21.690">  2  5  1 -1</clus>
</clustering>
</event>
<event>
 9    2  0.2984928E-005  0.1484139E+03  0.7546771E-02  0.1208220E+00
          2   -1    0    0  502    0  0.00000000000E+00  0.00000000000E+00  0.12350868459E+03  0.12350868459E+03  0.00000000000E+00 0. -1.
         -1   -1    0    0    0  501 -0.00000000000E+00 -0.00000000000E+00 -0.22519813849E+03  0.22519813849E+03  0.00000000000E+00 0.  1.
         24    2    1    2    0    0 -0.74359196463E+02  0.71796113415E+02 -0.10372502660E+03  0.16319062941E+03  0.72030051965E+02 0.  0.
         23    2    1    2    0    0  0.91729937915E+02 -0.84748671411E+02 -0.10526192529E+02  0.16047004900E+03  0.10021535352E+03 0.  0.
        -13    1    3    3    0    0 -0.68522911058E+02  0.86157793227E+02 -0.86389332100E+02  0.13993452531E+03  0.00000000000E+00 0.  1.
         14    1    3    3    0    0 -0.58362854045E+01 -0.14361679812E+02 -0.17335694496E+02  0.23256104102E+02  0.00000000000E+00 0. -1.
        -11    1    4    4    0    0  0.58692937978E+02 -0.84927377575E+02  0.30639981749E+02  0.10768625219E+03  0.00000000000E+00 0. -1.
         11    1    4    4    0    0  0.33036999937E+02  0.17870616349E+00 -0.41166174278E+02  0.52783796807E+02  0.00000000000E+00 0.  1.
         21    1    1    2  502  501 -0.17370741453E+02  0.12952557996E+02  0.12561765227E+02  0.25046144671E+02  0.00000000000E+00 0.  1.
<scales pt_clust_5="13000.00000" pt_clust_6="13000.00000" pt_clust_7="13000.00000" pt_clust_8="13000.00000" pt_clust_9="21.66821"></scales>
<clustering>
<clus scale="   21.668">  1  9  2 -1</clus>
<clus scale="   72.030">  5  6 -1 -1</clus>
<clus scale="  100.215">  7  8 -1 -1</clus>
<clus scale="  131.042">  2  5  1 -1</clus>
<clus scale="   21.668">  1  5  2 -1</clus>
</clustering>
</event>
<event>
 9    2  0.2984928E-005  0.1378865E+03  0.7546771E-02  0.1218774E+00
         -1   -1    0    0    0  501 -0.00000000000E+00  0.00000000000E+00  0.78260403345E+02  0.78260403345E+02  0.00000000000E+00 0.  1.
          2   -1    0    0  502    0  0.00000000000E+00 -0.00000000000E+00 -0.11928953809E+04  0.11928953809E+04  0.00000000000E+00 0. -1.
         23    2    1    2    0    0  0.73330888390E+02 -0.76792986083E+02 -0.12768139823E+02  0.14058354385E+03  0.91247605469E+02 0.  0.
         24    2    1    2    0    0 -0.12407066143E+03 -0.12618960447E+02 -0.57420562481E+03  0.59298933853E+03  0.79821606449E+02 0.  0.
        -13    1    4    4    0    0 -0.42061473038E+02 -0.90764478341E+01 -0.70165081983E+02  0.82308493785E+02  0.00000000000E+00 0.  1.
         14    1    4    4    0    0 -0.82009188396E+02 -0.35425126125E+01 -0.50404054283E+03  0.51068084475E+03  0.00000000000E+00 0. -1.
        -13    1    3    3    0    0  0.59166279494E+02 -0.30186139779E+02 -0.46719901610E+02  0.81207147902E+02  0.00000000000E+00 0.  1.
         13    1    3    3    0    0  0.14164608896E+02 -0.46606846305E+02  0.33951761787E+02  0.59376395950E+02  0.00000000000E+00 0. -1.
         21    1    1    2  502  501  0.50739773044E+02  0.89411946530E+02 -0.52766121288E+03  0.53758290182E+03  0.00000000000E+00 0.  1.
<scales pt_clust_5="13000.00000" pt_clust_6="13000.00000" pt_clust_7="13000.00000" pt_clust_8="13000.00000" pt_clust_9="102.80574"></scales>
<clustering>
<clus scale="   79.822">  5  6 -1 -1</clus>
<clus scale="   91.248">  7  8 -1 -1</clus>
<clus scale="  102.806">  2  9  1 -1</clus>
<clus scale="  130.607">  2  5  1 -1</clus>
<clus scale="  102.806">  2  5  1 -1</clus>
</clustering>
</event>
<event>
 9    2  0.2984928E-005  0.1074921E+03  0.7546771E-02  0.1269014E+00
         -3   -1    0    0    0  501 -0.00000000000E+00  0.00000000000E+00  0.76200545397E+02  0.76200545397E+02  0.00000000000E+00 0.  1.
          4   -1    0    0  502    0  0.00000000000E+00 -0.00000000000E+00 -0.35861297359E+03  0.35861297359E+03  0.00000000000E+00 0. -1.
         23    2    1    2    0    0  0.13606506486E+02 -0.72424722498E+02  0.38103145716E+01  0.11596445055E+03  0.89458134598E+02 0.  0.
         24    2    1    2    0    0  0.44221821334E+01  0.16995127137E+02 -0.16371579033E+03  0.18318246588E+03  0.80278052799E+02 0.  0.
        -13    1    4    4    0    0  0.21302701645E+02 -0.26006785032E+02 -0.91233209059E+02  0.97229915151E+02  0.00000000000E+00 0.  1.
         14    1    4    4    0    0 -0.16880519511E+02  0.43001912168E+02 -0.72482581273E+02  0.85952550731E+02  0.00000000000E+00 0. -1.
        -11    1    3    3    0    0 -0.20303600617E+02  0.12280696417E+02 -0.51612051806E+01  0.24283528191E+02  0.00000000000E+00 0. -1.
         11    1    3    3    0    0  0.33910107103E+02 -0.84705418915E+02  0.89715197522E+01  0.91680922356E+02  0.00000000000E+00 0.  1.
         21    1    1    2  502  501 -0.18028688620E+02  0.55429595361E+02 -0.12250695243E+03  0.13566660256E+03  0.00000000000E+00 0. -1.
<scales pt_clust_5="13000.00000" pt_clust_6="13000.00000" pt_clust_7="13000.00000" pt_clust_8="13000.00000" pt_clust_9="58.28785"></scales>
<clustering>
<clus scale="   58.288">  2  9  1 -1</clus>
<clus scale="   80.278">  5  6 -1 -1</clus>
<clus scale="   89.458">  7  8 -1 -1</clus>
<clus scale="   99.982">  2  5  1 -1</clus>
<clus scale="   58.288">  2  5  1 -1</clus>
</clustering>
</event>
<event>
 9    2  0.2984928E-005  0.9706850E+02  0.7546771E-02  0.1292431E+00
          2   -1    0    0  502    0  0.00000000000E+00  0.00000000000E+00  0.25278088699E+03  0.25278088699E+03  0.00000000000E+00 0. -1.
         -1   -1    0    0    0  501 -0.00000000000E+00 -0.00000000000E+00 -0.34136730684E+03  0.34136730684E+03  0.00000000000E+00 0.  1.
         23    2    1    2    0    0  0.19319492492E+02  0.28633154695E+02 -0.31310451146E+03  0.32783233785E+03  0.90810276417E+02 0.  0.
         24    2    1    2    0    0  0.44745376860E+01 -0.39428069778E+02  0.81293110948E+02  0.12072711619E+03  0.79949187126E+02 0.  0.
        -13    1    4    4    0    0  0.39910947962E+02 -0.86811754943E+01  0.26951740174E+02  0.48935088368E+02  0.00000000000E+00 0.  1.
         14    1    4    4    0    0 -0.35436410276E+02 -0.30746894284E+02  0.54341370773E+02  0.71792027822E+02  0.00000000000E+00 0. -1.
        -11    1    3    3    0    0 -0.15428135389E+02  0.42001892457E+02 -0.25448648746E+03  0.25839032225E+03  0.00000000000E+00 0.  1.
         11    1    3    3    0    0  0.34747627881E+02 -0.13368737761E+02 -0.58618024002E+02  0.69442015600E+02  0.00000000000E+00 0. -1.
         21    1    1    2  502  501 -0.23794030178E+02  0.10794915083E+02  0.14322498067E+03  0.14558873979E+03  0.00000000000E+00 0. -1.
<scales pt_clust_5="13000.00000" pt_clust_6="13000.00000" pt_clust_7="13000.00000" pt_clust_8="13000.00000" pt_clust_9="26.12826"></scales>
<clustering>
<clus scale="   26.128">  1  9  2 -1</clus>
<clus scale="   79.949">  5  6 -1 -1</clus>
<clus scale="   86.992">  1  5  2 -1</clus>
<clus scale="   90.810">  7  8 -1 -1</clus>
<clus scale="   26.128">  1  5  2 -1</clus>
</clustering>
</event>
<event>
 9    2  0.2984928E-005  0.2171843E+03  0.7546771E-02  0.1163972E+00
          2   -1    0    0  502    0  0.00000000000E+00  0.00000000000E+00  0.15692343068E+04  0.15692343068E+04  0.00000000000E+00 0. -1.
         -1   -1    0    0    0  501 -0.00000000000E+00 -0.00000000000E+00 -0.26242289665E+03  0.26242289665E+03  0.00000000000E+00 0.  1.
         24    2    1    2    0    0 -0.17811119693E+03 -0.94653378757E+02 -0.18176716770E+03  0.28308685503E+03  0.80099960397E+02 0.  0.
         23    2    1    2    0    0  0.22853037096E+02 -0.52802326198E+02  0.12298419315E+03  0.16629096110E+03  0.96006380125E+02 0.  0.
        -11    1    3    3    0    0 -0.17970730381E+03 -0.71028740331E+02 -0.15905217615E+03  0.25027463262E+03  0.00000000000E+00 0.  1.
         12    1    3    3    0    0  0.15961068888E+01 -0.23624638426E+02 -0.22714991545E+02  0.32812222400E+02  0.00000000000E+00 0. -1.
        -13    1    4    4    0    0  0.47465882408E+02 -0.31550448748E+02  0.12095355999E+03  0.13370940312E+03  0.00000000000E+00 0.  1.
         13    1    4    4    0    0 -0.24612845311E+02 -0.21251877450E+02  0.20306331552E+01  0.32581557981E+02  0.00000000000E+00 0. -1.
         21    1    1    2  502  501  0.15525815983E+03  0.14745570495E+03  0.13655943847E+04  0.13822793873E+04  0.00000000000E+00 0. -1.
<scales pt_clust_5="13000.00000" pt_clust_6="13000.00000" pt_clust_7="13000.00000" pt_clust_8="13000.00000" pt_clust_9="201.87376"></scales>
<clustering>
<clus scale="   80.100">  5  6 -1 -1</clus>
<clus scale="   96.006">  7  8 -1 -1</clus>
<clus scale="  111.927">  1  7  2 -1</clus>
<clus scale="  201.874">  1  9  2 -1</clus>
<clus scale="  111.927">  1  5  2 -1</clus>
</clustering>
</event>
<event>
 9    2  0.2984928E-005  0.1606345E+03  0.7546771E-02  0.1188953E+00
         -1   -1    0    0    0  501 -0.00000000000E+00  0.00000000000E+00  0.92660153407E+03  0.92660153407E+03  0.00000000000E+00 0.  1.
          2   -1    0    0  502    0  0.00000000000E+00 -0.00000000000E+00 -0.10118554269E+03  0.10118554269E+03  0.00000000000E+00 0. -1.
         23    2    1    2    0    0  0.93750302573E+02  0.84111423208E+02  0.45868833771E+03  0.48458092651E+03  0.92519362496E+02 0.  0.
         24    2    1    2    0    0 -0.57995731759E+02 -0.13270045230E+03  0.42628215948E+03  0.45843574124E+03  0.86451919635E+02 0.  0.
        -13    1    4    4    0    0 -0.41830944466E+02 -0.14292316835E+03  0.36405416629E+03  0.39333483949E+03  0.00000000000E+00 0.  1.
         14    1    4    4    0    0 -0.16164787293E+02  0.10222716043E+02  0.62227993190E+02  0.65100901744E+02  0.00000000000E+00 0. -1.
        -13    1    3    3    0    0  0.33351795912E+02 -0.27820378758E+01  0.37324086313E+02  0.50131521465E+02  0.00000000000E+00 0. -1.
         13    1    3    3    0    0  0.60398506661E+02  0.86893461084E+02  0.42136425140E+03  0.43444940504E+03  0.00000000000E+00 0.  1.
         21    1    1    2  502  501 -0.35754570814E+02  0.48589029096E+02 -0.59554505805E+02  0.84770409013E+02  0.00000000000E+00 0. -1.
<scales pt_clust_5="13000.00000" pt_clust_6="13000.00000" pt_clust_7="13000.00000" pt_clust_8="13000.00000" pt_clust_9="60.32647"></scales>
<clustering>
<clus scale="   60.326">  2  9  1 -1</clus>
<clus scale="   86.452">  5  6 -1 -1</clus>
<clus scale="   92.519">  7  8 -1 -1</clus>
<clus scale="  157.218">  2  5  1 -1</clus>
<clus scale="   60.326">  2  5  1 -1</clus>
</clustering>
</event>
<event>
 9    2  0.2984928E-005  0.1143870E+03  0.7546771E-02  0.1257852E+00
         -1   -1    0    0    0  501 -0.00000000000E+00  0.00000000000E+00  0.54066605752E+02  0.54066605752E+02  0.00000000000E+00 0.  1.
          2   -1    0    0  502    0  0.00000000000E+00 -0.00000000000E+00 -0.52428244489E+03  0.52428244489E+03  0.00000000000E+00 0. -1.
         23    2    1    2    0    0 -0.43475588329E+02 -0.96958731985E+01 -0.26225988377E+02  0.11032835166E+03  0.97470026044E+02 0.  0.
         24    2    1    2    0    0  0.61811828257E+02 -0.10539845056E+02 -0.41561017307E+03  0.42863658932E+03  0.84057833038E+02 0.  0.
        -11    1    4    4    0    0  0.41110513958E+02  0.26078468132E+02 -0.11196308584E+03  0.12208969428E+03  0.00000000000E+00 0.  1.
         12    1    4    4    0    0  0.20701314299E+02 -0.36618313188E+02 -0.30364708723E+03  0.30654689504E+03  0.00000000000E+00 0. -1.
        -13    1    3    3    0    0 -0.58474293366E+02  0.11439343315E+02  0.15174915221E+02  0.61484791714E+02  0.00000000000E+00 0.  1.
         13    1    3    3    0    0  0.14998705037E+02 -0.21135216514E+02 -0.41400903598E+02  0.48843559950E+02  0.00000000000E+00 0. -1.
         21    1    1    2  502  501 -0.18336239928E+02  0.20235718254E+02 -0.28379677686E+02  0.39384109657E+02  0.00000000000E+00 0. -1.
<scales pt_clust_5="13000.00000" pt_clust_6="13000.00000" pt_clust_7="13000.00000" pt_clust_8="13000.00000" pt_clust_9="27.30754"></scales>
<clustering>
<clus scale="   27.308">  1  9  2 -1</clus>
<clus scale="   84.058">  5  6 -1 -1</clus>
<clus scale="   97.470">  7  8 -1 -1</clus>
<clus scale="  103.197">  2  5  1 -1</clus>
<clus scale="  103.197">  2  5  1 -1</clus>
</clustering>
</event>
<event>
 9    2  0.2984928E-005  0.2103592E+03  0.7546771E-02  0.1142332E+00
          2   -1    0    0  502    0  0.00000000000E+00  0.00000000000E+00  0.98597392325E+03  0.98597392325E+03  0.00000000000E+00 0. -1.
         -1   -1    0    0    0  501 -0.00000000000E+00 -0.00000000000E+00 -0.78385062543E+02  0.78385062543E+02  0.00000000000E+00 0.  1.
         23    2    1    2    0    0  0.10990617497E+03  0.17277639719E+03  0.17960964248E+03  0.28857650818E+03  0.95319078271E+02 0.  0.
         24    2    1    2    0    0 -0.25479781868E+02 -0.15966645257E+03  0.46507200706E+03  0.49934100427E+03  0.83107589500E+02 0.  0.
        -11    1    4    4    0    0 -0.37831030956E+02 -0.28866747376E+02  0.88097277853E+02  0.10012795001E+03  0.00000000000E+00 0.  1.
         12    1    4    4    0    0  0.12351249088E+02 -0.13079970520E+03  0.37697472921E+03  0.39921305427E+03  0.00000000000E+00 0. -1.
        -13    1    3    3    0    0 -0.42571892794E+01  0.34521633428E+02  0.70700651928E+02  0.78793711793E+02  0.00000000000E+00 0.  1.
         13    1    3    3    0    0  0.11416336425E+03  0.13825476376E+03  0.10890899055E+03  0.20978279639E+03  0.00000000000E+00 0. -1.
         21    1    1    2  502  501 -0.84426393099E+02 -0.13109944615E+02  0.26290721117E+03  0.27644147334E+03  0.00000000000E+00 0.  1.
<scales pt_clust_5="13000.00000" pt_clust_6="13000.00000" pt_clust_7="13000.00000" pt_clust_8="13000.00000" pt_clust_9="85.43820"></scales>
<clustering>
<clus scale="   83.108">  5  6 -1 -1</clus>
<clus scale="   85.438">  1  9  2 -1</clus>
<clus scale="   95.319">  7  8 -1 -1</clus>
<clus scale="  205.115">  1  5  2 -1</clus>
<clus scale="   85.438">  1  5  2 -1</clus>
</clustering>
</event>
<event>
 9    2  0.2984928E-005  0.3108612E+03  0.7546771E-02  0.1080150E+00
          2   -1    0    0  502    0  0.00000000000E+00  0.00000000000E+00  0.11390542317E+03  0.11390542317E+03  0.00000000000E+00 0. -1.
         -1   -1    0    0    0  501 -0.00000000000E+00 -0.00000000000E+00 -0.13453079257E+04  0.13453079257E+04  0.00000000000E+00 0.  1.
         24    2    1    2    0    0 -0.29050797539E+03 -0.87260112543E+02 -0.78219633531E+03  0.84280272285E+03  0.80474291927E+02 0.  0.
         23    2    1    2    0    0  0.26135117000E+03  0.13453373010E+03 -0.46650762794E+03  0.55823627811E+03  0.87147097902E+02 0.  0.
        -11    1    3    3    0    0 -0.18942158208E+03 -0.86762080565E+02 -0.45689090375E+03  0.50215285752E+03  0.00000000000E+00 0.  1.
         12    1    3    3    0    0 -0.10108639330E+03 -0.49803197843E+00 -0.32530543156E+03  0.34064986533E+03  0.00000000000E+00 0. -1.
        -11    1    4    4    0    0  0.12236459913E+03  0.73701920554E+02 -0.30415533867E+03  0.33602907353E+03  0.00000000000E+00 0. -1.
         11    1    4    4    0    0  0.13898657088E+03  0.60831809550E+02 -0.16235228926E+03  0.22220720458E+03  0.00000000000E+00 0.  1.
         21    1    1    2  502  501  0.29156805382E+02 -0.47273617561E+02  0.17301460686E+02  0.58174347948E+02  0.00000000000E+00 0. -1.
<scales pt_clust_5="13000.00000" pt_clust_6="13000.00000" pt_clust_7="13000.00000" pt_clust_8="13000.00000" pt_clust_9="55.54200"></scales>
<clustering>
<clus scale="   55.542">  1  9  2 -1</clus>
<clus scale="   80.474">  5  6 -1 -1</clus>
<clus scale="   87.147">  7  8 -1 -1</clus>
<clus scale="  309.057">  2  5  1 -1</clus>
<clus scale="   55.542">  1  5  2 -1</clus>
</clustering>
</event>
<event>
 9    2  0.2984928E-005  0.9720757E+02  0.7546771E-02  0.1292381E+00
          2   -1    0    0  502    0  0.00000000000E+00  0.00000000000E+00  0.42029272182E+03  0.42029272182E+03  0.00000000000E+00 0. -1.
         -1   -1    0    0    0  501 -0.00000000000E+00 -0.00000000000E+00 -0.40168092237E+02  0.40168092237E+02  0.00000000000E+00 0.  1.
         23    2    1    2    0    0  0.11496766821E+02 -0.53568462361E+02  0.87206306321E+02  0.13774413407E+03  0.91469944793E+02 0.  0.
         24    2    1    2    0    0  0.23916100131E+00  0.40159485382E+01  0.13831588469E+03  0.15994353220E+03  0.80215113885E+02 0.  0.
        -11    1    4    4    0    0  0.31307946593E+02 -0.18864009878E+02  0.39275524401E+02  0.53652634656E+02  0.00000000000E+00 0.  1.
         12    1    4    4    0    0 -0.31068785592E+02  0.22879958417E+02  0.99040360287E+02  0.10629089755E+03  0.00000000000E+00 0. -1.
        -11    1    3    3    0    0 -0.18022551627E+02  0.19590295589E+02  0.31105575584E+02  0.40940797266E+02  0.00000000000E+00 0. -1.
         11    1    3    3    0    0  0.29519318447E+02 -0.73158757950E+02  0.56100730737E+02  0.96803336800E+02  0.00000000000E+00 0.  1.
         21    1    1    2  502  501 -0.11735927822E+02  0.49552513823E+02  0.15460243857E+03  0.16277314779E+03  0.00000000000E+00 0. -1.
<scales pt_clust_5="13000.00000" pt_clust_6="13000.00000" pt_clust_7="13000.00000" pt_clust_8="13000.00000" pt_clust_9="50.92331"></scales>
<clustering>
<clus scale="   50.923">  1  9  2 -1</clus>
<clus scale="   80.215">  5  6 -1 -1</clus>
<clus scale="   86.701">  1  5  2 -1</clus>
<clus scale="   91.470">  7  8 -1 -1</clus>
<clus scale="   50.923">  1  5  2 -1</clus>
</clustering>
</event>
<event>
 9    2  0.2984928E-005  0.1696949E+03  0.7546771E-02  0.1179738E+00
         -1   -1    0    0    0  501 -0.00000000000E+00  0.00000000000E+00  0.51769270739E+03  0.51769270739E+03  0.00000000000E+00 0.  1.
          2   -1    0    0  502    0  0.00000000000E+00 -0.00000000000E+00 -0.18760828894E+03  0.18760828894E+03  0.00000000000E+00 0. -1.
         23    2    1    2    0    0  0.16974872133E+03  0.35715685980E+02  0.32371278808E+03  0.37847340596E+03  0.91443486554E+02 0.  0.
         24    2    1    2    0    0 -0.68989536931E+02 -0.10174405213E+03  0.97217877815E+02  0.17594618314E+03  0.79964587436E+02 0.  0.
        -13    1    4    4    0    0  0.17462141781E+02 -0.11949553103E+02  0.21171838644E+02  0.29932673895E+02  0.00000000000E+00 0.  1.
         14    1    4    4    0    0 -0.86451678711E+02 -0.89794499024E+02  0.76046039171E+02  0.14601350924E+03  0.00000000000E+00 0. -1.
        -11    1    3    3    0    0  0.55382732543E+02  0.30756035306E+02  0.20059212305E+03  0.21035774433E+03  0.00000000000E+00 0.  1.
         11    1    3    3    0    0  0.11436598879E+03  0.49596506734E+01  0.12312066503E+03  0.16811566162E+03  0.00000000000E+00 0. -1.
         21    1    1    2  502  501 -0.10075918440E+03  0.66028366148E+02 -0.90846247439E+02  0.15088140724E+03  0.00000000000E+00 0. -1.
<scales pt_clust_5="13000.00000" pt_clust_6="13000.00000" pt_clust_7="13000.00000" pt_clust_8="13000.00000" pt_clust_9="120.46642"></scales>
<clustering>
<clus scale="   79.965">  5  6 -1 -1</clus>
<clus scale="   91.443">  7  8 -1 -1</clus>
<clus scale="  120.466">  2  9  1 -1</clus>
<clus scale="  163.795">  2  5  1 -1</clus>
<clus scale="  120.466">  2  5  1 -1</clus>
</clustering>
</event>
<event>
 9    2  0.2984928E-005  0.9236417E+02  0.7546771E-02  0.1305478E+00
          2   -1    0    0  502    0  0.00000000000E+00  0.00000000000E+00  0.26181959960E+03  0.26181959960E+03  0.00000000000E+00 0. -1.
         -1   -1    0    0    0  501 -0.00000000000E+00 -0.00000000000E+00 -0.17807289455E+03  0.17807289455E+03  0.00000000000E+00 0.  1.
         23    2    1    2    0    0 -0.11991417579E+02 -0.15585374507E+01 -0.14638487324E+03  0.17311448267E+03  0.91618065146E+02 0.  0.
         24    2    1    2    0    0 -0.11711501435E+02  0.47678631860E+01  0.22946928043E+03  0.24284964380E+03  0.78485075307E+02 0.  0.
        -13    1    4    4    0    0  0.24923387921E+02 -0.18495317597E+02  0.14015742153E+03  0.14355262049E+03  0.00000000000E+00 0.  1.
         14    1    4    4    0    0 -0.36634889356E+02  0.23263180783E+02  0.89311858904E+02  0.99297023314E+02  0.00000000000E+00 0. -1.
        -13    1    3    3    0    0 -0.31985328307E+02  0.93449256749E+01 -0.99276333740E+01  0.34769911808E+02  0.00000000000E+00 0. -1.
         13    1    3    3    0    0  0.19993910728E+02 -0.10903463126E+02 -0.13645723986E+03  0.13834457086E+03  0.00000000000E+00 0.  1.
         21    1    1    2  502  501  0.23702919014E+02 -0.32093257353E+01  0.66229784928E+00  0.23928367682E+02  0.00000000000E+00 0.  1.
<scales pt_clust_5="13000.00000" pt_clust_6="13000.00000" pt_clust_7="13000.00000" pt_clust_8="13000.00000" pt_clust_9="23.91920"></scales>
<clustering>
<clus scale="   23.919">  2  9  1 -1</clus>
<clus scale="   78.485">  5  6 -1 -1</clus>
<clus scale="   79.355">  1  5  2 -1</clus>
<clus scale="   91.618">  7  8 -1 -1</clus>
<clus scale="   79.355">  1  5  2 -1</clus>
</clustering>
</event>
<event>
 9    2  0.2984928E-005  0.1726263E+03  0.7546771E-02  0.1176532E+00
          2   -1    0    0  502    0  0.00000000000E+00  0.00000000000E+00  0.29352677797E+03  0.29352677797E+03  0.00000000000E+00 0. -1.
         -1   -1    0    0    0  501 -0.00000000000E+00 -0.00000000000E+00 -0.64002046208E+03  0.64002046208E+03  0.00000000000E+00 0.  1.
         23    2    1    2    0    0 -0.82563938444E+02  0.11929514335E+03 -0.55553997262E+03  0.58133475557E+03  0.90979677345E+02 0.  0.
         24    2    1    2    0    0  0.15952694348E+03 -0.97445794256E+02  0.14996470779E+03  0.25275731177E+03  0.80326312961E+02 0.  0.
        -11    1    4    4    0    0  0.11498039910E+02 -0.18482197311E+02  0.56854726058E+02  0.60879030991E+02  0.00000000000E+00 0.  1.
         12    1    4    4    0    0  0.14802890357E+03 -0.78963596945E+02  0.93109981730E+02  0.19187828078E+03  0.00000000000E+00 0. -1.
        -11    1    3    3    0    0 -0.31696385463E+02  0.12023736474E+02 -0.40629137804E+02  0.52914628685E+02  0.00000000000E+00 0. -1.
         11    1    3    3    0    0 -0.50867552981E+02  0.10727140688E+03 -0.51491083482E+03  0.52842012688E+03  0.00000000000E+00 0.  1.
         21    1    1    2  502  501 -0.76963005040E+02 -0.21849349098E+02  0.59081580719E+02  0.99455172721E+02  0.00000000000E+00 0. -1.
<scales pt_clust_5="13000.00000" pt_clust_6="13000.00000" pt_clust_7="13000.00000" pt_clust_8="13000.00000" pt_clust_9="80.00436"></scales>
<clustering>
<clus scale="   80.004">  1  9  2 -1</clus>
<clus scale="   80.326">  5  6 -1 -1</clus>
<clus scale="   90.980">  7  8 -1 -1</clus>
<clus scale="  167.257">  1  5  2 -1</clus>
<clus scale="   80.004">  1  5  2 -1</clus>
</clustering>
</event>
<event>
 9    2  0.2984928E-005  0.1056327E+03  0.7546771E-02  0.1276484E+00
          2   -1    0    0  502    0  0.00000000000E+00  0.00000000000E+00  0.56234795780E+02  0.56234795780E+02  0.00000000000E+00 0. -1.
         -1   -1    0    0    0  501 -0.00000000000E+00 -0.00000000000E+00 -0.33337032755E+03  0.33337032755E+03  0.00000000000E+00 0.  1.
         23    2    1    2    0    0  0.64025492479E+02 -0.10030688973E+02 -0.19214757657E+03  0.22282212323E+03  0.92353283694E+02 0.  0.
         24    2    1    2    0    0 -0.26940828005E+02 -0.30479327241E+02 -0.35295654577E+02  0.92717768757E+02  0.75471874289E+02 0.  0.
        -13    1    4    4    0    0 -0.53008780965E+02 -0.26654808857E+02 -0.25989879522E+02  0.64775639960E+02  0.00000000000E+00 0.  1.
         14    1    4    4    0    0  0.26067952960E+02 -0.38245183835E+01 -0.93057750541E+01  0.27942128797E+02  0.00000000000E+00 0. -1.
        -13    1    3    3    0    0  0.72256065062E+02 -0.32842036398E+02 -0.10072761245E+03  0.12824036105E+03  0.00000000000E+00 0. -1.
         13    1    3    3    0    0 -0.82305725830E+01  0.22811347425E+02 -0.91419964119E+02  0.94581762173E+02  0.00000000000E+00 0.  1.
         21    1    1    2  502  501 -0.37084664474E+02  0.40510016213E+02 -0.49692300618E+02  0.74065231340E+02  0.00000000000E+00 0.  1.
<scales pt_clust_5="13000.00000" pt_clust_6="13000.00000" pt_clust_7="13000.00000" pt_clust_8="13000.00000" pt_clust_9="54.92116"></scales>
<clustering>
<clus scale="   54.921">  1  9  2 -1</clus>
<clus scale="   75.472">  5  6 -1 -1</clus>
<clus scale="   91.242">  1  5  2 -1</clus>
<clus scale="   92.353">  7  8 -1 -1</clus>
<clus scale="   54.921">  1  5  2 -1</clus>
</clustering>
</event>
<event>
 9    2  0.2984928E-005  0.1046939E+03  0.7546771E-02  0.1276901E+00
          2   -1    0    0  502    0  0.00000000000E+00  0.00000000000E+00  0.50002024272E+03  0.50002024272E+03  0.00000000000E+00 0. -1.
         -1   -1    0    0    0  501 -0.00000000000E+00 -0.00000000000E+00 -0.30872446155E+02  0.30872446155E+02  0.00000000000E+00 0.  1.
         23    2    1    2    0    0  0.60028591365E+02 -0.50909779908E+01  0.14076377146E+03  0.17865597166E+03  0.92055238943E+02 0.  0.
         24    2    1    2    0    0 -0.29701214428E+02  0.28894284915E+02  0.22166740297E+03  0.23876960898E+03  0.78469400348E+02 0.  0.
        -11    1    4    4    0    0 -0.30668642659E+02  0.19313765708E+01  0.23269628674E+02  0.38545706332E+02  0.00000000000E+00 0.  1.
         12    1    4    4    0    0  0.96742823042E+00  0.26962908344E+02  0.19839777430E+03  0.20022390264E+03  0.00000000000E+00 0. -1.
        -11    1    3    3    0    0  0.41820146396E+02  0.39129054189E+02  0.10248007728E+03  0.11739750323E+03  0.00000000000E+00 0. -1.
         11    1    3    3    0    0  0.18208444969E+02 -0.44220032180E+02  0.38283694183E+02  0.61258468431E+02  0.00000000000E+00 0.  1.
         21    1    1    2  502  501 -0.30327376937E+02 -0.23803306924E+02  0.10671662213E+03  0.11346710823E+03  0.00000000000E+00 0. -1.
<scales pt_clust_5="13000.00000" pt_clust_6="13000.00000" pt_clust_7="13000.00000" pt_clust_8="13000.00000" pt_clust_9="38.55317"></scales>
<clustering>
<clus scale="   38.553">  1  9  2 -1</clus>
<clus scale="   78.469">  5  6 -1 -1</clus>
<clus scale="   92.055">  7  8 -1 -1</clus>
<clus scale="   92.974">  1  5  2 -1</clus>
<clus scale="   38.553">  1  5  2 -1</clus>
</clustering>
</event>
<event>
 9    2  0.2984928E-005  0.9457680E+02  0.7546771E-02  0.1297744E+00
          2   -1    0    0  502    0  0.00000000000E+00  0.00000000000E+00  0.34819263382E+03  0.34819263382E+03  0.00000000000E+00 0. -1.
         -1   -1    0    0    0  501 -0.00000000000E+00 -0.00000000000E+00 -0.39185700586E+02  0.39185700586E+02  0.00000000000E+00 0.  1.
         24    2    1    2    0    0 -0.21137454646E+02  0.25610383956E+02  0.49478350265E+02  0.10090988200E+03  0.81437174462E+02 0.  0.
         23    2    1    2    0    0  0.37189706839E+01 -0.30369524155E+01  0.17726487709E+03  0.19940364494E+03  0.91191683517E+02 0.  0.
        -13    1    3    3    0    0 -0.17276805050E+02 -0.20567780733E+02 -0.70934060364E+01  0.27781972684E+02  0.00000000000E+00 0.  1.
         14    1    3    3    0    0 -0.38606495960E+01  0.46178164689E+02  0.56571756302E+02  0.73127909312E+02  0.00000000000E+00 0. -1.
        -13    1    4    4    0    0  0.23496340381E+01  0.37161616935E+02  0.13895240663E+03  0.14385505852E+03  0.00000000000E+00 0. -1.
         13    1    4    4    0    0  0.13693366458E+01 -0.40198569350E+02  0.38312470463E+02  0.55548586423E+02  0.00000000000E+00 0.  1.
         21    1    1    2  502  501  0.17418483962E+02 -0.22573431540E+02  0.82263705881E+02  0.87064807473E+02  0.00000000000E+00 0. -1.
<scales pt_clust_5="13000.00000" pt_clust_6="13000.00000" pt_clust_7="13000.00000" pt_clust_8="13000.00000" pt_clust_9="28.51251"></scales>
<clustering>
<clus scale="   28.513">  1  9  2 -1</clus>
<clus scale="   81.437">  5  6 -1 -1</clus>
<clus scale="   85.211">  2  5  1 -1</clus>
<clus scale="   91.192">  7  8 -1 -1</clus>
<clus scale="   28.513">  1  5  2 -1</clus>
</clustering>
</event>
<event>
 9    2  0.2984928E-005  0.9649950E+02  0.7546771E-02  0.1293308E+00
         -1   -1    0    0    0  501 -0.00000000000E+00  0.00000000000E+00  0.83097906244E+02  0.83097906244E+02  0.00000000000E+00 0.  1.
          2   -1    0    0  502    0  0.00000000000E+00 -0.00000000000E+00 -0.15421936214E+03  0.15421936214E+03  0.00000000000E+00 0. -1.
         23    2    1    2    0    0  0.38274807156E+01  0.19197035505E+02 -0.17503977622E+02  0.95085339090E+02  0.91387399002E+02 0.  0.
         24    2    1    2    0    0 -0.38328693478E+02 -0.31141014343E+02 -0.39734271802E+02  0.10317126193E+03  0.81404210059E+02 0.  0.
        -13    1    4    4    0    0 -0.41731751183E+02  0.12546672286E+02  0.64769671510E+00  0.43581848897E+02  0.00000000000E+00 0.  1.
         14    1    4    4    0    0  0.34030577049E+01 -0.43687686629E+02 -0.40381968517E+02  0.59589413037E+02  0.00000000000E+00 0. -1.
        -11    1    3    3    0    0  0.19833143329E+02  0.65318577487E+01 -0.51421896666E+02  0.55499821592E+02  0.00000000000E+00 0. -1.
         11    1    3    3    0    0 -0.16005662614E+02  0.12665177756E+02  0.33917919044E+02  0.39585517498E+02  0.00000000000E+00 0.  1.
         21    1    1    2  502  501  0.34501212763E+02  0.11943978839E+02 -0.13883206470E+02  0.39060667358E+02  0.00000000000E+00 0. -1.
<scales pt_clust_5="13000.00000" pt_clust_6="13000.00000" pt_clust_7="13000.00000" pt_clust_8="13000.00000" pt_clust_9="36.51017"></scales>
<clustering>
<clus scale="   36.510">  2  9  1 -1</clus>
<clus scale="   81.404">  5  6 -1 -1</clus>
<clus scale="   87.104">  2  5  1 -1</clus>
<clus scale="   91.387">  7  8 -1 -1</clus>
<clus scale="   36.510">  2  5  1 -1</clus>
</clustering>
</event>
<event>
 9    2  0.2984928E-005  0.9324505E+02  0.7546771E-02  0.1296369E+00
         -1   -1    0    0    0  501 -0.00000000000E+00  0.00000000000E+00  0.14503070291E+03  0.14503070291E+03  0.00000000000E+00 0.  1.
          2   -1    0    0  502    0  0.00000000000E+00 -0.00000000000E+00 -0.18109414333E+03  0.18109414333E+03  0.00000000000E+00 0. -1.
         23    2    1    2    0    0 -0.13614823117E+01 -0.15778513462E+02  0.10543847038E+03  0.14072331759E+03  0.91842070734E+02 0.  0.
         24    2    1    2    0    0 -0.23483767981E+02  0.17708799036E+02 -0.10545983434E+03  0.14158322493E+03  0.89771621359E+02 0.  0.
        -11    1    4    4    0    0 -0.36052302820E+01 -0.24312109740E+02  0.18398845292E+01  0.24646734885E+02  0.00000000000E+00 0.  1.
         12    1    4    4    0    0 -0.19878537699E+02  0.42020908776E+02 -0.10729971887E+03  0.11693649005E+03  0.00000000000E+00 0. -1.
        -11    1    3    3    0    0  0.40343392107E+02 -0.20038427962E+02  0.79647309705E+02  0.91503124674E+02  0.00000000000E+00 0.  1.
         11    1    3    3    0    0 -0.41704874419E+02  0.42599144996E+01  0.25791160677E+02  0.49220192918E+02  0.00000000000E+00 0. -1.
         21    1    1    2  502  501  0.24845250293E+02 -0.19302855733E+01 -0.36042076468E+02  0.43818303717E+02  0.00000000000E+00 0. -1.
<scales pt_clust_5="13000.00000" pt_clust_6="13000.00000" pt_clust_7="13000.00000" pt_clust_8="13000.00000" pt_clust_9="24.92012"></scales>
<clustering>
<clus scale="   24.920">  2  9  1 -1</clus>
<clus scale="   89.772">  5  6 -1 -1</clus>
<clus scale="   91.206">  2  5  1 -1</clus>
<clus scale="   91.842">  7  8 -1 -1</clus>
<clus scale="   24.920">  2  5  1 -1</clus>
</clustering>
</event>
<event>
 9    2  0.4545794E-005  0.9949969E+02  0.7546771E-02  0.1287950E+00
         -1   -1    0    0    0  501 -0.00000000000E+00  0.00000000000E+00  0.10389843416E+03  0.10389843416E+03  0.00000000000E+00 0.  1.
          2   -1    0    0  502    0  0.00000000000E+00 -0.00000000000E+00 -0.10559079481E+04  0.10559079481E+04  0.00000000000E+00 0. -1.
         23    2    1    2    0    0  0.15465509336E+02  0.35663262417E+02  0.75369331033E+02  0.12472557705E+03  0.91459735643E+02 0.  0.
         24    2    1    2    0    0 -0.18021532194E+01 -0.54596963753E+02 -0.93122406875E+03  0.93613176107E+03  0.78615085435E+02 0.  0.
        -11    1    4    4    0    0 -0.88635671049E+01 -0.49226071976E+02 -0.25551874975E+03  0.26036820171E+03  0.00000000000E+00 0.  1.
         12    1    4    4    0    0  0.70614138855E+01 -0.53708917775E+01 -0.67570531900E+03  0.67576355937E+03  0.00000000000E+00 0. -1.
        -13    1    3    3    0    0 -0.17697099285E+02 -0.24714010001E+02  0.25625578448E+02  0.39757262031E+02  0.00000000000E+00 0. -1.
         13    1    3    3    0    0  0.33162608621E+02  0.60377272418E+02  0.49743752585E+02  0.84968315015E+02  0.00000000000E+00 0.  1.
         21    1    1    2  502  501 -0.13663356117E+02  0.18933701336E+02 -0.96154776174E+02  0.98949044097E+02  0.00000000000E+00 0.  1.
<scales pt_clust_5="13000.00000" pt_clust_6="13000.00000" pt_clust_7="13000.00000" pt_clust_8="13000.00000" pt_clust_9="23.34893"></scales>
<clustering>
<clus scale="   23.349">  2  9  1 -1</clus>
<clus scale="   78.615">  5  6 -1 -1</clus>
<clus scale="   87.839">  2  5  1 -1</clus>
<clus scale="   91.460">  7  8 -1 -1</clus>
<clus scale="   23.349">  2  5  1 -1</clus>
</clustering>
</event>
<event>
 9    2  0.2984928E-005  0.1007644E+03  0.7546771E-02  0.1285247E+00
         -1   -1    0    0    0  501 -0.00000000000E+00  0.00000000000E+00  0.41674718689E+03  0.41674718689E+03  0.00000000000E+00 0.  1.
          2   -1    0    0  502    0  0.00000000000E+00 -0.00000000000E+00 -0.10729852548E+03  0.10729852548E+03  0.00000000000E+00 0. -1.
         23    2    1    2    0    0  0.39938972253E+02  0.14947233255E+02  0.37942792807E+03  0.39281126128E+03  0.92285389400E+02 0.  0.
         24    2    1    2    0    0 -0.15495973043E+02  0.71496831531E+00 -0.59715163939E+02  0.10044294945E+03  0.79260639224E+02 0.  0.
        -13    1    4    4    0    0  0.17335326750E+02  0.12256529297E+02  0.92782771755E+01  0.23169430102E+02  0.00000000000E+00 0.  1.
         14    1    4    4    0    0 -0.32831299793E+02 -0.11541560981E+02 -0.68993441114E+02  0.77273519350E+02  0.00000000000E+00 0. -1.
        -13    1    3    3    0    0  0.56691864472E+02  0.41372642878E+02  0.25105876818E+03  0.26068403893E+03  0.00000000000E+00 0.  1.
         13    1    3    3    0    0 -0.16752892219E+02 -0.26425409624E+02  0.12836915990E+03  0.13212722235E+03  0.00000000000E+00 0. -1.
         21    1    1    2  502  501 -0.24442999210E+02 -0.15662201570E+02 -0.10264102734E+02  0.30791501642E+02  0.00000000000E+00 0.  1.
<scales pt_clust_5="13000.00000" pt_clust_6="13000.00000" pt_clust_7="13000.00000" pt_clust_8="13000.00000" pt_clust_9="29.03041"></scales>
<clustering>
<clus scale="   29.030">  2  9  1 -1</clus>
<clus scale="   79.261">  5  6 -1 -1</clus>
<clus scale="   88.989">  2  5  1 -1</clus>
<clus scale="   92.285">  7  8 -1 -1</clus>
<clus scale="   29.030">  2  5  1 -1</clus>
</clustering>
</event>
<event>
 9    2  0.2984928E-005  0.2387028E+03  0.7546771E-02  0.1121398E+00
         -1   -1    0    0    0  501 -0.00000000000E+00  0.00000000000E+00  0.58318464173E+03  0.58318464173E+03  0.00000000000E+00 0.  1.
          2   -1    0    0  502    0  0.00000000000E+00 -0.00000000000E+00 -0.31822655267E+03  0.31822655267E+03  0.00000000000E+00 0. -1.
         24    2    1    2    0    0 -0.13071936672E+03  0.18001058783E+03  0.44493282088E+03  0.50387506460E+03  0.80209108368E+02 0.  0.
         23    2    1    2    0    0  0.15766804944E+03 -0.14443747190E+03 -0.22578931046E+02  0.23393565247E+03  0.92166611462E+02 0.  0.
        -13    1    3    3    0    0 -0.99920559334E+02  0.17174934364E+03  0.33585058522E+03  0.39022758848E+03  0.00000000000E+00 0.  1.
         14    1    3    3    0    0 -0.30798807385E+02  0.82612441840E+01  0.10908223566E+03  0.11364747612E+03  0.00000000000E+00 0. -1.
        -11    1    4    4    0    0  0.36728781214E+02  0.68957655756E+01  0.68450357867E+01  0.37992229037E+02  0.00000000000E+00 0.  1.
         11    1    4    4    0    0  0.12093926822E+03 -0.15133323748E+03 -0.29423966833E+02  0.19594342344E+03  0.00000000000E+00 0. -1.
         21    1    1    2  502  501 -0.26948682719E+02 -0.35573115926E+02 -0.15739580078E+03  0.16360047732E+03  0.00000000000E+00 0. -1.
<scales pt_clust_5="13000.00000" pt_clust_6="13000.00000" pt_clust_7="13000.00000" pt_clust_8="13000.00000" pt_clust_9="44.62822"></scales>
<clustering>
<clus scale="   44.628">  2  9  1 -1</clus>
<clus scale="   80.209">  5  6 -1 -1</clus>
<clus scale="   92.167">  7  8 -1 -1</clus>
<clus scale="  234.346">  1  5  2 -1</clus>
<clus scale="   44.628">  2  5  1 -1</clus>
</clustering>
</event>
<event>
 9    2  0.2984928E-005  0.8463824E+02  0.7546771E-02  0.1318398E+00
         -1   -1    0    0    0  501 -0.00000000000E+00  0.00000000000E+00  0.17702077852E+03  0.17702077852E+03  0.00000000000E+00 0.  1.
          2   -1    0    0  502    0  0.00000000000E+00 -0.00000000000E+00 -0.11602354724E+03  0.11602354724E+03  0.00000000000E+00 0. -1.
         24    2    1    2    0    0 -0.88622931130E+01  0.14889151166E+02  0.11260321096E+03  0.13956027076E+03  0.80606197005E+02 0.  0.
         23    2    1    2    0    0 -0.37210575595E+02 -0.50378250992E+01 -0.13072168140E+02  0.92618527093E+02  0.83649885614E+02 0.  0.
        -13    1    3    3    0    0 -0.44528237558E+02  0.81072477186E+01  0.72471970534E+02  0.85444004580E+02  0.00000000000E+00 0.  1.
         14    1    3    3    0    0  0.35665944445E+02  0.67819034471E+01  0.40131240422E+02  0.54116266180E+02  0.00000000000E+00 0. -1.
        -11    1    4    4    0    0 -0.31627321772E+02  0.35621966505E+02 -0.18735692295E+02  0.51188261798E+02  0.00000000000E+00 0.  1.
         11    1    4    4    0    0 -0.55832538228E+01 -0.40659791604E+02  0.56635241553E+01  0.41430265295E+02  0.00000000000E+00 0. -1.
         21    1    1    2  502  501  0.46072868708E+02 -0.98513260665E+01 -0.38533811533E+02  0.60865527908E+02  0.00000000000E+00 0. -1.
<scales pt_clust_5="13000.00000" pt_clust_6="13000.00000" pt_clust_7="13000.00000" pt_clust_8="13000.00000" pt_clust_9="47.11431"></scales>
<clustering>
<clus scale="   47.114">  2  9  1 -1</clus>
<clus scale="   80.606">  5  6 -1 -1</clus>
<clus scale="   81.631">  1  5  2 -1</clus>
<clus scale="   83.650">  7  8 -1 -1</clus>
<clus scale="   47.114">  2  5  1 -1</clus>
</clustering>
</event>
<event>
 9    2  0.2984928E-005  0.1552083E+03  0.7546771E-02  0.1194821E+00
         -3   -1    0    0    0  501 -0.00000000000E+00  0.00000000000E+00  0.66810121309E+03  0.66810121309E+03  0.00000000000E+00 0.  1.
          4   -1    0    0  502    0  0.00000000000E+00 -0.00000000000E+00 -0.52987182663E+02  0.52987182663E+02  0.00000000000E+00 0. -1.
         24    2    1    2    0    0 -0.12761425112E+03  0.51145621263E+02  0.40479241553E+03  0.43586268898E+03  0.84959474529E+02 0.  0.
         23    2    1    2    0    0  0.10779569528E+03 -0.35446536483E+02  0.21574387197E+03  0.25936768499E+03  0.88599147040E+02 0.  0.
        -11    1    3    3    0    0  0.53535437068E+01  0.20357045695E+02  0.95535187635E+02  0.97826590537E+02  0.00000000000E+00 0.  1.
         12    1    3    3    0    0 -0.13296779482E+03  0.30788575569E+02  0.30925722790E+03  0.33803609844E+03  0.00000000000E+00 0. -1.
        -13    1    4    4    0    0  0.38943569080E+02 -0.43501518046E+02  0.40910615337E+02  0.71292791307E+02  0.00000000000E+00 0. -1.
         13    1    4    4    0    0  0.68852126205E+02  0.80549815635E+01  0.17483325663E+03  0.18807489369E+03  0.00000000000E+00 0.  1.
         21    1    1    2  502  501  0.19818555831E+02 -0.15699084781E+02 -0.54222570780E+01  0.25858021773E+02  0.00000000000E+00 0. -1.
<scales pt_clust_5="13000.00000" pt_clust_6="13000.00000" pt_clust_7="13000.00000" pt_clust_8="13000.00000" pt_clust_9="25.28313"></scales>
<clustering>
<clus scale="   25.283">  2  9  1 -1</clus>
<clus scale="   84.959">  5  6 -1 -1</clus>
<clus scale="   88.599">  7  8 -1 -1</clus>
<clus scale="  153.160">  1  5  2 -1</clus>
<clus scale="   25.283">  2  5  1 -1</clus>
</clustering>
</event>
<event>
 9    2  0.2984928E-005  0.1374636E+03  0.7546771E-02  0.1219741E+00
          2   -1    0    0  502    0  0.00000000000E+00  0.00000000000E+00  0.11720803252E+04  0.11720803252E+04  0.00000000000E+00 0. -1.
         -1   -1    0    0    0  501 -0.00000000000E+00 -0.00000000000E+00 -0.19863319526E+02  0.19863319526E+02  0.00000000000E+00 0.  1.
         23    2    1    2    0    0  0.81168245843E+02 -0.60208768177E+02  0.46784006917E+03  0.48729871720E+03  0.91500434783E+02 0.  0.
         24    2    1    2    0    0 -0.10220078838E+03  0.32633879367E+02  0.52903122342E+03  0.54547510340E+03  0.78479818095E+02 0.  0.
        -13    1    4    4    0    0 -0.32500849370E+02 -0.25602960745E+02  0.14026343246E+03  0.14623832362E+03  0.00000000000E+00 0.  1.
         14    1    4    4    0    0 -0.69699939009E+02  0.58236840112E+02  0.38876779095E+03  0.39923677978E+03  0.00000000000E+00 0. -1.
        -13    1    3    3    0    0 -0.11776694510E+02 -0.39198634081E+02  0.13175085293E+03  0.13796199003E+03  0.00000000000E+00 0.  1.
         13    1    3    3    0    0  0.92944940352E+02 -0.21010134096E+02  0.33608921625E+03  0.34933672717E+03  0.00000000000E+00 0. -1.
         21    1    1    2  502  501  0.21032542536E+02  0.27574888810E+02  0.15534571308E+03  0.15916982412E+03  0.00000000000E+00 0. -1.
<scales pt_clust_5="13000.00000" pt_clust_6="13000.00000" pt_clust_7="13000.00000" pt_clust_8="13000.00000" pt_clust_9="34.68058"></scales>
<clustering>
<clus scale="   34.681">  1  9  2 -1</clus>
<clus scale="   78.480">  5  6 -1 -1</clus>
<clus scale="   91.500">  7  8 -1 -1</clus>
<clus scale="  129.163">  1  5  2 -1</clus>
<clus scale="   34.681">  1  5  2 -1</clus>
</clustering>
</event>
<event>
 9    2  0.2984928E-005  0.9679038E+02  0.7546771E-02  0.1292906E+00
          2   -1    0    0  502    0  0.00000000000E+00  0.00000000000E+00  0.13167212480E+03  0.13167212480E+03  0.00000000000E+00 0. -1.
         -1   -1    0    0    0  501 -0.00000000000E+00 -0.00000000000E+00 -0.30086727641E+03  0.30086727641E+03  0.00000000000E+00 0.  1.
         23    2    1    2    0    0  0.25952227296E+02 -0.18620268532E+02 -0.25871485694E+03  0.27617403862E+03  0.91205755862E+02 0.  0.
         24    2    1    2    0    0 -0.14184496188E+02  0.40162237253E+02  0.37153431251E+02  0.98531440261E+02  0.80708500376E+02 0.  0.
        -11    1    4    4    0    0  0.22562266377E+02 -0.13036407808E+02  0.58975888098E+01  0.26716761525E+02  0.00000000000E+00 0.  1.
         12    1    4    4    0    0 -0.36746762564E+02  0.53198645061E+02  0.31255842441E+02  0.71814678736E+02  0.00000000000E+00 0. -1.
        -11    1    3    3    0    0 -0.18819291545E+02  0.16145921750E+02 -0.23282060239E+02  0.34013392251E+02  0.00000000000E+00 0. -1.
         11    1    3    3    0    0  0.44771518840E+02 -0.34766190282E+02 -0.23543279670E+03  0.24216064636E+03  0.00000000000E+00 0.  1.
         21    1    1    2  502  501 -0.11767731108E+02 -0.21541968721E+02  0.52366274078E+02  0.57833922334E+02  0.00000000000E+00 0.  1.
<scales pt_clust_5="13000.00000" pt_clust_6="13000.00000" pt_clust_7="13000.00000" pt_clust_8="13000.00000" pt_clust_9="24.54661"></scales>
<clustering>
<clus scale="   24.547">  1  9  2 -1</clus>
<clus scale="   80.709">  5  6 -1 -1</clus>
<clus scale="   86.970">  1  5  2 -1</clus>
<clus scale="   91.206">  7  8 -1 -1</clus>
<clus scale="   24.547">  1  5  2 -1</clus>
</clustering>
</event>
<event>
 9    2  0.2984928E-005  0.1227317E+03  0.7546771E-02  0.1241878E+00
         -1   -1    0    0    0  501 -0.00000000000E+00  0.00000000000E+00  0.12122293098E+03  0.12122293098E+03  0.00000000000E+00 0.  1.
          2   -1    0    0  502    0  0.00000000000E+00 -0.00000000000E+00 -0.40375207087E+03  0.40375207087E+03  0.00000000000E+00 0. -1.
         24    2    1    2    0    0 -0.23443380822E+02 -0.66924346368E+02  0.33571563013E+02  0.12081923397E+03  0.91879144600E+02 0.  0.
         23    2    1    2    0    0  0.24489085461E+02  0.10431356270E+03 -0.63304337132E+02  0.14860724110E+03  0.81213535431E+02 0.  0.
        -11    1    3    3    0    0 -0.30671799386E+02 -0.66246638384E+02  0.59321097665E+02  0.94065769560E+02  0.00000000000E+00 0.  1.
         12    1    3    3    0    0  0.72284185645E+01 -0.67770798434E+00 -0.25749534652E+02  0.26753464409E+02  0.00000000000E+00 0. -1.
        -11    1    4    4    0    0  0.14649256635E+02  0.35748941768E+02 -0.69028017795E+02  0.79104075737E+02  0.00000000000E+00 0. -1.
         11    1    4    4    0    0  0.98398288253E+01  0.68564620934E+02  0.57236806626E+01  0.69503165363E+02  0.00000000000E+00 0.  1.
         21    1    1    2  502  501 -0.10457046389E+01 -0.37389216334E+02 -0.25279636577E+03  0.25554852679E+03  0.00000000000E+00 0. -1.
<scales pt_clust_5="13000.00000" pt_clust_6="13000.00000" pt_clust_7="13000.00000" pt_clust_8="13000.00000" pt_clust_9="37.40384"></scales>
<clustering>
<clus scale="   37.404">  2  9  1 -1</clus>
<clus scale="   81.214">  7  8 -1 -1</clus>
<clus scale="   91.879">  5  6 -1 -1</clus>
<clus scale="  114.965">  2  7  1 -1</clus>
<clus scale="   37.404">  2  5  1 -1</clus>
</clustering>
</event>
<event>
 9    2  0.2984928E-005  0.1141502E+03  0.7546771E-02  0.1256328E+00
         -3   -1    0    0    0  501 -0.00000000000E+00  0.00000000000E+00  0.57697857048E+02  0.57697857048E+02  0.00000000000E+00 0.  1.
          4   -1    0    0  502    0  0.00000000000E+00 -0.00000000000E+00 -0.47017582840E+03  0.47017582840E+03  0.00000000000E+00 0. -1.
         23    2    1    2    0    0 -0.26823292234E+02 -0.69536203357E+02 -0.25787367827E+02  0.12024743251E+03  0.90772705709E+02 0.  0.
         24    2    1    2    0    0  0.27711661136E+01  0.51829243980E+02 -0.25852662169E+03  0.27602820044E+03  0.81618646299E+02 0.  0.
        -11    1    4    4    0    0 -0.16114877636E+02  0.54424430334E+02 -0.24766836017E+03  0.25408920584E+03  0.00000000000E+00 0.  1.
         12    1    4    4    0    0  0.18886043749E+02 -0.25951863539E+01 -0.10858261524E+02  0.21938994600E+02  0.00000000000E+00 0. -1.
        -13    1    3    3    0    0 -0.17792509793E+02  0.19518977113E+02  0.20925297811E+01  0.26494198481E+02  0.00000000000E+00 0.  1.
         13    1    3    3    0    0 -0.90307824411E+01 -0.89055180470E+02 -0.27879897608E+02  0.93753234028E+02  0.00000000000E+00 0. -1.
         21    1    1    2  502  501  0.24052126120E+02  0.17706959377E+02 -0.12816398184E+03  0.13159805250E+03  0.00000000000E+00 0. -1.
<scales pt_clust_5="13000.00000" pt_clust_6="13000.00000" pt_clust_7="13000.00000" pt_clust_8="13000.00000" pt_clust_9="29.86706"></scales>
<clustering>
<clus scale="   29.867">  2  9  1 -1</clus>
<clus scale="   81.619">  5  6 -1 -1</clus>
<clus scale="   90.773">  7  8 -1 -1</clus>
<clus scale="  107.015">  2  5  1 -1</clus>
<clus scale="   29.867">  2  5  1 -1</clus>
</clustering>
</event>
<event>
 9    2  0.2984928E-005  0.1201620E+03  0.7546771E-02  0.1251910E+00
         -1   -1    0    0    0  501 -0.00000000000E+00  0.00000000000E+00  0.19912385702E+03  0.19912385702E+03  0.00000000000E+00 0.  1.
          2   -1    0    0  502    0  0.00000000000E+00 -0.00000000000E+00 -0.27378871236E+03  0.27378871236E+03  0.00000000000E+00 0. -1.
         23    2    1    2    0    0 -0.61701706559E+02 -0.19906824253E+02  0.11515206606E+03  0.16869738873E+03  0.10485908830E+03 0.  0.
         24    2    1    2    0    0  0.13623776159E+02 -0.63309615372E+02 -0.17975256851E+03  0.20758312378E+03  0.81154499076E+02 0.  0.
        -13    1    4    4    0    0 -0.32591504395E+02 -0.20910514790E+02 -0.48062459554E+02  0.61720789090E+02  0.00000000000E+00 0.  1.
         14    1    4    4    0    0  0.46215280554E+02 -0.42399100582E+02 -0.13169010895E+03  0.14586233469E+03  0.00000000000E+00 0. -1.
        -13    1    3    3    0    0 -0.61758426639E+02  0.28222219156E+02  0.38131151521E+02  0.77875423796E+02  0.00000000000E+00 0.  1.
         13    1    3    3    0    0  0.56720079762E-01 -0.48129043409E+02  0.77020914543E+02  0.90821964930E+02  0.00000000000E+00 0. -1.
         21    1    1    2  502  501  0.48077930400E+02  0.83216439625E+02 -0.10064352896E+02  0.96632056868E+02  0.00000000000E+00 0.  1.
<scales pt_clust_5="13000.00000" pt_clust_6="13000.00000" pt_clust_7="13000.00000" pt_clust_8="13000.00000" pt_clust_9="96.10652"></scales>
<clustering>
<clus scale="   81.154">  5  6 -1 -1</clus>
<clus scale="   96.107">  1  9  2 -1</clus>
<clus scale="  100.148">  2  5  1 -1</clus>
<clus scale="  104.859">  7  8 -1 -1</clus>
<clus scale="  100.148">  2  5  1 -1</clus>
</clustering>
</event>
<event>
 9    2  0.2984928E-005  0.1349073E+03  0.7546771E-02  0.1235927E+00
         -1   -1    0    0    0  501 -0.00000000000E+00  0.00000000000E+00  0.27816670327E+03  0.27816670327E+03  0.00000000000E+00 0.  1.
          2   -1    0    0  502    0  0.00000000000E+00 -0.00000000000E+00 -0.17656590456E+03  0.17656590456E+03  0.00000000000E+00 0. -1.
         23    2    1    2    0    0  0.40035557359E+02  0.11961788033E+02  0.17531948168E+03  0.20070624940E+03  0.88318444650E+02 0.  0.
         24    2    1    2    0    0 -0.94547089973E+02  0.69272833031E+02 -0.44638315215E+02  0.15196638275E+03  0.85809816932E+02 0.  0.
        -13    1    4    4    0    0 -0.26400606757E+02 -0.81078997322E+01 -0.40184677006E+02  0.48760007602E+02  0.00000000000E+00 0.  1.
         14    1    4    4    0    0 -0.68146483216E+02  0.77380732763E+02 -0.44536382093E+01  0.10320637515E+03  0.00000000000E+00 0. -1.
        -13    1    3    3    0    0  0.44021396198E+02  0.44603575682E+02  0.13373912159E+03  0.14769399084E+03  0.00000000000E+00 0. -1.
         13    1    3    3    0    0 -0.39858388394E+01 -0.32641787649E+02  0.41580360084E+02  0.53012258553E+02  0.00000000000E+00 0.  1.
         21    1    1    2  502  501  0.54511532614E+02 -0.81234621064E+02 -0.29080367754E+02  0.10205997568E+03  0.00000000000E+00 0.  1.
<scales pt_clust_5="13000.00000" pt_clust_6="13000.00000" pt_clust_7="13000.00000" pt_clust_8="13000.00000" pt_clust_9="104.09922"></scales>
<clustering>
<clus scale="   85.810">  5  6 -1 -1</clus>
<clus scale="   88.318">  7  8 -1 -1</clus>
<clus scale="   97.704">  1  7  2 -1</clus>
<clus scale="  104.099">  2  9  1 -1</clus>
<clus scale="  104.099">  2  5  1 -1</clus>
</clustering>
</event>
<event>
 9    2  0.2984928E-005  0.9838586E+02  0.7546771E-02  0.1288947E+00
          2   -1    0    0  502    0  0.00000000000E+00  0.00000000000E+00  0.83061373109E+02  0.83061373109E+02  0.00000000000E+00 0. -1.
         -1   -1    0    0    0  501 -0.00000000000E+00 -0.00000000000E+00 -0.24253524760E+03  0.24253524760E+03  0.00000000000E+00 0.  1.
         24    2    1    2    0    0 -0.10463871576E+02  0.38502353501E+02 -0.17929475565E+03  0.20064443300E+03  0.80744382191E+02 0.  0.
         23    2    1    2    0    0  0.28208389853E+02 -0.18992614769E+02  0.16536121683E+02  0.98376118044E+02  0.90818415573E+02 0.  0.
        -13    1    3    3    0    0 -0.43366192438E+02  0.27610456041E+02 -0.76544858726E+02  0.92206720616E+02  0.00000000000E+00 0.  1.
         14    1    3    3    0    0  0.32902320862E+02  0.10891897461E+02 -0.10274989693E+03  0.10843771238E+03  0.00000000000E+00 0. -1.
        -13    1    4    4    0    0 -0.11538853491E+02  0.17088579838E+02  0.35824376396E+02  0.41334617996E+02  0.00000000000E+00 0. -1.
         13    1    4    4    0    0  0.39747243345E+02 -0.36081194607E+02 -0.19288254713E+02  0.57041500047E+02  0.00000000000E+00 0.  1.
         21    1    1    2  502  501 -0.17744518277E+02 -0.19509738732E+02  0.32847594753E+01  0.26576069670E+02  0.00000000000E+00 0.  1.
<scales pt_clust_5="13000.00000" pt_clust_6="13000.00000" pt_clust_7="13000.00000" pt_clust_8="13000.00000" pt_clust_9="26.37229"></scales>
<clustering>
<clus scale="   26.372">  1  9  2 -1</clus>
<clus scale="   80.744">  5  6 -1 -1</clus>
<clus scale="   89.171">  2  5  1 -1</clus>
<clus scale="   90.818">  7  8 -1 -1</clus>
<clus scale="   26.372">  1  5  2 -1</clus>
</clustering>
</event>
<event>
 9    2  0.2984928E-005  0.9016258E+02  0.7546771E-02  0.1306520E+00
         -1   -1    0    0    0  501 -0.00000000000E+00  0.00000000000E+00  0.48115793355E+02  0.48115793355E+02  0.00000000000E+00 0.  1.
          2   -1    0    0  502    0  0.00000000000E+00 -0.00000000000E+00 -0.26098135024E+03  0.26098135024E+03  0.00000000000E+00 0. -1.
         24    2    1    2    0    0  0.23012192838E+02 -0.51500607622E+01 -0.19205366882E+02  0.86940983090E+02  0.81448169277E+02 0.  0.
         23    2    1    2    0    0 -0.34630510041E+01  0.95999289100E+01 -0.15339587549E+03  0.17717632840E+03  0.88073863154E+02 0.  0.
        -11    1    3    3    0    0  0.34877167392E+02 -0.36207774549E+02 -0.18852838500E+02  0.53692171335E+02  0.00000000000E+00 0.  1.
         12    1    3    3    0    0 -0.11864974555E+02  0.31057713787E+02 -0.35252838171E+00  0.33248811755E+02  0.00000000000E+00 0. -1.
        -11    1    4    4    0    0  0.36255596821E+02 -0.17357356443E+02 -0.78996905888E+02  0.88635530479E+02  0.00000000000E+00 0.  1.
         11    1    4    4    0    0 -0.39718647825E+02  0.26957285353E+02 -0.74398969601E+02  0.88540797920E+02  0.00000000000E+00 0. -1.
         21    1    1    2  502  501 -0.19549141834E+02 -0.44498681478E+01 -0.40264314513E+02  0.44979832105E+02  0.00000000000E+00 0. -1.
<scales pt_clust_5="13000.00000" pt_clust_6="13000.00000" pt_clust_7="13000.00000" pt_clust_8="13000.00000" pt_clust_9="20.04920"></scales>
<clustering>
<clus scale="   20.049">  2  9  1 -1</clus>
<clus scale="   81.448">  5  6 -1 -1</clus>
<clus scale="   83.702">  1  5  2 -1</clus>
<clus scale="   88.074">  7  8 -1 -1</clus>
<clus scale="   20.049">  2  5  1 -1</clus>
</clustering>
</event>
<event>
 9    2  0.2984928E-005  0.9908405E+02  0.7546771E-02  0.1287544E+00
          2   -1    0    0  502    0  0.00000000000E+00  0.00000000000E+00  0.45204239884E+03  0.45204239884E+03  0.00000000000E+00 0. -1.
         -1   -1    0    0    0  501 -0.00000000000E+00 -0.00000000000E+00 -0.60848327047E+02  0.60848327047E+02  0.00000000000E+00 0.  1.
         23    2    1    2    0    0  0.22040270037E+02  0.67188043845E+01  0.26769802903E+02  0.97092920133E+02  0.90440571410E+02 0.  0.
         24    2    1    2    0    0 -0.83295287786E+02 -0.20299955588E+02  0.13918871780E+03  0.18198660340E+03  0.79971441731E+02 0.  0.
        -13    1    4    4    0    0 -0.65383601812E+02 -0.29818346317E+02  0.14418133281E+03  0.16109750430E+03  0.00000000000E+00 0.  1.
         14    1    4    4    0    0 -0.17911685974E+02  0.95183907291E+01 -0.49926150120E+01  0.20889099099E+02  0.00000000000E+00 0. -1.
        -13    1    3    3    0    0 -0.36872589847E+01 -0.27808389855E+02 -0.19287583085E+02  0.34042815489E+02  0.00000000000E+00 0.  1.
         13    1    3    3    0    0  0.25727529021E+02  0.34527194240E+02  0.46057385988E+02  0.63050104644E+02  0.00000000000E+00 0. -1.
         21    1    1    2  502  501  0.61255017749E+02  0.13581151203E+02  0.22523555109E+03  0.23381120235E+03  0.00000000000E+00 0. -1.
<scales pt_clust_5="13000.00000" pt_clust_6="13000.00000" pt_clust_7="13000.00000" pt_clust_8="13000.00000" pt_clust_9="62.74253"></scales>
<clustering>
<clus scale="   62.743">  1  9  2 -1</clus>
<clus scale="   79.971">  5  6 -1 -1</clus>
<clus scale="   89.630">  1  5  2 -1</clus>
<clus scale="   90.441">  7  8 -1 -1</clus>
<clus scale="   62.743">  1  5  2 -1</clus>
</clustering>
</event>
<event>
 9    2  0.2984928E-005  0.1097672E+03  0.7546771E-02  0.1265274E+00
          2   -1    0    0  502    0  0.00000000000E+00  0.00000000000E+00  0.70541285296E+03  0.70541285296E+03  0.00000000000E+00 0. -1.
         -1   -1    0    0    0  501 -0.00000000000E+00 -0.00000000000E+00 -0.59488450026E+02  0.59488450026E+02  0.00000000000E+00 0.  1.
         23    2    1    2    0    0 -0.15111393333E+02  0.61553787981E+02  0.40689425638E+01  0.11103452213E+03  0.91076263575E+02 0.  0.
         24    2    1    2    0    0  0.24904720764E+02 -0.35463704619E+02  0.56046132162E+03  0.56783418509E+03  0.80254901809E+02 0.  0.
        -13    1    4    4    0    0  0.22148809471E+02  0.22198032786E+02  0.14281266535E+03  0.14621484126E+03  0.00000000000E+00 0.  1.
         14    1    4    4    0    0  0.27559112922E+01 -0.57661737405E+02  0.41764865627E+03  0.42161934383E+03  0.00000000000E+00 0. -1.
        -11    1    3    3    0    0 -0.11565651909E+02  0.82356827216E+02 -0.12636673377E+02  0.84119538796E+02  0.00000000000E+00 0.  1.
         11    1    3    3    0    0 -0.35457414239E+01 -0.20803039235E+02  0.16705615941E+02  0.26914983330E+02  0.00000000000E+00 0. -1.
         21    1    1    2  502  501 -0.97933274309E+01 -0.26090083362E+02  0.81394138744E+02  0.86032595764E+02  0.00000000000E+00 0. -1.
<scales pt_clust_5="13000.00000" pt_clust_6="13000.00000" pt_clust_7="13000.00000" pt_clust_8="13000.00000" pt_clust_9="27.86757"></scales>
<clustering>
<clus scale="   27.868">  1  9  2 -1</clus>
<clus scale="   80.255">  5  6 -1 -1</clus>
<clus scale="   91.076">  7  8 -1 -1</clus>
<clus scale="  100.969">  1  5  2 -1</clus>
<clus scale="   27.868">  1  5  2 -1</clus>
</clustering>
</event>
<event>
 9    2  0.2984928E-005  0.9792313E+02  0.7546771E-02  0.1291254E+00
          4   -1    0    0  502    0  0.00000000000E+00  0.00000000000E+00  0.44834256476E+02  0.44834256476E+02  0.00000000000E+00 0. -1.
         -3   -1    0    0    0  501 -0.00000000000E+00 -0.00000000000E+00 -0.33099421284E+03  0.33099421284E+03  0.00000000000E+00 0.  1.
         23    2    1    2    0    0 -0.23712820238E+02  0.34824219144E+02 -0.17221772794E+03  0.19976039037E+03  0.92033926693E+02 0.  0.
         24    2    1    2    0    0 -0.17905366082E+02 -0.30968101392E+02 -0.97814084180E+02  0.13126785447E+03  0.79900119611E+02 0.  0.
        -13    1    4    4    0    0  0.26467651413E+02 -0.30854564610E+02 -0.31274257384E+02  0.51289569149E+02  0.00000000000E+00 0.  1.
         14    1    4    4    0    0 -0.44373017495E+02 -0.11353678265E+00 -0.66539826796E+02  0.79978285317E+02  0.00000000000E+00 0. -1.
        -13    1    3    3    0    0 -0.33673281358E+02 -0.17729307998E+02 -0.32119483242E+02  0.49798387958E+02  0.00000000000E+00 0. -1.
         13    1    3    3    0    0  0.99604611201E+01  0.52553527142E+02 -0.14009824470E+03  0.14996200242E+03  0.00000000000E+00 0.  1.
         21    1    1    2  502  501  0.41618186319E+02 -0.38561177517E+01 -0.16128144245E+02  0.44800224479E+02  0.00000000000E+00 0.  1.
<scales pt_clust_5="13000.00000" pt_clust_6="13000.00000" pt_clust_7="13000.00000" pt_clust_8="13000.00000" pt_clust_9="41.79645"></scales>
<clustering>
<clus scale="   41.796">  1  9  2 -1</clus>
<clus scale="   79.900">  5  6 -1 -1</clus>
<clus scale="   86.618">  1  5  2 -1</clus>
<clus scale="   92.034">  7  8 -1 -1</clus>
<clus scale="   41.796">  1  5  2 -1</clus>
</clustering>
</event>
<event>
 9    2  0.2984928E-005  0.1007139E+03  0.7546771E-02  0.1280405E+00
         -1   -1    0    0    0  501 -0.00000000000E+00  0.00000000000E+00  0.46774789899E+02  0.46774789899E+02  0.00000000000E+00 0.  1.
          2   -1    0    0  502    0  0.00000000000E+00 -0.00000000000E+00 -0.51655256850E+03  0.51655256850E+03  0.00000000000E+00 0. -1.
         24    2    1    2    0    0  0.42088542766E+02 -0.43809818860E+02 -0.58174383768E+02  0.11992156462E+03  0.85476178402E+02 0.  0.
         23    2    1    2    0    0 -0.19885222756E+02 -0.18939048709E+02 -0.29271177824E+03  0.30715006253E+03  0.88920560858E+02 0.  0.
        -13    1    3    3    0    0 -0.23272687147E+02 -0.21246284219E+02 -0.34761833768E+02  0.46919160767E+02  0.00000000000E+00 0.  1.
         14    1    3    3    0    0  0.65361229913E+02 -0.22563534642E+02 -0.23412550000E+02  0.73002403856E+02  0.00000000000E+00 0. -1.
        -13    1    4    4    0    0 -0.38786574137E+02 -0.44907653458E+02 -0.16125366546E+03  0.17182502814E+03  0.00000000000E+00 0.  1.
         13    1    4    4    0    0  0.18901351380E+02  0.25968604749E+02 -0.13145811278E+03  0.13532503439E+03  0.00000000000E+00 0. -1.
         21    1    1    2  502  501 -0.22203320009E+02  0.62748867569E+02 -0.11889161660E+03  0.13625573125E+03  0.00000000000E+00 0.  1.
<scales pt_clust_5="13000.00000" pt_clust_6="13000.00000" pt_clust_7="13000.00000" pt_clust_8="13000.00000" pt_clust_9="66.56131"></scales>
<clustering>
<clus scale="   66.561">  2  9  1 -1</clus>
<clus scale="   85.476">  5  6 -1 -1</clus>
<clus scale="   88.921">  7  8 -1 -1</clus>
<clus scale="   97.686">  1  5  2 -1</clus>
<clus scale="   66.561">  2  5  1 -1</clus>
</clustering>
</event>
<event>
 9    2  0.2984928E-005  0.1031541E+03  0.7546771E-02  0.1277992E+00
         -1   -1    0    0    0  501 -0.00000000000E+00  0.00000000000E+00  0.10115908689E+03  0.10115908689E+03  0.00000000000E+00 0.  1.
          2   -1    0    0  502    0  0.00000000000E+00 -0.00000000000E+00 -0.17860927818E+03  0.17860927818E+03  0.00000000000E+00 0. -1.
         23    2    1    2    0    0 -0.21073031402E+02  0.39703167599E+02  0.30886424467E+02  0.10521399399E+03  0.89975547478E+02 0.  0.
         24    2    1    2    0    0  0.16219234210E+02 -0.62338654735E+02 -0.56355927668E+02  0.11765167730E+03  0.80726421669E+02 0.  0.
        -11    1    4    4    0    0 -0.23191439555E+02 -0.41268027439E+01  0.53017809606E+01  0.24145025385E+02  0.00000000000E+00 0.  1.
         12    1    4    4    0    0  0.39410673765E+02 -0.58211851991E+02 -0.61657708628E+02  0.93506651914E+02  0.00000000000E+00 0. -1.
        -11    1    3    3    0    0  0.90640183854E+01  0.29409313735E+02  0.56505097811E+02  0.64341978850E+02  0.00000000000E+00 0.  1.
         11    1    3    3    0    0 -0.30137049788E+02  0.10293853864E+02 -0.25618673344E+02  0.40872015135E+02  0.00000000000E+00 0. -1.
         21    1    1    2  502  501  0.48537971921E+01  0.22635487136E+02 -0.51980688088E+02  0.56902693778E+02  0.00000000000E+00 0. -1.
<scales pt_clust_5="13000.00000" pt_clust_6="13000.00000" pt_clust_7="13000.00000" pt_clust_8="13000.00000" pt_clust_9="23.15005"></scales>
<clustering>
<clus scale="   23.150">  2  9  1 -1</clus>
<clus scale="   80.726">  5  6 -1 -1</clus>
<clus scale="   89.976">  7  8 -1 -1</clus>
<clus scale="   95.194">  2  5  1 -1</clus>
<clus scale="   23.150">  2  5  1 -1</clus>
</clustering>
</event>
<event>
 9    2  0.2984928E-005  0.9502877E+02  0.7546771E-02  0.1295847E+00
         -1   -1    0    0    0  501 -0.00000000000E+00  0.00000000000E+00  0.11357097393E+03  0.11357097393E+03  0.00000000000E+00 0.  1.
          2   -1    0    0  502    0  0.00000000000E+00 -0.00000000000E+00 -0.41771380355E+03  0.41771380355E+03  0.00000000000E+00 0. -1.
         23    2    1    2    0    0 -0.12721212414E+02 -0.29811766701E+02  0.80113718570E+02  0.12365425064E+03  0.88439782450E+02 0.  0.
         24    2    1    2    0    0  0.27516167546E+02  0.57971655350E+02 -0.26157948770E+03  0.28089643041E+03  0.79756654486E+02 0.  0.
        -11    1    4    4    0    0  0.46867944804E+02  0.50416781510E+02 -0.24449177424E+03  0.25399740900E+03  0.00000000000E+00 0.  1.
         12    1    4    4    0    0 -0.19351777258E+02  0.75548738407E+01 -0.17087713456E+02  0.26899021413E+02  0.00000000000E+00 0. -1.
        -11    1    3    3    0    0 -0.24621294341E+02 -0.52158183592E+02  0.79640237741E+02  0.98332353364E+02  0.00000000000E+00 0. -1.
         11    1    3    3    0    0  0.11900081927E+02  0.22346416891E+02  0.47348082959E+00  0.25321897279E+02  0.00000000000E+00 0.  1.
         21    1    1    2  502  501 -0.14794955132E+02 -0.28159888649E+02 -0.12267706050E+03  0.12673409643E+03  0.00000000000E+00 0. -1.
<scales pt_clust_5="13000.00000" pt_clust_6="13000.00000" pt_clust_7="13000.00000" pt_clust_8="13000.00000" pt_clust_9="31.80990"></scales>
<clustering>
<clus scale="   31.810">  2  9  1 -1</clus>
<clus scale="   79.757">  5  6 -1 -1</clus>
<clus scale="   87.006">  2  5  1 -1</clus>
<clus scale="   88.440">  7  8 -1 -1</clus>
<clus scale="   31.810">  2  5  1 -1</clus>
</clustering>
</event>
<event>
 9    2  0.5009927E-005  0.1103059E+03  0.7546771E-02  0.1260544E+00
          2   -1    0    0  502    0  0.00000000000E+00  0.00000000000E+00  0.15233830013E+04  0.15233830013E+04  0.00000000000E+00 0. -1.
         -1   -1    0    0    0  501 -0.00000000000E+00 -0.00000000000E+00 -0.45415202222E+02  0.45415202222E+02  0.00000000000E+00 0.  1.
         23    2    1    2    0    0 -0.55722773786E+01 -0.31560559024E+02  0.30740621714E+02  0.11102639503E+03  0.10175831863E+03 0.  0.
         24    2    1    2    0    0 -0.24799392752E+02  0.31941112711E+02  0.13746275306E+04  0.13790743379E+04  0.10300454839E+03 0.  0.
        -11    1    4    4    0    0  0.19334897446E+02  0.23943008708E+02  0.12827733752E+03  0.13191732732E+03  0.00000000000E+00 0.  1.
         12    1    4    4    0    0 -0.44134290197E+02  0.79981040034E+01  0.12463501931E+04  0.12471570106E+04  0.00000000000E+00 0. -1.
        -13    1    3    3    0    0  0.46912027105E+01  0.35150424977E+02  0.24791837244E+02  0.43268868172E+02  0.00000000000E+00 0. -1.
         13    1    3    3    0    0 -0.10263480089E+02 -0.66710984001E+02  0.59487844706E+01  0.67757526863E+02  0.00000000000E+00 0.  1.
         21    1    1    2  502  501  0.30371670130E+02 -0.38055368701E+00  0.72599646764E+02  0.78697470594E+02  0.00000000000E+00 0. -1.
<scales pt_clust_5="13000.00000" pt_clust_6="13000.00000" pt_clust_7="13000.00000" pt_clust_8="13000.00000" pt_clust_9="30.37405"></scales>
<clustering>
<clus scale="   30.374">  2  9  1 -1</clus>
<clus scale="  101.758">  7  8 -1 -1</clus>
<clus scale="  103.005">  5  6 -1 -1</clus>
<clus scale="  109.143">  2  7  1 -1</clus>
<clus scale="  110.306">  1  5  2 -1</clus>
</clustering>
</event>
<event>
 9    2  0.2984928E-005  0.1231470E+03  0.7546771E-02  0.1242162E+00
          2   -1    0    0  502    0  0.00000000000E+00  0.00000000000E+00  0.23153295804E+03  0.23153295804E+03  0.00000000000E+00 0. -1.
         -1   -1    0    0    0  501 -0.00000000000E+00 -0.00000000000E+00 -0.85009787463E+02  0.85009787463E+02  0.00000000000E+00 0.  1.
         24    2    1    2    0    0 -0.24664985836E+01 -0.80413214272E+02  0.24100328702E+02  0.11594470816E+03  0.79937355858E+02 0.  0.
         23    2    1    2    0    0 -0.23675489461E+02  0.78608176142E+02  0.72042069652E+02  0.14380997600E+03  0.93549319824E+02 0.  0.
        -11    1    3    3    0    0  0.15525295132E+02 -0.54606972078E+02 -0.21363714916E+02  0.60657765401E+02  0.00000000000E+00 0.  1.
         12    1    3    3    0    0 -0.17991793716E+02 -0.25806242194E+02  0.45464043619E+02  0.55286942757E+02  0.00000000000E+00 0. -1.
        -13    1    4    4    0    0 -0.15166555163E+02  0.53844852288E+02 -0.10760771972E+02  0.56965662701E+02  0.00000000000E+00 0.  1.
         13    1    4    4    0    0 -0.85089342984E+01  0.24763323854E+02  0.82802841625E+02  0.86844313299E+02  0.00000000000E+00 0. -1.
         21    1    1    2  502  501  0.26141988045E+02  0.18050381297E+01  0.50380772227E+02  0.56788061349E+02  0.00000000000E+00 0. -1.
<scales pt_clust_5="13000.00000" pt_clust_6="13000.00000" pt_clust_7="13000.00000" pt_clust_8="13000.00000" pt_clust_9="26.20423"></scales>
<clustering>
<clus scale="   26.204">  1  9  2 -1</clus>
<clus scale="   79.937">  5  6 -1 -1</clus>
<clus scale="   93.549">  7  8 -1 -1</clus>
<clus scale="  113.153">  2  5  1 -1</clus>
<clus scale="   26.204">  1  5  2 -1</clus>
</clustering>
</event>
<event>
 9    2  0.2984928E-005  0.9172412E+02  0.7546771E-02  0.1304086E+00
          2   -1    0    0  502    0  0.00000000000E+00  0.00000000000E+00  0.36634831507E+03  0.36634831507E+03  0.00000000000E+00 0. -1.
         -1   -1    0    0    0  501 -0.00000000000E+00 -0.00000000000E+00 -0.56827725197E+02  0.56827725197E+02  0.00000000000E+00 0.  1.
         23    2    1    2    0    0 -0.97263278386E+01 -0.63852878972E+01  0.71927524904E+00  0.91926612812E+02  0.91184491178E+02 0.  0.
         24    2    1    2    0    0 -0.13964438678E+02  0.17442610589E+02  0.17320233011E+03  0.19315307919E+03  0.82521601007E+02 0.  0.
        -13    1    4    4    0    0  0.57782439366E+01  0.37269033207E+02  0.32775703325E+02  0.49966145214E+02  0.00000000000E+00 0.  1.
         14    1    4    4    0    0 -0.19742682615E+02 -0.19826422617E+02  0.14042662679E+03  0.14318693398E+03  0.00000000000E+00 0. -1.
        -11    1    3    3    0    0 -0.45850706043E+02  0.15627673349E+02  0.77080400003E+01  0.49050232411E+02  0.00000000000E+00 0.  1.
         11    1    3    3    0    0  0.36124378205E+02 -0.22012961246E+02 -0.69887647513E+01  0.42876380401E+02  0.00000000000E+00 0. -1.
         21    1    1    2  502  501  0.23690766517E+02 -0.11057322692E+02  0.13559898451E+03  0.13809634827E+03  0.00000000000E+00 0. -1.
<scales pt_clust_5="13000.00000" pt_clust_6="13000.00000" pt_clust_7="13000.00000" pt_clust_8="13000.00000" pt_clust_9="26.14415"></scales>
<clustering>
<clus scale="   26.144">  1  9  2 -1</clus>
<clus scale="   82.522">  5  6 -1 -1</clus>
<clus scale="   83.117">  1  5  2 -1</clus>
<clus scale="   91.184">  7  8 -1 -1</clus>
<clus scale="   26.144">  1  5  2 -1</clus>
</clustering>
</event>
<event>
 9    2  0.2984928E-005  0.1244266E+03  0.7546771E-02  0.1236558E+00
         -1   -1    0    0    0  501 -0.00000000000E+00  0.00000000000E+00  0.32887183648E+02  0.32887183648E+02  0.00000000000E+00 0.  1.
          2   -1    0    0  502    0  0.00000000000E+00 -0.00000000000E+00 -0.71422104159E+03  0.71422104159E+03  0.00000000000E+00 0. -1.
         24    2    1    2    0    0 -0.67119694380E+02  0.72253680107E+02 -0.16042259417E+03  0.20492447994E+03  0.80826889690E+02 0.  0.
         23    2    1    2    0    0  0.42445520437E+02 -0.70629417270E+02 -0.33959867207E+03  0.35919273732E+03  0.83078442959E+02 0.  0.
        -11    1    3    3    0    0 -0.73105063629E+02  0.21435071687E+02 -0.90946782699E+02  0.11863865268E+03  0.00000000000E+00 0.  1.
         12    1    3    3    0    0  0.59853692496E+01  0.50818608420E+02 -0.69475811471E+02  0.86285827263E+02  0.00000000000E+00 0. -1.
        -13    1    4    4    0    0  0.36958409019E+02  0.34917461154E+01 -0.17027928282E+03  0.17427894435E+03  0.00000000000E+00 0. -1.
         13    1    4    4    0    0  0.54871114181E+01 -0.74121163385E+02 -0.16931938925E+03  0.18491379297E+03  0.00000000000E+00 0.  1.
         21    1    1    2  502  501  0.24674173942E+02 -0.16242628373E+01 -0.18131259170E+03  0.18299100797E+03  0.00000000000E+00 0. -1.
<scales pt_clust_5="13000.00000" pt_clust_6="13000.00000" pt_clust_7="13000.00000" pt_clust_8="13000.00000" pt_clust_9="24.72758"></scales>
<clustering>
<clus scale="   24.728">  2  9  1 -1</clus>
<clus scale="   80.827">  5  6 -1 -1</clus>
<clus scale="   83.078">  7  8 -1 -1</clus>
<clus scale="  122.935">  1  5  2 -1</clus>
<clus scale="   24.728">  2  5  1 -1</clus>
</clustering>
</event>
<event>
 9    2  0.2984928E-005  0.1119013E+03  0.7546771E-02  0.1260308E+00
          2   -1    0    0  502    0  0.00000000000E+00  0.00000000000E+00  0.95730022502E+02  0.95730022502E+02  0.00000000000E+00 0. -1.
         -1   -1    0    0    0  501 -0.00000000000E+00 -0.00000000000E+00 -0.64264022535E+03  0.64264022535E+03  0.00000000000E+00 0.  1.
         23    2    1    2    0    0  0.93442362138E+01 -0.68555577998E+02 -0.57525419661E+03  0.58627161340E+03  0.89497664418E+02 0.  0.
         24    2    1    2    0    0  0.21463891518E+02  0.41580904476E+02  0.49901959921E+02  0.10582207828E+03  0.80736834170E+02 0.  0.
        -11    1    4    4    0    0  0.11185434238E+02  0.39344576183E+02 -0.12318814256E+02  0.42718412877E+02  0.00000000000E+00 0.  1.
         12    1    4    4    0    0  0.10278457280E+02  0.22363282930E+01  0.62220774177E+02  0.63103665405E+02  0.00000000000E+00 0. -1.
        -13    1    3    3    0    0  0.20963082923E+02  0.16788656461E+02 -0.14929904343E+03  0.15169546533E+03  0.00000000000E+00 0. -1.
         13    1    3    3    0    0 -0.11618846710E+02 -0.85344234459E+02 -0.42595515318E+03  0.43457614807E+03  0.00000000000E+00 0.  1.
         21    1    1    2  502  501 -0.30808127732E+02  0.26974673523E+02 -0.21557966158E+02  0.46276556169E+02  0.00000000000E+00 0.  1.
<scales pt_clust_5="13000.00000" pt_clust_6="13000.00000" pt_clust_7="13000.00000" pt_clust_8="13000.00000" pt_clust_9="40.94843"></scales>
<clustering>
<clus scale="   40.948">  1  9  2 -1</clus>
<clus scale="   80.737">  5  6 -1 -1</clus>
<clus scale="   89.498">  7  8 -1 -1</clus>
<clus scale="  105.026">  1  5  2 -1</clus>
<clus scale="   40.948">  1  5  2 -1</clus>
</clustering>
</event>
<event>
 9    2  0.2984928E-005  0.1098499E+03  0.7546771E-02  0.1266883E+00
          2   -1    0    0  502    0  0.00000000000E+00  0.00000000000E+00  0.22985963388E+03  0.22985963388E+03  0.00000000000E+00 0. -1.
         -1   -1    0    0    0  501 -0.00000000000E+00 -0.00000000000E+00 -0.14365393881E+03  0.14365393881E+03  0.00000000000E+00 0.  1.
         24    2    1    2    0    0 -0.18378115756E+01 -0.78811305701E+01 -0.80358342914E+02  0.11232044090E+03  0.78057212342E+02 0.  0.
         23    2    1    2    0    0  0.25206073954E+02  0.63368175094E+02  0.16463605185E+03  0.20095522904E+03  0.92882198133E+02 0.  0.
        -11    1    3    3    0    0 -0.36366451706E+02 -0.20376611371E+02 -0.40361443830E+02  0.58023885157E+02  0.00000000000E+00 0.  1.
         12    1    3    3    0    0  0.34528640131E+02  0.12495480801E+02 -0.39996899084E+02  0.54296555747E+02  0.00000000000E+00 0. -1.
        -13    1    4    4    0    0  0.26938039897E+02 -0.25898925810E+01  0.40770848369E+01  0.27367648014E+02  0.00000000000E+00 0.  1.
         13    1    4    4    0    0 -0.17319659429E+01  0.65958067675E+02  0.16055896701E+03  0.17358758103E+03  0.00000000000E+00 0. -1.
         21    1    1    2  502  501 -0.23368262378E+02 -0.55487044524E+02  0.19279861262E+01  0.60237902744E+02  0.00000000000E+00 0.  1.
<scales pt_clust_5="13000.00000" pt_clust_6="13000.00000" pt_clust_7="13000.00000" pt_clust_8="13000.00000" pt_clust_9="60.20704"></scales>
<clustering>
<clus scale="   60.207">  2  9  1 -1</clus>
<clus scale="   78.057">  5  6 -1 -1</clus>
<clus scale="   92.882">  7  8 -1 -1</clus>
<clus scale="   97.636">  2  5  1 -1</clus>
<clus scale="  109.850">  1  5  2 -1</clus>
</clustering>
</event>
<event>
 9    2  0.2984928E-005  0.1540256E+03  0.7546771E-02  0.1198202E+00
          2   -1    0    0  502    0  0.00000000000E+00  0.00000000000E+00  0.28025609452E+03  0.28025609452E+03  0.00000000000E+00 0. -1.
         -1   -1    0    0    0  501 -0.00000000000E+00 -0.00000000000E+00 -0.42792617574E+03  0.42792617574E+03  0.00000000000E+00 0.  1.
         23    2    1    2    0    0  0.12001470233E+03 -0.37499709105E+02 -0.37393759819E+03  0.40572718189E+03  0.94738913995E+02 0.  0.
         24    2    1    2    0    0 -0.91891062534E+02  0.17950910798E+02  0.68591040417E+02  0.14110154522E+03  0.80241589372E+02 0.  0.
        -13    1    4    4    0    0 -0.33242489609E+02 -0.32009885122E+02  0.28670829440E+02  0.54329663368E+02  0.00000000000E+00 0.  1.
         14    1    4    4    0    0 -0.58648572925E+02  0.49960795920E+02  0.39920210977E+02  0.86771881849E+02  0.00000000000E+00 0. -1.
        -13    1    3    3    0    0  0.47546695915E+02 -0.43077431241E+02 -0.27833071259E+03  0.28562972350E+03  0.00000000000E+00 0.  1.
         13    1    3    3    0    0  0.72468006414E+02  0.55777221358E+01 -0.95606885605E+02  0.12009745839E+03  0.00000000000E+00 0. -1.
         21    1    1    2  502  501 -0.28123639795E+02  0.19548798307E+02  0.15767647655E+03  0.16135354316E+03  0.00000000000E+00 0. -1.
<scales pt_clust_5="13000.00000" pt_clust_6="13000.00000" pt_clust_7="13000.00000" pt_clust_8="13000.00000" pt_clust_9="34.25047"></scales>
<clustering>
<clus scale="   34.250">  1  9  2 -1</clus>
<clus scale="   80.242">  5  6 -1 -1</clus>
<clus scale="   94.739">  7  8 -1 -1</clus>
<clus scale="  145.558">  1  5  2 -1</clus>
<clus scale="   34.250">  1  5  2 -1</clus>
</clustering>
</event>
<event>
 9    2  0.2984928E-005  0.9323417E+02  0.7546771E-02  0.1301673E+00
          2   -1    0    0  502    0  0.00000000000E+00  0.00000000000E+00  0.10302950940E+03  0.10302950940E+03  0.00000000000E+00 0. -1.
         -1   -1    0    0    0  501 -0.00000000000E+00 -0.00000000000E+00 -0.15098566098E+03  0.15098566098E+03  0.00000000000E+00 0.  1.
         23    2    1    2    0    0 -0.15972592466E+02 -0.18348496328E+02 -0.78131463778E+02  0.12299276305E+03  0.91819949370E+02 0.  0.
         24    2    1    2    0    0 -0.20463923972E+02  0.46420350875E+01  0.36815607414E+02  0.91530885075E+02  0.81130717359E+02 0.  0.
        -11    1    4    4    0    0 -0.41630614111E+02  0.29134500978E+02  0.27833425480E+02  0.57936402654E+02  0.00000000000E+00 0.  1.
         12    1    4    4    0    0  0.21166690139E+02 -0.24492465890E+02  0.89821819337E+01  0.33594482421E+02  0.00000000000E+00 0. -1.
        -13    1    3    3    0    0  0.32645705529E+02 -0.18376373596E+02 -0.90878925433E+01  0.38548968688E+02  0.00000000000E+00 0. -1.
         13    1    3    3    0    0 -0.48618297995E+02  0.27877268440E-01 -0.69043571234E+02  0.84443794359E+02  0.00000000000E+00 0.  1.
         21    1    1    2  502  501  0.36436516438E+02  0.13706461240E+02 -0.66402952106E+01  0.39491522259E+02  0.00000000000E+00 0. -1.
<scales pt_clust_5="13000.00000" pt_clust_6="13000.00000" pt_clust_7="13000.00000" pt_clust_8="13000.00000" pt_clust_9="38.92925"></scales>
<clustering>
<clus scale="   38.929">  1  9  2 -1</clus>
<clus scale="   81.131">  5  6 -1 -1</clus>
<clus scale="   82.728">  1  5  2 -1</clus>
<clus scale="   91.820">  7  8 -1 -1</clus>
<clus scale="   38.929">  1  5  2 -1</clus>
</clustering>
</event>
<event>
 9    2  0.2984928E-005  0.1126447E+03  0.7546771E-02  0.1260905E+00
          2   -1    0    0  502    0  0.00000000000E+00  0.00000000000E+00  0.76606821844E+03  0.76606821844E+03  0.00000000000E+00 0. -1.
         -1   -1    0    0    0  501 -0.00000000000E+00 -0.00000000000E+00 -0.33849121123E+02  0.33849121123E+02  0.00000000000E+00 0.  1.
         24    2    1    2    0    0 -0.73948301994E+02  0.28532192322E+00  0.10301783320E+03  0.15021540561E+03  0.80520564759E+02 0.  0.
         23    2    1    2    0    0  0.22998374381E+02 -0.32085073977E+02  0.39436485491E+03  0.40730709398E+03  0.93899163068E+02 0.  0.
        -13    1    3    3    0    0 -0.77293393266E+02 -0.12644479276E+02  0.44265800614E+02  0.89964507461E+02  0.00000000000E+00 0.  1.
         14    1    3    3    0    0  0.33450912717E+01  0.12929801199E+02  0.58752032589E+02  0.60250898151E+02  0.00000000000E+00 0. -1.
        -13    1    4    4    0    0 -0.23576890566E+02 -0.46580635147E+02  0.17716458568E+03  0.18469682119E+03  0.00000000000E+00 0.  1.
         13    1    4    4    0    0  0.46575264947E+02  0.14495561170E+02  0.21720026923E+03  0.22261027279E+03  0.00000000000E+00 0. -1.
         21    1    1    2  502  501  0.50949927613E+02  0.31799752054E+02  0.23483640920E+03  0.24239483996E+03  0.00000000000E+00 0. -1.
<scales pt_clust_5="13000.00000" pt_clust_6="13000.00000" pt_clust_7="13000.00000" pt_clust_8="13000.00000" pt_clust_9="60.05930"></scales>
<clustering>
<clus scale="   60.059">  1  9  2 -1</clus>
<clus scale="   80.521">  5  6 -1 -1</clus>
<clus scale="   93.899">  7  8 -1 -1</clus>
<clus scale="  101.761">  2  5  1 -1</clus>
<clus scale="   60.059">  1  5  2 -1</clus>
</clustering>
</event>
<event>
 9    2  0.4927538E-005  0.1047306E+03  0.7546771E-02  0.1275115E+00
          4   -1    0    0  502    0  0.00000000000E+00  0.00000000000E+00  0.25595629415E+03  0.25595629415E+03  0.00000000000E+00 0. -1.
         -3   -1    0    0    0  501 -0.00000000000E+00 -0.00000000000E+00 -0.32672347839E+03  0.32672347839E+03  0.00000000000E+00 0.  1.
         24    2    1    2    0    0 -0.51460918104E+02 -0.11588515401E+02 -0.29932756628E+03  0.31437928149E+03  0.80341900097E+02 0.  0.
         23    2    1    2    0    0  0.56507893883E+02 -0.12519352961E+02  0.21462570001E+03  0.24000143374E+03  0.90479947091E+02 0.  0.
        -11    1    3    3    0    0 -0.34408177653E+02 -0.44782988921E+02 -0.21239717524E+03  0.21977715723E+03  0.00000000000E+00 0.  1.
         12    1    3    3    0    0 -0.17052740451E+02  0.33194473519E+02 -0.86930391037E+02  0.94602124262E+02  0.00000000000E+00 0. -1.
        -11    1    4    4    0    0  0.26110767286E+02  0.31267829306E+02  0.15389852213E+03  0.15919863200E+03  0.00000000000E+00 0. -1.
         11    1    4    4    0    0  0.30397126597E+02 -0.43787182267E+02  0.60727177878E+02  0.80802801741E+02  0.00000000000E+00 0.  1.
         21    1    1    2  502  501 -0.50469757795E+01  0.24107868362E+02  0.13934682036E+02  0.28299057315E+02  0.00000000000E+00 0.  1.
<scales pt_clust_5="13000.00000" pt_clust_6="13000.00000" pt_clust_7="13000.00000" pt_clust_8="13000.00000" pt_clust_9="24.63049"></scales>
<clustering>
<clus scale="   24.630">  1  9  2 -1</clus>
<clus scale="   80.342">  5  6 -1 -1</clus>
<clus scale="   90.480">  7  8 -1 -1</clus>
<clus scale="   96.108">  2  5  1 -1</clus>
<clus scale="   24.630">  1  5  2 -1</clus>
</clustering>
</event>
<event>
 9    2  0.2984928E-005  0.1335718E+03  0.7546771E-02  0.1226969E+00
         -1   -1    0    0    0  501 -0.00000000000E+00  0.00000000000E+00  0.92597631657E+02  0.92597631657E+02  0.00000000000E+00 0.  1.
          2   -1    0    0  502    0  0.00000000000E+00 -0.00000000000E+00 -0.30145955056E+03  0.30145955056E+03  0.00000000000E+00 0. -1.
         23    2    1    2    0    0  0.47743915997E+02  0.67432910531E+02  0.11941697360E+01  0.12133733298E+03  0.88851805807E+02 0.  0.
         24    2    1    2    0    0 -0.75871512632E+02 -0.43053656933E+02 -0.16479199962E+03  0.21411654342E+03  0.10525866816E+03 0.  0.
        -11    1    4    4    0    0  0.23604231697E+02 -0.13986553316E+02 -0.13102931396E+02  0.30405102184E+02  0.00000000000E+00 0.  1.
         12    1    4    4    0    0 -0.99475744329E+02 -0.29067103617E+02 -0.15168906822E+03  0.18371144124E+03  0.00000000000E+00 0. -1.
        -11    1    3    3    0    0 -0.44914925589E+01  0.62896404605E+02  0.19175398145E+02  0.65907716632E+02  0.00000000000E+00 0.  1.
         11    1    3    3    0    0  0.52235408556E+02  0.45365059259E+01 -0.17981228409E+02  0.55429616345E+02  0.00000000000E+00 0. -1.
         21    1    1    2  502  501  0.28127596635E+02 -0.24379253598E+02 -0.45264089020E+02  0.58603305822E+02  0.00000000000E+00 0. -1.
<scales pt_clust_5="13000.00000" pt_clust_6="13000.00000" pt_clust_7="13000.00000" pt_clust_8="13000.00000" pt_clust_9="37.22244"></scales>
<clustering>
<clus scale="   37.222">  2  9  1 -1</clus>
<clus scale="   88.852">  7  8 -1 -1</clus>
<clus scale="  105.259">  5  6 -1 -1</clus>
<clus scale="  121.065">  1  7  2 -1</clus>
<clus scale="   37.222">  2  5  1 -1</clus>
</clustering>
</event>
<event>
 9    2  0.2984928E-005  0.9399128E+02  0.7546771E-02  0.1295116E+00
         -1   -1    0    0    0  501 -0.00000000000E+00  0.00000000000E+00  0.17815628758E+03  0.17815628758E+03  0.00000000000E+00 0.  1.
          2   -1    0    0  502    0  0.00000000000E+00 -0.00000000000E+00 -0.43539132096E+03  0.43539132096E+03  0.00000000000E+00 0. -1.
         23    2    1    2    0    0 -0.10136172766E+02 -0.17040426177E+02  0.14905124741E+03  0.17500473713E+03  0.89539184388E+02 0.  0.
         24    2    1    2    0    0  0.10135423153E+02 -0.31169456610E+02 -0.16064296839E+03  0.18821342901E+03  0.92433055446E+02 0.  0.
        -11    1    4    4    0    0 -0.26277379826E+02 -0.34906255122E+02 -0.13896542294E+03  0.14567201553E+03  0.00000000000E+00 0.  1.
         12    1    4    4    0    0  0.36412802979E+02  0.37367985119E+01 -0.21677545452E+02  0.42541413478E+02  0.00000000000E+00 0. -1.
        -13    1    3    3    0    0  0.28380772428E+02 -0.17366518809E+01  0.12256173287E+03  0.12581678174E+03  0.00000000000E+00 0.  1.
         13    1    3    3    0    0 -0.38516945195E+02 -0.15303774296E+02  0.26489514540E+02  0.49187955390E+02  0.00000000000E+00 0. -1.
         21    1    1    2  502  501  0.74961375413E-03  0.48209882787E+02 -0.24564331241E+03  0.25032944240E+03  0.00000000000E+00 0. -1.
<scales pt_clust_5="13000.00000" pt_clust_6="13000.00000" pt_clust_7="13000.00000" pt_clust_8="13000.00000" pt_clust_9="48.20988"></scales>
<clustering>
<clus scale="   48.210">  2  9  1 -1</clus>
<clus scale="   89.539">  7  8 -1 -1</clus>
<clus scale="   91.147">  1  7  2 -1</clus>
<clus scale="   92.433">  5  6 -1 -1</clus>
<clus scale="   48.210">  2  5  1 -1</clus>
</clustering>
</event>
<event>
 9    2  0.2984928E-005  0.1419531E+03  0.7546771E-02  0.1213548E+00
         -1   -1    0    0    0  501 -0.00000000000E+00  0.00000000000E+00  0.14726948038E+03  0.14726948038E+03  0.00000000000E+00 0.  1.
          2   -1    0    0  502    0  0.00000000000E+00 -0.00000000000E+00 -0.19162254415E+03  0.19162254415E+03  0.00000000000E+00 0. -1.
         23    2    1    2    0    0  0.21527402808E+02  0.12512215463E+03  0.25580126207E+02  0.16049701065E+03  0.94794329579E+02 0.  0.
         24    2    1    2    0    0 -0.24848454219E+01 -0.78154372467E+02 -0.52465138059E+02  0.12478788384E+03  0.81884948862E+02 0.  0.
        -13    1    4    4    0    0  0.20150606314E+02 -0.82919971768E+01  0.13866765416E+02  0.25828111335E+02  0.00000000000E+00 0.  1.
         14    1    4    4    0    0 -0.22635451736E+02 -0.69862375290E+02 -0.66331903474E+02  0.98959772509E+02  0.00000000000E+00 0. -1.
        -13    1    3    3    0    0 -0.34469015769E+02  0.62621422321E+02  0.27421878938E+02  0.76560531777E+02  0.00000000000E+00 0.  1.
         13    1    3    3    0    0  0.55996418577E+02  0.62500732308E+02 -0.18417527310E+01  0.83936478873E+02  0.00000000000E+00 0. -1.
         21    1    1    2  502  501 -0.19042557386E+02 -0.46967782162E+02 -0.17468051920E+02  0.53607130038E+02  0.00000000000E+00 0. -1.
<scales pt_clust_5="13000.00000" pt_clust_6="13000.00000" pt_clust_7="13000.00000" pt_clust_8="13000.00000" pt_clust_9="50.68127"></scales>
<clustering>
<clus scale="   50.681">  2  9  1 -1</clus>
<clus scale="   81.885">  5  6 -1 -1</clus>
<clus scale="   94.794">  7  8 -1 -1</clus>
<clus scale="  133.678">  2  5  1 -1</clus>
<clus scale="   50.681">  2  5  1 -1</clus>
</clustering>
</event>
<event>
 9    2  0.2984928E-005  0.9691534E+02  0.7546771E-02  0.1293280E+00
          2   -1    0    0  502    0  0.00000000000E+00  0.00000000000E+00  0.62223969562E+03  0.62223969562E+03  0.00000000000E+00 0. -1.
         -1   -1    0    0    0  501 -0.00000000000E+00 -0.00000000000E+00 -0.19296123667E+02  0.19296123667E+02  0.00000000000E+00 0.  1.
         24    2    1    2    0    0  0.38721772647E+02 -0.78135288149E+01  0.17954920172E+03  0.20092036478E+03  0.81059547461E+02 0.  0.
         23    2    1    2    0    0 -0.10760413903E+02  0.25764224713E+01  0.30972023442E+03  0.32343578895E+03  0.92529246783E+02 0.  0.
        -11    1    3    3    0    0  0.21023941042E+02 -0.30205442838E+02  0.26796042046E+02  0.45523650374E+02  0.00000000000E+00 0.  1.
         12    1    3    3    0    0  0.17697831605E+02  0.22391914024E+02  0.15275315967E+03  0.15539671440E+03  0.00000000000E+00 0. -1.
        -11    1    4    4    0    0 -0.18536714574E+02 -0.41081710577E+02  0.11046643435E+03  0.11930695642E+03  0.00000000000E+00 0.  1.
         11    1    4    4    0    0  0.77763006706E+01  0.43658133048E+02  0.19925380006E+03  0.20412883254E+03  0.00000000000E+00 0. -1.
         21    1    1    2  502  501 -0.27961358744E+02  0.52371063436E+01  0.11367413582E+03  0.11717966556E+03  0.00000000000E+00 0. -1.
<scales pt_clust_5="13000.00000" pt_clust_6="13000.00000" pt_clust_7="13000.00000" pt_clust_8="13000.00000" pt_clust_9="28.44758"></scales>
<clustering>
<clus scale="   28.448">  1  9  2 -1</clus>
<clus scale="   81.060">  5  6 -1 -1</clus>
<clus scale="   86.032">  2  5  1 -1</clus>
<clus scale="   92.529">  7  8 -1 -1</clus>
<clus scale="   28.448">  1  5  2 -1</clus>
</clustering>
</event>
<event>
 9    2  0.2984928E-005  0.9876023E+02  0.7546771E-02  0.1288341E+00
         -1   -1    0    0    0  501 -0.00000000000E+00  0.00000000000E+00  0.31504109493E+03  0.31504109493E+03  0.00000000000E+00 0.  1.
          2   -1    0    0  502    0  0.00000000000E+00 -0.00000000000E+00 -0.15382622097E+03  0.15382622097E+03  0.00000000000E+00 0. -1.
         23    2    1    2    0    0  0.34324029223E+02  0.16740966857E+01  0.26130016840E+03  0.27916563288E+03  0.92058302149E+02 0.  0.
         24    2    1    2    0    0 -0.48588302560E+02  0.49264464310E+02 -0.55851652372E+02  0.12074646871E+03  0.81685323307E+02 0.  0.
        -11    1    4    4    0    0  0.13687508628E+02  0.30355795641E+02  0.24224090982E+01  0.33386977810E+02  0.00000000000E+00 0.  1.
         12    1    4    4    0    0 -0.62275811188E+02  0.18908668670E+02 -0.58274061470E+02  0.87359490900E+02  0.00000000000E+00 0. -1.
        -11    1    3    3    0    0 -0.79694615299E+01 -0.37391260265E+02  0.13598897850E+03  0.14126082590E+03  0.00000000000E+00 0. -1.
         11    1    3    3    0    0  0.42293490753E+02  0.39065356951E+02  0.12531118990E+03  0.13790480698E+03  0.00000000000E+00 0.  1.
         21    1    1    2  502  501  0.14264273337E+02 -0.50938560996E+02 -0.44233642066E+02  0.68955214311E+02  0.00000000000E+00 0.  1.
<scales pt_clust_5="13000.00000" pt_clust_6="13000.00000" pt_clust_7="13000.00000" pt_clust_8="13000.00000" pt_clust_9="52.89808"></scales>
<clustering>
<clus scale="   52.898">  2  9  1 -1</clus>
<clus scale="   81.685">  5  6 -1 -1</clus>
<clus scale="   89.170">  2  5  1 -1</clus>
<clus scale="   92.058">  7  8 -1 -1</clus>
<clus scale="   52.898">  2  5  1 -1</clus>
</clustering>
</event>
<event>
 9    2  0.2984928E-005  0.9562694E+02  0.7546771E-02  0.1295322E+00
         -1   -1    0    0    0  501 -0.00000000000E+00  0.00000000000E+00  0.43009323553E+02  0.43009323553E+02  0.00000000000E+00 0.  1.
          2   -1    0    0  502    0  0.00000000000E+00 -0.00000000000E+00 -0.26493055394E+03  0.26493055394E+03  0.00000000000E+00 0. -1.
         23    2    1    2    0    0 -0.31913966885E+02  0.32339428716E+01 -0.60674344940E+02  0.11355112511E+03  0.90462822263E+02 0.  0.
         24    2    1    2    0    0  0.28580888432E+02  0.17488804167E+02 -0.13636879720E+03  0.16183939091E+03  0.80453801324E+02 0.  0.
        -13    1    4    4    0    0  0.40704298978E+02 -0.98535601861E+01 -0.30452831419E+02  0.51781343600E+02  0.00000000000E+00 0.  1.
         14    1    4    4    0    0 -0.12123410545E+02  0.27342364353E+02 -0.10591596578E+03  0.11005804731E+03  0.00000000000E+00 0. -1.
        -11    1    3    3    0    0 -0.50418780957E+02  0.22505137062E+02 -0.66267326432E+02  0.86254815632E+02  0.00000000000E+00 0. -1.
         11    1    3    3    0    0  0.18504814072E+02 -0.19271194190E+02  0.55929814913E+01  0.27296309481E+02  0.00000000000E+00 0.  1.
         21    1    1    2  502  501  0.33330784528E+01 -0.20722747039E+02 -0.24878088246E+02  0.32549361462E+02  0.00000000000E+00 0.  1.
<scales pt_clust_5="13000.00000" pt_clust_6="13000.00000" pt_clust_7="13000.00000" pt_clust_8="13000.00000" pt_clust_9="20.98908"></scales>
<clustering>
<clus scale="   20.989">  2  9  1 -1</clus>
<clus scale="   80.454">  5  6 -1 -1</clus>
<clus scale="   86.220">  2  5  1 -1</clus>
<clus scale="   90.463">  7  8 -1 -1</clus>
<clus scale="   20.989">  2  5  1 -1</clus>
</clustering>
</event>
<event>
 9    2  0.2984928E-005  0.1253045E+03  0.7546771E-02  0.1237588E+00
         -1   -1    0    0    0  501 -0.00000000000E+00  0.00000000000E+00  0.32388306525E+02  0.32388306525E+02  0.00000000000E+00 0.  1.
          2   -1    0    0  502    0  0.00000000000E+00 -0.00000000000E+00 -0.92212598359E+03  0.92212598359E+03  0.00000000000E+00 0. -1.
         23    2    1    2    0    0 -0.55417241981E+02  0.15677747785E+02 -0.10024464288E+03  0.14722990822E+03  0.91163561603E+02 0.  0.
         24    2    1    2    0    0  0.84917888436E+02 -0.36687015276E+02 -0.70111832815E+03  0.71177644438E+03  0.80633813255E+02 0.  0.
        -11    1    4    4    0    0  0.84684701263E+02 -0.17227461563E+02 -0.36483491136E+03  0.37493038901E+03  0.00000000000E+00 0.  1.
         12    1    4    4    0    0  0.23318717294E+00 -0.19459553713E+02 -0.33628341679E+03  0.33684605536E+03  0.00000000000E+00 0. -1.
        -13    1    3    3    0    0 -0.29457810219E+02  0.32246884244E+02 -0.13999951834E+01  0.43698788460E+02  0.00000000000E+00 0.  1.
         13    1    3    3    0    0 -0.25959431762E+02 -0.16569136459E+02 -0.98844647701E+02  0.10353111976E+03  0.00000000000E+00 0. -1.
         21    1    1    2  502  501 -0.29500646455E+02  0.21009267491E+02 -0.88374706036E+02  0.95507937517E+02  0.00000000000E+00 0. -1.
<scales pt_clust_5="13000.00000" pt_clust_6="13000.00000" pt_clust_7="13000.00000" pt_clust_8="13000.00000" pt_clust_9="36.21709"></scales>
<clustering>
<clus scale="   36.217">  1  9  2 -1</clus>
<clus scale="   80.634">  5  6 -1 -1</clus>
<clus scale="   91.164">  7  8 -1 -1</clus>
<clus scale="  117.865">  2  5  1 -1</clus>
<clus scale="  117.865">  2  5  1 -1</clus>
</clustering>
</event>
<event>
 9    2  0.2984928E-005  0.1166833E+03  0.7546771E-02  0.1253431E+00
          2   -1    0    0  502    0  0.00000000000E+00  0.00000000000E+00  0.11370547850E+04  0.11370547850E+04  0.00000000000E+00 0. -1.
         -1   -1    0    0    0  501 -0.00000000000E+00 -0.00000000000E+00 -0.15797076023E+02  0.15797076023E+02  0.00000000000E+00 0.  1.
         23    2    1    2    0    0  0.40344875013E+02 -0.60126373987E+02  0.35504272998E+03  0.37434485357E+03  0.93999146247E+02 0.  0.
         24    2    1    2    0    0 -0.90660623711E+01  0.67733507380E+02  0.58441485380E+03  0.59387895401E+03  0.80507572046E+02 0.  0.
        -13    1    4    4    0    0 -0.41739978575E+01  0.54583208867E+02  0.15765892168E+03  0.16689243402E+03  0.00000000000E+00 0.  1.
         14    1    4    4    0    0 -0.48920645137E+01  0.13150298513E+02  0.42675593212E+03  0.42698651998E+03  0.00000000000E+00 0. -1.
        -11    1    3    3    0    0 -0.19364242780E+02  0.96402960834E+01  0.12125029723E+03  0.12316470186E+03  0.00000000000E+00 0. -1.
         11    1    3    3    0    0  0.59709117793E+02 -0.69766670070E+02  0.23379243275E+03  0.25118015170E+03  0.00000000000E+00 0.  1.
         21    1    1    2  502  501 -0.31278812642E+02 -0.76071333932E+01  0.18180012520E+03  0.18462805345E+03  0.00000000000E+00 0. -1.
<scales pt_clust_5="13000.00000" pt_clust_6="13000.00000" pt_clust_7="13000.00000" pt_clust_8="13000.00000" pt_clust_9="32.19057"></scales>
<clustering>
<clus scale="   32.191">  1  9  2 -1</clus>
<clus scale="   80.508">  5  6 -1 -1</clus>
<clus scale="   93.999">  7  8 -1 -1</clus>
<clus scale="  106.116">  1  5  2 -1</clus>
<clus scale="   32.191">  1  5  2 -1</clus>
</clustering>
</event>
<event>
 9    2  0.2984928E-005  0.1101578E+03  0.7546771E-02  0.1264930E+00
         -1   -1    0    0    0  501 -0.00000000000E+00  0.00000000000E+00  0.29973330808E+02  0.29973330808E+02  0.00000000000E+00 0.  1.
          2   -1    0    0  502    0  0.00000000000E+00 -0.00000000000E+00 -0.89759627083E+03  0.89759627083E+03  0.00000000000E+00 0. -1.
         23    2    1    2    0    0  0.74052919699E+02  0.57639228281E+02 -0.19945808126E+03  0.23822913544E+03  0.90351974179E+02 0.  0.
         24    2    1    2    0    0 -0.27880709492E+02 -0.18504457569E+02 -0.20170379142E+03  0.21896898469E+03  0.78378873886E+02 0.  0.
        -13    1    4    4    0    0  0.20090391164E+02 -0.28347071317E+02 -0.64095905583E+02  0.72907238199E+02  0.00000000000E+00 0.  1.
         14    1    4    4    0    0 -0.47971100656E+02  0.98426137479E+01 -0.13760788583E+03  0.14606174649E+03  0.00000000000E+00 0. -1.
        -11    1    3    3    0    0  0.52013202209E+02  0.73822557878E+02 -0.98490157191E+02  0.13362430288E+03  0.00000000000E+00 0.  1.
         11    1    3    3    0    0  0.22039717490E+02 -0.16183329598E+02 -0.10096792407E+03  0.10460483256E+03  0.00000000000E+00 0. -1.
         21    1    1    2  502  501 -0.46172210207E+02 -0.39134770712E+02 -0.46646106734E+03  0.47037148151E+03  0.00000000000E+00 0.  1.
<scales pt_clust_5="13000.00000" pt_clust_6="13000.00000" pt_clust_7="13000.00000" pt_clust_8="13000.00000" pt_clust_9="60.52605"></scales>
<clustering>
<clus scale="   60.526">  2  9  1 -1</clus>
<clus scale="   78.379">  5  6 -1 -1</clus>
<clus scale="   90.352">  7  8 -1 -1</clus>
<clus scale="  100.571">  2  5  1 -1</clus>
<clus scale="   60.526">  2  5  1 -1</clus>
</clustering>
</event>
<event>
 9    2  0.2984928E-005  0.9509174E+02  0.7546771E-02  0.1295603E+00
         -3   -1    0    0    0  501 -0.00000000000E+00  0.00000000000E+00  0.40395365976E+03  0.40395365976E+03  0.00000000000E+00 0.  1.
          4   -1    0    0  502    0  0.00000000000E+00 -0.00000000000E+00 -0.33238032682E+02  0.33238032682E+02  0.00000000000E+00 0. -1.
         23    2    1    2    0    0 -0.19376495745E+02 -0.41644796022E+01  0.23203020937E+03  0.24920405816E+03  0.88723464010E+02 0.  0.
         24    2    1    2    0    0  0.20644256721E+02  0.37691091089E+02  0.84157360497E+02  0.12396459219E+03  0.80236868755E+02 0.  0.
        -11    1    4    4    0    0  0.25829331245E+02  0.16985409979E+01  0.83685532995E+02  0.87597419064E+02  0.00000000000E+00 0.  1.
         12    1    4    4    0    0 -0.51850745239E+01  0.35992550091E+02  0.47182750201E+00  0.36367173124E+02  0.00000000000E+00 0. -1.
        -11    1    3    3    0    0 -0.28693095547E+02  0.26293678651E+02  0.45060466265E+02  0.59540716229E+02  0.00000000000E+00 0. -1.
         11    1    3    3    0    0  0.93165998016E+01 -0.30458158253E+02  0.18696974310E+03  0.18966334193E+03  0.00000000000E+00 0.  1.
         21    1    1    2  502  501 -0.12677609758E+01 -0.33526611486E+02  0.54528057216E+02  0.64023042097E+02  0.00000000000E+00 0.  1.
<scales pt_clust_5="13000.00000" pt_clust_6="13000.00000" pt_clust_7="13000.00000" pt_clust_8="13000.00000" pt_clust_9="33.55057"></scales>
<clustering>
<clus scale="   33.551">  1  9  2 -1</clus>
<clus scale="   80.237">  5  6 -1 -1</clus>
<clus scale="   87.227">  2  5  1 -1</clus>
<clus scale="   88.723">  7  8 -1 -1</clus>
<clus scale="   87.227">  2  5  1 -1</clus>
</clustering>
</event>
<event>
 9    2  0.2984928E-005  0.9308154E+02  0.7546771E-02  0.1305968E+00
         -1   -1    0    0    0  501 -0.00000000000E+00  0.00000000000E+00  0.25514078488E+03  0.25514078488E+03  0.00000000000E+00 0.  1.
          2   -1    0    0  502    0  0.00000000000E+00 -0.00000000000E+00 -0.21618478668E+03  0.21618478668E+03  0.00000000000E+00 0. -1.
         23    2    1    2    0    0  0.17465984675E+02 -0.35067017769E+01  0.19981874052E+03  0.22064955542E+03  0.91876763464E+02 0.  0.
         24    2    1    2    0    0  0.36335260651E+02  0.58371540330E+02 -0.40174645374E+02  0.10760141583E+03  0.72364180848E+02 0.  0.
        -11    1    4    4    0    0  0.32028217848E+02  0.17612632472E+02  0.14455199264E+02  0.39306034484E+02  0.00000000000E+00 0.  1.
         12    1    4    4    0    0  0.43070428026E+01  0.40758907858E+02 -0.54629844638E+02  0.68295381342E+02  0.00000000000E+00 0. -1.
        -13    1    3    3    0    0 -0.60884836109E+01  0.39948835948E+02  0.12143683309E+03  0.12798391913E+03  0.00000000000E+00 0.  1.
         13    1    3    3    0    0  0.23554468286E+02 -0.43455537725E+02  0.78381907436E+02  0.92665636287E+02  0.00000000000E+00 0. -1.
         21    1    1    2  502  501 -0.53801245325E+02 -0.54864838553E+02 -0.12068809695E+03  0.14307460031E+03  0.00000000000E+00 0. -1.
<scales pt_clust_5="13000.00000" pt_clust_6="13000.00000" pt_clust_7="13000.00000" pt_clust_8="13000.00000" pt_clust_9="76.84221"></scales>
<clustering>
<clus scale="   72.364">  5  6 -1 -1</clus>
<clus scale="   76.842">  2  9  1 -1</clus>
<clus scale="   76.842">  2  5  1 -1</clus>
<clus scale="   91.877">  7  8 -1 -1</clus>
<clus scale="   76.842">  2  5  1 -1</clus>
</clustering>
</event>
<event>
 9    2  0.2984928E-005  0.1550617E+03  0.7546771E-02  0.1196145E+00
          2   -1    0    0  502    0  0.00000000000E+00  0.00000000000E+00  0.52004044552E+03  0.52004044552E+03  0.00000000000E+00 0. -1.
         -1   -1    0    0    0  501 -0.00000000000E+00 -0.00000000000E+00 -0.65700112076E+02  0.65700112076E+02  0.00000000000E+00 0.  1.
         23    2    1    2    0    0 -0.11794615850E+03  0.62996953622E+02  0.98635183988E+02  0.18800921723E+03  0.87969618470E+02 0.  0.
         24    2    1    2    0    0  0.11359959496E+03 -0.27520099086E+02  0.30573537258E+03  0.33629455640E+03  0.77186053070E+02 0.  0.
        -13    1    4    4    0    0  0.85014519661E+02  0.15608598168E+02  0.16351988860E+03  0.18495905184E+03  0.00000000000E+00 0.  1.
         14    1    4    4    0    0  0.28585075304E+02 -0.43128697254E+02  0.14221548399E+03  0.15133550457E+03  0.00000000000E+00 0. -1.
        -13    1    3    3    0    0 -0.25891521712E+02 -0.58560918799E+01  0.61859021030E+02  0.67314212403E+02  0.00000000000E+00 0. -1.
         13    1    3    3    0    0 -0.92054636790E+02  0.68853045502E+02  0.36776162959E+02  0.12069500483E+03  0.00000000000E+00 0.  1.
         21    1    1    2  502  501  0.43465635377E+01 -0.35476854536E+02  0.49969776871E+02  0.61436783956E+02  0.00000000000E+00 0. -1.
<scales pt_clust_5="13000.00000" pt_clust_6="13000.00000" pt_clust_7="13000.00000" pt_clust_8="13000.00000" pt_clust_9="35.74213"></scales>
<clustering>
<clus scale="   35.742">  1  9  2 -1</clus>
<clus scale="   77.186">  5  6 -1 -1</clus>
<clus scale="   87.970">  7  8 -1 -1</clus>
<clus scale="  149.208">  1  5  2 -1</clus>
<clus scale="   35.742">  1  5  2 -1</clus>
</clustering>
</event>
<event>
 9    2  0.2984928E-005  0.1351594E+03  0.7546771E-02  0.1221811E+00
         -1   -1    0    0    0  501 -0.00000000000E+00  0.00000000000E+00  0.48752439215E+02  0.48752439215E+02  0.00000000000E+00 0.  1.
          2   -1    0    0  502    0  0.00000000000E+00 -0.00000000000E+00 -0.54718982831E+03  0.54718982831E+03  0.00000000000E+00 0. -1.
         23    2    1    2    0    0  0.65086159215E+02 -0.84336992291E+02 -0.12321520948E+03  0.18586263720E+03  0.89520923092E+02 0.  0.
         24    2    1    2    0    0 -0.68892698267E+02  0.64182931421E+02 -0.21480936740E+03  0.24836090465E+03  0.81697136281E+02 0.  0.
        -13    1    4    4    0    0 -0.48476448529E+02  0.13436201632E+02 -0.17110314772E+03  0.17834456744E+03  0.00000000000E+00 0.  1.
         14    1    4    4    0    0 -0.20416249738E+02  0.50746729789E+02 -0.43706219681E+02  0.70016337211E+02  0.00000000000E+00 0. -1.
        -13    1    3    3    0    0 -0.78776822923E+01 -0.48245082787E+02 -0.16392883248E+02  0.51559407605E+02  0.00000000000E+00 0.  1.
         13    1    3    3    0    0  0.72963841507E+02 -0.36091909504E+02 -0.10682232623E+03  0.13430322960E+03  0.00000000000E+00 0. -1.
         21    1    1    2  502  501  0.38065390522E+01  0.20154060870E+02 -0.16041281222E+03  0.16171872567E+03  0.00000000000E+00 0. -1.
<scales pt_clust_5="13000.00000" pt_clust_6="13000.00000" pt_clust_7="13000.00000" pt_clust_8="13000.00000" pt_clust_9="20.51039"></scales>
<clustering>
<clus scale="   20.510">  2  9  1 -1</clus>
<clus scale="   81.697">  5  6 -1 -1</clus>
<clus scale="   89.521">  7  8 -1 -1</clus>
<clus scale="  130.110">  2  5  1 -1</clus>
<clus scale="   20.510">  2  5  1 -1</clus>
</clustering>
</event>
<event>
 9    2  0.2984928E-005  0.1677914E+03  0.7546771E-02  0.1182412E+00
         -1   -1    0    0    0  501 -0.00000000000E+00  0.00000000000E+00  0.11467949492E+03  0.11467949492E+03  0.00000000000E+00 0.  1.
          2   -1    0    0  502    0  0.00000000000E+00 -0.00000000000E+00 -0.31687713289E+03  0.31687713289E+03  0.00000000000E+00 0. -1.
         23    2    1    2    0    0  0.59731497552E+02  0.13275393520E+03 -0.16527198843E+02  0.17555947864E+03  0.96729122444E+02 0.  0.
         24    2    1    2    0    0 -0.39685768031E+02 -0.11581143355E+03 -0.13879818520E+03  0.20227668917E+03  0.81631332475E+02 0.  0.
        -11    1    4    4    0    0 -0.13754312599E+02 -0.35247174377E+02  0.21211017352E+01  0.37895164457E+02  0.00000000000E+00 0.  1.
         12    1    4    4    0    0 -0.25931455432E+02 -0.80564259171E+02 -0.14091928693E+03  0.16438152471E+03  0.00000000000E+00 0. -1.
        -13    1    3    3    0    0  0.17674030165E+02  0.10961100873E+03 -0.44939629663E+02  0.11977693806E+03  0.00000000000E+00 0. -1.
         13    1    3    3    0    0  0.42057467387E+02  0.23142926469E+02  0.28412430820E+02  0.55782540581E+02  0.00000000000E+00 0.  1.
         21    1    1    2  502  501 -0.20045729520E+02 -0.16942501650E+02 -0.46872253934E+02  0.53720460004E+02  0.00000000000E+00 0. -1.
<scales pt_clust_5="13000.00000" pt_clust_6="13000.00000" pt_clust_7="13000.00000" pt_clust_8="13000.00000" pt_clust_9="26.24652"></scales>
<clustering>
<clus scale="   26.247">  2  9  1 -1</clus>
<clus scale="   81.631">  5  6 -1 -1</clus>
<clus scale="   96.729">  7  8 -1 -1</clus>
<clus scale="  159.565">  2  5  1 -1</clus>
<clus scale="   26.247">  2  5  1 -1</clus>
</clustering>
</event>
<event>
 9    2  0.2984928E-005  0.1248047E+03  0.7546771E-02  0.1238208E+00
          2   -1    0    0  502    0  0.00000000000E+00  0.00000000000E+00  0.17369081490E+03  0.17369081490E+03  0.00000000000E+00 0. -1.
         -1   -1    0    0    0  501 -0.00000000000E+00 -0.00000000000E+00 -0.58930847263E+03  0.58930847263E+03  0.00000000000E+00 0.  1.
         24    2    1    2    0    0  0.40148352658E+02  0.78544489871E+02 -0.53908531622E+03  0.55208138279E+03  0.79998424697E+02 0.  0.
         23    2    1    2    0    0 -0.47076438263E+02 -0.49413889860E+02  0.36135881972E+02  0.11859548375E+03  0.90006462259E+02 0.  0.
        -13    1    3    3    0    0 -0.23703638775E+02  0.27580629172E+02 -0.20114911681E+03  0.20441017781E+03  0.00000000000E+00 0.  1.
         14    1    3    3    0    0  0.63851991433E+02  0.50963860699E+02 -0.33793619940E+03  0.34767120498E+03  0.00000000000E+00 0. -1.
        -13    1    4    4    0    0 -0.42830357048E+02 -0.85688570784E+01 -0.20813468129E+02  0.48384555925E+02  0.00000000000E+00 0. -1.
         13    1    4    4    0    0 -0.42460812154E+01 -0.40845032782E+02  0.56949350101E+02  0.70210927821E+02  0.00000000000E+00 0.  1.
         21    1    1    2  502  501  0.69280856050E+01 -0.29130600011E+02  0.87331776517E+02  0.92322420986E+02  0.00000000000E+00 0. -1.
<scales pt_clust_5="13000.00000" pt_clust_6="13000.00000" pt_clust_7="13000.00000" pt_clust_8="13000.00000" pt_clust_9="29.94312"></scales>
<clustering>
<clus scale="   29.943">  1  9  2 -1</clus>
<clus scale="   79.998">  5  6 -1 -1</clus>
<clus scale="   90.006">  7  8 -1 -1</clus>
<clus scale="  117.791">  2  5  1 -1</clus>
<clus scale="   29.943">  1  5  2 -1</clus>
</clustering>
</event>
<event>
 9    2  0.2984928E-005  0.1025138E+03  0.7546771E-02  0.1282552E+00
         -1   -1    0    0    0  501 -0.00000000000E+00  0.00000000000E+00  0.48327378033E+03  0.48327378033E+03  0.00000000000E+00 0.  1.
          2   -1    0    0  502    0  0.00000000000E+00 -0.00000000000E+00 -0.47454960576E+02  0.47454960576E+02  0.00000000000E+00 0. -1.
         23    2    1    2    0    0  0.47114599338E+02  0.59559308996E+01  0.37773221865E+03  0.39148632089E+03  0.91239530098E+02 0.  0.
         24    2    1    2    0    0 -0.45204895442E+02  0.27328141361E+02  0.49947910888E+02  0.10492457169E+03  0.75657531420E+02 0.  0.
        -13    1    4    4    0    0 -0.48374239676E+02 -0.60990102724E+01  0.52002361162E+02  0.71284714750E+02  0.00000000000E+00 0.  1.
         14    1    4    4    0    0  0.31693442344E+01  0.33427151633E+02 -0.20544502741E+01  0.33639856942E+02  0.00000000000E+00 0. -1.
        -13    1    3    3    0    0 -0.26159953856E+02  0.48070733639E+01  0.63963907449E+02  0.69273606779E+02  0.00000000000E+00 0. -1.
         13    1    3    3    0    0  0.73274553193E+02  0.11488575358E+01  0.31376831121E+03  0.32221271411E+03  0.00000000000E+00 0.  1.
         21    1    1    2  502  501 -0.19097038962E+01 -0.33284072260E+02  0.81386902150E+01  0.34317848324E+02  0.00000000000E+00 0.  1.
<scales pt_clust_5="13000.00000" pt_clust_6="13000.00000" pt_clust_7="13000.00000" pt_clust_8="13000.00000" pt_clust_9="33.33881"></scales>
<clustering>
<clus scale="   33.339">  2  9  1 -1</clus>
<clus scale="   75.658">  5  6 -1 -1</clus>
<clus scale="   88.930">  2  5  1 -1</clus>
<clus scale="   91.240">  7  8 -1 -1</clus>
<clus scale="   33.339">  2  5  1 -1</clus>
</clustering>
</event>
<event>
 9    2  0.2984928E-005  0.9802486E+02  0.7546771E-02  0.1290408E+00
         -1   -1    0    0    0  501 -0.00000000000E+00  0.00000000000E+00  0.10501968932E+02  0.10501968932E+02  0.00000000000E+00 0.  1.
          2   -1    0    0  502    0  0.00000000000E+00 -0.00000000000E+00 -0.15450644512E+04  0.15450644512E+04  0.00000000000E+00 0. -1.
         23    2    1    2    0    0 -0.35526419882E+02 -0.28712824130E+02 -0.32437221303E+03  0.33981026385E+03  0.90372175195E+02 0.  0.
         24    2    1    2    0    0  0.36042233769E+02  0.85837145080E+01 -0.11173347526E+04  0.11207425042E+04  0.79082795353E+02 0.  0.
        -13    1    4    4    0    0  0.25050451108E+02  0.77510943391E+01 -0.10101570706E+03  0.10436367968E+03  0.00000000000E+00 0.  1.
         14    1    4    4    0    0  0.10991782661E+02  0.83262016884E+00 -0.10163190455E+04  0.10163788245E+04  0.00000000000E+00 0. -1.
        -11    1    3    3    0    0  0.28400778873E+01 -0.54794134800E+02 -0.17640188336E+03  0.18473788919E+03  0.00000000000E+00 0.  1.
         11    1    3    3    0    0 -0.38366497769E+02  0.26081310670E+02 -0.14797032968E+03  0.15507237466E+03  0.00000000000E+00 0. -1.
         21    1    1    2  502  501 -0.51581388750E+00  0.20129109622E+02 -0.92855516643E+02  0.95013652120E+02  0.00000000000E+00 0.  1.
<scales pt_clust_5="13000.00000" pt_clust_6="13000.00000" pt_clust_7="13000.00000" pt_clust_8="13000.00000" pt_clust_9="20.13572"></scales>
<clustering>
<clus scale="   20.136">  1  9  2 -1</clus>
<clus scale="   79.083">  5  6 -1 -1</clus>
<clus scale="   87.726">  2  5  1 -1</clus>
<clus scale="   90.372">  7  8 -1 -1</clus>
<clus scale="   87.726">  2  5  1 -1</clus>
</clustering>
</event>
<event>
 9    2  0.2984928E-005  0.2207753E+03  0.7546771E-02  0.1133874E+00
          2   -1    0    0  502    0  0.00000000000E+00  0.00000000000E+00  0.10751530933E+03  0.10751530933E+03  0.00000000000E+00 0. -1.
         -1   -1    0    0    0  501 -0.00000000000E+00 -0.00000000000E+00 -0.54882444799E+03  0.54882444799E+03  0.00000000000E+00 0.  1.
         24    2    1    2    0    0 -0.18543820293E+03  0.30342231275E+02 -0.22621538489E+03  0.30564563526E+03  0.83293912645E+02 0.  0.
         23    2    1    2    0    0  0.21348110986E+03 -0.52810539151E+02 -0.20295399197E+03  0.31276519769E+03  0.90931890543E+02 0.  0.
        -13    1    3    3    0    0 -0.11071346421E+03  0.47590468176E+01 -0.71340747381E+02  0.13179386147E+03  0.00000000000E+00 0.  1.
         14    1    3    3    0    0 -0.74724738718E+02  0.25583184457E+02 -0.15487463751E+03  0.17385177379E+03  0.00000000000E+00 0. -1.
        -11    1    4    4    0    0  0.12060500128E+03 -0.48706724881E+02 -0.17017230901E+03  0.21418806255E+03  0.00000000000E+00 0.  1.
         11    1    4    4    0    0  0.92876108575E+02 -0.41038142697E+01 -0.32781682960E+02  0.98577135145E+02  0.00000000000E+00 0. -1.
         21    1    1    2  502  501 -0.28042906929E+02  0.22468307876E+02 -0.12139761799E+02  0.37928924377E+02  0.00000000000E+00 0.  1.
<scales pt_clust_5="13000.00000" pt_clust_6="13000.00000" pt_clust_7="13000.00000" pt_clust_8="13000.00000" pt_clust_9="35.93368"></scales>
<clustering>
<clus scale="   35.934">  1  9  2 -1</clus>
<clus scale="   83.294">  5  6 -1 -1</clus>
<clus scale="   90.932">  7  8 -1 -1</clus>
<clus scale="  217.741">  2  5  1 -1</clus>
<clus scale="   35.934">  1  5  2 -1</clus>
</clustering>
</event>
<event>
 9    2  0.2984928E-005  0.9376463E+02  0.7546771E-02  0.1298351E+00
         -1   -1    0    0    0  501 -0.00000000000E+00  0.00000000000E+00  0.44682103725E+02  0.44682103725E+02  0.00000000000E+00 0.  1.
          2   -1    0    0  502    0  0.00000000000E+00 -0.00000000000E+00 -0.46919480897E+03  0.46919480897E+03  0.00000000000E+00 0. -1.
         24    2    1    2    0    0 -0.93421605725E+01 -0.30126930320E+02 -0.26177280042E+02  0.92147488255E+02  0.82528793198E+02 0.  0.
         23    2    1    2    0    0  0.25629076521E+02  0.80059464133E+01 -0.37188327682E+03  0.38359390669E+03  0.90145265706E+02 0.  0.
        -13    1    3    3    0    0 -0.29329430227E+02 -0.51381502362E+02 -0.16822363568E+02  0.61508261059E+02  0.00000000000E+00 0.  1.
         14    1    3    3    0    0  0.19987269655E+02  0.21254572042E+02 -0.93549164738E+01  0.30639227196E+02  0.00000000000E+00 0. -1.
        -13    1    4    4    0    0  0.53878072650E+02  0.25252926371E+02 -0.26962507955E+03  0.27611273155E+03  0.00000000000E+00 0. -1.
         13    1    4    4    0    0 -0.28248996128E+02 -0.17246979957E+02 -0.10225819727E+03  0.10748117513E+03  0.00000000000E+00 0.  1.
         21    1    1    2  502  501 -0.16286915949E+02  0.22120983906E+02 -0.26452148383E+02  0.38135517752E+02  0.00000000000E+00 0. -1.
<scales pt_clust_5="13000.00000" pt_clust_6="13000.00000" pt_clust_7="13000.00000" pt_clust_8="13000.00000" pt_clust_9="27.47001"></scales>
<clustering>
<clus scale="   27.470">  1  9  2 -1</clus>
<clus scale="   82.529">  5  6 -1 -1</clus>
<clus scale="   86.468">  1  5  2 -1</clus>
<clus scale="   90.145">  7  8 -1 -1</clus>
<clus scale="   93.765">  2  5  1 -1</clus>
</clustering>
</event>
<event>
 9    2  0.2984928E-005  0.2106493E+03  0.7546771E-02  0.1142550E+00
          2   -1    0    0  502    0  0.00000000000E+00  0.00000000000E+00  0.42804181279E+03  0.42804181279E+03  0.00000000000E+00 0. -1.
         -1   -1    0    0    0  501 -0.00000000000E+00 -0.00000000000E+00 -0.17421588303E+03  0.17421588303E+03  0.00000000000E+00 0.  1.
         23    2    1    2    0    0  0.66125552723E+02  0.17895166404E+03 -0.60141601310E+02  0.22242434477E+03  0.97258882127E+02 0.  0.
         24    2    1    2    0    0 -0.67746808043E+02 -0.15733055944E+03  0.29810851255E+03  0.35297056821E+03  0.79856132101E+02 0.  0.
        -13    1    4    4    0    0  0.44346702244E+01 -0.31866551903E+02  0.16083383920E+02  0.35969690970E+02  0.00000000000E+00 0.  1.
         14    1    4    4    0    0 -0.72181478268E+02 -0.12546400753E+03  0.28202512863E+03  0.31700087724E+03  0.00000000000E+00 0. -1.
        -13    1    3    3    0    0  0.41704177605E+02  0.10264950678E+03 -0.83765771230E+02  0.13889875486E+03  0.00000000000E+00 0.  1.
         13    1    3    3    0    0  0.24421375117E+02  0.76302157267E+02  0.23624169921E+02  0.83525589915E+02  0.00000000000E+00 0. -1.
         21    1    1    2  502  501  0.16212553207E+01 -0.21621104609E+02  0.15859018521E+02  0.26862782837E+02  0.00000000000E+00 0.  1.
<scales pt_clust_5="13000.00000" pt_clust_6="13000.00000" pt_clust_7="13000.00000" pt_clust_8="13000.00000" pt_clust_9="21.68180"></scales>
<clustering>
<clus scale="   21.682">  1  9  2 -1</clus>
<clus scale="   79.856">  5  6 -1 -1</clus>
<clus scale="   97.259">  7  8 -1 -1</clus>
<clus scale="  203.201">  1  5  2 -1</clus>
<clus scale="   21.682">  1  5  2 -1</clus>
</clustering>
</event>
<event>
 9    2  0.2984928E-005  0.1003602E+03  0.7546771E-02  0.1289822E+00
         -1   -1    0    0    0  501 -0.00000000000E+00  0.00000000000E+00  0.97910960652E+02  0.97910960652E+02  0.00000000000E+00 0.  1.
          2   -1    0    0  502    0  0.00000000000E+00 -0.00000000000E+00 -0.28208820625E+03  0.28208820625E+03  0.00000000000E+00 0. -1.
         23    2    1    2    0    0 -0.12505918442E+02  0.14476673172E+02  0.37994401373E+02  0.10716203432E+03  0.98357282406E+02 0.  0.
         24    2    1    2    0    0  0.29552203746E+02  0.34144078958E+01 -0.50373594312E+02  0.99270898761E+02  0.80201130973E+02 0.  0.
        -13    1    4    4    0    0  0.46314449366E+01  0.40552008425E+02 -0.23799830281E+02  0.47247725775E+02  0.00000000000E+00 0.  1.
         14    1    4    4    0    0  0.24920758810E+02 -0.37137600530E+02 -0.26573764031E+02  0.52023172986E+02  0.00000000000E+00 0. -1.
        -11    1    3    3    0    0  0.37277288100E+02 -0.14669804467E+02  0.27335604429E+02  0.48497779750E+02  0.00000000000E+00 0.  1.
         11    1    3    3    0    0 -0.49783206542E+02  0.29146477639E+02  0.10658796944E+02  0.58664254573E+02  0.00000000000E+00 0. -1.
         21    1    1    2  502  501 -0.17046285305E+02 -0.17891081068E+02 -0.17179805266E+03  0.17356623382E+03  0.00000000000E+00 0. -1.
<scales pt_clust_5="13000.00000" pt_clust_6="13000.00000" pt_clust_7="13000.00000" pt_clust_8="13000.00000" pt_clust_9="24.71167"></scales>
<clustering>
<clus scale="   24.712">  2  9  1 -1</clus>
<clus scale="   80.201">  5  6 -1 -1</clus>
<clus scale="   82.645">  2  5  1 -1</clus>
<clus scale="   98.357">  7  8 -1 -1</clus>
<clus scale="   24.712">  2  5  1 -1</clus>
</clustering>
</event>
<event>
 9    2  0.2984928E-005  0.3081242E+03  0.7546771E-02  0.1081249E+00
          4   -1    0    0  502    0  0.00000000000E+00  0.00000000000E+00  0.10507100449E+03  0.10507100449E+03  0.00000000000E+00 0. -1.
         -3   -1    0    0    0  501 -0.00000000000E+00 -0.00000000000E+00 -0.94102216828E+03  0.94102216828E+03  0.00000000000E+00 0.  1.
         24    2    1    2    0    0 -0.13255639384E+03  0.90746129128E+02 -0.56518238993E+03  0.59246380659E+03  0.76001123215E+02 0.  0.
         23    2    1    2    0    0 -0.60434990098E+02  0.29345634366E+02 -0.17060195019E+03  0.20523230803E+03  0.92204775164E+02 0.  0.
        -11    1    3    3    0    0 -0.85641375967E+02  0.92177986079E+02 -0.46677740541E+03  0.48343807524E+03  0.00000000000E+00 0.  1.
         12    1    3    3    0    0 -0.46915017877E+02 -0.14318569506E+01 -0.98404984524E+02  0.10902573135E+03  0.00000000000E+00 0. -1.
        -13    1    4    4    0    0 -0.22141903475E+02  0.60118458671E+02 -0.83683978503E+02  0.10539213073E+03  0.00000000000E+00 0.  1.
         13    1    4    4    0    0 -0.38293086623E+02 -0.30772824305E+02 -0.86917971692E+02  0.99840177293E+02  0.00000000000E+00 0. -1.
         21    1    1    2  502  501  0.19299138394E+03 -0.12009176349E+03 -0.10016682366E+03  0.24839705815E+03  0.00000000000E+00 0. -1.
<scales pt_clust_5="13000.00000" pt_clust_6="13000.00000" pt_clust_7="13000.00000" pt_clust_8="13000.00000" pt_clust_9="227.30531"></scales>
<clustering>
<clus scale="   76.001">  5  6 -1 -1</clus>
<clus scale="   92.205">  7  8 -1 -1</clus>
<clus scale="  103.868">  5  7 -1 -1</clus>
<clus scale="  227.305">  1  9  2 -1</clus>
<clus scale="  227.305">  1  5  2 -1</clus>
</clustering>
</event>
<event>
 9    2  0.2984928E-005  0.1286877E+03  0.7546771E-02  0.1230721E+00
         -1   -1    0    0    0  501 -0.00000000000E+00  0.00000000000E+00  0.80549228524E+03  0.80549228524E+03  0.00000000000E+00 0.  1.
          2   -1    0    0  502    0  0.00000000000E+00 -0.00000000000E+00 -0.30847353266E+02  0.30847353266E+02  0.00000000000E+00 0. -1.
         24    2    1    2    0    0 -0.14969136607E+02  0.99402883669E+02  0.55677128580E+03  0.57148346523E+03  0.80585842509E+02 0.  0.
         23    2    1    2    0    0  0.37948623876E+02 -0.94471913232E+02  0.19200963329E+03  0.22990880617E+03  0.75002129543E+02 0.  0.
        -13    1    3    3    0    0  0.22560870110E+02  0.86092950300E+02  0.38031968875E+03  0.39059448870E+03  0.00000000000E+00 0.  1.
         14    1    3    3    0    0 -0.37530006717E+02  0.13309933369E+02  0.17645159705E+03  0.18088897653E+03  0.00000000000E+00 0. -1.
        -13    1    4    4    0    0  0.47814793136E+02 -0.36359044732E+02  0.57960776882E+02  0.83472667582E+02  0.00000000000E+00 0.  1.
         13    1    4    4    0    0 -0.98661692603E+01 -0.58112868499E+02  0.13404885641E+03  0.14643613859E+03  0.00000000000E+00 0. -1.
         21    1    1    2  502  501 -0.22979487268E+02 -0.49309704377E+01  0.25864012880E+02  0.34947367095E+02  0.00000000000E+00 0. -1.
<scales pt_clust_5="13000.00000" pt_clust_6="13000.00000" pt_clust_7="13000.00000" pt_clust_8="13000.00000" pt_clust_9="23.50258"></scales>
<clustering>
<clus scale="   23.503">  2  9  1 -1</clus>
<clus scale="   75.002">  7  8 -1 -1</clus>
<clus scale="   80.586">  5  6 -1 -1</clus>
<clus scale="  125.267">  2  7  1 -1</clus>
<clus scale="   23.503">  2  5  1 -1</clus>
</clustering>
</event>
<event>
 9    2  0.2984928E-005  0.1285878E+03  0.7546771E-02  0.1232685E+00
          2   -1    0    0  502    0  0.00000000000E+00  0.00000000000E+00  0.71634701024E+03  0.71634701024E+03  0.00000000000E+00 0. -1.
         -1   -1    0    0    0  501 -0.00000000000E+00 -0.00000000000E+00 -0.74094800135E+02  0.74094800135E+02  0.00000000000E+00 0.  1.
         23    2    1    2    0    0 -0.62811423242E+02  0.67995386208E+02 -0.37885729791E+01  0.13056574900E+03  0.92002250463E+02 0.  0.
         24    2    1    2    0    0  0.55897823198E+02 -0.40380162097E+02  0.50808541826E+03  0.51901413908E+03  0.80434819535E+02 0.  0.
        -11    1    4    4    0    0  0.39479576465E+02  0.10201558066E+02  0.10856837383E+03  0.11597327512E+03  0.00000000000E+00 0.  1.
         12    1    4    4    0    0  0.16418246733E+02 -0.50581720164E+02  0.39951704442E+03  0.40304086397E+03  0.00000000000E+00 0. -1.
        -13    1    3    3    0    0 -0.75335932425E+02  0.21217479931E+02  0.12945962502E+02  0.79330209341E+02  0.00000000000E+00 0. -1.
         13    1    3    3    0    0  0.12524509183E+02  0.46777906277E+02 -0.16734535481E+02  0.51235539654E+02  0.00000000000E+00 0.  1.
         21    1    1    2  502  501  0.69136000441E+01 -0.27615224110E+02  0.13795536482E+03  0.14086192229E+03  0.00000000000E+00 0. -1.
<scales pt_clust_5="13000.00000" pt_clust_6="13000.00000" pt_clust_7="13000.00000" pt_clust_8="13000.00000" pt_clust_9="28.46750"></scales>
<clustering>
<clus scale="   28.467">  1  9  2 -1</clus>
<clus scale="   80.435">  5  6 -1 -1</clus>
<clus scale="   92.002">  7  8 -1 -1</clus>
<clus scale="  120.583">  1  5  2 -1</clus>
<clus scale="   28.467">  1  5  2 -1</clus>
</clustering>
</event>
<event>
 9    2  0.2984928E-005  0.1301567E+03  0.7546771E-02  0.1233206E+00
          2   -1    0    0  502    0  0.00000000000E+00  0.00000000000E+00  0.89278016203E+02  0.89278016203E+02  0.00000000000E+00 0. -1.
         -1   -1    0    0    0  501 -0.00000000000E+00 -0.00000000000E+00 -0.30343723122E+03  0.30343723122E+03  0.00000000000E+00 0.  1.
         24    2    1    2    0    0  0.41285045457E+02 -0.86960113842E+02 -0.21166424531E+03  0.24221488276E+03  0.67821680238E+02 0.  0.
         23    2    1    2    0    0 -0.14867640341E+02  0.79896817496E+02  0.47656326097E+01  0.12220750701E+03  0.91145023667E+02 0.  0.
        -11    1    3    3    0    0  0.44898916454E+02 -0.51428662515E+02 -0.18628544366E+03  0.19840132698E+03  0.00000000000E+00 0.  1.
         12    1    3    3    0    0 -0.36138709968E+01 -0.35531451327E+02 -0.25378801644E+02  0.43813555778E+02  0.00000000000E+00 0. -1.
        -13    1    4    4    0    0  0.29765572788E+02  0.50459252464E+02 -0.21794661572E+02  0.62507061646E+02  0.00000000000E+00 0.  1.
         13    1    4    4    0    0 -0.44633213129E+02  0.29437565032E+02  0.26560294182E+02  0.59700445360E+02  0.00000000000E+00 0. -1.
         21    1    1    2  502  501 -0.26417405116E+02  0.70632963467E+01 -0.72606023175E+01  0.28292857656E+02  0.00000000000E+00 0. -1.
<scales pt_clust_5="13000.00000" pt_clust_6="13000.00000" pt_clust_7="13000.00000" pt_clust_8="13000.00000" pt_clust_9="27.34537"></scales>
<clustering>
<clus scale="   27.345">  1  9  2 -1</clus>
<clus scale="   67.822">  5  6 -1 -1</clus>
<clus scale="   91.145">  7  8 -1 -1</clus>
<clus scale="  115.035">  2  5  1 -1</clus>
<clus scale="   27.345">  1  5  2 -1</clus>
</clustering>
</event>
<event>
 9    2  0.2984928E-005  0.1184577E+03  0.7546771E-02  0.1248389E+00
          4   -1    0    0  502    0  0.00000000000E+00  0.00000000000E+00  0.21423863141E+03  0.21423863141E+03  0.00000000000E+00 0. -1.
         -3   -1    0    0    0  501 -0.00000000000E+00 -0.00000000000E+00 -0.15345852384E+03  0.15345852384E+03  0.00000000000E+00 0.  1.
         24    2    1    2    0    0 -0.50323250281E+02  0.99996654723E+01 -0.99046686804E+02  0.13750797971E+03  0.80410045943E+02 0.  0.
         23    2    1    2    0    0  0.82233932762E+02 -0.10803161657E+02  0.15631597935E+03  0.19807589037E+03  0.88995758028E+02 0.  0.
        -13    1    3    3    0    0 -0.53800458946E+02 -0.16517672435E+02 -0.95056696934E+02  0.11046763561E+03  0.00000000000E+00 0.  1.
         14    1    3    3    0    0  0.34772086657E+01  0.26517337907E+02 -0.39899898694E+01  0.27040344098E+02  0.00000000000E+00 0. -1.
        -11    1    4    4    0    0  0.72446846559E+02  0.28252550285E+02  0.12436944440E+03  0.14667825632E+03  0.00000000000E+00 0. -1.
         11    1    4    4    0    0  0.97870862023E+01 -0.39055711942E+02  0.31946534948E+02  0.51397634059E+02  0.00000000000E+00 0.  1.
         21    1    1    2  502  501 -0.31910682481E+02  0.80349618457E+00  0.35108150174E+01  0.32113285173E+02  0.00000000000E+00 0.  1.
<scales pt_clust_5="13000.00000" pt_clust_6="13000.00000" pt_clust_7="13000.00000" pt_clust_8="13000.00000" pt_clust_9="31.92080"></scales>
<clustering>
<clus scale="   31.921">  2  9  1 -1</clus>
<clus scale="   80.410">  5  6 -1 -1</clus>
<clus scale="   88.996">  7  8 -1 -1</clus>
<clus scale="  112.151">  2  5  1 -1</clus>
<clus scale="  118.458">  1  5  2 -1</clus>
</clustering>
</event>
<event>
 9    2  0.2984928E-005  0.9558916E+02  0.7546771E-02  0.1293212E+00
          2   -1    0    0  502    0  0.00000000000E+00  0.00000000000E+00  0.52424881278E+03  0.52424881278E+03  0.00000000000E+00 0. -1.
         -1   -1    0    0    0  501 -0.00000000000E+00 -0.00000000000E+00 -0.31939017653E+02  0.31939017653E+02  0.00000000000E+00 0.  1.
         23    2    1    2    0    0  0.52295134848E+01 -0.33001656662E+02  0.77923092503E+02  0.12447989197E+03  0.91141527339E+02 0.  0.
         24    2    1    2    0    0 -0.18658596537E+02  0.83005835460E+01  0.36019015595E+03  0.37065264421E+03  0.85025827295E+02 0.  0.
        -11    1    4    4    0    0 -0.18840741168E+02 -0.19297460733E+02  0.34477705329E+02  0.43773024607E+02  0.00000000000E+00 0.  1.
         12    1    4    4    0    0  0.18214463097E+00  0.27598044279E+02  0.32571245062E+03  0.32687961961E+03  0.00000000000E+00 0. -1.
        -11    1    3    3    0    0  0.49962725647E+01 -0.53375487081E+02  0.86987127560E+02  0.10217957585E+03  0.00000000000E+00 0.  1.
         11    1    3    3    0    0  0.23324092009E+00  0.20373830420E+02 -0.90640350564E+01  0.22300316114E+02  0.00000000000E+00 0. -1.
         21    1    1    2  502  501  0.13429083052E+02  0.24701073116E+02  0.54196546674E+02  0.61055294251E+02  0.00000000000E+00 0. -1.
<scales pt_clust_5="13000.00000" pt_clust_6="13000.00000" pt_clust_7="13000.00000" pt_clust_8="13000.00000" pt_clust_9="28.11553"></scales>
<clustering>
<clus scale="   28.116">  1  9  2 -1</clus>
<clus scale="   85.026">  5  6 -1 -1</clus>
<clus scale="   89.777">  1  5  2 -1</clus>
<clus scale="   91.142">  7  8 -1 -1</clus>
<clus scale="   28.116">  1  5  2 -1</clus>
</clustering>
</event>
<event>
 9    2  0.2984928E-005  0.1048354E+03  0.7546771E-02  0.1275863E+00
         -1   -1    0    0    0  501 -0.00000000000E+00  0.00000000000E+00  0.26180798401E+02  0.26180798401E+02  0.00000000000E+00 0.  1.
          2   -1    0    0  502    0  0.00000000000E+00 -0.00000000000E+00 -0.52316260761E+03  0.52316260761E+03  0.00000000000E+00 0. -1.
         23    2    1    2    0    0 -0.39932810757E+02  0.50559968341E+02 -0.15809282928E+03  0.19269323897E+03  0.89366671074E+02 0.  0.
         24    2    1    2    0    0  0.24420076379E+02 -0.32132612476E+02 -0.25643516918E+03  0.27074997334E+03  0.76926634895E+02 0.  0.
        -11    1    4    4    0    0 -0.11774373770E+02 -0.31257981541E+02 -0.43949678665E+02  0.55202097265E+02  0.00000000000E+00 0.  1.
         12    1    4    4    0    0  0.36194450150E+02 -0.87463093475E+00 -0.21248549051E+03  0.21554787607E+03  0.00000000000E+00 0. -1.
        -13    1    3    3    0    0  0.14924180560E+02 -0.16987372918E+02 -0.40798334422E+02  0.46645536717E+02  0.00000000000E+00 0. -1.
         13    1    3    3    0    0 -0.54856991316E+02  0.67547341259E+02 -0.11729449486E+03  0.14604770225E+03  0.00000000000E+00 0.  1.
         21    1    1    2  502  501  0.15512734377E+02 -0.18427355865E+02 -0.82453810750E+02  0.85900193709E+02  0.00000000000E+00 0. -1.
<scales pt_clust_5="13000.00000" pt_clust_6="13000.00000" pt_clust_7="13000.00000" pt_clust_8="13000.00000" pt_clust_9="24.08760"></scales>
<clustering>
<clus scale="   24.088">  2  9  1 -1</clus>
<clus scale="   76.927">  5  6 -1 -1</clus>
<clus scale="   89.367">  7  8 -1 -1</clus>
<clus scale="   94.455">  2  5  1 -1</clus>
<clus scale="   24.088">  2  5  1 -1</clus>
</clustering>
</event>
<event>
 9    2  0.2984928E-005  0.1220882E+03  0.7546771E-02  0.1242026E+00
          2   -1    0    0  502    0  0.00000000000E+00  0.00000000000E+00  0.40022666514E+03  0.40022666514E+03  0.00000000000E+00 0. -1.
         -1   -1    0    0    0  501 -0.00000000000E+00 -0.00000000000E+00 -0.22132352030E+03  0.22132352030E+03  0.00000000000E+00 0.  1.
         24    2    1    2    0    0  0.71671158043E+02  0.38889947569E+02 -0.18746820990E+03  0.22088094130E+03  0.83635384806E+02 0.  0.
         23    2    1    2    0    0 -0.75524480018E+02 -0.15779843591E+02  0.20273489430E+03  0.23536402287E+03  0.91333648497E+02 0.  0.
        -11    1    3    3    0    0  0.88796414946E+02  0.19628238585E+02 -0.14230760161E+03  0.16888316830E+03  0.00000000000E+00 0.  1.
         12    1    3    3    0    0 -0.17125256903E+02  0.19261708984E+02 -0.45160608283E+02  0.51997773005E+02  0.00000000000E+00 0. -1.
        -13    1    4    4    0    0 -0.43152709122E+02  0.35847761774E+02  0.73321706251E+02  0.92321671001E+02  0.00000000000E+00 0.  1.
         13    1    4    4    0    0 -0.32371770896E+02 -0.51627605365E+02  0.12941318805E+03  0.14304235187E+03  0.00000000000E+00 0. -1.
         21    1    1    2  502  501  0.38533219743E+01 -0.23110103978E+02  0.16363646043E+03  0.16530522127E+03  0.00000000000E+00 0.  1.
<scales pt_clust_5="13000.00000" pt_clust_6="13000.00000" pt_clust_7="13000.00000" pt_clust_8="13000.00000" pt_clust_9="23.42915"></scales>
<clustering>
<clus scale="   23.429">  1  9  2 -1</clus>
<clus scale="   83.635">  5  6 -1 -1</clus>
<clus scale="   91.334">  7  8 -1 -1</clus>
<clus scale="  116.441">  2  5  1 -1</clus>
<clus scale="   23.429">  1  5  2 -1</clus>
</clustering>
</event>
<event>
 9    2  0.2984928E-005  0.9478828E+02  0.7546771E-02  0.1299380E+00
         -1   -1    0    0    0  501 -0.00000000000E+00  0.00000000000E+00  0.99141639522E+02  0.99141639522E+02  0.00000000000E+00 0.  1.
          2   -1    0    0  502    0  0.00000000000E+00 -0.00000000000E+00 -0.30500845192E+03  0.30500845192E+03  0.00000000000E+00 0. -1.
         23    2    1    2    0    0  0.93966947974E+00 -0.19793079008E+02  0.54803460260E+02  0.11031732782E+03  0.93668802735E+02 0.  0.
         24    2    1    2    0    0  0.24897524368E+02 -0.21158145389E+02 -0.16872961207E+03  0.18992102976E+03  0.80825501661E+02 0.  0.
        -11    1    4    4    0    0 -0.27396258650E+02 -0.21583070758E+02 -0.68737113704E+02  0.77079016157E+02  0.00000000000E+00 0.  1.
         12    1    4    4    0    0  0.52293783017E+02  0.42492536906E+00 -0.99992498370E+02  0.11284201360E+03  0.00000000000E+00 0. -1.
        -11    1    3    3    0    0 -0.23084362645E+02  0.29216346752E+02  0.38014466476E+02  0.53212614836E+02  0.00000000000E+00 0.  1.
         11    1    3    3    0    0  0.24024032124E+02 -0.49009425760E+02  0.16788993784E+02  0.57104712985E+02  0.00000000000E+00 0. -1.
         21    1    1    2  502  501 -0.25837193847E+02  0.40951224396E+02 -0.91940660586E+02  0.10391173386E+03  0.00000000000E+00 0. -1.
<scales pt_clust_5="13000.00000" pt_clust_6="13000.00000" pt_clust_7="13000.00000" pt_clust_8="13000.00000" pt_clust_9="48.42069"></scales>
<clustering>
<clus scale="   48.421">  2  9  1 -1</clus>
<clus scale="   80.826">  5  6 -1 -1</clus>
<clus scale="   82.120">  2  5  1 -1</clus>
<clus scale="   93.669">  7  8 -1 -1</clus>
<clus scale="   48.421">  2  5  1 -1</clus>
</clustering>
</event>
<event>
 9    2  0.2984928E-005  0.1193691E+03  0.7546771E-02  0.1249575E+00
         -1   -1    0    0    0  501 -0.00000000000E+00  0.00000000000E+00  0.38197626003E+02  0.38197626003E+02  0.00000000000E+00 0.  1.
          2   -1    0    0  502    0  0.00000000000E+00 -0.00000000000E+00 -0.63538493610E+03  0.63538493610E+03  0.00000000000E+00 0. -1.
         23    2    1    2    0    0  0.31356926933E+02  0.67650862391E+02 -0.10209701007E+03  0.15818706735E+03  0.95076036743E+02 0.  0.
         24    2    1    2    0    0 -0.42868354661E+01 -0.72465099160E+02 -0.44970799329E+03  0.46233401633E+03  0.79030980459E+02 0.  0.
        -11    1    4    4    0    0  0.32904148004E+01 -0.62133319077E+02 -0.15053727292E+03  0.16288906258E+03  0.00000000000E+00 0.  1.
         12    1    4    4    0    0 -0.75772502666E+01 -0.10331780083E+02 -0.29917072036E+03  0.29944495375E+03  0.00000000000E+00 0. -1.
        -11    1    3    3    0    0  0.61349226011E+02  0.36733340077E+02 -0.86837810296E+02  0.11248942662E+03  0.00000000000E+00 0. -1.
         11    1    3    3    0    0 -0.29992299079E+02  0.30917522315E+02 -0.15259199774E+02  0.45697640725E+02  0.00000000000E+00 0.  1.
         21    1    1    2  502  501 -0.27070091467E+02  0.48142367685E+01 -0.45382306739E+02  0.53061478425E+02  0.00000000000E+00 0.  1.
<scales pt_clust_5="13000.00000" pt_clust_6="13000.00000" pt_clust_7="13000.00000" pt_clust_8="13000.00000" pt_clust_9="27.49485"></scales>
<clustering>
<clus scale="   27.495">  1  9  2 -1</clus>
<clus scale="   79.031">  5  6 -1 -1</clus>
<clus scale="   95.076">  7  8 -1 -1</clus>
<clus scale="  107.030">  2  5  1 -1</clus>
<clus scale="  107.030">  2  5  1 -1</clus>
</clustering>
</event>
<event>
 9    2  0.2984928E-005  0.1017061E+03  0.7546771E-02  0.1283795E+00
          2   -1    0    0  502    0  0.00000000000E+00  0.00000000000E+00  0.30319476614E+03  0.30319476614E+03  0.00000000000E+00 0. -1.
         -1   -1    0    0    0  501 -0.00000000000E+00 -0.00000000000E+00 -0.16415360952E+03  0.16415360952E+03  0.00000000000E+00 0.  1.
         23    2    1    2    0    0 -0.35167017451E+02 -0.62137764172E+01 -0.13261719838E+03  0.16699577797E+03  0.94999675897E+02 0.  0.
         24    2    1    2    0    0  0.45983559314E+02 -0.19484731469E+02  0.16958479282E+03  0.19453944643E+03  0.81193914618E+02 0.  0.
        -13    1    4    4    0    0  0.90802830020E+01  0.22220988690E+02  0.10894010309E+02  0.26361019296E+02  0.00000000000E+00 0.  1.
         14    1    4    4    0    0  0.36903276312E+02 -0.41705720159E+02  0.15869078251E+03  0.16817842713E+03  0.00000000000E+00 0. -1.
        -13    1    3    3    0    0 -0.88359676271E+01  0.30087680368E+02 -0.11435129743E+03  0.11857302415E+03  0.00000000000E+00 0.  1.
         13    1    3    3    0    0 -0.26331049824E+02 -0.36301456785E+02 -0.18265900950E+02  0.48422753816E+02  0.00000000000E+00 0. -1.
         21    1    1    2  502  501 -0.10816541863E+02  0.25698507886E+02  0.10207356218E+03  0.10581315127E+03  0.00000000000E+00 0. -1.
<scales pt_clust_5="13000.00000" pt_clust_6="13000.00000" pt_clust_7="13000.00000" pt_clust_8="13000.00000" pt_clust_9="27.88209"></scales>
<clustering>
<clus scale="   27.882">  1  9  2 -1</clus>
<clus scale="   81.194">  5  6 -1 -1</clus>
<clus scale="   88.947">  1  5  2 -1</clus>
<clus scale="   95.000">  7  8 -1 -1</clus>
<clus scale="   27.882">  1  5  2 -1</clus>
</clustering>
</event>
<event>
 9    2  0.2984928E-005  0.9887272E+02  0.7546771E-02  0.1288275E+00
         -1   -1    0    0    0  501 -0.00000000000E+00  0.00000000000E+00  0.15054137786E+03  0.15054137786E+03  0.00000000000E+00 0.  1.
          2   -1    0    0  502    0  0.00000000000E+00 -0.00000000000E+00 -0.18985212991E+03  0.18985212991E+03  0.00000000000E+00 0. -1.
         23    2    1    2    0    0 -0.11347401721E+02  0.33274154043E+02  0.10928573438E+03  0.14674740166E+03  0.91408398420E+02 0.  0.
         24    2    1    2    0    0  0.29857879984E+02 -0.24172323179E+02 -0.14819523751E+03  0.17301500989E+03  0.80601309049E+02 0.  0.
        -11    1    4    4    0    0 -0.14111456918E+02 -0.39123534230E+02 -0.55693063041E+02  0.69509002423E+02  0.00000000000E+00 0.  1.
         12    1    4    4    0    0  0.43969336902E+02  0.14951211051E+02 -0.92502174473E+02  0.10350600747E+03  0.00000000000E+00 0. -1.
        -11    1    3    3    0    0  0.13596314749E+01  0.52580727736E+02  0.22977837471E+02  0.57398279955E+02  0.00000000000E+00 0. -1.
         11    1    3    3    0    0 -0.12707033195E+02 -0.19306573692E+02  0.86307896912E+02  0.89349121706E+02  0.00000000000E+00 0.  1.
         21    1    1    2  502  501 -0.18510478264E+02 -0.91018308640E+01 -0.40124892306E+00  0.20631096222E+02  0.00000000000E+00 0. -1.
<scales pt_clust_5="13000.00000" pt_clust_6="13000.00000" pt_clust_7="13000.00000" pt_clust_8="13000.00000" pt_clust_9="20.62719"></scales>
<clustering>
<clus scale="   20.627">  1  9  2 -1</clus>
<clus scale="   80.601">  5  6 -1 -1</clus>
<clus scale="   88.977">  2  5  1 -1</clus>
<clus scale="   91.408">  7  8 -1 -1</clus>
<clus scale="   88.977">  2  5  1 -1</clus>
</clustering>
</event>
<event>
 9    2  0.2984928E-005  0.1053911E+03  0.7546771E-02  0.1274075E+00
          2   -1    0    0  502    0  0.00000000000E+00  0.00000000000E+00  0.17630143133E+03  0.17630143133E+03  0.00000000000E+00 0. -1.
         -1   -1    0    0    0  501 -0.00000000000E+00 -0.00000000000E+00 -0.16081462673E+03  0.16081462673E+03  0.00000000000E+00 0.  1.
         23    2    1    2    0    0 -0.19633132442E+02  0.10818121717E+02 -0.92884270494E+02  0.13235121258E+03  0.91579823758E+02 0.  0.
         24    2    1    2    0    0  0.76715097775E+01 -0.57840410561E+02  0.11884222184E+03  0.15512795417E+03  0.80850747157E+02 0.  0.
        -11    1    4    4    0    0  0.89540764620E+01  0.19893801122E+02  0.22678577179E+02  0.31468343954E+02  0.00000000000E+00 0.  1.
         12    1    4    4    0    0 -0.12825666845E+01 -0.77734211683E+02  0.96163644661E+02  0.12365961021E+03  0.00000000000E+00 0. -1.
        -11    1    3    3    0    0 -0.46020880906E+01 -0.28625961193E+02 -0.84473169494E+02  0.89310364647E+02  0.00000000000E+00 0.  1.
         11    1    3    3    0    0 -0.15031044352E+02  0.39444082910E+02 -0.84111010004E+01  0.43040847935E+02  0.00000000000E+00 0. -1.
         21    1    1    2  502  501  0.11961622665E+02  0.47022288844E+02 -0.10471146744E+02  0.49636891311E+02  0.00000000000E+00 0. -1.
<scales pt_clust_5="13000.00000" pt_clust_6="13000.00000" pt_clust_7="13000.00000" pt_clust_8="13000.00000" pt_clust_9="48.51985"></scales>
<clustering>
<clus scale="   48.520">  2  9  1 -1</clus>
<clus scale="   80.851">  5  6 -1 -1</clus>
<clus scale="   91.580">  7  8 -1 -1</clus>
<clus scale="   96.215">  1  5  2 -1</clus>
<clus scale="   96.215">  1  5  2 -1</clus>
</clustering>
</event>
<event>
 9    2  0.2984928E-005  0.1706219E+03  0.7546771E-02  0.1197075E+00
         -1   -1    0    0    0  501 -0.00000000000E+00  0.00000000000E+00  0.60415252040E+03  0.60415252040E+03  0.00000000000E+00 0.  1.
          2   -1    0    0  502    0  0.00000000000E+00 -0.00000000000E+00 -0.11666299649E+03  0.11666299649E+03  0.00000000000E+00 0. -1.
         24    2    1    2    0    0 -0.95259872703E+02 -0.15570369574E+03  0.16817840053E+03  0.25949144620E+03  0.75721542713E+02 0.  0.
         23    2    1    2    0    0 -0.93195250998E+01  0.56246847760E+02 -0.12750406285E+01  0.10975046018E+03  0.93770871545E+02 0.  0.
        -11    1    3    3    0    0 -0.28493107953E+02 -0.10663893002E+03  0.68643163602E+02  0.12998308546E+03  0.00000000000E+00 0.  1.
         12    1    3    3    0    0 -0.66766764750E+02 -0.49064765717E+02  0.99535236930E+02  0.12950836074E+03  0.00000000000E+00 0. -1.
        -11    1    4    4    0    0 -0.15677030051E+02  0.81267582132E+02 -0.77711429708E+01  0.83129897389E+02  0.00000000000E+00 0.  1.
         11    1    4    4    0    0  0.63575049512E+01 -0.25020734372E+02  0.64961023423E+01  0.26620562792E+02  0.00000000000E+00 0. -1.
         21    1    1    2  502  501  0.10457939780E+03  0.99456847979E+02  0.32058616401E+03  0.35157361051E+03  0.00000000000E+00 0.  1.
<scales pt_clust_5="13000.00000" pt_clust_6="13000.00000" pt_clust_7="13000.00000" pt_clust_8="13000.00000" pt_clust_9="152.89896"></scales>
<clustering>
<clus scale="   75.722">  5  6 -1 -1</clus>
<clus scale="   93.771">  7  8 -1 -1</clus>
<clus scale="  109.743">  2  7  1 -1</clus>
<clus scale="  152.899">  1  9  2 -1</clus>
<clus scale="  109.743">  2  5  1 -1</clus>
</clustering>
</event>
<event>
 9    2  0.2984928E-005  0.1205534E+03  0.7546771E-02  0.1245167E+00
          2   -1    0    0  502    0  0.00000000000E+00  0.00000000000E+00  0.31773950587E+03  0.31773950587E+03  0.00000000000E+00 0. -1.
         -1   -1    0    0    0  501 -0.00000000000E+00 -0.00000000000E+00 -0.84132158478E+02  0.84132158478E+02  0.00000000000E+00 0.  1.
         24    2    1    2    0    0 -0.11000627332E+02  0.83396630422E+02 -0.12188360959E+02  0.11824088913E+03  0.82196958291E+02 0.  0.
         23    2    1    2    0    0 -0.78866047665E+01 -0.56181986854E+02  0.19852407173E+03  0.22590753909E+03  0.91672214854E+02 0.  0.
        -13    1    3    3    0    0 -0.38326754634E+02  0.78412270243E+02 -0.19684627363E+02  0.89470155917E+02  0.00000000000E+00 0.  1.
         14    1    3    3    0    0  0.27326127302E+02  0.49843601793E+01  0.74962664035E+01  0.28770733214E+02  0.00000000000E+00 0. -1.
        -13    1    4    4    0    0  0.17789295484E+02 -0.73687604534E+02  0.15354047019E+03  0.17123375275E+03  0.00000000000E+00 0. -1.
         13    1    4    4    0    0 -0.25675900250E+02  0.17505617681E+02  0.44983601546E+02  0.54673786333E+02  0.00000000000E+00 0.  1.
         21    1    1    2  502  501  0.18887232099E+02 -0.27214643568E+02  0.47271636616E+02  0.57723236129E+02  0.00000000000E+00 0.  1.
<scales pt_clust_5="13000.00000" pt_clust_6="13000.00000" pt_clust_7="13000.00000" pt_clust_8="13000.00000" pt_clust_9="33.12649"></scales>
<clustering>
<clus scale="   33.126">  1  9  2 -1</clus>
<clus scale="   82.197">  5  6 -1 -1</clus>
<clus scale="   91.672">  7  8 -1 -1</clus>
<clus scale="  113.515">  2  5  1 -1</clus>
<clus scale="   33.126">  1  5  2 -1</clus>
</clustering>
</event>
<event>
 9    2  0.2984928E-005  0.1621111E+03  0.7546771E-02  0.1188471E+00
         -1   -1    0    0    0  501 -0.00000000000E+00  0.00000000000E+00  0.54625020268E+02  0.54625020268E+02  0.00000000000E+00 0.  1.
          2   -1    0    0  502    0  0.00000000000E+00 -0.00000000000E+00 -0.90773129896E+03  0.90773129896E+03  0.00000000000E+00 0. -1.
         23    2    1    2    0    0  0.13425888238E+03  0.30188163380E+02 -0.10514108168E+03  0.19634372355E+03  0.92517230917E+02 0.  0.
         24    2    1    2    0    0 -0.11411566633E+03 -0.17360826143E+02 -0.59337075503E+03  0.60958455718E+03  0.78617401657E+02 0.  0.
        -13    1    4    4    0    0 -0.58340904435E+02  0.24634585038E+02 -0.37543442529E+03  0.38073814046E+03  0.00000000000E+00 0.  1.
         14    1    4    4    0    0 -0.55774761892E+02 -0.41995411181E+02 -0.21793632974E+03  0.22884641672E+03  0.00000000000E+00 0. -1.
        -13    1    3    3    0    0  0.12630165732E+03  0.88609171033E+01 -0.48999712254E+02  0.13576301520E+03  0.00000000000E+00 0.  1.
         13    1    3    3    0    0  0.79572250573E+01  0.21327246276E+02 -0.56141369422E+02  0.60580708356E+02  0.00000000000E+00 0. -1.
         21    1    1    2  502  501 -0.20143216054E+02 -0.12827337236E+02 -0.15459444199E+03  0.15642803850E+03  0.00000000000E+00 0. -1.
<scales pt_clust_5="13000.00000" pt_clust_6="13000.00000" pt_clust_7="13000.00000" pt_clust_8="13000.00000" pt_clust_9="23.88074"></scales>
<clustering>
<clus scale="   23.881">  2  9  1 -1</clus>
<clus scale="   78.617">  5  6 -1 -1</clus>
<clus scale="   92.517">  7  8 -1 -1</clus>
<clus scale="  154.600">  2  5  1 -1</clus>
<clus scale="   23.881">  2  5  1 -1</clus>
</clustering>
</event>
<event>
 9    2  0.2984928E-005  0.1052554E+03  0.7546771E-02  0.1273965E+00
         -1   -1    0    0    0  501 -0.00000000000E+00  0.00000000000E+00  0.20134426809E+03  0.20134426809E+03  0.00000000000E+00 0.  1.
          2   -1    0    0  502    0  0.00000000000E+00 -0.00000000000E+00 -0.25646109872E+03  0.25646109872E+03  0.00000000000E+00 0. -1.
         23    2    1    2    0    0  0.54471681973E+02  0.85536404655E+01  0.16701266926E+03  0.19764503134E+03  0.90166500522E+02 0.  0.
         24    2    1    2    0    0 -0.46369860423E+02  0.22588648190E+02 -0.19866200053E+03  0.22033314399E+03  0.80122986107E+02 0.  0.
        -13    1    4    4    0    0 -0.34818155559E+02 -0.23246889891E+02 -0.13295233222E+03  0.13938810742E+03  0.00000000000E+00 0.  1.
         14    1    4    4    0    0 -0.11551704864E+02  0.45835538081E+02 -0.65709668310E+02  0.80945036573E+02  0.00000000000E+00 0. -1.
        -11    1    3    3    0    0  0.25184886697E+02  0.65604601622E+01 -0.20000423520E+01  0.26102075107E+02  0.00000000000E+00 0. -1.
         11    1    3    3    0    0  0.29286795276E+02  0.19931803033E+01  0.16901271162E+03  0.17154295623E+03  0.00000000000E+00 0.  1.
         21    1    1    2  502  501 -0.81018215500E+01 -0.31142288655E+02 -0.23467499359E+02  0.39827191482E+02  0.00000000000E+00 0. -1.
<scales pt_clust_5="13000.00000" pt_clust_6="13000.00000" pt_clust_7="13000.00000" pt_clust_8="13000.00000" pt_clust_9="32.17890"></scales>
<clustering>
<clus scale="   32.179">  2  9  1 -1</clus>
<clus scale="   80.123">  5  6 -1 -1</clus>
<clus scale="   90.167">  7  8 -1 -1</clus>
<clus scale="   96.790">  2  5  1 -1</clus>
<clus scale="   32.179">  2  5  1 -1</clus>
</clustering>
</event>
<event>
 9    2  0.2984928E-005  0.4676629E+03  0.7546771E-02  0.1022582E+00
         -1   -1    0    0    0  501 -0.00000000000E+00  0.00000000000E+00  0.90496281447E+02  0.90496281447E+02  0.00000000000E+00 0.  1.
          2   -1    0    0  502    0  0.00000000000E+00 -0.00000000000E+00 -0.21459153520E+04  0.21459153520E+04  0.00000000000E+00 0. -1.
         24    2    1    2    0    0 -0.47936843003E+02 -0.48820282497E+02 -0.22861838224E+03  0.25203923101E+03  0.81092837978E+02 0.  0.
         23    2    1    2    0    0 -0.33859868242E+03 -0.84044084488E+02 -0.98562762825E+03  0.10491533001E+04  0.86881238669E+02 0.  0.
        -13    1    3    3    0    0 -0.17105965071E+02 -0.38758533776E+02 -0.32867642973E+02  0.53620144872E+02  0.00000000000E+00 0.  1.
         14    1    3    3    0    0 -0.30830877932E+02 -0.10061748720E+02 -0.19575073927E+03  0.19841908614E+03  0.00000000000E+00 0. -1.
        -11    1    4    4    0    0 -0.31606869526E+03 -0.61066046511E+02 -0.83015630322E+03  0.89038641608E+03  0.00000000000E+00 0.  1.
         11    1    4    4    0    0 -0.22529987165E+02 -0.22978037977E+02 -0.15547132503E+03  0.15876688401E+03  0.00000000000E+00 0. -1.
         21    1    1    2  502  501  0.38653552543E+03  0.13286436698E+03 -0.84117306010E+03  0.93521910239E+03  0.00000000000E+00 0.  1.
<scales pt_clust_5="13000.00000" pt_clust_6="13000.00000" pt_clust_7="13000.00000" pt_clust_8="13000.00000" pt_clust_9="408.73298"></scales>
<clustering>
<clus scale="   81.093">  5  6 -1 -1</clus>
<clus scale="   86.881">  7  8 -1 -1</clus>
<clus scale="   96.283">  5  7 -1 -1</clus>
<clus scale="  408.733">  1  9  2 -1</clus>
<clus scale="  467.663">  2  5  1 -1</clus>
</clustering>
</event>
<event>
 9    2  0.2984928E-005  0.1320940E+03  0.7546771E-02  0.1241491E+00
          2   -1    0    0  502    0  0.00000000000E+00  0.00000000000E+00  0.59860427822E+03  0.59860427822E+03  0.00000000000E+00 0. -1.
         -1   -1    0    0    0  501 -0.00000000000E+00 -0.00000000000E+00 -0.23040214256E+03  0.23040214256E+03  0.00000000000E+00 0.  1.
         23    2    1    2    0    0  0.69551447975E+01  0.21954449607E+02 -0.73950948988E+02  0.11876825003E+03  0.90037672456E+02 0.  0.
         24    2    1    2    0    0  0.95904831640E+02 -0.43469374590E+02 -0.95002724118E+02  0.16289967434E+03  0.80146509921E+02 0.  0.
        -11    1    4    4    0    0  0.21936970234E+02  0.21682599166E+02 -0.91212310034E+01  0.32164617589E+02  0.00000000000E+00 0.  1.
         12    1    4    4    0    0  0.73967861406E+02 -0.65151973756E+02 -0.85881493115E+02  0.13073505676E+03  0.00000000000E+00 0. -1.
        -13    1    3    3    0    0  0.28958606710E+02 -0.23096930293E+02 -0.52458830156E+02  0.64218361493E+02  0.00000000000E+00 0.  1.
         13    1    3    3    0    0 -0.22003461912E+02  0.45051379900E+02 -0.21492118832E+02  0.54549888533E+02  0.00000000000E+00 0. -1.
         21    1    1    2  502  501 -0.10285997644E+03  0.21514924983E+02  0.53715580877E+03  0.54733849641E+03  0.00000000000E+00 0. -1.
<scales pt_clust_5="13000.00000" pt_clust_6="13000.00000" pt_clust_7="13000.00000" pt_clust_8="13000.00000" pt_clust_9="105.00175"></scales>
<clustering>
<clus scale="   80.147">  5  6 -1 -1</clus>
<clus scale="   90.038">  7  8 -1 -1</clus>
<clus scale="   92.936">  2  7  1 -1</clus>
<clus scale="  105.002">  1  9  2 -1</clus>
<clus scale="  105.002">  1  5  2 -1</clus>
</clustering>
</event>
<event>
 9    2  0.2984928E-005  0.9307378E+02  0.7546771E-02  0.1302637E+00
          2   -1    0    0  502    0  0.00000000000E+00  0.00000000000E+00  0.39119327302E+03  0.39119327302E+03  0.00000000000E+00 0. -1.
         -1   -1    0    0    0  501 -0.00000000000E+00 -0.00000000000E+00 -0.52935186509E+02  0.52935186509E+02  0.00000000000E+00 0.  1.
         23    2    1    2    0    0  0.98898324894E+01 -0.55104744625E+00  0.78865633057E+01  0.92999903514E+02  0.92133987935E+02 0.  0.
         24    2    1    2    0    0 -0.24014811244E+02 -0.18665658407E+02  0.18844285433E+03  0.20721002400E+03  0.80623611526E+02 0.  0.
        -11    1    4    4    0    0 -0.48993193457E+02  0.53362697462E+01  0.13297231420E+03  0.14181130111E+03  0.00000000000E+00 0.  1.
         12    1    4    4    0    0  0.24978382212E+02 -0.24001928153E+02  0.55470540135E+02  0.65398722891E+02  0.00000000000E+00 0. -1.
        -13    1    3    3    0    0  0.15079873436E+02 -0.22679207893E+02  0.43161949107E+02  0.51036290071E+02  0.00000000000E+00 0. -1.
         13    1    3    3    0    0 -0.51900409468E+01  0.22128160447E+02 -0.35275385801E+02  0.41963613443E+02  0.00000000000E+00 0.  1.
         21    1    1    2  502  501  0.14124978755E+02  0.19216705853E+02  0.14192866887E+03  0.14391853201E+03  0.00000000000E+00 0.  1.
<scales pt_clust_5="13000.00000" pt_clust_6="13000.00000" pt_clust_7="13000.00000" pt_clust_8="13000.00000" pt_clust_9="23.84946"></scales>
<clustering>
<clus scale="   23.849">  1  9  2 -1</clus>
<clus scale="   80.624">  5  6 -1 -1</clus>
<clus scale="   81.696">  1  5  2 -1</clus>
<clus scale="   92.134">  7  8 -1 -1</clus>
<clus scale="   23.849">  1  5  2 -1</clus>
</clustering>
</event>
<event>
 9    2  0.2984928E-005  0.1979581E+03  0.7546771E-02  0.1153456E+00
          2   -1    0    0  502    0  0.00000000000E+00  0.00000000000E+00  0.13741725579E+03  0.13741725579E+03  0.00000000000E+00 0. -1.
         -1   -1    0    0    0  501 -0.00000000000E+00 -0.00000000000E+00 -0.51168829517E+03  0.51168829517E+03  0.00000000000E+00 0.  1.
         24    2    1    2    0    0 -0.16829030752E+03  0.63480930562E+02 -0.38301138965E+03  0.42873439865E+03  0.69021763480E+02 0.  0.
         23    2    1    2    0    0  0.15377333705E+03 -0.37167699949E+02  0.28120640896E+02  0.18461189893E+03  0.90901626369E+02 0.  0.
        -11    1    3    3    0    0 -0.61213055741E+02 -0.88054497931E+01 -0.15108996811E+03  0.16325670768E+03  0.00000000000E+00 0.  1.
         12    1    3    3    0    0 -0.10707725178E+03  0.72286380355E+02 -0.23192142154E+03  0.26547769097E+03  0.00000000000E+00 0. -1.
        -13    1    4    4    0    0  0.27191954721E+02 -0.21053147877E+02 -0.28831272827E+02  0.44876271346E+02  0.00000000000E+00 0.  1.
         13    1    4    4    0    0  0.12658138233E+03 -0.16114552072E+02  0.56951913723E+02  0.13973562759E+03  0.00000000000E+00 0. -1.
         21    1    1    2  502  501  0.14516970470E+02 -0.26313230613E+02 -0.19380290627E+02  0.35759253372E+02  0.00000000000E+00 0.  1.
<scales pt_clust_5="13000.00000" pt_clust_6="13000.00000" pt_clust_7="13000.00000" pt_clust_8="13000.00000" pt_clust_9="30.05210"></scales>
<clustering>
<clus scale="   30.052">  1  9  2 -1</clus>
<clus scale="   69.022">  5  6 -1 -1</clus>
<clus scale="   90.902">  7  8 -1 -1</clus>
<clus scale="  188.914">  2  5  1 -1</clus>
<clus scale="   30.052">  1  5  2 -1</clus>
</clustering>
</event>
<event>
 9    2  0.2984928E-005  0.1284708E+03  0.7546771E-02  0.1230880E+00
         -1   -1    0    0    0  501 -0.00000000000E+00  0.00000000000E+00  0.70821611835E+02  0.70821611835E+02  0.00000000000E+00 0.  1.
          2   -1    0    0  502    0  0.00000000000E+00 -0.00000000000E+00 -0.55573140550E+03  0.55573140550E+03  0.00000000000E+00 0. -1.
         24    2    1    2    0    0  0.96358940733E+02  0.11357735423E+02 -0.15134986660E+02  0.12660806893E+03  0.79915528431E+02 0.  0.
         23    2    1    2    0    0 -0.97555048333E+02  0.22254235221E+02 -0.41937759331E+03  0.43935555665E+03  0.84519234240E+02 0.  0.
        -13    1    3    3    0    0  0.64128653592E+02  0.45103253088E+02 -0.33218773283E+01  0.78471794421E+02  0.00000000000E+00 0.  1.
         14    1    3    3    0    0  0.32230287140E+02 -0.33745517665E+02 -0.11813109332E+02  0.48136274510E+02  0.00000000000E+00 0. -1.
        -13    1    4    4    0    0 -0.72183081684E+02 -0.18262820763E+02 -0.32666905660E+03  0.33504716152E+03  0.00000000000E+00 0. -1.
         13    1    4    4    0    0 -0.25371966649E+02  0.40517055984E+02 -0.92708536703E+02  0.10430839513E+03  0.00000000000E+00 0.  1.
         21    1    1    2  502  501  0.11961076002E+01 -0.33611970644E+02 -0.50397213703E+02  0.60589391753E+02  0.00000000000E+00 0. -1.
<scales pt_clust_5="13000.00000" pt_clust_6="13000.00000" pt_clust_7="13000.00000" pt_clust_8="13000.00000" pt_clust_9="33.63325"></scales>
<clustering>
<clus scale="   33.633">  2  9  1 -1</clus>
<clus scale="   79.916">  5  6 -1 -1</clus>
<clus scale="   84.519">  7  8 -1 -1</clus>
<clus scale="  125.490">  1  5  2 -1</clus>
<clus scale="   33.633">  2  5  1 -1</clus>
</clustering>
</event>
<event>
 9    2  0.2984928E-005  0.1732920E+03  0.7546771E-02  0.1198091E+00
          2   -1    0    0  502    0  0.00000000000E+00  0.00000000000E+00  0.10672890586E+04  0.10672890586E+04  0.00000000000E+00 0. -1.
         -1   -1    0    0    0  501 -0.00000000000E+00 -0.00000000000E+00 -0.78437964427E+02  0.78437964427E+02  0.00000000000E+00 0.  1.
         23    2    1    2    0    0 -0.16192909399E+03 -0.12885075146E+02  0.61832366870E+02  0.19538014920E+03  0.89236228443E+02 0.  0.
         24    2    1    2    0    0  0.62628474791E+02 -0.23164322008E+02  0.50686599339E+03  0.51711657500E+03  0.77701384874E+02 0.  0.
        -13    1    4    4    0    0  0.51950074507E+01  0.25982564102E+02  0.11330654762E+03  0.11636346279E+03  0.00000000000E+00 0.  1.
         14    1    4    4    0    0  0.57433467341E+02 -0.49146886109E+02  0.39355944577E+03  0.40075311221E+03  0.00000000000E+00 0. -1.
        -13    1    3    3    0    0 -0.31108510205E+02  0.29372613735E+02 -0.39685492370E+01  0.42967886006E+02  0.00000000000E+00 0. -1.
         13    1    3    3    0    0 -0.13082058379E+03 -0.42257688881E+02  0.65800916107E+02  0.15241226320E+03  0.00000000000E+00 0.  1.
         21    1    1    2  502  501  0.99300619203E+02  0.36049397154E+02  0.42015273394E+03  0.43323029886E+03  0.00000000000E+00 0. -1.
<scales pt_clust_5="13000.00000" pt_clust_6="13000.00000" pt_clust_7="13000.00000" pt_clust_8="13000.00000" pt_clust_9="148.54972"></scales>
<clustering>
<clus scale="   77.701">  5  6 -1 -1</clus>
<clus scale="   89.236">  7  8 -1 -1</clus>
<clus scale="  102.452">  1  5  2 -1</clus>
<clus scale="  148.550">  1  9  2 -1</clus>
<clus scale="  102.452">  1  5  2 -1</clus>
</clustering>
</event>
<event>
 9    2  0.2984928E-005  0.1641947E+03  0.7546771E-02  0.1184926E+00
         -1   -1    0    0    0  501 -0.00000000000E+00  0.00000000000E+00  0.54009169865E+03  0.54009169865E+03  0.00000000000E+00 0.  1.
          2   -1    0    0  502    0  0.00000000000E+00 -0.00000000000E+00 -0.74005794775E+02  0.74005794775E+02  0.00000000000E+00 0. -1.
         23    2    1    2    0    0 -0.11953320753E+03 -0.31881629500E+02  0.20443632480E+03  0.25466290117E+03  0.88058823128E+02 0.  0.
         24    2    1    2    0    0  0.13727559594E+03  0.76894548955E+02  0.25494765528E+03  0.31058921328E+03  0.81914538224E+02 0.  0.
        -13    1    4    4    0    0  0.95450714723E+02  0.64569922592E+02  0.11032302435E+03  0.15953458417E+03  0.00000000000E+00 0.  1.
         14    1    4    4    0    0  0.41824881219E+02  0.12324626364E+02  0.14462463093E+03  0.15105462911E+03  0.00000000000E+00 0. -1.
        -13    1    3    3    0    0 -0.48519592716E+02 -0.55325290664E+02  0.12854035643E+03  0.14811367896E+03  0.00000000000E+00 0.  1.
         13    1    3    3    0    0 -0.71013614812E+02  0.23443661165E+02  0.75895968375E+02  0.10654922221E+03  0.00000000000E+00 0. -1.
         21    1    1    2  502  501 -0.17742388414E+02 -0.45012919456E+02  0.67019237865E+01  0.48845378973E+02  0.00000000000E+00 0.  1.
<scales pt_clust_5="13000.00000" pt_clust_6="13000.00000" pt_clust_7="13000.00000" pt_clust_8="13000.00000" pt_clust_9="48.38342"></scales>
<clustering>
<clus scale="   48.383">  2  9  1 -1</clus>
<clus scale="   81.915">  5  6 -1 -1</clus>
<clus scale="   88.059">  7  8 -1 -1</clus>
<clus scale="  160.983">  2  5  1 -1</clus>
<clus scale="   48.383">  2  5  1 -1</clus>
</clustering>
</event>
<event>
 9    2  0.2984928E-005  0.1678102E+03  0.7546771E-02  0.1205025E+00
          2   -1    0    0  502    0  0.00000000000E+00  0.00000000000E+00  0.40831035699E+03  0.40831035699E+03  0.00000000000E+00 0. -1.
         -1   -1    0    0    0  501 -0.00000000000E+00 -0.00000000000E+00 -0.43851854571E+03  0.43851854571E+03  0.00000000000E+00 0.  1.
         23    2    1    2    0    0 -0.16651741128E+02  0.23120331250E+02 -0.36501223981E+03  0.37770414043E+03  0.92815151192E+02 0.  0.
         24    2    1    2    0    0  0.15047012719E+03 -0.41391036168E+02  0.26308131740E+03  0.31620213597E+03  0.80109513645E+02 0.  0.
        -11    1    4    4    0    0  0.67252936283E+02 -0.20074349967E+02  0.49194471050E+02  0.85709001552E+02  0.00000000000E+00 0.  1.
         12    1    4    4    0    0  0.83217190910E+02 -0.21316686201E+02  0.21388684635E+03  0.23049313442E+03  0.00000000000E+00 0. -1.
        -11    1    3    3    0    0  0.37390363447E+02  0.17159714241E+02 -0.12442363640E+03  0.13104860307E+03  0.00000000000E+00 0. -1.
         11    1    3    3    0    0 -0.54042104575E+02  0.59606170090E+01 -0.24058860340E+03  0.24665553736E+03  0.00000000000E+00 0.  1.
         21    1    1    2  502  501 -0.13381838606E+03  0.18270704918E+02  0.71722733684E+02  0.15292262630E+03  0.00000000000E+00 0.  1.
<scales pt_clust_5="13000.00000" pt_clust_6="13000.00000" pt_clust_7="13000.00000" pt_clust_8="13000.00000" pt_clust_9="147.45412"></scales>
<clustering>
<clus scale="   80.110">  5  6 -1 -1</clus>
<clus scale="   92.815">  7  8 -1 -1</clus>
<clus scale="   97.090">  2  7  1 -1</clus>
<clus scale="  147.454">  2  9  1 -1</clus>
<clus scale="  167.810">  1  5  2 -1</clus>
</clustering>
</event>
<event>
 9    2  0.2984928E-005  0.1756344E+03  0.7546771E-02  0.1173386E+00
          4   -1    0    0  502    0  0.00000000000E+00  0.00000000000E+00  0.13077104110E+03  0.13077104110E+03  0.00000000000E+00 0. -1.
         -3   -1    0    0    0  501 -0.00000000000E+00 -0.00000000000E+00 -0.26537911229E+03  0.26537911229E+03  0.00000000000E+00 0.  1.
         24    2    1    2    0    0 -0.15600714928E+03 -0.24563982251E+02 -0.88823914041E+02  0.19864410770E+03  0.81413598179E+02 0.  0.
         23    2    1    2    0    0  0.14037227649E+03  0.60437488566E+01 -0.37191726287E+02  0.17179071640E+03  0.91585603838E+02 0.  0.
        -13    1    3    3    0    0 -0.98546441089E+02 -0.47149943112E+02 -0.29817268456E+02  0.11324128083E+03  0.00000000000E+00 0.  1.
         14    1    3    3    0    0 -0.57460708195E+02  0.22585960861E+02 -0.59006645585E+02  0.85402826871E+02  0.00000000000E+00 0. -1.
        -13    1    4    4    0    0  0.10837677734E+03 -0.15576332242E+02 -0.62065037430E+02  0.12585792332E+03  0.00000000000E+00 0.  1.
         13    1    4    4    0    0  0.31995499155E+02  0.21620081099E+02  0.24873311143E+02  0.45932793080E+02  0.00000000000E+00 0. -1.
         21    1    1    2  502  501  0.15634872793E+02  0.18520233394E+02 -0.85924308562E+01  0.25715329285E+02  0.00000000000E+00 0. -1.
<scales pt_clust_5="13000.00000" pt_clust_6="13000.00000" pt_clust_7="13000.00000" pt_clust_8="13000.00000" pt_clust_9="24.23733"></scales>
<clustering>
<clus scale="   24.237">  1  9  2 -1</clus>
<clus scale="   81.414">  5  6 -1 -1</clus>
<clus scale="   91.586">  7  8 -1 -1</clus>
<clus scale="  170.551">  2  5  1 -1</clus>
<clus scale="   24.237">  1  5  2 -1</clus>
</clustering>
</event>
<event>
 9    2  0.2984928E-005  0.2301100E+03  0.7546771E-02  0.1128156E+00
          2   -1    0    0  502    0  0.00000000000E+00  0.00000000000E+00  0.14154474400E+04  0.14154474400E+04  0.00000000000E+00 0. -1.
         -1   -1    0    0    0  501 -0.00000000000E+00 -0.00000000000E+00 -0.78871565253E+02  0.78871565253E+02  0.00000000000E+00 0.  1.
         23    2    1    2    0    0  0.19723224914E+03 -0.48920705171E+02  0.13722042320E+03  0.26551716781E+03  0.10186327290E+03 0.  0.
         24    2    1    2    0    0 -0.22033616415E+03  0.43151653971E+02  0.11437956650E+04  0.11683538207E+04  0.79825038129E+02 0.  0.
        -13    1    4    4    0    0 -0.42750839872E+02 -0.11492438686E+02  0.12156516520E+03  0.12937464916E+03  0.00000000000E+00 0.  1.
         14    1    4    4    0    0 -0.17758532427E+03  0.54644092657E+02  0.10222304998E+04  0.10389791715E+04  0.00000000000E+00 0. -1.
        -11    1    3    3    0    0  0.91986880741E+02 -0.12692917972E+02  0.12178200673E+03  0.15314553065E+03  0.00000000000E+00 0. -1.
         11    1    3    3    0    0  0.10524536840E+03 -0.36227787200E+02  0.15438416464E+02  0.11237163716E+03  0.00000000000E+00 0.  1.
         21    1    1    2  502  501  0.23103915002E+02  0.57690512001E+01  0.55559786552E+02  0.60448016691E+02  0.00000000000E+00 0.  1.
<scales pt_clust_5="13000.00000" pt_clust_6="13000.00000" pt_clust_7="13000.00000" pt_clust_8="13000.00000" pt_clust_9="23.81329"></scales>
<clustering>
<clus scale="   23.813">  1  9  2 -1</clus>
<clus scale="   79.825">  5  6 -1 -1</clus>
<clus scale="  101.863">  7  8 -1 -1</clus>
<clus scale="  221.239">  1  5  2 -1</clus>
<clus scale="   23.813">  1  5  2 -1</clus>
</clustering>
</event>
<event>
 9    2  0.2984928E-005  0.2570504E+03  0.7546771E-02  0.1109477E+00
         -1   -1    0    0    0  501 -0.00000000000E+00  0.00000000000E+00  0.37959515786E+02  0.37959515786E+02  0.00000000000E+00 0.  1.
          2   -1    0    0  502    0  0.00000000000E+00 -0.00000000000E+00 -0.21222822287E+04  0.21222822287E+04  0.00000000000E+00 0. -1.
         24    2    1    2    0    0  0.24504261094E+03 -0.44354398908E+02 -0.65627445660E+03  0.70652384172E+03  0.80415064852E+02 0.  0.
         23    2    1    2    0    0 -0.21749354623E+03  0.55556595495E+02 -0.12730865759E+04  0.12959282879E+04  0.91053388681E+02 0.  0.
        -11    1    3    3    0    0  0.24554801216E+03 -0.34121299757E+02 -0.64634100539E+03  0.69225341070E+03  0.00000000000E+00 0.  1.
         12    1    3    3    0    0 -0.50540122070E+00 -0.10233099151E+02 -0.99334512065E+01  0.14270431020E+02  0.00000000000E+00 0. -1.
        -13    1    4    4    0    0 -0.17302266732E+03  0.31501180774E+01 -0.87422061737E+03  0.89118373778E+03  0.00000000000E+00 0.  1.
         13    1    4    4    0    0 -0.44470878906E+02  0.52406477418E+02 -0.39886595853E+03  0.40474455009E+03  0.00000000000E+00 0. -1.
         21    1    1    2  502  501 -0.27549064716E+02 -0.11202196587E+02 -0.15496168044E+03  0.15778961493E+03  0.00000000000E+00 0.  1.
<scales pt_clust_5="13000.00000" pt_clust_6="13000.00000" pt_clust_7="13000.00000" pt_clust_8="13000.00000" pt_clust_9="29.73954"></scales>
<clustering>
<clus scale="   29.740">  2  9  1 -1</clus>
<clus scale="   80.415">  5  6 -1 -1</clus>
<clus scale="   91.053">  7  8 -1 -1</clus>
<clus scale="  253.477">  1  5  2 -1</clus>
<clus scale="   29.740">  2  5  1 -1</clus>
</clustering>
</event>
<event>
 9    2  0.2984928E-005  0.9619888E+02  0.7546771E-02  0.1294924E+00
          2   -1    0    0  502    0  0.00000000000E+00  0.00000000000E+00  0.28158079101E+03  0.28158079101E+03  0.00000000000E+00 0. -1.
         -1   -1    0    0    0  501 -0.00000000000E+00 -0.00000000000E+00 -0.17516442238E+03  0.17516442238E+03  0.00000000000E+00 0.  1.
         23    2    1    2    0    0 -0.71622296810E+01  0.30057573953E+02 -0.14577215439E+03  0.17476682716E+03  0.91319042884E+02 0.  0.
         24    2    1    2    0    0 -0.25847756740E+02 -0.28524407671E+02  0.14602259878E+03  0.17078839895E+03  0.79776747853E+02 0.  0.
        -13    1    4    4    0    0  0.13043833491E+01  0.26831364574E+02  0.41492422730E+02  0.49429188592E+02  0.00000000000E+00 0.  1.
         14    1    4    4    0    0 -0.27152140089E+02 -0.55355772245E+02  0.10453017605E+03  0.12135921036E+03  0.00000000000E+00 0. -1.
        -11    1    3    3    0    0 -0.12202712930E+02  0.61392026794E+02 -0.11279482651E+03  0.12899829473E+03  0.00000000000E+00 0.  1.
         11    1    3    3    0    0  0.50404832489E+01 -0.31334452840E+02 -0.32977327882E+02  0.45768532426E+02  0.00000000000E+00 0. -1.
         21    1    1    2  502  501  0.33009986421E+02 -0.15331662827E+01  0.10616592424E+03  0.11118998728E+03  0.00000000000E+00 0.  1.
<scales pt_clust_5="13000.00000" pt_clust_6="13000.00000" pt_clust_7="13000.00000" pt_clust_8="13000.00000" pt_clust_9="33.04557"></scales>
<clustering>
<clus scale="   33.046">  1  9  2 -1</clus>
<clus scale="   79.777">  5  6 -1 -1</clus>
<clus scale="   85.319">  1  5  2 -1</clus>
<clus scale="   91.319">  7  8 -1 -1</clus>
<clus scale="   33.046">  1  5  2 -1</clus>
</clustering>
</event>
<event>
 9    2  0.2984928E-005  0.1035052E+03  0.7546771E-02  0.1279675E+00
         -1   -1    0    0    0  501 -0.00000000000E+00  0.00000000000E+00  0.27862264956E+03  0.27862264956E+03  0.00000000000E+00 0.  1.
          2   -1    0    0  502    0  0.00000000000E+00 -0.00000000000E+00 -0.16373444491E+03  0.16373444491E+03  0.00000000000E+00 0. -1.
         24    2    1    2    0    0  0.38805125704E+02  0.21948805392E+02  0.23654291917E+03  0.25339627229E+03  0.79180365996E+02 0.  0.
         23    2    1    2    0    0 -0.35514282007E+02 -0.52524159155E+02 -0.10518009970E+03  0.15407393577E+03  0.93036943146E+02 0.  0.
        -13    1    3    3    0    0  0.47535365767E+02  0.40289395904E+02  0.12121803600E+03  0.13629621665E+03  0.00000000000E+00 0.  1.
         14    1    3    3    0    0 -0.87302400633E+01 -0.18340590512E+02  0.11532488317E+03  0.11710005563E+03  0.00000000000E+00 0. -1.
        -13    1    4    4    0    0  0.22931790718E+02 -0.37890895042E+02 -0.17354618753E+02  0.47568579385E+02  0.00000000000E+00 0.  1.
         13    1    4    4    0    0 -0.58446072725E+02 -0.14633264113E+02 -0.87825480949E+02  0.10650535639E+03  0.00000000000E+00 0. -1.
         21    1    1    2  502  501 -0.32908436971E+01  0.30575353763E+02 -0.16474614824E+02  0.34886886413E+02  0.00000000000E+00 0. -1.
<scales pt_clust_5="13000.00000" pt_clust_6="13000.00000" pt_clust_7="13000.00000" pt_clust_8="13000.00000" pt_clust_9="30.75194"></scales>
<clustering>
<clus scale="   30.752">  2  9  1 -1</clus>
<clus scale="   79.180">  5  6 -1 -1</clus>
<clus scale="   91.252">  1  5  2 -1</clus>
<clus scale="   93.037">  7  8 -1 -1</clus>
<clus scale="   30.752">  2  5  1 -1</clus>
</clustering>
</event>
<event>
 9    2  0.2984928E-005  0.1335910E+03  0.7546771E-02  0.1224670E+00
         -1   -1    0    0    0  501 -0.00000000000E+00  0.00000000000E+00  0.95407868113E+02  0.95407868113E+02  0.00000000000E+00 0.  1.
          2   -1    0    0  502    0  0.00000000000E+00 -0.00000000000E+00 -0.24085163062E+03  0.24085163062E+03  0.00000000000E+00 0. -1.
         23    2    1    2    0    0  0.62473093983E+02 -0.62323963527E+02 -0.37711070110E+02  0.13199955525E+03  0.90634396754E+02 0.  0.
         24    2    1    2    0    0 -0.71866039259E+02  0.83473032585E+02 -0.55791404286E+02  0.14739688031E+03  0.80502700364E+02 0.  0.
        -11    1    4    4    0    0 -0.47959393422E+02  0.69577984053E+02  0.69182104746E+00  0.84508448682E+02  0.00000000000E+00 0.  1.
         12    1    4    4    0    0 -0.23906645838E+02  0.13895048532E+02 -0.56483225333E+02  0.62888431630E+02  0.00000000000E+00 0. -1.
        -11    1    3    3    0    0  0.92380067299E+01  0.17756349819E+02  0.12420230290E+02  0.23556121236E+02  0.00000000000E+00 0.  1.
         11    1    3    3    0    0  0.53235087253E+02 -0.80080313346E+02 -0.50131300400E+02  0.10844343401E+03  0.00000000000E+00 0. -1.
         21    1    1    2  502  501  0.93929452768E+01 -0.21149069057E+02 -0.51941288111E+02  0.56863063174E+02  0.00000000000E+00 0. -1.
<scales pt_clust_5="13000.00000" pt_clust_6="13000.00000" pt_clust_7="13000.00000" pt_clust_8="13000.00000" pt_clust_9="23.14110"></scales>
<clustering>
<clus scale="   23.141">  2  9  1 -1</clus>
<clus scale="   80.503">  5  6 -1 -1</clus>
<clus scale="   90.634">  7  8 -1 -1</clus>
<clus scale="  126.936">  2  5  1 -1</clus>
<clus scale="   23.141">  2  5  1 -1</clus>
</clustering>
</event>
<event>
 9    2  0.2984928E-005  0.3018161E+03  0.7546771E-02  0.1112962E+00
         -1   -1    0    0    0  501 -0.00000000000E+00  0.00000000000E+00  0.39134572286E+03  0.39134572286E+03  0.00000000000E+00 0.  1.
          2   -1    0    0  502    0  0.00000000000E+00 -0.00000000000E+00 -0.12005190423E+04  0.12005190423E+04  0.00000000000E+00 0. -1.
         24    2    1    2    0    0 -0.19893859615E+01 -0.11530028689E+03  0.83799599453E+02  0.16602067204E+03  0.85102155456E+02 0.  0.
         23    2    1    2    0    0 -0.10617836933E+03  0.36970893284E+03  0.87217830156E+02  0.40741494637E+03  0.10208549114E+03 0.  0.
        -13    1    3    3    0    0 -0.24953872578E+02 -0.64561465830E+02  0.85864461495E+02  0.11028864119E+03  0.00000000000E+00 0.  1.
         14    1    3    3    0    0  0.22964486616E+02 -0.50738821058E+02 -0.20648620421E+01  0.55732030854E+02  0.00000000000E+00 0. -1.
        -13    1    4    4    0    0 -0.87315955517E+01  0.12566678844E+03  0.69906569749E+02  0.14406703638E+03  0.00000000000E+00 0. -1.
         13    1    4    4    0    0 -0.97446773780E+02  0.24404214439E+03  0.17311260407E+02  0.26334790999E+03  0.00000000000E+00 0.  1.
         21    1    1    2  502  501  0.10816775529E+03 -0.25440864595E+03 -0.98019074905E+03  0.10184291467E+04  0.00000000000E+00 0. -1.
<scales pt_clust_5="13000.00000" pt_clust_6="13000.00000" pt_clust_7="13000.00000" pt_clust_8="13000.00000" pt_clust_9="284.02728"></scales>
<clustering>
<clus scale="   85.102">  5  6 -1 -1</clus>
<clus scale="  102.085">  7  8 -1 -1</clus>
<clus scale="  143.320">  1  5  2 -1</clus>
<clus scale="  284.027">  2  9  1 -1</clus>
<clus scale="  284.027">  2  5  1 -1</clus>
</clustering>
</event>
<event>
 9    2  0.2984928E-005  0.2793879E+03  0.7546771E-02  0.1096024E+00
          2   -1    0    0  502    0  0.00000000000E+00  0.00000000000E+00  0.20527506974E+04  0.20527506974E+04  0.00000000000E+00 0. -1.
         -1   -1    0    0    0  501 -0.00000000000E+00 -0.00000000000E+00 -0.39988308067E+02  0.39988308067E+02  0.00000000000E+00 0.  1.
         24    2    1    2    0    0 -0.12256189188E+03  0.81716263751E+02  0.37718716468E+03  0.41292991310E+03  0.80882574338E+02 0.  0.
         23    2    1    2    0    0 -0.38796359941E+02  0.48182713676E+02  0.18857707462E+03  0.21805881411E+03  0.90341584546E+02 0.  0.
        -11    1    3    3    0    0 -0.72339136895E+02  0.29368303055E+02  0.10263265235E+03  0.12895312823E+03  0.00000000000E+00 0.  1.
         12    1    3    3    0    0 -0.50222754989E+02  0.52347960696E+02  0.27455451233E+03  0.28397678487E+03  0.00000000000E+00 0. -1.
        -13    1    4    4    0    0 -0.28074823660E+02  0.73482866624E+02  0.11336021933E+03  0.13797995049E+03  0.00000000000E+00 0. -1.
         13    1    4    4    0    0 -0.10721536281E+02 -0.25300152948E+02  0.75216855287E+02  0.80078863620E+02  0.00000000000E+00 0.  1.
         21    1    1    2  502  501  0.16135825183E+03 -0.12989897743E+03  0.14469981500E+04  0.14617502782E+04  0.00000000000E+00 0.  1.
<scales pt_clust_5="13000.00000" pt_clust_6="13000.00000" pt_clust_7="13000.00000" pt_clust_8="13000.00000" pt_clust_9="207.14785"></scales>
<clustering>
<clus scale="   80.883">  5  6 -1 -1</clus>
<clus scale="   90.342">  7  8 -1 -1</clus>
<clus scale="   98.954">  5  7 -1 -1</clus>
<clus scale="  207.148">  1  9  2 -1</clus>
<clus scale="  207.148">  1  5  2 -1</clus>
</clustering>
</event>
<event>
 9    2  0.2984928E-005  0.2113026E+03  0.7546771E-02  0.1141850E+00
         -1   -1    0    0    0  501 -0.00000000000E+00  0.00000000000E+00  0.43266524921E+03  0.43266524921E+03  0.00000000000E+00 0.  1.
          2   -1    0    0  502    0  0.00000000000E+00 -0.00000000000E+00 -0.34249424739E+03  0.34249424739E+03  0.00000000000E+00 0. -1.
         23    2    1    2    0    0 -0.44629484236E+02  0.18165037626E+03  0.33438412596E+03  0.39400652508E+03  0.91868101405E+02 0.  0.
         24    2    1    2    0    0  0.89105379008E+02 -0.20484236913E+03 -0.22907073387E+03  0.32875768804E+03  0.75551648362E+02 0.  0.
        -11    1    4    4    0    0  0.35642595785E+02 -0.53896071236E+02 -0.11581272352E+03  0.13261888274E+03  0.00000000000E+00 0.  1.
         12    1    4    4    0    0  0.53462783223E+02 -0.15094629789E+03 -0.11325801035E+03  0.19613880530E+03  0.00000000000E+00 0. -1.
        -11    1    3    3    0    0 -0.48382619475E+02  0.11392581354E+03  0.28309227235E+03  0.30896796520E+03  0.00000000000E+00 0.  1.
         11    1    3    3    0    0  0.37531352393E+01  0.67724562718E+02  0.51291853609E+02  0.85038559878E+02  0.00000000000E+00 0. -1.
         21    1    1    2  502  501 -0.44475894772E+02  0.23191992867E+02 -0.15142390262E+02  0.52395283488E+02  0.00000000000E+00 0.  1.
<scales pt_clust_5="13000.00000" pt_clust_6="13000.00000" pt_clust_7="13000.00000" pt_clust_8="13000.00000" pt_clust_9="50.15948"></scales>
<clustering>
<clus scale="   50.159">  2  9  1 -1</clus>
<clus scale="   75.552">  5  6 -1 -1</clus>
<clus scale="   91.868">  7  8 -1 -1</clus>
<clus scale="  204.737">  2  5  1 -1</clus>
<clus scale="   50.159">  2  5  1 -1</clus>
</clustering>
</event>
<event>
 9    2  0.2984928E-005  0.9180926E+02  0.7546771E-02  0.1304385E+00
         -1   -1    0    0    0  501 -0.00000000000E+00  0.00000000000E+00  0.18930530683E+03  0.18930530683E+03  0.00000000000E+00 0.  1.
          2   -1    0    0  502    0  0.00000000000E+00 -0.00000000000E+00 -0.17365079312E+03  0.17365079312E+03  0.00000000000E+00 0. -1.
         23    2    1    2    0    0  0.28043066456E+02  0.19733054844E+02  0.13257358496E+03  0.16353528326E+03  0.89399252865E+02 0.  0.
         24    2    1    2    0    0  0.24399813182E+02  0.12904026204E+02 -0.23794827173E+02  0.87673067185E+02  0.79740254162E+02 0.  0.
        -11    1    4    4    0    0 -0.11890462130E+02 -0.27561068845E+02 -0.91516552003E+01  0.31380701051E+02  0.00000000000E+00 0.  1.
         12    1    4    4    0    0  0.36290275312E+02  0.40465095049E+02 -0.14643171973E+02  0.56292366134E+02  0.00000000000E+00 0. -1.
        -13    1    3    3    0    0  0.95133757505E+01 -0.25034988810E+02  0.10376690487E+03  0.10716727826E+03  0.00000000000E+00 0.  1.
         13    1    3    3    0    0  0.18529690705E+02  0.44768043653E+02  0.28806680086E+02  0.56368005001E+02  0.00000000000E+00 0. -1.
         21    1    1    2  502  501 -0.52442879638E+02 -0.32637081048E+02 -0.93124244079E+02  0.11174774950E+03  0.00000000000E+00 0. -1.
<scales pt_clust_5="13000.00000" pt_clust_6="13000.00000" pt_clust_7="13000.00000" pt_clust_8="13000.00000" pt_clust_9="61.76920"></scales>
<clustering>
<clus scale="   61.769">  2  9  1 -1</clus>
<clus scale="   79.740">  5  6 -1 -1</clus>
<clus scale="   82.433">  2  5  1 -1</clus>
<clus scale="   89.399">  7  8 -1 -1</clus>
<clus scale="   61.769">  2  5  1 -1</clus>
</clustering>
</event>
<event>
 9    2  0.2984928E-005  0.2426316E+03  0.7546771E-02  0.1118052E+00
          2   -1    0    0  502    0  0.00000000000E+00  0.00000000000E+00  0.22610043705E+03  0.22610043705E+03  0.00000000000E+00 0. -1.
         -1   -1    0    0    0  501 -0.00000000000E+00 -0.00000000000E+00 -0.27724587314E+03  0.27724587314E+03  0.00000000000E+00 0.  1.
         24    2    1    2    0    0 -0.99408624203E+02 -0.52360221614E+02 -0.13826781368E+03  0.19450533539E+03  0.78042743545E+02 0.  0.
         23    2    1    2    0    0 -0.26058316945E+02 -0.32059342566E+02 -0.43781742207E+02  0.10882971333E+03  0.90665474271E+02 0.  0.
        -11    1    3    3    0    0 -0.79209712741E+02 -0.21026608081E+01 -0.10266645762E+03  0.12968809234E+03  0.00000000000E+00 0.  1.
         12    1    3    3    0    0 -0.20198911463E+02 -0.50257560806E+02 -0.35601356059E+02  0.64817243043E+02  0.00000000000E+00 0. -1.
        -13    1    4    4    0    0  0.11797981035E+02  0.19781557985E+02 -0.37925137305E+02  0.44371369512E+02  0.00000000000E+00 0. -1.
         13    1    4    4    0    0 -0.37856297980E+02 -0.51840900550E+02 -0.58566049023E+01  0.64458343817E+02  0.00000000000E+00 0.  1.
         21    1    1    2  502  501  0.12546694115E+03  0.84419564180E+02  0.13090411980E+03  0.20001126148E+03  0.00000000000E+00 0. -1.
<scales pt_clust_5="13000.00000" pt_clust_6="13000.00000" pt_clust_7="13000.00000" pt_clust_8="13000.00000" pt_clust_9="151.22373"></scales>
<clustering>
<clus scale="   78.043">  5  6 -1 -1</clus>
<clus scale="   90.665">  7  8 -1 -1</clus>
<clus scale="   92.512">  5  7 -1 -1</clus>
<clus scale="  151.224">  1  9  2 -1</clus>
<clus scale="  151.224">  1  5  2 -1</clus>
</clustering>
</event>
<event>
 9    2  0.2984928E-005  0.1475464E+03  0.7546771E-02  0.1219671E+00
          2   -1    0    0  502    0  0.00000000000E+00  0.00000000000E+00  0.36614058517E+03  0.36614058517E+03  0.00000000000E+00 0. -1.
         -1   -1    0    0    0  501 -0.00000000000E+00 -0.00000000000E+00 -0.12192556498E+03  0.12192556498E+03  0.00000000000E+00 0.  1.
         24    2    1    2    0    0 -0.12839722305E+03 -0.17490680527E+02 -0.56206706482E+01  0.15325720019E+03  0.81635817385E+02 0.  0.
         23    2    1    2    0    0  0.15286491604E+02  0.41254038592E+02  0.14480244239E+03  0.17863367012E+03  0.94903468069E+02 0.  0.
        -13    1    3    3    0    0 -0.56506495617E+01 -0.23198355577E+02  0.15652918087E+02  0.28550085580E+02  0.00000000000E+00 0.  1.
         14    1    3    3    0    0 -0.12274657348E+03  0.57076750503E+01 -0.21273588736E+02  0.12470711461E+03  0.00000000000E+00 0. -1.
        -13    1    4    4    0    0  0.44108051212E+02  0.15411866629E+02  0.25543684011E+02  0.53249653591E+02  0.00000000000E+00 0.  1.
         13    1    4    4    0    0 -0.28821559608E+02  0.25842171963E+02  0.11925875838E+03  0.12538401653E+03  0.00000000000E+00 0. -1.
         21    1    1    2  502  501  0.11311073144E+03 -0.23763358065E+02  0.10503324845E+03  0.15617527984E+03  0.00000000000E+00 0.  1.
<scales pt_clust_5="13000.00000" pt_clust_6="13000.00000" pt_clust_7="13000.00000" pt_clust_8="13000.00000" pt_clust_9="122.90454"></scales>
<clustering>
<clus scale="   81.636">  5  6 -1 -1</clus>
<clus scale="   94.903">  7  8 -1 -1</clus>
<clus scale="  104.605">  1  7  2 -1</clus>
<clus scale="  122.905">  1  9  2 -1</clus>
<clus scale="  104.605">  1  5  2 -1</clus>
</clustering>
</event>
<event>
 9    2  0.2984928E-005  0.1302691E+03  0.7546771E-02  0.1231238E+00
          2   -1    0    0  502    0  0.00000000000E+00  0.00000000000E+00  0.65677797478E+03  0.65677797478E+03  0.00000000000E+00 0. -1.
         -1   -1    0    0    0  501 -0.00000000000E+00 -0.00000000000E+00 -0.61988053504E+02  0.61988053504E+02  0.00000000000E+00 0.  1.
         23    2    1    2    0    0 -0.74153748705E+02  0.48814326672E+02  0.27028363010E+02  0.13386191181E+03  0.96472079335E+02 0.  0.
         24    2    1    2    0    0  0.76730946819E+02 -0.27426575658E+02  0.51871210353E+03  0.53133241822E+03  0.81314433237E+02 0.  0.
        -11    1    4    4    0    0  0.38860471994E+02 -0.55549969066E+02  0.31920924344E+03  0.32632878581E+03  0.00000000000E+00 0.  1.
         12    1    4    4    0    0  0.37870474825E+02  0.28123393408E+02  0.19950286009E+03  0.20500363242E+03  0.00000000000E+00 0. -1.
        -11    1    3    3    0    0 -0.79581740742E+02  0.71414803330E+02  0.28220868117E+02  0.11058817745E+03  0.00000000000E+00 0.  1.
         11    1    3    3    0    0  0.54279920372E+01 -0.22600476658E+02 -0.11925051070E+01  0.23273734362E+02  0.00000000000E+00 0. -1.
         21    1    1    2  502  501 -0.25771981140E+01 -0.21387751014E+02  0.49049454730E+02  0.53571698245E+02  0.00000000000E+00 0. -1.
<scales pt_clust_5="13000.00000" pt_clust_6="13000.00000" pt_clust_7="13000.00000" pt_clust_8="13000.00000" pt_clust_9="21.54247"></scales>
<clustering>
<clus scale="   21.542">  1  9  2 -1</clus>
<clus scale="   81.314">  5  6 -1 -1</clus>
<clus scale="   96.472">  7  8 -1 -1</clus>
<clus scale="  119.479">  1  5  2 -1</clus>
<clus scale="   21.542">  1  5  2 -1</clus>
</clustering>
</event>
<event>
 9    2  0.2984928E-005  0.1206092E+03  0.7546771E-02  0.1256335E+00
          2   -1    0    0  502    0  0.00000000000E+00  0.00000000000E+00  0.27217485362E+03  0.27217485362E+03  0.00000000000E+00 0. -1.
         -1   -1    0    0    0  501 -0.00000000000E+00 -0.00000000000E+00 -0.12924522200E+03  0.12924522200E+03  0.00000000000E+00 0.  1.
         23    2    1    2    0    0 -0.47175247528E+02  0.31043656371E+02 -0.51227035325E+02  0.13665790860E+03  0.11341059146E+03 0.  0.
         24    2    1    2    0    0 -0.15792242678E+02  0.13284533231E+02  0.16010302170E+03  0.18056273727E+03  0.80895307528E+02 0.  0.
        -13    1    4    4    0    0  0.11624820477E+02  0.29484775548E+02  0.21378604839E+02  0.38230003729E+02  0.00000000000E+00 0.  1.
         14    1    4    4    0    0 -0.27417063155E+02 -0.16200242317E+02  0.13872441686E+03  0.14233273354E+03  0.00000000000E+00 0. -1.
        -13    1    3    3    0    0  0.24131709936E+02  0.82778252189E+01  0.20695971738E+02  0.32850952208E+02  0.00000000000E+00 0.  1.
         13    1    3    3    0    0 -0.71306957464E+02  0.22765831152E+02 -0.71923007062E+02  0.10380695639E+03  0.00000000000E+00 0. -1.
         21    1    1    2  502  501  0.62967490206E+02 -0.44328189602E+02  0.34053645239E+02  0.84199429750E+02  0.00000000000E+00 0.  1.
<scales pt_clust_5="13000.00000" pt_clust_6="13000.00000" pt_clust_7="13000.00000" pt_clust_8="13000.00000" pt_clust_9="77.00580"></scales>
<clustering>
<clus scale="   77.006">  1  9  2 -1</clus>
<clus scale="   80.895">  5  6 -1 -1</clus>
<clus scale="   90.712">  1  5  2 -1</clus>
<clus scale="  113.411">  7  8 -1 -1</clus>
<clus scale="   77.006">  1  5  2 -1</clus>
</clustering>
</event>
<event>
 9    2  0.2984928E-005  0.9729668E+02  0.7546771E-02  0.1294835E+00
          2   -1    0    0  502    0  0.00000000000E+00  0.00000000000E+00  0.61231563357E+03  0.61231563357E+03  0.00000000000E+00 0. -1.
         -1   -1    0    0    0  501 -0.00000000000E+00 -0.00000000000E+00 -0.31343364656E+02  0.31343364656E+02  0.00000000000E+00 0.  1.
         23    2    1    2    0    0  0.54608085994E+02 -0.32392292469E+01  0.12244272510E+03  0.16421728421E+03  0.94776367530E+02 0.  0.
         24    2    1    2    0    0 -0.15480812460E+02  0.29438909982E+01  0.40548205301E+03  0.41352459151E+03  0.79615139385E+02 0.  0.
        -11    1    4    4    0    0  0.26329842672E+02 -0.29394390603E+00  0.60220913621E+02  0.65725987672E+02  0.00000000000E+00 0.  1.
         12    1    4    4    0    0 -0.41810655131E+02  0.32378349042E+01  0.34526113939E+03  0.34779860383E+03  0.00000000000E+00 0. -1.
        -13    1    3    3    0    0  0.43117016482E+01  0.38600550867E+02  0.71235182590E+02  0.81135963278E+02  0.00000000000E+00 0. -1.
         13    1    3    3    0    0  0.50296384345E+02 -0.41839780114E+02  0.51207542506E+02  0.83081320932E+02  0.00000000000E+00 0.  1.
         21    1    1    2  502  501 -0.39127273534E+02  0.29533824869E+00  0.53047490806E+02  0.65917122507E+02  0.00000000000E+00 0.  1.
<scales pt_clust_5="13000.00000" pt_clust_6="13000.00000" pt_clust_7="13000.00000" pt_clust_8="13000.00000" pt_clust_9="39.12839"></scales>
<clustering>
<clus scale="   39.128">  2  9  1 -1</clus>
<clus scale="   79.615">  5  6 -1 -1</clus>
<clus scale="   82.599">  1  5  2 -1</clus>
<clus scale="   94.776">  7  8 -1 -1</clus>
<clus scale="   82.599">  1  5  2 -1</clus>
</clustering>
</event>
<event>
 9    2  0.2984928E-005  0.8972534E+02  0.7546771E-02  0.1303710E+00
          2   -1    0    0  502    0  0.00000000000E+00  0.00000000000E+00  0.58144317607E+03  0.58144317607E+03  0.00000000000E+00 0. -1.
         -1   -1    0    0    0  501 -0.00000000000E+00 -0.00000000000E+00 -0.22771827805E+02  0.22771827805E+02  0.00000000000E+00 0.  1.
         23    2    1    2    0    0  0.11470609470E+02 -0.40002096042E+02  0.13563253796E+03  0.16279414921E+03  0.79837379065E+02 0.  0.
         24    2    1    2    0    0  0.19308317632E+02  0.40698427639E+02  0.26767832709E+03  0.28303933120E+03  0.80189794024E+02 0.  0.
        -11    1    4    4    0    0  0.30489124046E+02 -0.11328466835E+02  0.15568217270E+03  0.15904357812E+03  0.00000000000E+00 0.  1.
         12    1    4    4    0    0 -0.11180806415E+02  0.52026894474E+02  0.11199615440E+03  0.12399575307E+03  0.00000000000E+00 0. -1.
        -13    1    3    3    0    0 -0.23713111275E+01 -0.62134948628E+02  0.79842835611E+02  0.10119907784E+03  0.00000000000E+00 0.  1.
         13    1    3    3    0    0  0.13841920598E+02  0.22132852587E+02  0.55789702344E+02  0.61595071370E+02  0.00000000000E+00 0. -1.
         21    1    1    2  502  501 -0.30778927102E+02 -0.69633159785E+00  0.15536048321E+03  0.15838152347E+03  0.00000000000E+00 0.  1.
<scales pt_clust_5="13000.00000" pt_clust_6="13000.00000" pt_clust_7="13000.00000" pt_clust_8="13000.00000" pt_clust_9="30.78680"></scales>
<clustering>
<clus scale="   30.787">  1  9  2 -1</clus>
<clus scale="   79.837">  7  8 -1 -1</clus>
<clus scale="   80.190">  5  6 -1 -1</clus>
<clus scale="   89.411">  2  7  1 -1</clus>
<clus scale="   30.787">  1  5  2 -1</clus>
</clustering>
</event>
<event>
 9    2  0.2984928E-005  0.1704812E+03  0.7546771E-02  0.1196094E+00
          2   -1    0    0  502    0  0.00000000000E+00  0.00000000000E+00  0.10889630966E+04  0.10889630966E+04  0.00000000000E+00 0. -1.
         -1   -1    0    0    0  501 -0.00000000000E+00 -0.00000000000E+00 -0.10584375544E+03  0.10584375544E+03  0.00000000000E+00 0.  1.
         24    2    1    2    0    0  0.74196209863E+02 -0.33873802993E+02  0.38205392707E+01  0.11246320962E+03  0.77336051819E+02 0.  0.
         23    2    1    2    0    0 -0.44612747182E+02  0.16725704160E+03  0.17131947154E+03  0.26289451778E+03  0.98984599663E+02 0.  0.
        -13    1    3    3    0    0  0.26987944083E+02  0.22699522170E+02 -0.11715929167E+02  0.37160199526E+02  0.00000000000E+00 0.  1.
         14    1    3    3    0    0  0.47208265780E+02 -0.56573325164E+02  0.15536468437E+02  0.75303010096E+02  0.00000000000E+00 0. -1.
        -13    1    4    4    0    0  0.16757740749E+02  0.97267868957E+02  0.52001317053E+02  0.11156162952E+03  0.00000000000E+00 0.  1.
         13    1    4    4    0    0 -0.61370487931E+02  0.69989172647E+02  0.11931815449E+03  0.15133288826E+03  0.00000000000E+00 0. -1.
         21    1    1    2  502  501 -0.29583462682E+02 -0.13338323861E+03  0.80797933031E+03  0.81944912460E+03  0.00000000000E+00 0. -1.
<scales pt_clust_5="13000.00000" pt_clust_6="13000.00000" pt_clust_7="13000.00000" pt_clust_8="13000.00000" pt_clust_9="138.80159"></scales>
<clustering>
<clus scale="   77.336">  5  6 -1 -1</clus>
<clus scale="   98.985">  7  8 -1 -1</clus>
<clus scale="  112.398">  2  5  1 -1</clus>
<clus scale="  138.802">  1  9  2 -1</clus>
<clus scale="  138.802">  1  5  2 -1</clus>
</clustering>
</event>
<event>
 9    2  0.2984928E-005  0.1178477E+03  0.7546771E-02  0.1247555E+00
          2   -1    0    0  502    0  0.00000000000E+00  0.00000000000E+00  0.23755818282E+03  0.23755818282E+03  0.00000000000E+00 0. -1.
         -1   -1    0    0    0  501 -0.00000000000E+00 -0.00000000000E+00 -0.42725980326E+03  0.42725980326E+03  0.00000000000E+00 0.  1.
         24    2    1    2    0    0 -0.58445700845E+02 -0.53343651986E+02 -0.38691996405E+03  0.40390534212E+03  0.84681885059E+02 0.  0.
         23    2    1    2    0    0  0.72476416618E+02  0.33180755341E+02  0.20364597138E+03  0.23552135047E+03  0.87434726389E+02 0.  0.
        -13    1    3    3    0    0  0.78886309577E+01 -0.45002332951E+02 -0.20656439388E+03  0.21155682283E+03  0.00000000000E+00 0.  1.
         14    1    3    3    0    0 -0.66334331803E+02 -0.83413190346E+01 -0.18035557017E+03  0.19234851929E+03  0.00000000000E+00 0. -1.
        -11    1    4    4    0    0  0.21991762510E+02 -0.26356596726E+02  0.10027561081E+03  0.10598823487E+03  0.00000000000E+00 0.  1.
         11    1    4    4    0    0  0.50484654108E+02  0.59537352067E+02  0.10337036057E+03  0.12953311560E+03  0.00000000000E+00 0. -1.
         21    1    1    2  502  501 -0.14030715773E+02  0.20162896645E+02 -0.64276277699E+01  0.25391293487E+02  0.00000000000E+00 0.  1.
<scales pt_clust_5="13000.00000" pt_clust_6="13000.00000" pt_clust_7="13000.00000" pt_clust_8="13000.00000" pt_clust_9="24.56427"></scales>
<clustering>
<clus scale="   24.564">  1  9  2 -1</clus>
<clus scale="   84.682">  5  6 -1 -1</clus>
<clus scale="   87.435">  7  8 -1 -1</clus>
<clus scale="  115.820">  2  5  1 -1</clus>
<clus scale="   24.564">  1  5  2 -1</clus>
</clustering>
</event>
<event>
 9    2  0.2984928E-005  0.2116616E+03  0.7546771E-02  0.1171114E+00
          2   -1    0    0  502    0  0.00000000000E+00  0.00000000000E+00  0.79608840180E+03  0.79608840180E+03  0.00000000000E+00 0. -1.
         -1   -1    0    0    0  501 -0.00000000000E+00 -0.00000000000E+00 -0.13829511160E+03  0.13829511160E+03  0.00000000000E+00 0.  1.
         23    2    1    2    0    0 -0.17663385942E+03 -0.92706269942E+02 -0.69457933939E+01  0.21971025315E+03  0.91817092716E+02 0.  0.
         24    2    1    2    0    0  0.61601706117E+02 -0.14400076770E+02  0.21442128290E+03  0.23771384120E+03  0.80803782912E+02 0.  0.
        -13    1    4    4    0    0  0.19421376758E+02 -0.36690061220E+02  0.16020368270E+03  0.16549492566E+03  0.00000000000E+00 0.  1.
         14    1    4    4    0    0  0.42180329359E+02  0.22289984450E+02  0.54217600198E+02  0.72218915548E+02  0.00000000000E+00 0. -1.
        -11    1    3    3    0    0 -0.25051402512E+02 -0.39995189634E+02  0.28806662675E+02  0.55290250281E+02  0.00000000000E+00 0. -1.
         11    1    3    3    0    0 -0.15158245691E+03 -0.52711080308E+02 -0.35752456069E+02  0.16442000287E+03  0.00000000000E+00 0.  1.
         21    1    1    2  502  501  0.11503215330E+03  0.10710634671E+03  0.45031780069E+03  0.47695941904E+03  0.00000000000E+00 0. -1.
<scales pt_clust_5="13000.00000" pt_clust_6="13000.00000" pt_clust_7="13000.00000" pt_clust_8="13000.00000" pt_clust_9="190.70990"></scales>
<clustering>
<clus scale="   80.804">  5  6 -1 -1</clus>
<clus scale="   91.817">  7  8 -1 -1</clus>
<clus scale="  102.623">  1  5  2 -1</clus>
<clus scale="  190.710">  1  9  2 -1</clus>
<clus scale="  102.623">  1  5  2 -1</clus>
</clustering>
</event>
<event>
 9    2  0.2984928E-005  0.1292876E+03  0.7546771E-02  0.1231312E+00
          2   -1    0    0  502    0  0.00000000000E+00  0.00000000000E+00  0.10927909405E+03  0.10927909405E+03  0.00000000000E+00 0. -1.
         -1   -1    0    0    0  501 -0.00000000000E+00 -0.00000000000E+00 -0.28069335508E+03  0.28069335508E+03  0.00000000000E+00 0.  1.
         23    2    1    2    0    0  0.28506342756E+01  0.87937243051E+02 -0.15435575397E+03  0.19971116301E+03  0.91201781875E+02 0.  0.
         24    2    1    2    0    0 -0.52824133902E+02 -0.97504086908E+02 -0.16433417586E+01  0.13709642472E+03  0.80593380704E+02 0.  0.
        -13    1    4    4    0    0 -0.19943053135E+02 -0.63890186752E+02 -0.38623405928E+02  0.77275150061E+02  0.00000000000E+00 0.  1.
         14    1    4    4    0    0 -0.32881080767E+02 -0.33613900156E+02  0.36980064169E+02  0.59821274661E+02  0.00000000000E+00 0. -1.
        -13    1    3    3    0    0 -0.23290468104E+02  0.84259938424E+02 -0.72078451160E+02  0.11330263125E+03  0.00000000000E+00 0.  1.
         13    1    3    3    0    0  0.26141102379E+02  0.36773046274E+01 -0.82277302809E+02  0.86408531757E+02  0.00000000000E+00 0. -1.
         21    1    1    2  502  501  0.49973499627E+02  0.95668438565E+01 -0.15415165299E+02  0.53164861399E+02  0.00000000000E+00 0.  1.
<scales pt_clust_5="13000.00000" pt_clust_6="13000.00000" pt_clust_7="13000.00000" pt_clust_8="13000.00000" pt_clust_9="50.88099"></scales>
<clustering>
<clus scale="   50.881">  1  9  2 -1</clus>
<clus scale="   80.593">  5  6 -1 -1</clus>
<clus scale="   91.202">  7  8 -1 -1</clus>
<clus scale="  122.036">  1  5  2 -1</clus>
<clus scale="   50.881">  1  5  2 -1</clus>
</clustering>
</event>
<event>
 9    2  0.2984928E-005  0.9198796E+02  0.7546771E-02  0.1305443E+00
         -1   -1    0    0    0  501 -0.00000000000E+00  0.00000000000E+00  0.94618420634E+02  0.94618420634E+02  0.00000000000E+00 0.  1.
          2   -1    0    0  502    0  0.00000000000E+00 -0.00000000000E+00 -0.28435410157E+03  0.28435410157E+03  0.00000000000E+00 0. -1.
         24    2    1    2    0    0 -0.56062506299E+02  0.37243169413E+02  0.76624153552E+01  0.10462436119E+03  0.79733845160E+02 0.  0.
         23    2    1    2    0    0 -0.12738370972E+02 -0.44858214505E+01 -0.16977049934E+03  0.19329331124E+03  0.91421512975E+02 0.  0.
        -13    1    3    3    0    0 -0.56463765517E+02  0.19575336494E+02 -0.27107217116E+02  0.65621275780E+02  0.00000000000E+00 0.  1.
         14    1    3    3    0    0  0.40125921719E+00  0.17667832920E+02  0.34769632471E+02  0.39003085406E+02  0.00000000000E+00 0. -1.
        -11    1    4    4    0    0 -0.74617388887E+01 -0.47507453758E+02 -0.75180933246E+02  0.89245775438E+02  0.00000000000E+00 0. -1.
         11    1    4    4    0    0 -0.52766320838E+01  0.43021632307E+02 -0.94589566095E+02  0.10404753580E+03  0.00000000000E+00 0.  1.
         21    1    1    2  502  501  0.68800877272E+02 -0.32757347963E+02 -0.27627596947E+02  0.81054849775E+02  0.00000000000E+00 0. -1.
<scales pt_clust_5="13000.00000" pt_clust_6="13000.00000" pt_clust_7="13000.00000" pt_clust_8="13000.00000" pt_clust_9="76.20108"></scales>
<clustering>
<clus scale="   76.201">  1  9  2 -1</clus>
<clus scale="   79.734">  5  6 -1 -1</clus>
<clus scale="   80.383">  1  5  2 -1</clus>
<clus scale="   91.422">  7  8 -1 -1</clus>
<clus scale="   91.988">  2  5  1 -1</clus>
</clustering>
</event>
<event>
 9    2  0.2984928E-005  0.1212168E+03  0.7546771E-02  0.1245128E+00
         -1   -1    0    0    0  501 -0.00000000000E+00  0.00000000000E+00  0.97179168369E+02  0.97179168369E+02  0.00000000000E+00 0.  1.
          2   -1    0    0  502    0  0.00000000000E+00 -0.00000000000E+00 -0.19762415783E+03  0.19762415783E+03  0.00000000000E+00 0. -1.
         23    2    1    2    0    0 -0.47052225991E+02  0.64766896971E+02  0.62088485001E+01  0.12214274765E+03  0.92041501990E+02 0.  0.
         24    2    1    2    0    0  0.63320680791E+02 -0.47150439112E+02 -0.88392169186E+02  0.14251939816E+03  0.79157632319E+02 0.  0.
        -11    1    4    4    0    0  0.53066357308E+02  0.52127142821E+01 -0.22869243775E+02  0.58019074269E+02  0.00000000000E+00 0.  1.
         12    1    4    4    0    0  0.10254323483E+02 -0.52363153394E+02 -0.65522925411E+02  0.84500323892E+02  0.00000000000E+00 0. -1.
        -13    1    3    3    0    0 -0.39317470680E+02  0.22638403153E+02  0.45329464008E+02  0.64133619150E+02  0.00000000000E+00 0.  1.
         13    1    3    3    0    0 -0.77347553105E+01  0.42128493818E+02 -0.39120615508E+02  0.58009128495E+02  0.00000000000E+00 0. -1.
         21    1    1    2  502  501 -0.16268454800E+02 -0.17616457860E+02 -0.18261668778E+02  0.30141180396E+02  0.00000000000E+00 0. -1.
<scales pt_clust_5="13000.00000" pt_clust_6="13000.00000" pt_clust_7="13000.00000" pt_clust_8="13000.00000" pt_clust_9="23.97920"></scales>
<clustering>
<clus scale="   23.979">  2  9  1 -1</clus>
<clus scale="   79.158">  5  6 -1 -1</clus>
<clus scale="   92.042">  7  8 -1 -1</clus>
<clus scale="  111.749">  2  5  1 -1</clus>
<clus scale="   23.979">  2  5  1 -1</clus>
</clustering>
</event>
<event>
 9    2  0.2984928E-005  0.1381066E+03  0.7546771E-02  0.1218392E+00
         -1   -1    0    0    0  501 -0.00000000000E+00  0.00000000000E+00  0.64785628340E+02  0.64785628340E+02  0.00000000000E+00 0.  1.
          2   -1    0    0  502    0  0.00000000000E+00 -0.00000000000E+00 -0.88449938724E+03  0.88449938724E+03  0.00000000000E+00 0. -1.
         23    2    1    2    0    0  0.28451283076E+01  0.10143344837E+03 -0.30256351901E+02  0.14016756693E+03  0.91840409319E+02 0.  0.
         24    2    1    2    0    0  0.11791618597E+02 -0.11827549549E+03 -0.75121380618E+03  0.76484034492E+03  0.80811110163E+02 0.  0.
        -13    1    4    4    0    0  0.42811737111E+02 -0.38237354437E+02 -0.33247955319E+03  0.33739827119E+03  0.00000000000E+00 0.  1.
         14    1    4    4    0    0 -0.31020118513E+02 -0.80038141056E+02 -0.41873425298E+03  0.42744207373E+03  0.00000000000E+00 0. -1.
        -13    1    3    3    0    0  0.33500503194E+02  0.10073926248E+03 -0.24818819645E+02  0.10902594429E+03  0.00000000000E+00 0. -1.
         13    1    3    3    0    0 -0.30655374887E+02  0.69418589183E+00 -0.54375322563E+01  0.31141622638E+02  0.00000000000E+00 0.  1.
         21    1    1    2  502  501 -0.14636746905E+02  0.16842047121E+02 -0.38243600824E+02  0.44277103735E+02  0.00000000000E+00 0.  1.
<scales pt_clust_5="13000.00000" pt_clust_6="13000.00000" pt_clust_7="13000.00000" pt_clust_8="13000.00000" pt_clust_9="22.31342"></scales>
<clustering>
<clus scale="   22.313">  2  9  1 -1</clus>
<clus scale="   80.811">  5  6 -1 -1</clus>
<clus scale="   91.840">  7  8 -1 -1</clus>
<clus scale="  131.031">  2  5  1 -1</clus>
<clus scale="   22.313">  2  5  1 -1</clus>
</clustering>
</event>
<event>
 9    2  0.2984928E-005  0.1219869E+03  0.7546771E-02  0.1244116E+00
         -1   -1    0    0    0  501 -0.00000000000E+00  0.00000000000E+00  0.43885189286E+02  0.43885189286E+02  0.00000000000E+00 0.  1.
          2   -1    0    0  502    0  0.00000000000E+00 -0.00000000000E+00 -0.48416270953E+03  0.48416270953E+03  0.00000000000E+00 0. -1.
         23    2    1    2    0    0 -0.70647562769E+01 -0.48845823233E+02 -0.10005838014E+03  0.14581467276E+03  0.93885111315E+02 0.  0.
         24    2    1    2    0    0  0.26171645891E+02  0.90560805625E+02 -0.28277582786E+03  0.30871488067E+03  0.80352312733E+02 0.  0.
        -13    1    4    4    0    0 -0.44020523824E+01  0.60879695850E+02 -0.75415829871E+02  0.97021970847E+02  0.00000000000E+00 0.  1.
         14    1    4    4    0    0  0.30573698273E+02  0.29681109775E+02 -0.20735999799E+03  0.21169290982E+03  0.00000000000E+00 0. -1.
        -11    1    3    3    0    0 -0.25193712854E+02 -0.25690501674E+01  0.82605279054E+01  0.26637558210E+02  0.00000000000E+00 0.  1.
         11    1    3    3    0    0  0.18128956577E+02 -0.46276773066E+02 -0.10831890804E+03  0.11917711455E+03  0.00000000000E+00 0. -1.
         21    1    1    2  502  501 -0.19106889614E+02 -0.41714982392E+02 -0.57443312244E+02  0.73518345385E+02  0.00000000000E+00 0.  1.
<scales pt_clust_5="13000.00000" pt_clust_6="13000.00000" pt_clust_7="13000.00000" pt_clust_8="13000.00000" pt_clust_9="45.88260"></scales>
<clustering>
<clus scale="   45.883">  1  9  2 -1</clus>
<clus scale="   80.352">  5  6 -1 -1</clus>
<clus scale="   93.885">  7  8 -1 -1</clus>
<clus scale="  111.906">  2  5  1 -1</clus>
<clus scale="  111.906">  2  5  1 -1</clus>
</clustering>
</event>
<event>
 9    2  0.2984928E-005  0.1198080E+03  0.7546771E-02  0.1246519E+00
         -1   -1    0    0    0  501 -0.00000000000E+00  0.00000000000E+00  0.41150370651E+02  0.41150370651E+02  0.00000000000E+00 0.  1.
          2   -1    0    0  502    0  0.00000000000E+00 -0.00000000000E+00 -0.39175882158E+03  0.39175882158E+03  0.00000000000E+00 0. -1.
         24    2    1    2    0    0  0.55423465565E+02  0.60616916419E+02 -0.15160621531E+03  0.19002241457E+03  0.79861770752E+02 0.  0.
         23    2    1    2    0    0 -0.65070953407E+02 -0.42616481391E+02 -0.17131029099E+03  0.20847844320E+03  0.89808975144E+02 0.  0.
        -11    1    3    3    0    0 -0.16610344207E+02  0.19337197792E+02 -0.13407125165E+02  0.28802460977E+02  0.00000000000E+00 0.  1.
         12    1    3    3    0    0  0.72033809772E+02  0.41279718626E+02 -0.13819909015E+03  0.16121995360E+03  0.00000000000E+00 0. -1.
        -11    1    4    4    0    0 -0.27697323997E+02  0.58315682079E+01 -0.13368298331E+03  0.13664658419E+03  0.00000000000E+00 0. -1.
         11    1    4    4    0    0 -0.37373629410E+02 -0.48448049599E+02 -0.37627307677E+02  0.71831859006E+02  0.00000000000E+00 0.  1.
         21    1    1    2  502  501  0.96474878424E+01 -0.18000435028E+02 -0.27691944624E+02  0.34408334454E+02  0.00000000000E+00 0. -1.
<scales pt_clust_5="13000.00000" pt_clust_6="13000.00000" pt_clust_7="13000.00000" pt_clust_8="13000.00000" pt_clust_9="20.42277"></scales>
<clustering>
<clus scale="   20.423">  1  9  2 -1</clus>
<clus scale="   79.862">  5  6 -1 -1</clus>
<clus scale="   89.809">  7  8 -1 -1</clus>
<clus scale="  112.544">  1  5  2 -1</clus>
<clus scale="  119.808">  2  5  1 -1</clus>
</clustering>
</event>
<event>
 9    2  0.2984928E-005  0.9502491E+02  0.7546771E-02  0.1296405E+00
          2   -1    0    0  502    0  0.00000000000E+00  0.00000000000E+00  0.68853927156E+02  0.68853927156E+02  0.00000000000E+00 0. -1.
         -1   -1    0    0    0  501 -0.00000000000E+00 -0.00000000000E+00 -0.30962372700E+03  0.30962372700E+03  0.00000000000E+00 0.  1.
         24    2    1    2    0    0  0.16269647353E+02  0.28616960376E+02 -0.24465273437E+03  0.25983374968E+03  0.81086282400E+02 0.  0.
         23    2    1    2    0    0 -0.32078618945E+01 -0.64843164872E+01 -0.63132241673E+01  0.90995652873E+02  0.90487652772E+02 0.  0.
        -13    1    3    3    0    0  0.12044644441E+02  0.57214275268E+02 -0.17043205015E+03  0.18018221464E+03  0.00000000000E+00 0.  1.
         14    1    3    3    0    0  0.42250029117E+01 -0.28597314892E+02 -0.74220684214E+02  0.79651535037E+02  0.00000000000E+00 0. -1.
        -11    1    4    4    0    0 -0.27881629885E+01  0.36448973622E+02  0.18954098829E+02  0.41177170779E+02  0.00000000000E+00 0. -1.
         11    1    4    4    0    0 -0.41969890595E+00 -0.42933290109E+02 -0.25267322996E+02  0.49818482094E+02  0.00000000000E+00 0.  1.
         21    1    1    2  502  501 -0.13061785458E+02 -0.22132643889E+02  0.10196158687E+02  0.27648251606E+02  0.00000000000E+00 0. -1.
<scales pt_clust_5="13000.00000" pt_clust_6="13000.00000" pt_clust_7="13000.00000" pt_clust_8="13000.00000" pt_clust_9="25.69950"></scales>
<clustering>
<clus scale="   25.699">  1  9  2 -1</clus>
<clus scale="   81.086">  5  6 -1 -1</clus>
<clus scale="   86.120">  2  5  1 -1</clus>
<clus scale="   90.488">  7  8 -1 -1</clus>
<clus scale="   25.699">  1  5  2 -1</clus>
</clustering>
</event>
<event>
 9    2  0.2984928E-005  0.9482698E+02  0.7546771E-02  0.1298128E+00
         -1   -1    0    0    0  501 -0.00000000000E+00  0.00000000000E+00  0.89299759685E+02  0.89299759685E+02  0.00000000000E+00 0.  1.
          2   -1    0    0  502    0  0.00000000000E+00 -0.00000000000E+00 -0.27819780485E+03  0.27819780485E+03  0.00000000000E+00 0. -1.
         23    2    1    2    0    0  0.55619655114E+01 -0.36667726832E+01  0.44945282358E+02  0.10224239538E+03  0.91591748128E+02 0.  0.
         24    2    1    2    0    0 -0.59441469659E+01  0.25928918650E+02 -0.22656462650E+03  0.24183021036E+03  0.80266300249E+02 0.  0.
        -11    1    4    4    0    0  0.15569593713E+02  0.49511018759E+02 -0.12433677571E+03  0.13473450568E+03  0.00000000000E+00 0.  1.
         12    1    4    4    0    0 -0.21513740679E+02 -0.23582100108E+02 -0.10222785079E+03  0.10709570468E+03  0.00000000000E+00 0. -1.
        -11    1    3    3    0    0 -0.23588328861E+02 -0.34932667678E+02  0.28484374728E+01  0.42247060555E+02  0.00000000000E+00 0.  1.
         11    1    3    3    0    0  0.29150294373E+02  0.31265894994E+02  0.42096844885E+02  0.59995334828E+02  0.00000000000E+00 0. -1.
         21    1    1    2  502  501  0.38218145446E+00 -0.22262145967E+02 -0.72787010203E+01  0.23424958789E+02  0.00000000000E+00 0.  1.
<scales pt_clust_5="13000.00000" pt_clust_6="13000.00000" pt_clust_7="13000.00000" pt_clust_8="13000.00000" pt_clust_9="22.26543"></scales>
<clustering>
<clus scale="   22.265">  1  9  2 -1</clus>
<clus scale="   80.266">  5  6 -1 -1</clus>
<clus scale="   83.939">  2  5  1 -1</clus>
<clus scale="   91.592">  7  8 -1 -1</clus>
<clus scale="   83.939">  2  5  1 -1</clus>
</clustering>
</event>
<event>
 9    2  0.2984928E-005  0.1490473E+03  0.7546771E-02  0.1203229E+00
          2   -1    0    0  502    0  0.00000000000E+00  0.00000000000E+00  0.13130948947E+04  0.13130948947E+04  0.00000000000E+00 0. -1.
         -1   -1    0    0    0  501 -0.00000000000E+00 -0.00000000000E+00 -0.49122158582E+02  0.49122158582E+02  0.00000000000E+00 0.  1.
         23    2    1    2    0    0  0.11169435184E+03  0.51521292615E+02  0.22574773938E+03  0.27337845961E+03  0.92971331695E+02 0.  0.
         24    2    1    2    0    0 -0.11591454000E+03  0.10003604652E+03  0.63276306394E+03  0.65595660516E+03  0.80290607023E+02 0.  0.
        -13    1    4    4    0    0 -0.11271311272E+03  0.81864714278E+02  0.61413862660E+03  0.62973989068E+03  0.00000000000E+00 0.  1.
         14    1    4    4    0    0 -0.32014272734E+01  0.18171332243E+02  0.18624437340E+02  0.26216714483E+02  0.00000000000E+00 0. -1.
        -13    1    3    3    0    0  0.11491188190E+03  0.14081673172E+02  0.15753728909E+03  0.19550199890E+03  0.00000000000E+00 0. -1.
         13    1    3    3    0    0 -0.32175300553E+01  0.37439619442E+02  0.68210450291E+02  0.77876460709E+02  0.00000000000E+00 0.  1.
         21    1    1    2  502  501  0.42201881545E+01 -0.15155733914E+03  0.40546193284E+03  0.43288198855E+03  0.00000000000E+00 0. -1.
<scales pt_clust_5="13000.00000" pt_clust_6="13000.00000" pt_clust_7="13000.00000" pt_clust_8="13000.00000" pt_clust_9="151.61608"></scales>
<clustering>
<clus scale="   80.291">  5  6 -1 -1</clus>
<clus scale="   92.971">  7  8 -1 -1</clus>
<clus scale="  151.616">  1  9  2 -1</clus>
<clus scale="  151.616">  1  5  2 -1</clus>
<clus scale="  149.047">  1  5  2 -1</clus>
</clustering>
</event>
<event>
 9    2  0.2984928E-005  0.1896487E+03  0.7546771E-02  0.1159913E+00
          2   -1    0    0  502    0  0.00000000000E+00  0.00000000000E+00  0.49809356180E+03  0.49809356180E+03  0.00000000000E+00 0. -1.
         -1   -1    0    0    0  501 -0.00000000000E+00 -0.00000000000E+00 -0.16827364496E+03  0.16827364496E+03  0.00000000000E+00 0.  1.
         23    2    1    2    0    0  0.36894245839E+02  0.16018865588E+03 -0.75269990396E+02  0.20240823141E+03  0.91005108870E+02 0.  0.
         24    2    1    2    0    0 -0.19106171029E+02 -0.17727056046E+03  0.31657942418E+03  0.37207691682E+03  0.80179815656E+02 0.  0.
        -11    1    4    4    0    0  0.23882118257E+02 -0.10852525801E+03  0.14859884704E+03  0.18555243071E+03  0.00000000000E+00 0.  1.
         12    1    4    4    0    0 -0.42988289285E+02 -0.68745302453E+02  0.16798057714E+03  0.18652448612E+03  0.00000000000E+00 0. -1.
        -13    1    3    3    0    0  0.65367220845E+02  0.12852401600E+03 -0.48598041876E+02  0.15216131546E+03  0.00000000000E+00 0.  1.
         13    1    3    3    0    0 -0.28472975006E+02  0.31664639883E+02 -0.26671948520E+02  0.50246915949E+02  0.00000000000E+00 0. -1.
         21    1    1    2  502  501 -0.17788074811E+02  0.17081904580E+02  0.88510483049E+02  0.91882058527E+02  0.00000000000E+00 0. -1.
<scales pt_clust_5="13000.00000" pt_clust_6="13000.00000" pt_clust_7="13000.00000" pt_clust_8="13000.00000" pt_clust_9="24.66185"></scales>
<clustering>
<clus scale="   24.662">  1  9  2 -1</clus>
<clus scale="   80.180">  5  6 -1 -1</clus>
<clus scale="   91.005">  7  8 -1 -1</clus>
<clus scale="  184.698">  1  5  2 -1</clus>
<clus scale="   24.662">  1  5  2 -1</clus>
</clustering>
</event>
<event>
 9    2  0.2984928E-005  0.1325171E+03  0.7546771E-02  0.1238388E+00
          2   -1    0    0  502    0  0.00000000000E+00  0.00000000000E+00  0.26438831640E+03  0.26438831640E+03  0.00000000000E+00 0. -1.
         -1   -1    0    0    0  501 -0.00000000000E+00 -0.00000000000E+00 -0.12813606679E+03  0.12813606679E+03  0.00000000000E+00 0.  1.
         24    2    1    2    0    0 -0.41216035598E+02 -0.42153881493E+02 -0.49155506038E+02  0.11107731904E+03  0.80288204083E+02 0.  0.
         23    2    1    2    0    0 -0.20833124725E+02  0.70068372815E+02  0.14688573021E+03  0.20325970223E+03  0.11998121876E+03 0.  0.
        -13    1    3    3    0    0  0.21741972285E+02 -0.26390480216E+02 -0.22401247818E+02  0.40877704298E+02  0.00000000000E+00 0.  1.
         14    1    3    3    0    0 -0.62958007883E+02 -0.15763401277E+02 -0.26754258220E+02  0.70199614738E+02  0.00000000000E+00 0. -1.
        -11    1    4    4    0    0  0.85310956314E+01  0.63849592336E+02  0.15848871886E+03  0.17107958393E+03  0.00000000000E+00 0. -1.
         11    1    4    4    0    0 -0.29364220356E+02  0.62187804792E+01 -0.11602988644E+02  0.32180118292E+02  0.00000000000E+00 0.  1.
         21    1    1    2  502  501  0.62049160323E+02 -0.27914491322E+02  0.38522025429E+02  0.78187361931E+02  0.00000000000E+00 0.  1.
<scales pt_clust_5="13000.00000" pt_clust_6="13000.00000" pt_clust_7="13000.00000" pt_clust_8="13000.00000" pt_clust_9="68.03909"></scales>
<clustering>
<clus scale="   68.039">  1  9  2 -1</clus>
<clus scale="   80.288">  5  6 -1 -1</clus>
<clus scale="   98.038">  2  5  1 -1</clus>
<clus scale="  119.981">  7  8 -1 -1</clus>
<clus scale="   68.039">  1  5  2 -1</clus>
</clustering>
</event>
<event>
 9    2  0.2984928E-005  0.1092101E+03  0.7546771E-02  0.1272157E+00
          2   -1    0    0  502    0  0.00000000000E+00  0.00000000000E+00  0.41874533511E+03  0.41874533511E+03  0.00000000000E+00 0. -1.
         -1   -1    0    0    0  501 -0.00000000000E+00 -0.00000000000E+00 -0.58260999414E+02  0.58260999414E+02  0.00000000000E+00 0.  1.
         23    2    1    2    0    0  0.37178092536E+01  0.51015149127E+02  0.21398308334E+02  0.11512283583E+03  0.10089109071E+03 0.  0.
         24    2    1    2    0    0  0.16472198069E+02 -0.11301319279E+02  0.21836220062E+03  0.23320146024E+03  0.79383986242E+02 0.  0.
        -11    1    4    4    0    0 -0.69627298025E+01 -0.38163893812E+02  0.64534255014E+02  0.75296961873E+02  0.00000000000E+00 0.  1.
         12    1    4    4    0    0  0.23434927871E+02  0.26862574532E+02  0.15382794561E+03  0.15790449837E+03  0.00000000000E+00 0. -1.
        -11    1    3    3    0    0  0.24270191525E+02 -0.82533929628E+01  0.41905855488E+02  0.49124957163E+02  0.00000000000E+00 0.  1.
         11    1    3    3    0    0 -0.20552382271E+02  0.59268542090E+02 -0.20507547155E+02  0.65997878669E+02  0.00000000000E+00 0. -1.
         21    1    1    2  502  501 -0.20190007322E+02 -0.39713829847E+02  0.12072382674E+03  0.12868203845E+03  0.00000000000E+00 0. -1.
<scales pt_clust_5="13000.00000" pt_clust_6="13000.00000" pt_clust_7="13000.00000" pt_clust_8="13000.00000" pt_clust_9="44.55137"></scales>
<clustering>
<clus scale="   44.551">  1  9  2 -1</clus>
<clus scale="   79.384">  5  6 -1 -1</clus>
<clus scale="   89.720">  1  5  2 -1</clus>
<clus scale="  100.891">  7  8 -1 -1</clus>
<clus scale="   44.551">  1  5  2 -1</clus>
</clustering>
</event>
<event>
 9    2  0.2984928E-005  0.9268580E+02  0.7546771E-02  0.1301938E+00
         -1   -1    0    0    0  501 -0.00000000000E+00  0.00000000000E+00  0.20748322696E+02  0.20748322696E+02  0.00000000000E+00 0.  1.
          2   -1    0    0  502    0  0.00000000000E+00 -0.00000000000E+00 -0.56880604904E+03  0.56880604904E+03  0.00000000000E+00 0. -1.
         24    2    1    2    0    0 -0.13860336898E+02 -0.15979309608E+00 -0.13323287470E+03  0.15656194996E+03  0.81046349695E+02 0.  0.
         23    2    1    2    0    0  0.36998237104E+02  0.11504133594E+02 -0.31931489585E+03  0.33406715634E+03  0.90208910845E+02 0.  0.
        -13    1    3    3    0    0  0.17240247774E+02  0.26271867040E+02 -0.22787841974E+02  0.38816528476E+02  0.00000000000E+00 0.  1.
         14    1    3    3    0    0 -0.31100584672E+02 -0.26431660136E+02 -0.11044503273E+03  0.11774542148E+03  0.00000000000E+00 0. -1.
        -11    1    4    4    0    0  0.38277888751E+02 -0.33061497121E+02 -0.21010413495E+03  0.21610647117E+03  0.00000000000E+00 0. -1.
         11    1    4    4    0    0 -0.12796516468E+01  0.44565630715E+02 -0.10921076090E+03  0.11796068517E+03  0.00000000000E+00 0.  1.
         21    1    1    2  502  501 -0.23137900206E+02 -0.11344340498E+02 -0.95509955796E+02  0.98925265445E+02  0.00000000000E+00 0.  1.
<scales pt_clust_5="13000.00000" pt_clust_6="13000.00000" pt_clust_7="13000.00000" pt_clust_8="13000.00000" pt_clust_9="25.76929"></scales>
<clustering>
<clus scale="   25.769">  2  9  1 -1</clus>
<clus scale="   81.046">  5  6 -1 -1</clus>
<clus scale="   83.795">  1  5  2 -1</clus>
<clus scale="   90.209">  7  8 -1 -1</clus>
<clus scale="   25.769">  2  5  1 -1</clus>
</clustering>
</event>
<event>
 9    2  0.2984928E-005  0.1389178E+03  0.7546771E-02  0.1217720E+00
          2   -1    0    0  502    0  0.00000000000E+00  0.00000000000E+00  0.61737291465E+02  0.61737291465E+02  0.00000000000E+00 0. -1.
         -1   -1    0    0    0  501 -0.00000000000E+00 -0.00000000000E+00 -0.48865635279E+03  0.48865635279E+03  0.00000000000E+00 0.  1.
         23    2    1    2    0    0 -0.56985581733E+02 -0.88666403287E+02 -0.32217393591E+03  0.35071199809E+03  0.89965399031E+02 0.  0.
         24    2    1    2    0    0  0.77315597255E+02  0.76278483495E+02 -0.11309286698E+03  0.17445358883E+03  0.76471886800E+02 0.  0.
        -11    1    4    4    0    0  0.67616947463E+02  0.41368946730E+02 -0.11323321418E+03  0.13822156898E+03  0.00000000000E+00 0.  1.
         12    1    4    4    0    0  0.96986497918E+01  0.34909536764E+02  0.14034720287E+00  0.36232019847E+02  0.00000000000E+00 0. -1.
        -11    1    3    3    0    0 -0.48478518817E+02 -0.62690231439E+02 -0.31140978365E+03  0.32133516032E+03  0.00000000000E+00 0.  1.
         11    1    3    3    0    0 -0.85070629163E+01 -0.25976171847E+02 -0.10764152265E+02  0.29376837769E+02  0.00000000000E+00 0. -1.
         21    1    1    2  502  501 -0.20330015521E+02  0.12387919792E+02  0.83477415669E+01  0.25228057340E+02  0.00000000000E+00 0. -1.
<scales pt_clust_5="13000.00000" pt_clust_6="13000.00000" pt_clust_7="13000.00000" pt_clust_8="13000.00000" pt_clust_9="23.80693"></scales>
<clustering>
<clus scale="   23.807">  1  9  2 -1</clus>
<clus scale="   76.472">  5  6 -1 -1</clus>
<clus scale="   89.965">  7  8 -1 -1</clus>
<clus scale="  130.585">  1  5  2 -1</clus>
<clus scale="   23.807">  1  5  2 -1</clus>
</clustering>
</event>
<event>
 9    2  0.2984928E-005  0.1414741E+03  0.7546771E-02  0.1213769E+00
          2   -1    0    0  502    0  0.00000000000E+00  0.00000000000E+00  0.10087978677E+03  0.10087978677E+03  0.00000000000E+00 0. -1.
         -1   -1    0    0    0  501 -0.00000000000E+00 -0.00000000000E+00 -0.32055850501E+03  0.32055850501E+03  0.00000000000E+00 0.  1.
         23    2    1    2    0    0 -0.12295907572E+02 -0.11244697823E+03 -0.22212013774E+03  0.26590965890E+03  0.92601721631E+02 0.  0.
         24    2    1    2    0    0  0.19597037531E+01  0.92324928840E+02 -0.18766392377E+02  0.12452048450E+03  0.81396809845E+02 0.  0.
        -13    1    4    4    0    0 -0.27758445459E+02  0.12119138561E+02 -0.24264676694E+02  0.38809526522E+02  0.00000000000E+00 0.  1.
         14    1    4    4    0    0  0.29718149212E+02  0.80205790280E+02  0.54982843175E+01  0.85710957977E+02  0.00000000000E+00 0. -1.
        -11    1    3    3    0    0  0.18468460791E+02 -0.96787984641E+02 -0.20483771324E+03  0.22730483229E+03  0.00000000000E+00 0.  1.
         11    1    3    3    0    0 -0.30764368363E+02 -0.15658993594E+02 -0.17282424496E+02  0.38604826610E+02  0.00000000000E+00 0. -1.
         21    1    1    2  502  501  0.10336203819E+02  0.20122049395E+02  0.21207811880E+02  0.31008148380E+02  0.00000000000E+00 0. -1.
<scales pt_clust_5="13000.00000" pt_clust_6="13000.00000" pt_clust_7="13000.00000" pt_clust_8="13000.00000" pt_clust_9="22.62154"></scales>
<clustering>
<clus scale="   22.622">  1  9  2 -1</clus>
<clus scale="   81.397">  5  6 -1 -1</clus>
<clus scale="   92.602">  7  8 -1 -1</clus>
<clus scale="  134.407">  1  5  2 -1</clus>
<clus scale="   22.622">  1  5  2 -1</clus>
</clustering>
</event>
<event>
 9    2  0.2984928E-005  0.2231356E+03  0.7546771E-02  0.1132555E+00
         -1   -1    0    0    0  501 -0.00000000000E+00  0.00000000000E+00  0.17358295660E+03  0.17358295660E+03  0.00000000000E+00 0.  1.
          2   -1    0    0  502    0  0.00000000000E+00 -0.00000000000E+00 -0.84544151018E+03  0.84544151018E+03  0.00000000000E+00 0. -1.
         23    2    1    2    0    0 -0.19545375894E+03  0.27013040019E+02  0.36067227266E+02  0.22035635321E+03  0.91237061010E+02 0.  0.
         24    2    1    2    0    0  0.23148665731E+03 -0.11163585501E+03 -0.59717193326E+03  0.65470351606E+03  0.77289969793E+02 0.  0.
        -13    1    4    4    0    0  0.20595760542E+02  0.57720392213E+00 -0.11234405238E+03  0.11421779468E+03  0.00000000000E+00 0.  1.
         14    1    4    4    0    0  0.21089089677E+03 -0.11221305893E+03 -0.48482788087E+03  0.54048572137E+03  0.00000000000E+00 0. -1.
        -11    1    3    3    0    0 -0.11680293987E+03 -0.95623543017E+01 -0.17375640013E+02  0.11847480005E+03  0.00000000000E+00 0. -1.
         11    1    3    3    0    0 -0.78650819073E+02  0.36575394321E+02  0.53442867279E+02  0.10188155316E+03  0.00000000000E+00 0.  1.
         21    1    1    2  502  501 -0.36032898371E+02  0.84622814993E+02 -0.11075384758E+03  0.14396459751E+03  0.00000000000E+00 0.  1.
<scales pt_clust_5="13000.00000" pt_clust_6="13000.00000" pt_clust_7="13000.00000" pt_clust_8="13000.00000" pt_clust_9="91.97495"></scales>
<clustering>
<clus scale="   77.290">  5  6 -1 -1</clus>
<clus scale="   91.237">  7  8 -1 -1</clus>
<clus scale="   91.975">  2  9  1 -1</clus>
<clus scale="  217.805">  2  5  1 -1</clus>
<clus scale="   91.975">  2  5  1 -1</clus>
</clustering>
</event>
<event>
 9    2  0.2984928E-005  0.1061703E+03  0.7546771E-02  0.1272478E+00
         -1   -1    0    0    0  501 -0.00000000000E+00  0.00000000000E+00  0.26224911670E+03  0.26224911670E+03  0.00000000000E+00 0.  1.
          2   -1    0    0  502    0  0.00000000000E+00 -0.00000000000E+00 -0.14032592524E+03  0.14032592524E+03  0.00000000000E+00 0. -1.
         23    2    1    2    0    0 -0.59441399952E+02 -0.63075781026E+01  0.19352090948E+03  0.22238149954E+03  0.91815703242E+02 0.  0.
         24    2    1    2    0    0  0.35126246611E+02  0.11899816467E+02  0.14687430823E+02  0.90373574005E+02  0.81093793975E+02 0.  0.
        -11    1    4    4    0    0  0.34965003740E+02  0.31159711467E+01  0.45993029524E+02  0.57858616709E+02  0.00000000000E+00 0.  1.
         12    1    4    4    0    0  0.16124287160E+00  0.87838453206E+01 -0.31305598701E+02  0.32514957295E+02  0.00000000000E+00 0. -1.
        -13    1    3    3    0    0 -0.30335932845E+02 -0.44348295309E+02  0.60065794641E+02  0.80591189370E+02  0.00000000000E+00 0.  1.
         13    1    3    3    0    0 -0.29105467107E+02  0.38040717206E+02  0.13345511484E+03  0.14179031017E+03  0.00000000000E+00 0. -1.
         21    1    1    2  502  501  0.24315153340E+02 -0.55922383648E+01 -0.86285148840E+02  0.89819968394E+02  0.00000000000E+00 0. -1.
<scales pt_clust_5="13000.00000" pt_clust_6="13000.00000" pt_clust_7="13000.00000" pt_clust_8="13000.00000" pt_clust_9="24.94995"></scales>
<clustering>
<clus scale="   24.950">  2  9  1 -1</clus>
<clus scale="   81.094">  5  6 -1 -1</clus>
<clus scale="   91.816">  7  8 -1 -1</clus>
<clus scale="   97.047">  2  5  1 -1</clus>
<clus scale="   24.950">  2  5  1 -1</clus>
</clustering>
</event>
<event>
 9    2  0.2984928E-005  0.1421219E+03  0.7546771E-02  0.1212779E+00
         -1   -1    0    0    0  501 -0.00000000000E+00  0.00000000000E+00  0.31125627273E+03  0.31125627273E+03  0.00000000000E+00 0.  1.
          2   -1    0    0  502    0  0.00000000000E+00 -0.00000000000E+00 -0.21863584656E+03  0.21863584656E+03  0.00000000000E+00 0. -1.
         23    2    1    2    0    0 -0.88456874148E+02 -0.64345438076E+02  0.20961073794E+03  0.25349140285E+03  0.91412668034E+02 0.  0.
         24    2    1    2    0    0  0.57463695976E+02  0.98945169215E+02  0.10878854900E+02  0.14035571552E+03  0.80555288654E+02 0.  0.
        -11    1    4    4    0    0  0.16962144200E+01  0.50900718213E+02  0.36232817658E+02  0.62502618612E+02  0.00000000000E+00 0.  1.
         12    1    4    4    0    0  0.55767481556E+02  0.48044451001E+02 -0.25353962758E+02  0.77853096911E+02  0.00000000000E+00 0. -1.
        -13    1    3    3    0    0 -0.21897029177E+02 -0.47067491924E+02  0.16131070222E+03  0.16945787481E+03  0.00000000000E+00 0. -1.
         13    1    3    3    0    0 -0.66559844971E+02 -0.17277946152E+02  0.48300035712E+02  0.84033528044E+02  0.00000000000E+00 0.  1.
         21    1    1    2  502  501  0.30993178172E+02 -0.34599731139E+02 -0.12786916667E+03  0.13604500091E+03  0.00000000000E+00 0. -1.
<scales pt_clust_5="13000.00000" pt_clust_6="13000.00000" pt_clust_7="13000.00000" pt_clust_8="13000.00000" pt_clust_9="46.45125"></scales>
<clustering>
<clus scale="   46.451">  2  9  1 -1</clus>
<clus scale="   80.555">  5  6 -1 -1</clus>
<clus scale="   91.413">  7  8 -1 -1</clus>
<clus scale="  135.394">  2  5  1 -1</clus>
<clus scale="   46.451">  2  5  1 -1</clus>
</clustering>
</event>
<event>
 9    2  0.2984928E-005  0.9058716E+02  0.7546771E-02  0.1307842E+00
         -1   -1    0    0    0  501 -0.00000000000E+00  0.00000000000E+00  0.26814361516E+03  0.26814361516E+03  0.00000000000E+00 0.  1.
          2   -1    0    0  502    0  0.00000000000E+00 -0.00000000000E+00 -0.24755603582E+03  0.24755603582E+03  0.00000000000E+00 0. -1.
         23    2    1    2    0    0 -0.43502134604E+01  0.16115628393E+01  0.24512947384E+03  0.26132796064E+03  0.90456191474E+02 0.  0.
         24    2    1    2    0    0  0.13363412970E+02  0.22538902292E+02 -0.12073942876E+03  0.14741639769E+03  0.80417670500E+02 0.  0.
        -13    1    4    4    0    0  0.34545749693E+02 -0.11303587549E+02 -0.26242213241E+02  0.44831168500E+02  0.00000000000E+00 0.  1.
         14    1    4    4    0    0 -0.21182336723E+02  0.33842489841E+02 -0.94497215517E+02  0.10258522919E+03  0.00000000000E+00 0. -1.
        -13    1    3    3    0    0 -0.36049767624E+02  0.26935270461E+02  0.85459405255E+02  0.96583665737E+02  0.00000000000E+00 0. -1.
         13    1    3    3    0    0  0.31699554163E+02 -0.25323707622E+02  0.15967006858E+03  0.16474429491E+03  0.00000000000E+00 0.  1.
         21    1    1    2  502  501 -0.90131995097E+01 -0.24150465131E+02 -0.10380246575E+03  0.10695529265E+03  0.00000000000E+00 0.  1.
<scales pt_clust_5="13000.00000" pt_clust_6="13000.00000" pt_clust_7="13000.00000" pt_clust_8="13000.00000" pt_clust_9="25.77756"></scales>
<clustering>
<clus scale="   25.778">  2  9  1 -1</clus>
<clus scale="   80.418">  5  6 -1 -1</clus>
<clus scale="   80.565">  2  5  1 -1</clus>
<clus scale="   90.456">  7  8 -1 -1</clus>
<clus scale="   25.778">  2  5  1 -1</clus>
</clustering>
</event>
<event>
 9    2  0.2984928E-005  0.9851218E+02  0.7546771E-02  0.1289713E+00
         -1   -1    0    0    0  501 -0.00000000000E+00  0.00000000000E+00  0.21202081341E+02  0.21202081341E+02  0.00000000000E+00 0.  1.
          2   -1    0    0  502    0  0.00000000000E+00 -0.00000000000E+00 -0.10099237995E+04  0.10099237995E+04  0.00000000000E+00 0. -1.
         23    2    1    2    0    0 -0.23274165990E+02  0.59508911148E+02 -0.24196293911E+03  0.26692456424E+03  0.92842133655E+02 0.  0.
         24    2    1    2    0    0  0.20934173626E+02 -0.17678801697E+02 -0.68009993406E+03  0.68546990460E+03  0.81131314213E+02 0.  0.
        -13    1    4    4    0    0  0.10229028866E+02 -0.21755131371E+02 -0.52245295806E+02  0.57510779045E+02  0.00000000000E+00 0.  1.
         14    1    4    4    0    0  0.10705144760E+02  0.40763296734E+01 -0.62785463826E+03  0.62795912555E+03  0.00000000000E+00 0. -1.
        -11    1    3    3    0    0 -0.17473622020E+02  0.81197344516E+02 -0.14231025046E+03  0.16477422010E+03  0.00000000000E+00 0.  1.
         11    1    3    3    0    0 -0.58005439701E+01 -0.21688433369E+02 -0.99652688655E+02  0.10215034414E+03  0.00000000000E+00 0. -1.
         21    1    1    2  502  501  0.23399923639E+01 -0.41830109450E+02 -0.66658844970E+02  0.78731411988E+02  0.00000000000E+00 0. -1.
<scales pt_clust_5="13000.00000" pt_clust_6="13000.00000" pt_clust_7="13000.00000" pt_clust_8="13000.00000" pt_clust_9="41.89551"></scales>
<clustering>
<clus scale="   41.896">  1  9  2 -1</clus>
<clus scale="   81.131">  5  6 -1 -1</clus>
<clus scale="   87.563">  2  5  1 -1</clus>
<clus scale="   92.842">  7  8 -1 -1</clus>
<clus scale="   87.563">  2  5  1 -1</clus>
</clustering>
</event>
<event>
 9    2  0.2984928E-005  0.1298712E+03  0.7546771E-02  0.1229458E+00
         -3   -1    0    0    0  501 -0.00000000000E+00  0.00000000000E+00  0.35965020919E+03  0.35965020919E+03  0.00000000000E+00 0.  1.
          4   -1    0    0  502    0  0.00000000000E+00 -0.00000000000E+00 -0.21082670559E+03  0.21082670559E+03  0.00000000000E+00 0. -1.
         23    2    1    2    0    0 -0.48906384431E+02  0.10858053516E+03  0.14944927134E+03  0.21065841207E+03  0.88658416517E+02 0.  0.
         24    2    1    2    0    0 -0.21573879307E+02 -0.92060904822E+02 -0.14920790315E+03  0.19453989936E+03  0.81499273701E+02 0.  0.
        -11    1    4    4    0    0  0.20091799134E+02 -0.41763842829E+01 -0.56745853073E+02  0.60342476077E+02  0.00000000000E+00 0.  1.
         12    1    4    4    0    0 -0.41665678441E+02 -0.87884520539E+02 -0.92462050082E+02  0.13419742328E+03  0.00000000000E+00 0. -1.
        -11    1    3    3    0    0 -0.35488582613E+01  0.23342551070E+02  0.98885572245E+02  0.10166526193E+03  0.00000000000E+00 0.  1.
         11    1    3    3    0    0 -0.45357526170E+02  0.85237984086E+02  0.50563699098E+02  0.10899315014E+03  0.00000000000E+00 0. -1.
         21    1    1    2  502  501  0.70480263738E+02 -0.16519630333E+02  0.14858213540E+03  0.16527860335E+03  0.00000000000E+00 0.  1.
<scales pt_clust_5="13000.00000" pt_clust_6="13000.00000" pt_clust_7="13000.00000" pt_clust_8="13000.00000" pt_clust_9="72.39037"></scales>
<clustering>
<clus scale="   72.390">  1  9  2 -1</clus>
<clus scale="   81.499">  5  6 -1 -1</clus>
<clus scale="   88.658">  7  8 -1 -1</clus>
<clus scale="  125.093">  2  5  1 -1</clus>
<clus scale="  125.093">  2  5  1 -1</clus>
</clustering>
</event>
<event>
 9    2  0.2984928E-005  0.9440854E+02  0.7546771E-02  0.1294426E+00
          2   -1    0    0  502    0  0.00000000000E+00  0.00000000000E+00  0.10130871303E+03  0.10130871303E+03  0.00000000000E+00 0. -1.
         -1   -1    0    0    0  501 -0.00000000000E+00 -0.00000000000E+00 -0.24100599721E+03  0.24100599721E+03  0.00000000000E+00 0.  1.
         23    2    1    2    0    0  0.21625384807E+02 -0.18703635270E+02 -0.18719157606E+03  0.21016693010E+03  0.91170001208E+02 0.  0.
         24    2    1    2    0    0  0.11541640779E+02  0.12844099793E+02  0.37899156611E+02  0.97127038243E+02  0.87744715594E+02 0.  0.
        -11    1    4    4    0    0 -0.14885531684E+02 -0.32398143915E+02  0.23800292035E+02  0.42868084674E+02  0.00000000000E+00 0.  1.
         12    1    4    4    0    0  0.26427172463E+02  0.45242243708E+02  0.14098864575E+02  0.54258953569E+02  0.00000000000E+00 0. -1.
        -13    1    3    3    0    0  0.47508002305E+02  0.94524944616E+01 -0.58705990103E+02  0.76110138671E+02  0.00000000000E+00 0. -1.
         13    1    3    3    0    0 -0.25882617498E+02 -0.28156129732E+02 -0.12848558596E+03  0.13405679143E+03  0.00000000000E+00 0.  1.
         21    1    1    2  502  501 -0.33167025586E+02  0.58595354766E+01  0.95951352689E+01  0.35020741898E+02  0.00000000000E+00 0. -1.
<scales pt_clust_5="13000.00000" pt_clust_6="13000.00000" pt_clust_7="13000.00000" pt_clust_8="13000.00000" pt_clust_9="33.68064"></scales>
<clustering>
<clus scale="   33.681">  1  9  2 -1</clus>
<clus scale="   87.745">  5  6 -1 -1</clus>
<clus scale="   91.105">  1  5  2 -1</clus>
<clus scale="   91.170">  7  8 -1 -1</clus>
<clus scale="   33.681">  1  5  2 -1</clus>
</clustering>
</event>
<event>
 9    2  0.2984928E-005  0.1607347E+03  0.7546771E-02  0.1208740E+00
          2   -1    0    0  502    0  0.00000000000E+00  0.00000000000E+00  0.17430727289E+03  0.17430727289E+03  0.00000000000E+00 0. -1.
         -1   -1    0    0    0  501 -0.00000000000E+00 -0.00000000000E+00 -0.53063251901E+03  0.53063251901E+03  0.00000000000E+00 0.  1.
         23    2    1    2    0    0  0.20312899473E+02  0.42983916344E+02 -0.29188294345E+03  0.30919670358E+03  0.90259170624E+02 0.  0.
         24    2    1    2    0    0  0.12133409886E+03 -0.51397161062E+02 -0.16183802502E+03  0.22363677944E+03  0.80363120067E+02 0.  0.
        -11    1    4    4    0    0  0.98949107195E+02 -0.25795953008E+02 -0.65408479263E+02  0.12138626844E+03  0.00000000000E+00 0.  1.
         12    1    4    4    0    0  0.22384991661E+02 -0.25601208054E+02 -0.96429545758E+02  0.10225051100E+03  0.00000000000E+00 0. -1.
        -11    1    3    3    0    0  0.33939305609E+02 -0.18762901690E+02 -0.11177847853E+03  0.11831462804E+03  0.00000000000E+00 0.  1.
         11    1    3    3    0    0 -0.13626406136E+02  0.61746818035E+02 -0.18010446492E+03  0.19088207555E+03  0.00000000000E+00 0. -1.
         21    1    1    2  502  501 -0.14164699833E+03  0.84132447179E+01  0.97395722344E+02  0.17210630887E+03  0.00000000000E+00 0. -1.
<scales pt_clust_5="13000.00000" pt_clust_6="13000.00000" pt_clust_7="13000.00000" pt_clust_8="13000.00000" pt_clust_9="139.20276"></scales>
<clustering>
<clus scale="   80.363">  5  6 -1 -1</clus>
<clus scale="   90.259">  7  8 -1 -1</clus>
<clus scale="  102.014">  2  7  1 -1</clus>
<clus scale="  139.203">  1  9  2 -1</clus>
<clus scale="  139.203">  1  5  2 -1</clus>
</clustering>
</event>
<event>
 9    2  0.2984928E-005  0.1134606E+03  0.7546771E-02  0.1262393E+00
          2   -1    0    0  502    0  0.00000000000E+00  0.00000000000E+00  0.37328242767E+03  0.37328242767E+03  0.00000000000E+00 0. -1.
         -1   -1    0    0    0  501 -0.00000000000E+00 -0.00000000000E+00 -0.83072198026E+02  0.83072198026E+02  0.00000000000E+00 0.  1.
         24    2    1    2    0    0 -0.15846511835E+02  0.54783154829E+02 -0.33934868293E+02  0.10381767063E+03  0.79838759129E+02 0.  0.
         23    2    1    2    0    0 -0.10135987592E+02 -0.39082885721E+02  0.26822174668E+03  0.28890512386E+03  0.99463837642E+02 0.  0.
        -13    1    3    3    0    0  0.67744938532E+01  0.57446875453E+02  0.56782625128E+01  0.58122972493E+02  0.00000000000E+00 0.  1.
         14    1    3    3    0    0 -0.22621005688E+02 -0.26637206235E+01 -0.39613130806E+02  0.45694698140E+02  0.00000000000E+00 0. -1.
        -11    1    4    4    0    0  0.29938654286E+02 -0.21497647875E+02  0.32451818752E+02  0.49107967021E+02  0.00000000000E+00 0.  1.
         11    1    4    4    0    0 -0.40074641878E+02 -0.17585237846E+02  0.23576992793E+03  0.23979715684E+03  0.00000000000E+00 0. -1.
         21    1    1    2  502  501  0.25982499428E+02 -0.15700269108E+02  0.55923351251E+02  0.63631831199E+02  0.00000000000E+00 0.  1.
<scales pt_clust_5="13000.00000" pt_clust_6="13000.00000" pt_clust_7="13000.00000" pt_clust_8="13000.00000" pt_clust_9="30.35768"></scales>
<clustering>
<clus scale="   30.358">  1  9  2 -1</clus>
<clus scale="   79.839">  5  6 -1 -1</clus>
<clus scale="   96.719">  2  5  1 -1</clus>
<clus scale="   99.464">  7  8 -1 -1</clus>
<clus scale="   30.358">  1  5  2 -1</clus>
</clustering>
</event>
<event>
 9    2  0.2984928E-005  0.1045706E+03  0.7546771E-02  0.1276782E+00
          4   -1    0    0  502    0  0.00000000000E+00  0.00000000000E+00  0.28480938554E+03  0.28480938554E+03  0.00000000000E+00 0. -1.
         -3   -1    0    0    0  501 -0.00000000000E+00 -0.00000000000E+00 -0.16974412745E+03  0.16974412745E+03  0.00000000000E+00 0.  1.
         24    2    1    2    0    0  0.17943547534E+02  0.43480905485E+02 -0.14141375792E+03  0.16992675682E+03  0.81637563137E+02 0.  0.
         23    2    1    2    0    0 -0.91482948445E+01 -0.25442503595E+02  0.17313045620E+03  0.19889623165E+03  0.94098585593E+02 0.  0.
        -13    1    3    3    0    0  0.29148838079E+02  0.53058563444E+02 -0.53514868946E+02  0.80800415311E+02  0.00000000000E+00 0.  1.
         14    1    3    3    0    0 -0.11205290546E+02 -0.95776579589E+01 -0.87898888975E+02  0.89126341511E+02  0.00000000000E+00 0. -1.
        -11    1    4    4    0    0 -0.30814778531E+02 -0.53918845331E+02  0.11181436994E+03  0.12790326729E+03  0.00000000000E+00 0. -1.
         11    1    4    4    0    0  0.21666483686E+02  0.28476341736E+02  0.61316086262E+02  0.70992964359E+02  0.00000000000E+00 0.  1.
         21    1    1    2  502  501 -0.87952526890E+01 -0.18038401890E+02  0.83348559811E+02  0.85730524524E+02  0.00000000000E+00 0. -1.
<scales pt_clust_5="13000.00000" pt_clust_6="13000.00000" pt_clust_7="13000.00000" pt_clust_8="13000.00000" pt_clust_9="20.06839"></scales>
<clustering>
<clus scale="   20.068">  1  9  2 -1</clus>
<clus scale="   81.638">  5  6 -1 -1</clus>
<clus scale="   93.516">  2  5  1 -1</clus>
<clus scale="   94.099">  7  8 -1 -1</clus>
<clus scale="   20.068">  1  5  2 -1</clus>
</clustering>
</event>
<event>
 9    2  0.2984928E-005  0.1638844E+03  0.7546771E-02  0.1185150E+00
          2   -1    0    0  502    0  0.00000000000E+00  0.00000000000E+00  0.29180476279E+03  0.29180476279E+03  0.00000000000E+00 0. -1.
         -1   -1    0    0    0  501 -0.00000000000E+00 -0.00000000000E+00 -0.17734151096E+03  0.17734151096E+03  0.00000000000E+00 0.  1.
         24    2    1    2    0    0 -0.67246118788E+02  0.16501639772E+03 -0.19653337532E+02  0.19847223576E+03  0.85161744236E+02 0.  0.
         23    2    1    2    0    0  0.56849878888E+02 -0.57953294047E+02  0.10147904362E+03  0.15826496645E+03  0.90328900641E+02 0.  0.
        -13    1    3    3    0    0 -0.35915692727E+02  0.14795816344E+03 -0.39977089736E+02  0.15741576419E+03  0.00000000000E+00 0.  1.
         14    1    3    3    0    0 -0.31330426060E+02  0.17058234288E+02  0.20323752204E+02  0.41056471570E+02  0.00000000000E+00 0. -1.
        -11    1    4    4    0    0  0.77956033451E+02 -0.42461224966E+02  0.97372941625E+02  0.13176338087E+03  0.00000000000E+00 0. -1.
         11    1    4    4    0    0 -0.21106154563E+02 -0.15492069080E+02  0.41061019970E+01  0.26501585584E+02  0.00000000000E+00 0.  1.
         21    1    1    2  502  501  0.10396239900E+02 -0.10706310368E+03  0.32637545739E+02  0.11240907154E+03  0.00000000000E+00 0.  1.
<scales pt_clust_5="13000.00000" pt_clust_6="13000.00000" pt_clust_7="13000.00000" pt_clust_8="13000.00000" pt_clust_9="107.56668"></scales>
<clustering>
<clus scale="   85.162">  5  6 -1 -1</clus>
<clus scale="   90.329">  7  8 -1 -1</clus>
<clus scale="  107.567">  1  9  2 -1</clus>
<clus scale="  161.094">  2  5  1 -1</clus>
<clus scale="  107.567">  1  5  2 -1</clus>
</clustering>
</event>
<event>
 9    2  0.2984928E-005  0.1103112E+03  0.7546771E-02  0.1264641E+00
         -1   -1    0    0    0  501 -0.00000000000E+00  0.00000000000E+00  0.42365044738E+02  0.42365044738E+02  0.00000000000E+00 0.  1.
          2   -1    0    0  502    0  0.00000000000E+00 -0.00000000000E+00 -0.37582921644E+03  0.37582921644E+03  0.00000000000E+00 0. -1.
         23    2    1    2    0    0 -0.20790165651E+02 -0.60132683771E+02 -0.79676811293E+02  0.13756936848E+03  0.92351319649E+02 0.  0.
         24    2    1    2    0    0  0.74667117281E+00  0.56030115522E+02 -0.19412593989E+03  0.21755304608E+03  0.80650579406E+02 0.  0.
        -13    1    4    4    0    0  0.23272293063E+02  0.50036182059E+02 -0.60409221143E+02  0.81819882294E+02  0.00000000000E+00 0.  1.
         14    1    4    4    0    0 -0.22525621890E+02  0.59939334635E+01 -0.13371671874E+03  0.13573316379E+03  0.00000000000E+00 0. -1.
        -13    1    3    3    0    0  0.26711149473E+02  0.56385509153E+01 -0.59442682168E+01  0.27939453954E+02  0.00000000000E+00 0.  1.
         13    1    3    3    0    0 -0.47501315124E+02 -0.65771234686E+02 -0.73732543076E+02  0.10962991453E+03  0.00000000000E+00 0. -1.
         21    1    1    2  502  501  0.20043494478E+02  0.41025682488E+01 -0.59661420527E+02  0.63071846623E+02  0.00000000000E+00 0. -1.
<scales pt_clust_5="13000.00000" pt_clust_6="13000.00000" pt_clust_7="13000.00000" pt_clust_8="13000.00000" pt_clust_9="20.45905"></scales>
<clustering>
<clus scale="   20.459">  2  9  1 -1</clus>
<clus scale="   80.651">  5  6 -1 -1</clus>
<clus scale="   92.351">  7  8 -1 -1</clus>
<clus scale="  100.719">  2  5  1 -1</clus>
<clus scale="   20.459">  2  5  1 -1</clus>
</clustering>
</event>
<event>
 9    2  0.2984928E-005  0.1369550E+03  0.7546771E-02  0.1220152E+00
          2   -1    0    0  502    0  0.00000000000E+00  0.00000000000E+00  0.37328882488E+03  0.37328882488E+03  0.00000000000E+00 0. -1.
         -1   -1    0    0    0  501 -0.00000000000E+00 -0.00000000000E+00 -0.23768577905E+03  0.23768577905E+03  0.00000000000E+00 0.  1.
         23    2    1    2    0    0 -0.93553485678E+02  0.41101148505E+02 -0.17748418410E+03  0.22445351967E+03  0.91854165919E+02 0.  0.
         24    2    1    2    0    0  0.57829072875E+02 -0.10265983148E+03  0.14205065742E+03  0.20126662613E+03  0.80290864048E+02 0.  0.
        -13    1    4    4    0    0  0.51905350210E+02 -0.16731415976E+02  0.39467588041E+02  0.67318616791E+02  0.00000000000E+00 0.  1.
         14    1    4    4    0    0  0.59237226653E+01 -0.85928415508E+02  0.10258306938E+03  0.13394800933E+03  0.00000000000E+00 0. -1.
        -13    1    3    3    0    0 -0.45010640018E+02  0.64461362955E+02 -0.74914940942E+02  0.10859775967E+03  0.00000000000E+00 0.  1.
         13    1    3    3    0    0 -0.48542845660E+02 -0.23360214450E+02 -0.10256924316E+03  0.11585576000E+03  0.00000000000E+00 0. -1.
         21    1    1    2  502  501  0.35724412803E+02  0.61558682980E+02  0.17103657251E+03  0.18525445813E+03  0.00000000000E+00 0. -1.
<scales pt_clust_5="13000.00000" pt_clust_6="13000.00000" pt_clust_7="13000.00000" pt_clust_8="13000.00000" pt_clust_9="71.17377"></scales>
<clustering>
<clus scale="   71.174">  1  9  2 -1</clus>
<clus scale="   80.291">  5  6 -1 -1</clus>
<clus scale="   91.854">  7  8 -1 -1</clus>
<clus scale="  129.484">  1  5  2 -1</clus>
<clus scale="   71.174">  1  5  2 -1</clus>
</clustering>
</event>
<event>
 9    2  0.2984928E-005  0.1202311E+03  0.7546771E-02  0.1246439E+00
         -3   -1    0    0    0  501 -0.00000000000E+00  0.00000000000E+00  0.39529539086E+03  0.39529539086E+03  0.00000000000E+00 0.  1.
          4   -1    0    0  502    0  0.00000000000E+00 -0.00000000000E+00 -0.98762848251E+02  0.98762848251E+02  0.00000000000E+00 0. -1.
         24    2    1    2    0    0 -0.48094925342E+02 -0.59935227386E+02  0.31481189123E+03  0.33366298110E+03  0.79492796993E+02 0.  0.
         23    2    1    2    0    0  0.76131748756E+02  0.51825863455E+02 -0.10011165473E+02  0.13006065560E+03  0.91288484544E+02 0.  0.
        -11    1    3    3    0    0 -0.45469927148E+02 -0.71115917699E+02  0.30986846424E+03  0.32115954470E+03  0.00000000000E+00 0.  1.
         12    1    3    3    0    0 -0.26249981948E+01  0.11180690313E+02  0.49434269924E+01  0.12503436401E+02  0.00000000000E+00 0. -1.
        -11    1    4    4    0    0  0.26410179410E+02 -0.22920028969E+02 -0.19071788700E+02  0.39831625985E+02  0.00000000000E+00 0.  1.
         11    1    4    4    0    0  0.49721569346E+02  0.74745892424E+02  0.90606232270E+01  0.90229029618E+02  0.00000000000E+00 0. -1.
         21    1    1    2  502  501 -0.28036823414E+02  0.81093639313E+01 -0.82681831462E+01  0.30334602405E+02  0.00000000000E+00 0. -1.
<scales pt_clust_5="13000.00000" pt_clust_6="13000.00000" pt_clust_7="13000.00000" pt_clust_8="13000.00000" pt_clust_9="29.18605"></scales>
<clustering>
<clus scale="   29.186">  2  9  1 -1</clus>
<clus scale="   79.493">  5  6 -1 -1</clus>
<clus scale="   91.288">  7  8 -1 -1</clus>
<clus scale="  111.539">  1  5  2 -1</clus>
<clus scale="   29.186">  2  5  1 -1</clus>
</clustering>
</event>
<event>
 9    2  0.2984928E-005  0.1019669E+03  0.7546771E-02  0.1277703E+00
          2   -1    0    0  502    0  0.00000000000E+00  0.00000000000E+00  0.87893893959E+02  0.87893893959E+02  0.00000000000E+00 0. -1.
         -1   -1    0    0    0  501 -0.00000000000E+00 -0.00000000000E+00 -0.46044780721E+03  0.46044780721E+03  0.00000000000E+00 0.  1.
         24    2    1    2    0    0 -0.17083613039E+02  0.19308066610E+02 -0.37166454340E+03  0.38104626333E+03  0.79981689814E+02 0.  0.
         23    2    1    2    0    0  0.55272067121E+02 -0.27655574563E+02  0.39446652704E+02  0.11112575180E+03  0.83504862705E+02 0.  0.
        -11    1    3    3    0    0 -0.19930247381E+02  0.46690333927E+02 -0.30020533443E+03  0.30446747751E+03  0.00000000000E+00 0.  1.
         12    1    3    3    0    0  0.28466343417E+01 -0.27382267316E+02 -0.71459208974E+02  0.76578785820E+02  0.00000000000E+00 0. -1.
        -13    1    4    4    0    0  0.62153562401E+02  0.77077536779E+01  0.41350363216E+02  0.75048832929E+02  0.00000000000E+00 0. -1.
         13    1    4    4    0    0 -0.68814952799E+01 -0.35363328240E+02 -0.19037105114E+01  0.36076918871E+02  0.00000000000E+00 0.  1.
         21    1    1    2  502  501 -0.38188454082E+02  0.83475079523E+01 -0.40336022552E+02  0.56169686037E+02  0.00000000000E+00 0. -1.
<scales pt_clust_5="13000.00000" pt_clust_6="13000.00000" pt_clust_7="13000.00000" pt_clust_8="13000.00000" pt_clust_9="39.09014"></scales>
<clustering>
<clus scale="   39.090">  2  9  1 -1</clus>
<clus scale="   79.982">  5  6 -1 -1</clus>
<clus scale="   83.505">  7  8 -1 -1</clus>
<clus scale="   99.102">  2  5  1 -1</clus>
<clus scale="  101.967">  1  5  2 -1</clus>
</clustering>
</event>
<event>
 9    2  0.2984928E-005  0.1458289E+03  0.7546771E-02  0.1207994E+00
          4   -1    0    0  502    0  0.00000000000E+00  0.00000000000E+00  0.15305876740E+03  0.15305876740E+03  0.00000000000E+00 0. -1.
         -3   -1    0    0    0  501 -0.00000000000E+00 -0.00000000000E+00 -0.30249041166E+03  0.30249041166E+03  0.00000000000E+00 0.  1.
         23    2    1    2    0    0 -0.23364834636E+02 -0.11609958255E+03 -0.23275790557E+03  0.27695078599E+03  0.92197975522E+02 0.  0.
         24    2    1    2    0    0 -0.29456421429E+01  0.90006886316E+02  0.65468608581E+02  0.13746488185E+03  0.80625917915E+02 0.  0.
        -11    1    4    4    0    0  0.33153390599E+02  0.74578426314E+02  0.44042561037E+02  0.92740693131E+02  0.00000000000E+00 0.  1.
         12    1    4    4    0    0 -0.36099032742E+02  0.15428460002E+02  0.21426047545E+02  0.44724188716E+02  0.00000000000E+00 0. -1.
        -13    1    3    3    0    0  0.57594880931E+01 -0.11913170405E+03 -0.16964984402E+03  0.20738033703E+03  0.00000000000E+00 0.  1.
         13    1    3    3    0    0 -0.29124322730E+02  0.30321215028E+01 -0.63108061553E+02  0.69570448958E+02  0.00000000000E+00 0. -1.
         21    1    1    2  502  501  0.26310476779E+02  0.26092696230E+02  0.17857652729E+02  0.41133511227E+02  0.00000000000E+00 0. -1.
<scales pt_clust_5="13000.00000" pt_clust_6="13000.00000" pt_clust_7="13000.00000" pt_clust_8="13000.00000" pt_clust_9="37.05496"></scales>
<clustering>
<clus scale="   37.055">  1  9  2 -1</clus>
<clus scale="   80.626">  5  6 -1 -1</clus>
<clus scale="   92.198">  7  8 -1 -1</clus>
<clus scale="  138.803">  1  5  2 -1</clus>
<clus scale="   37.055">  1  5  2 -1</clus>
</clustering>
</event>
<event>
 9    2  0.2984928E-005  0.1229582E+03  0.7546771E-02  0.1241898E+00
         -1   -1    0    0    0  501 -0.00000000000E+00  0.00000000000E+00  0.18971035430E+03  0.18971035430E+03  0.00000000000E+00 0.  1.
          2   -1    0    0  502    0  0.00000000000E+00 -0.00000000000E+00 -0.14635035510E+03  0.14635035510E+03  0.00000000000E+00 0. -1.
         24    2    1    2    0    0  0.79992663152E+02  0.37832468795E+01  0.74379303253E+02  0.13445581909E+03  0.78313136960E+02 0.  0.
         23    2    1    2    0    0 -0.82929057408E+02 -0.47678056616E+02  0.21138255918E+02  0.13337155685E+03  0.90502600334E+02 0.  0.
        -11    1    3    3    0    0  0.62677585444E+02  0.17460859620E+02  0.87305037661E+02  0.10888310676E+03  0.00000000000E+00 0.  1.
         12    1    3    3    0    0  0.17315077708E+02 -0.13677612740E+02 -0.12925734408E+02  0.25572712338E+02  0.00000000000E+00 0. -1.
        -13    1    4    4    0    0 -0.15771986372E+02 -0.60460824035E+02  0.17607858746E+02  0.64917666984E+02  0.00000000000E+00 0.  1.
         13    1    4    4    0    0 -0.67157071036E+02  0.12782767419E+02  0.35303971722E+01  0.68453889862E+02  0.00000000000E+00 0. -1.
         21    1    1    2  502  501  0.29363942562E+01  0.43894809736E+02 -0.52157559970E+02  0.68233333460E+02  0.00000000000E+00 0. -1.
<scales pt_clust_5="13000.00000" pt_clust_6="13000.00000" pt_clust_7="13000.00000" pt_clust_8="13000.00000" pt_clust_9="43.99292"></scales>
<clustering>
<clus scale="   43.993">  2  9  1 -1</clus>
<clus scale="   78.313">  5  6 -1 -1</clus>
<clus scale="   90.503">  7  8 -1 -1</clus>
<clus scale="  114.284">  1  5  2 -1</clus>
<clus scale="   43.993">  2  5  1 -1</clus>
</clustering>
</event>
<event>
 9    2  0.2984928E-005  0.9363026E+02  0.7546771E-02  0.1301275E+00
         -1   -1    0    0    0  501 -0.00000000000E+00  0.00000000000E+00  0.11497430051E+03  0.11497430051E+03  0.00000000000E+00 0.  1.
          2   -1    0    0  502    0  0.00000000000E+00 -0.00000000000E+00 -0.18815129630E+03  0.18815129630E+03  0.00000000000E+00 0. -1.
         24    2    1    2    0    0 -0.60332270320E+00  0.13473975699E+02  0.43833190244E+02  0.91957669573E+02  0.79705410149E+02 0.  0.
         23    2    1    2    0    0 -0.11457394658E+01 -0.35536567659E+02 -0.62815030569E+01  0.98249113846E+02  0.91374343943E+02 0.  0.
        -13    1    3    3    0    0  0.32651641631E+02 -0.25868903021E+01 -0.23339881339E+01  0.32837009657E+02  0.00000000000E+00 0.  1.
         14    1    3    3    0    0 -0.33254964334E+02  0.16060866001E+02  0.46167178377E+02  0.59120659916E+02  0.00000000000E+00 0. -1.
        -11    1    4    4    0    0  0.43229802540E+02 -0.26293211467E+02  0.68447595585E+01  0.51058785046E+02  0.00000000000E+00 0.  1.
         11    1    4    4    0    0 -0.44375542006E+02 -0.92433561915E+01 -0.13126262615E+02  0.47190328800E+02  0.00000000000E+00 0. -1.
         21    1    1    2  502  501  0.17490621690E+01  0.22062591959E+02 -0.11072868298E+03  0.11291881338E+03  0.00000000000E+00 0. -1.
<scales pt_clust_5="13000.00000" pt_clust_6="13000.00000" pt_clust_7="13000.00000" pt_clust_8="13000.00000" pt_clust_9="22.13181"></scales>
<clustering>
<clus scale="   22.132">  2  9  1 -1</clus>
<clus scale="   79.705">  5  6 -1 -1</clus>
<clus scale="   82.282">  1  5  2 -1</clus>
<clus scale="   91.374">  7  8 -1 -1</clus>
<clus scale="   22.132">  2  5  1 -1</clus>
</clustering>
</event>
<event>
 9    2  0.2984928E-005  0.1316801E+03  0.7546771E-02  0.1228002E+00
          2   -1    0    0  502    0  0.00000000000E+00  0.00000000000E+00  0.70043975624E+03  0.70043975624E+03  0.00000000000E+00 0. -1.
         -1   -1    0    0    0  501 -0.00000000000E+00 -0.00000000000E+00 -0.29933761591E+02  0.29933761591E+02  0.00000000000E+00 0.  1.
         24    2    1    2    0    0 -0.10391844110E+03  0.11801770742E+02  0.22052720254E+03  0.25656561353E+03  0.79090725084E+02 0.  0.
         23    2    1    2    0    0  0.80177378083E+02 -0.13034766291E+02  0.33875287286E+03  0.36006976881E+03  0.91095622582E+02 0.  0.
        -13    1    3    3    0    0 -0.48370896118E+02  0.27786222172E+02  0.44707429274E+02  0.71488264534E+02  0.00000000000E+00 0.  1.
         14    1    3    3    0    0 -0.55547544980E+02 -0.15984451430E+02  0.17581977327E+03  0.18507734900E+03  0.00000000000E+00 0. -1.
        -11    1    4    4    0    0  0.94411924416E+02  0.53366712469E+01  0.30311958672E+03  0.31752728290E+03  0.00000000000E+00 0. -1.
         11    1    4    4    0    0 -0.14234546333E+02 -0.18371437538E+02  0.35633286134E+02  0.42542485908E+02  0.00000000000E+00 0.  1.
         21    1    1    2  502  501  0.23741063015E+02  0.12329955489E+01  0.11122591925E+03  0.11373813549E+03  0.00000000000E+00 0.  1.
<scales pt_clust_5="13000.00000" pt_clust_6="13000.00000" pt_clust_7="13000.00000" pt_clust_8="13000.00000" pt_clust_9="23.77306"></scales>
<clustering>
<clus scale="   23.773">  1  9  2 -1</clus>
<clus scale="   79.091">  5  6 -1 -1</clus>
<clus scale="   91.096">  7  8 -1 -1</clus>
<clus scale="  123.679">  2  5  1 -1</clus>
<clus scale="   23.773">  1  5  2 -1</clus>
</clustering>
</event>
<event>
 9    2  0.2984928E-005  0.1230795E+03  0.7546771E-02  0.1240892E+00
         -1   -1    0    0    0  501 -0.00000000000E+00  0.00000000000E+00  0.39211222729E+03  0.39211222729E+03  0.00000000000E+00 0.  1.
          2   -1    0    0  502    0  0.00000000000E+00 -0.00000000000E+00 -0.93326944294E+02  0.93326944294E+02  0.00000000000E+00 0. -1.
         24    2    1    2    0    0 -0.59495255749E+02 -0.57925551495E+02  0.31480018662E+03  0.33563663512E+03  0.81594965344E+02 0.  0.
         23    2    1    2    0    0  0.43551752292E+02  0.72008404136E+02 -0.13402202352E+01  0.12395938701E+03  0.91006417590E+02 0.  0.
        -11    1    3    3    0    0 -0.50053325051E+02 -0.30053802940E+02  0.80210007711E+02  0.99207921845E+02  0.00000000000E+00 0.  1.
         12    1    3    3    0    0 -0.94419306986E+01 -0.27871748554E+02  0.23459017891E+03  0.23642871328E+03  0.00000000000E+00 0. -1.
        -13    1    4    4    0    0 -0.25306649671E+02  0.31586888831E+01  0.63505356809E+01  0.26281802382E+02  0.00000000000E+00 0.  1.
         13    1    4    4    0    0  0.68858401963E+02  0.68849715253E+02 -0.76907559162E+01  0.97677584624E+02  0.00000000000E+00 0. -1.
         21    1    1    2  502  501  0.15943503457E+02 -0.14082852642E+02 -0.14674683390E+02  0.25843149452E+02  0.00000000000E+00 0. -1.
<scales pt_clust_5="13000.00000" pt_clust_6="13000.00000" pt_clust_7="13000.00000" pt_clust_8="13000.00000" pt_clust_9="21.27257"></scales>
<clustering>
<clus scale="   21.273">  2  9  1 -1</clus>
<clus scale="   81.595">  5  6 -1 -1</clus>
<clus scale="   91.006">  7  8 -1 -1</clus>
<clus scale="  116.293">  1  5  2 -1</clus>
<clus scale="   21.273">  2  5  1 -1</clus>
</clustering>
</event>
<event>
 9    2  0.2984928E-005  0.1807801E+03  0.7546771E-02  0.1168379E+00
         -1   -1    0    0    0  501 -0.00000000000E+00  0.00000000000E+00  0.27750847910E+03  0.27750847910E+03  0.00000000000E+00 0.  1.
          2   -1    0    0  502    0  0.00000000000E+00 -0.00000000000E+00 -0.18754260723E+03  0.18754260723E+03  0.00000000000E+00 0. -1.
         23    2    1    2    0    0  0.54518094670E+02  0.18708939626E+03  0.11223748295E+03  0.24261438633E+03  0.91048465294E+02 0.  0.
         24    2    1    2    0    0 -0.39135999961E+02 -0.10385866654E+03 -0.15489130633E+02  0.13752518577E+03  0.79718344470E+02 0.  0.
        -13    1    4    4    0    0 -0.30089441090E+02 -0.23024798604E+02  0.26259102795E+02  0.46098332893E+02  0.00000000000E+00 0.  1.
         14    1    4    4    0    0 -0.90465588705E+01 -0.80833867931E+02 -0.41748233429E+02  0.91426852875E+02  0.00000000000E+00 0. -1.
        -13    1    3    3    0    0  0.48874702109E+02  0.76368061328E+02  0.93381395381E+02  0.13015722147E+03  0.00000000000E+00 0.  1.
         13    1    3    3    0    0  0.56433925609E+01  0.11072133493E+03  0.18856087574E+02  0.11245716486E+03  0.00000000000E+00 0. -1.
         21    1    1    2  502  501 -0.15382094710E+02 -0.83230729725E+02 -0.67824804519E+01  0.84911514233E+02  0.00000000000E+00 0. -1.
<scales pt_clust_5="13000.00000" pt_clust_6="13000.00000" pt_clust_7="13000.00000" pt_clust_8="13000.00000" pt_clust_9="84.64020"></scales>
<clustering>
<clus scale="   79.718">  5  6 -1 -1</clus>
<clus scale="   84.640">  2  9  1 -1</clus>
<clus scale="   91.048">  7  8 -1 -1</clus>
<clus scale="  175.347">  2  5  1 -1</clus>
<clus scale="   84.640">  2  5  1 -1</clus>
</clustering>
</event>
<event>
 9    2  0.2984928E-005  0.1152536E+03  0.7546771E-02  0.1255246E+00
          2   -1    0    0  502    0  0.00000000000E+00  0.00000000000E+00  0.93319170857E+02  0.93319170857E+02  0.00000000000E+00 0. -1.
         -1   -1    0    0    0  501 -0.00000000000E+00 -0.00000000000E+00 -0.31414038177E+03  0.31414038177E+03  0.00000000000E+00 0.  1.
         23    2    1    2    0    0  0.26370999752E+01  0.50270697688E+02 -0.24197737229E+03  0.26339052835E+03  0.91035291975E+02 0.  0.
         24    2    1    2    0    0 -0.16250387191E+01 -0.73746281009E+02  0.38423296678E+02  0.11490944194E+03  0.79288557849E+02 0.  0.
        -11    1    4    4    0    0  0.33398945139E+02 -0.92310533739E+01  0.15882333478E+02  0.38117586486E+02  0.00000000000E+00 0.  1.
         12    1    4    4    0    0 -0.35023983858E+02 -0.64515227635E+02  0.22540963200E+02  0.76791855454E+02  0.00000000000E+00 0. -1.
        -11    1    3    3    0    0  0.38790658582E+02 -0.17092124217E+01 -0.68788292768E+02  0.78990289417E+02  0.00000000000E+00 0.  1.
         11    1    3    3    0    0 -0.36153558607E+02  0.51979910110E+02 -0.17318907952E+03  0.18440023894E+03  0.00000000000E+00 0. -1.
         21    1    1    2  502  501 -0.10120612561E+01  0.23475583321E+02 -0.17267135304E+02  0.29159582333E+02  0.00000000000E+00 0.  1.
<scales pt_clust_5="13000.00000" pt_clust_6="13000.00000" pt_clust_7="13000.00000" pt_clust_8="13000.00000" pt_clust_9="23.49739"></scales>
<clustering>
<clus scale="   23.497">  2  9  1 -1</clus>
<clus scale="   79.289">  5  6 -1 -1</clus>
<clus scale="   91.035">  7  8 -1 -1</clus>
<clus scale="  106.220">  1  5  2 -1</clus>
<clus scale="  106.220">  1  5  2 -1</clus>
</clustering>
</event>
<event>
 9    2  0.2984928E-005  0.1632063E+03  0.7546771E-02  0.1186384E+00
         -1   -1    0    0    0  501 -0.00000000000E+00  0.00000000000E+00  0.14971966844E+03  0.14971966844E+03  0.00000000000E+00 0.  1.
          2   -1    0    0  502    0  0.00000000000E+00 -0.00000000000E+00 -0.20394114261E+03  0.20394114261E+03  0.00000000000E+00 0. -1.
         24    2    1    2    0    0 -0.96643710487E+02  0.99170746187E+02 -0.15007577981E+02  0.17130333998E+03  0.99723433633E+02 0.  0.
         23    2    1    2    0    0  0.96223486159E+02 -0.76162184958E+02 -0.42178732313E+02  0.15915486924E+03  0.92149819513E+02 0.  0.
        -11    1    3    3    0    0 -0.10368137118E+03  0.40807620636E+02 -0.15631345632E+02  0.11251412177E+03  0.00000000000E+00 0.  1.
         12    1    3    3    0    0  0.70376606882E+01  0.58363125550E+02  0.62376765124E+00  0.58789218213E+02  0.00000000000E+00 0. -1.
        -11    1    4    4    0    0  0.25276629317E+02 -0.34661426847E+02  0.27873497717E+02  0.51159108434E+02  0.00000000000E+00 0.  1.
         11    1    4    4    0    0  0.70946856842E+02 -0.41500758111E+02 -0.70052230030E+02  0.10799576080E+03  0.00000000000E+00 0. -1.
         21    1    1    2  502  501  0.42022432816E+00 -0.23008561229E+02  0.29648361219E+01  0.23202601827E+02  0.00000000000E+00 0.  1.
<scales pt_clust_5="13000.00000" pt_clust_6="13000.00000" pt_clust_7="13000.00000" pt_clust_8="13000.00000" pt_clust_9="23.01240"></scales>
<clustering>
<clus scale="   23.012">  1  9  2 -1</clus>
<clus scale="   92.150">  7  8 -1 -1</clus>
<clus scale="   99.723">  5  6 -1 -1</clus>
<clus scale="  158.692">  2  7  1 -1</clus>
<clus scale="  158.692">  2  5  1 -1</clus>
</clustering>
</event>
<event>
 9    2  0.2984928E-005  0.1078473E+03  0.7546771E-02  0.1268278E+00
         -1   -1    0    0    0  501 -0.00000000000E+00  0.00000000000E+00  0.10899893988E+03  0.10899893988E+03  0.00000000000E+00 0.  1.
          2   -1    0    0  502    0  0.00000000000E+00 -0.00000000000E+00 -0.29860029297E+03  0.29860029297E+03  0.00000000000E+00 0. -1.
         24    2    1    2    0    0  0.30414060814E+02  0.54921221117E+02  0.58060829187E+02  0.11633344824E+03  0.78873669052E+02 0.  0.
         23    2    1    2    0    0 -0.58219304957E+02 -0.33097694952E+02 -0.14326455195E+03  0.18104662515E+03  0.88137414017E+02 0.  0.
        -13    1    3    3    0    0 -0.19192130289E+02  0.43451485959E+02  0.15480434726E+02  0.49960117658E+02  0.00000000000E+00 0.  1.
         14    1    3    3    0    0  0.49606191103E+02  0.11469735159E+02  0.42580394461E+02  0.66373330584E+02  0.00000000000E+00 0. -1.
        -11    1    4    4    0    0 -0.43780489489E+02  0.22956084719E+02 -0.44208435066E+02  0.66318163549E+02  0.00000000000E+00 0.  1.
         11    1    4    4    0    0 -0.14438815468E+02 -0.56053779671E+02 -0.99056116889E+02  0.11472846160E+03  0.00000000000E+00 0. -1.
         21    1    1    2  502  501  0.27805244143E+02 -0.21823526165E+02 -0.10439763032E+03  0.11021915946E+03  0.00000000000E+00 0. -1.
<scales pt_clust_5="13000.00000" pt_clust_6="13000.00000" pt_clust_7="13000.00000" pt_clust_8="13000.00000" pt_clust_9="35.34682"></scales>
<clustering>
<clus scale="   35.347">  2  9  1 -1</clus>
<clus scale="   78.874">  5  6 -1 -1</clus>
<clus scale="   88.137">  7  8 -1 -1</clus>
<clus scale="  100.419">  1  5  2 -1</clus>
<clus scale="   35.347">  2  5  1 -1</clus>
</clustering>
</event>
<event>
 9    2  0.2984928E-005  0.9632945E+02  0.7546771E-02  0.1291106E+00
         -1   -1    0    0    0  501 -0.00000000000E+00  0.00000000000E+00  0.75311007673E+02  0.75311007673E+02  0.00000000000E+00 0.  1.
          2   -1    0    0  502    0  0.00000000000E+00 -0.00000000000E+00 -0.69279266386E+03  0.69279266386E+03  0.00000000000E+00 0. -1.
         23    2    1    2    0    0  0.31324647465E+02 -0.18565209867E+02  0.36442783966E+02  0.10270433902E+03  0.88849334234E+02 0.  0.
         24    2    1    2    0    0 -0.36636722775E+02  0.38956987058E+02 -0.58530366190E+03  0.59361595053E+03  0.83304404404E+02 0.  0.
        -13    1    4    4    0    0  0.22402571214E+02 -0.24549673827E+01 -0.77270193173E+02  0.80489656570E+02  0.00000000000E+00 0.  1.
         14    1    4    4    0    0 -0.59039293989E+02  0.41411954440E+02 -0.50803346873E+03  0.51312629396E+03  0.00000000000E+00 0. -1.
        -11    1    3    3    0    0 -0.50655292524E+01  0.29417172404E+02  0.29697853286E+02  0.42106912837E+02  0.00000000000E+00 0.  1.
         11    1    3    3    0    0  0.36390176717E+02 -0.47982382272E+02  0.67449306801E+01  0.60597426182E+02  0.00000000000E+00 0. -1.
         21    1    1    2  502  501  0.53120753104E+01 -0.20391777190E+02 -0.68620778255E+02  0.71783381986E+02  0.00000000000E+00 0. -1.
<scales pt_clust_5="13000.00000" pt_clust_6="13000.00000" pt_clust_7="13000.00000" pt_clust_8="13000.00000" pt_clust_9="21.07232"></scales>
<clustering>
<clus scale="   21.072">  2  9  1 -1</clus>
<clus scale="   83.304">  5  6 -1 -1</clus>
<clus scale="   88.849">  7  8 -1 -1</clus>
<clus scale="   91.240">  2  5  1 -1</clus>
<clus scale="   21.072">  2  5  1 -1</clus>
</clustering>
</event>
<event>
 9    2  0.2984928E-005  0.1125777E+03  0.7546771E-02  0.1261577E+00
          2   -1    0    0  502    0  0.00000000000E+00  0.00000000000E+00  0.13670617777E+03  0.13670617777E+03  0.00000000000E+00 0. -1.
         -1   -1    0    0    0  501 -0.00000000000E+00 -0.00000000000E+00 -0.16401837702E+03  0.16401837702E+03  0.00000000000E+00 0.  1.
         23    2    1    2    0    0  0.58975595533E+02 -0.36347230380E+02 -0.43932484393E+02  0.12579805045E+03  0.95372135805E+02 0.  0.
         24    2    1    2    0    0 -0.33113696956E+01  0.65011603991E+02  0.35164013225E+02  0.10962702345E+03  0.80895627953E+02 0.  0.
        -11    1    4    4    0    0 -0.34947119283E+02  0.62438507140E+01  0.32544083832E+01  0.35649375757E+02  0.00000000000E+00 0.  1.
         12    1    4    4    0    0  0.31635749588E+02  0.58767753277E+02  0.31909604842E+02  0.73977647694E+02  0.00000000000E+00 0. -1.
        -13    1    3    3    0    0 -0.21290568933E+02 -0.21986891388E+02 -0.30407922550E+02  0.43143405894E+02  0.00000000000E+00 0. -1.
         13    1    3    3    0    0  0.80266164466E+02 -0.14360338992E+02 -0.13524561843E+02  0.82654644559E+02  0.00000000000E+00 0.  1.
         21    1    1    2  502  501 -0.55664225838E+02 -0.28664373610E+02 -0.18543728085E+02  0.65299480885E+02  0.00000000000E+00 0.  1.
<scales pt_clust_5="13000.00000" pt_clust_6="13000.00000" pt_clust_7="13000.00000" pt_clust_8="13000.00000" pt_clust_9="62.61112"></scales>
<clustering>
<clus scale="   62.611">  2  9  1 -1</clus>
<clus scale="   80.896">  5  6 -1 -1</clus>
<clus scale="   95.372">  7  8 -1 -1</clus>
<clus scale="  100.608">  1  5  2 -1</clus>
<clus scale="  100.608">  1  5  2 -1</clus>
</clustering>
</event>
<event>
 9    2  0.2984928E-005  0.1296009E+03  0.7546771E-02  0.1231666E+00
          2   -1    0    0  502    0  0.00000000000E+00  0.00000000000E+00  0.55007217077E+03  0.55007217077E+03  0.00000000000E+00 0. -1.
         -1   -1    0    0    0  501 -0.00000000000E+00 -0.00000000000E+00 -0.68791873477E+02  0.68791873477E+02  0.00000000000E+00 0.  1.
         24    2    1    2    0    0 -0.93602010970E+02  0.48165042111E+02  0.31161892715E+02  0.13602575470E+03  0.80316465585E+02 0.  0.
         23    2    1    2    0    0  0.24006869756E+02 -0.25622668469E+02  0.29053347857E+03  0.30728490479E+03  0.93709442479E+02 0.  0.
        -11    1    3    3    0    0 -0.65909864077E+02 -0.70941378206E+01 -0.11069471579E+01  0.66299791147E+02  0.00000000000E+00 0.  1.
         12    1    3    3    0    0 -0.27692146893E+02  0.55259179932E+02  0.32268839873E+02  0.69725963550E+02  0.00000000000E+00 0. -1.
        -13    1    4    4    0    0 -0.34113905577E+02 -0.92601089897E+01  0.67158528914E+02  0.75893189273E+02  0.00000000000E+00 0.  1.
         13    1    4    4    0    0  0.58120775333E+02 -0.16362559479E+02  0.22337494965E+03  0.23139171552E+03  0.00000000000E+00 0. -1.
         21    1    1    2  502  501  0.69595141214E+02 -0.22542373642E+02  0.15958492601E+03  0.17555338476E+03  0.00000000000E+00 0. -1.
<scales pt_clust_5="13000.00000" pt_clust_6="13000.00000" pt_clust_7="13000.00000" pt_clust_8="13000.00000" pt_clust_9="73.15492"></scales>
<clustering>
<clus scale="   73.155">  1  9  2 -1</clus>
<clus scale="   80.316">  5  6 -1 -1</clus>
<clus scale="   93.709">  7  8 -1 -1</clus>
<clus scale="  120.273">  2  5  1 -1</clus>
<clus scale="   73.155">  1  5  2 -1</clus>
</clustering>
</event>
<event>
 9    2  0.2984928E-005  0.1061510E+03  0.7546771E-02  0.1273770E+00
         -1   -1    0    0    0  501 -0.00000000000E+00  0.00000000000E+00  0.20414083069E+03  0.20414083069E+03  0.00000000000E+00 0.  1.
          2   -1    0    0  502    0  0.00000000000E+00 -0.00000000000E+00 -0.21895602596E+03  0.21895602596E+03  0.00000000000E+00 0. -1.
         24    2    1    2    0    0  0.10600650107E+02 -0.63833869081E+02  0.92659498804E+02  0.13767951741E+03  0.78630338751E+02 0.  0.
         23    2    1    2    0    0 -0.31826240167E+02  0.41309161429E+02 -0.17874159018E+03  0.20772011529E+03  0.92085470384E+02 0.  0.
        -11    1    3    3    0    0  0.44621282238E+02 -0.40571332169E+02  0.60269406785E+02  0.85261323099E+02  0.00000000000E+00 0.  1.
         12    1    3    3    0    0 -0.34020632131E+02 -0.23262536912E+02  0.32390092019E+02  0.52418194314E+02  0.00000000000E+00 0. -1.
        -13    1    4    4    0    0  0.11373469692E+02  0.42130439454E+02 -0.30321528989E+02  0.53138732217E+02  0.00000000000E+00 0.  1.
         13    1    4    4    0    0 -0.43199709859E+02 -0.82127802550E+00 -0.14842006119E+03  0.15458138307E+03  0.00000000000E+00 0. -1.
         21    1    1    2  502  501  0.21225590060E+02  0.22524707652E+02  0.71266896109E+02  0.77697223948E+02  0.00000000000E+00 0. -1.
<scales pt_clust_5="13000.00000" pt_clust_6="13000.00000" pt_clust_7="13000.00000" pt_clust_8="13000.00000" pt_clust_9="30.94977"></scales>
<clustering>
<clus scale="   30.950">  1  9  2 -1</clus>
<clus scale="   78.630">  5  6 -1 -1</clus>
<clus scale="   92.085">  7  8 -1 -1</clus>
<clus scale="   94.716">  1  5  2 -1</clus>
<clus scale="  106.151">  2  5  1 -1</clus>
</clustering>
</event>
<event>
 9    2  0.2984928E-005  0.1091001E+03  0.7546771E-02  0.1265710E+00
         -1   -1    0    0    0  501 -0.00000000000E+00  0.00000000000E+00  0.34646332168E+03  0.34646332168E+03  0.00000000000E+00 0.  1.
          2   -1    0    0  502    0  0.00000000000E+00 -0.00000000000E+00 -0.24238014201E+03  0.24238014201E+03  0.00000000000E+00 0. -1.
         24    2    1    2    0    0  0.33098485625E+02  0.49717863250E+02  0.28356652430E+03  0.30137314871E+03  0.82755213628E+02 0.  0.
         23    2    1    2    0    0  0.79807736756E+01 -0.72801353370E+02 -0.17074499774E+02  0.11836388120E+03  0.91404267013E+02 0.  0.
        -13    1    3    3    0    0  0.51828886124E+02  0.66903482197E+01  0.18442530628E+03  0.19168643090E+03  0.00000000000E+00 0.  1.
         14    1    3    3    0    0 -0.18730400499E+02  0.43027515030E+02  0.99141218025E+02  0.10968671781E+03  0.00000000000E+00 0. -1.
        -13    1    4    4    0    0 -0.24808622108E+02 -0.51229384779E+02 -0.42990184049E+02  0.71330733351E+02  0.00000000000E+00 0. -1.
         13    1    4    4    0    0  0.32789395784E+02 -0.21571968591E+02  0.25915684275E+02  0.47033147845E+02  0.00000000000E+00 0.  1.
         21    1    1    2  502  501 -0.41079259300E+02  0.23083490120E+02 -0.16240884486E+03  0.16910643379E+03  0.00000000000E+00 0. -1.
<scales pt_clust_5="13000.00000" pt_clust_6="13000.00000" pt_clust_7="13000.00000" pt_clust_8="13000.00000" pt_clust_9="47.12062"></scales>
<clustering>
<clus scale="   47.121">  2  9  1 -1</clus>
<clus scale="   82.755">  5  6 -1 -1</clus>
<clus scale="   91.404">  7  8 -1 -1</clus>
<clus scale="  101.963">  1  5  2 -1</clus>
<clus scale="   47.121">  2  5  1 -1</clus>
</clustering>
</event>
<event>
 9    2  0.2984928E-005  0.1109171E+03  0.7546771E-02  0.1262394E+00
          4   -1    0    0  502    0  0.00000000000E+00  0.00000000000E+00  0.12351013170E+03  0.12351013170E+03  0.00000000000E+00 0. -1.
         -3   -1    0    0    0  501 -0.00000000000E+00 -0.00000000000E+00 -0.14474854911E+03  0.14474854911E+03  0.00000000000E+00 0.  1.
         23    2    1    2    0    0  0.59560397864E+02 -0.37329802371E+02 -0.69633425191E+02  0.13399761288E+03  0.90363660920E+02 0.  0.
         24    2    1    2    0    0 -0.50644334068E+02  0.18697916633E+02  0.20537608327E+02  0.99581418793E+02  0.81118462470E+02 0.  0.
        -11    1    4    4    0    0 -0.28432528050E+02  0.42609980140E+02 -0.12933235615E+02  0.52832638040E+02  0.00000000000E+00 0.  1.
         12    1    4    4    0    0 -0.22211806018E+02 -0.23912063506E+02  0.33470843942E+02  0.46748780753E+02  0.00000000000E+00 0. -1.
        -13    1    3    3    0    0  0.94033851106E+01 -0.39179777414E+02  0.84551162633E+01  0.41169984221E+02  0.00000000000E+00 0.  1.
         13    1    3    3    0    0  0.50157012753E+02  0.18499750428E+01 -0.78088541454E+02  0.92827628659E+02  0.00000000000E+00 0. -1.
         21    1    1    2  502  501 -0.89160637955E+01  0.18631885737E+02  0.27857399460E+02  0.34679649139E+02  0.00000000000E+00 0. -1.
<scales pt_clust_5="13000.00000" pt_clust_6="13000.00000" pt_clust_7="13000.00000" pt_clust_8="13000.00000" pt_clust_9="20.65535"></scales>
<clustering>
<clus scale="   20.655">  1  9  2 -1</clus>
<clus scale="   81.118">  5  6 -1 -1</clus>
<clus scale="   90.364">  7  8 -1 -1</clus>
<clus scale="  103.524">  1  5  2 -1</clus>
<clus scale="   20.655">  1  5  2 -1</clus>
</clustering>
</event>
<event>
 9    2  0.2984928E-005  0.1033988E+03  0.7546771E-02  0.1282117E+00
         -1   -1    0    0    0  501 -0.00000000000E+00  0.00000000000E+00  0.19557480385E+02  0.19557480385E+02  0.00000000000E+00 0.  1.
          2   -1    0    0  502    0  0.00000000000E+00 -0.00000000000E+00 -0.87117873643E+03  0.87117873643E+03  0.00000000000E+00 0. -1.
         23    2    1    2    0    0  0.35335070688E+02  0.84684101874E+01 -0.19019017070E+03  0.21776972179E+03  0.99654751554E+02 0.  0.
         24    2    1    2    0    0 -0.12262132971E+02  0.18452569917E+02 -0.39721962945E+03  0.40638668886E+03  0.82920743022E+02 0.  0.
        -13    1    4    4    0    0 -0.31752537828E+02  0.42025866361E+02 -0.20049789287E+03  0.20730123527E+03  0.00000000000E+00 0.  1.
         14    1    4    4    0    0  0.19490404857E+02 -0.23573296444E+02 -0.19672173658E+03  0.19908545359E+03  0.00000000000E+00 0. -1.
        -13    1    3    3    0    0 -0.28548730146E+02 -0.13505531773E+02 -0.28526712893E+02  0.42558227523E+02  0.00000000000E+00 0. -1.
         13    1    3    3    0    0  0.63883800834E+02  0.21973941960E+02 -0.16166345780E+03  0.17521149427E+03  0.00000000000E+00 0.  1.
         21    1    1    2  502  501 -0.23072937717E+02 -0.26920980104E+02 -0.26421145590E+03  0.26657980616E+03  0.00000000000E+00 0. -1.
<scales pt_clust_5="13000.00000" pt_clust_6="13000.00000" pt_clust_7="13000.00000" pt_clust_8="13000.00000" pt_clust_9="35.45560"></scales>
<clustering>
<clus scale="   35.456">  2  9  1 -1</clus>
<clus scale="   82.921">  5  6 -1 -1</clus>
<clus scale="   87.385">  2  5  1 -1</clus>
<clus scale="   99.655">  7  8 -1 -1</clus>
<clus scale="   35.456">  2  5  1 -1</clus>
</clustering>
</event>
<event>
 9    2  0.2984928E-005  0.9008778E+02  0.7546771E-02  0.1308266E+00
          2   -1    0    0  502    0  0.00000000000E+00  0.00000000000E+00  0.26359787823E+03  0.26359787823E+03  0.00000000000E+00 0. -1.
         -1   -1    0    0    0  501 -0.00000000000E+00 -0.00000000000E+00 -0.12351057355E+03  0.12351057355E+03  0.00000000000E+00 0.  1.
         23    2    1    2    0    0  0.12985935561E+02  0.16875057299E+01 -0.86604629019E+02  0.12539384240E+03  0.89731665242E+02 0.  0.
         24    2    1    2    0    0  0.29144776542E+02  0.62284122818E+01  0.13047493908E+03  0.15638005326E+03  0.80887577599E+02 0.  0.
        -13    1    4    4    0    0  0.26779975549E+02  0.18821383678E+02  0.86133922780E+01  0.33846744312E+02  0.00000000000E+00 0.  1.
         14    1    4    4    0    0  0.23648009927E+01 -0.12592971396E+02  0.12186154680E+03  0.12253330895E+03  0.00000000000E+00 0. -1.
        -13    1    3    3    0    0 -0.30434442224E+02 -0.11178590766E+02 -0.70026779888E+02  0.77168426617E+02  0.00000000000E+00 0. -1.
         13    1    3    3    0    0  0.43420377784E+02  0.12866096495E+02 -0.16577849131E+02  0.48225415786E+02  0.00000000000E+00 0.  1.
         21    1    1    2  502  501 -0.42130712103E+02 -0.79159180116E+01  0.96216994616E+02  0.10533455612E+03  0.00000000000E+00 0. -1.
<scales pt_clust_5="13000.00000" pt_clust_6="13000.00000" pt_clust_7="13000.00000" pt_clust_8="13000.00000" pt_clust_9="42.86792"></scales>
<clustering>
<clus scale="   42.868">  1  9  2 -1</clus>
<clus scale="   80.888">  5  6 -1 -1</clus>
<clus scale="   81.282">  1  5  2 -1</clus>
<clus scale="   89.732">  7  8 -1 -1</clus>
<clus scale="   42.868">  1  5  2 -1</clus>
</clustering>
</event>
<event>
 9    2  0.2984928E-005  0.1133187E+03  0.7546771E-02  0.1257155E+00
          4   -1    0    0  502    0  0.00000000000E+00  0.00000000000E+00  0.39944053955E+03  0.39944053955E+03  0.00000000000E+00 0. -1.
         -3   -1    0    0    0  501 -0.00000000000E+00 -0.00000000000E+00 -0.10087975617E+03  0.10087975617E+03  0.00000000000E+00 0.  1.
         24    2    1    2    0    0  0.38172395855E+02  0.73593540795E+01 -0.17332270011E+02  0.10835848649E+03  0.99648693478E+02 0.  0.
         23    2    1    2    0    0 -0.97098813384E+02 -0.34103988028E+02  0.11290381388E+03  0.17890728691E+03  0.93108992906E+02 0.  0.
        -13    1    3    3    0    0  0.14406255148E+02  0.39560495310E+02 -0.43502699461E+02  0.60539721150E+02  0.00000000000E+00 0.  1.
         14    1    3    3    0    0  0.23766140706E+02 -0.32201141230E+02  0.26170429450E+02  0.47818765335E+02  0.00000000000E+00 0. -1.
        -11    1    4    4    0    0 -0.68180673709E+02 -0.88295329838E+01  0.12145241619E+03  0.13956093407E+03  0.00000000000E+00 0.  1.
         11    1    4    4    0    0 -0.28918139675E+02 -0.25274455044E+02 -0.85486023120E+01  0.39346352836E+02  0.00000000000E+00 0. -1.
         21    1    1    2  502  501  0.58926417529E+02  0.26744633948E+02  0.20298923951E+03  0.21305452233E+03  0.00000000000E+00 0. -1.
<scales pt_clust_5="13000.00000" pt_clust_6="13000.00000" pt_clust_7="13000.00000" pt_clust_8="13000.00000" pt_clust_9="64.71165"></scales>
<clustering>
<clus scale="   64.712">  1  9  2 -1</clus>
<clus scale="   93.109">  7  8 -1 -1</clus>
<clus scale="   99.649">  5  6 -1 -1</clus>
<clus scale="  107.613">  1  7  2 -1</clus>
<clus scale="   64.712">  1  5  2 -1</clus>
</clustering>
</event>
<event>
 9    2  0.2984928E-005  0.9406280E+02  0.7546771E-02  0.1303229E+00
         -1   -1    0    0    0  501 -0.00000000000E+00  0.00000000000E+00  0.11189264619E+03  0.11189264619E+03  0.00000000000E+00 0.  1.
          2   -1    0    0  502    0  0.00000000000E+00 -0.00000000000E+00 -0.38574164554E+03  0.38574164554E+03  0.00000000000E+00 0. -1.
         23    2    1    2    0    0  0.18617537875E+02 -0.43008332335E-01  0.80887725794E+02  0.12381610839E+03  0.91874860248E+02 0.  0.
         24    2    1    2    0    0 -0.43315106958E+02 -0.45689034800E+01 -0.31443296501E+03  0.32632468136E+03  0.75648098531E+02 0.  0.
        -13    1    4    4    0    0 -0.39895891603E+02  0.25355462604E+02 -0.25860836966E+03  0.26289326828E+03  0.00000000000E+00 0.  1.
         14    1    4    4    0    0 -0.34192153557E+01 -0.29924366084E+02 -0.55824595352E+02  0.63431413081E+02  0.00000000000E+00 0. -1.
        -13    1    3    3    0    0  0.54200445188E+02  0.29366458788E+01  0.65137831320E+02  0.84789440478E+02  0.00000000000E+00 0.  1.
         13    1    3    3    0    0 -0.35582907313E+02 -0.29796542112E+01  0.15749894475E+02  0.39026667908E+02  0.00000000000E+00 0. -1.
         21    1    1    2  502  501  0.24697569083E+02  0.46119118123E+01 -0.40303760131E+02  0.47493501975E+02  0.00000000000E+00 0.  1.
<scales pt_clust_5="13000.00000" pt_clust_6="13000.00000" pt_clust_7="13000.00000" pt_clust_8="13000.00000" pt_clust_9="25.12448"></scales>
<clustering>
<clus scale="   25.124">  2  9  1 -1</clus>
<clus scale="   75.648">  5  6 -1 -1</clus>
<clus scale="   78.291">  2  5  1 -1</clus>
<clus scale="   91.875">  7  8 -1 -1</clus>
<clus scale="   25.124">  2  5  1 -1</clus>
</clustering>
</event>
<event>
 9    2  0.2984928E-005  0.1231555E+03  0.7546771E-02  0.1241018E+00
          2   -1    0    0  502    0  0.00000000000E+00  0.00000000000E+00  0.98981407587E+03  0.98981407587E+03  0.00000000000E+00 0. -1.
         -1   -1    0    0    0  501 -0.00000000000E+00 -0.00000000000E+00 -0.20632344019E+02  0.20632344019E+02  0.00000000000E+00 0.  1.
         23    2    1    2    0    0  0.55796587879E+02 -0.69921060996E+02  0.27024431263E+03  0.29880525304E+03  0.90831584508E+02 0.  0.
         24    2    1    2    0    0 -0.31011197939E+02  0.64094301991E+02  0.59466510314E+03  0.60430532672E+03  0.80551654660E+02 0.  0.
        -13    1    4    4    0    0 -0.17416134392E+02  0.79018162419E+02  0.37048294047E+03  0.37921603461E+03  0.00000000000E+00 0.  1.
         14    1    4    4    0    0 -0.13595063547E+02 -0.14923860427E+02  0.22418216267E+03  0.22508929211E+03  0.00000000000E+00 0. -1.
        -11    1    3    3    0    0  0.74732667573E+02 -0.45438137176E+02  0.14113848001E+03  0.16604115891E+03  0.00000000000E+00 0.  1.
         11    1    3    3    0    0 -0.18936079694E+02 -0.24482923820E+02  0.12910583262E+03  0.13276409413E+03  0.00000000000E+00 0. -1.
         21    1    1    2  502  501 -0.24785389940E+02  0.58267590045E+01  0.10427231608E+03  0.10733584013E+03  0.00000000000E+00 0. -1.
<scales pt_clust_5="13000.00000" pt_clust_6="13000.00000" pt_clust_7="13000.00000" pt_clust_8="13000.00000" pt_clust_9="25.46108"></scales>
<clustering>
<clus scale="   25.461">  1  9  2 -1</clus>
<clus scale="   80.552">  5  6 -1 -1</clus>
<clus scale="   90.832">  7  8 -1 -1</clus>
<clus scale="  115.782">  1  5  2 -1</clus>
<clus scale="   25.461">  1  5  2 -1</clus>
</clustering>
</event>
<event>
 9    2  0.2984928E-005  0.9965058E+02  0.7546771E-02  0.1287898E+00
         -1   -1    0    0    0  501 -0.00000000000E+00  0.00000000000E+00  0.17488846669E+03  0.17488846669E+03  0.00000000000E+00 0.  1.
          2   -1    0    0  502    0  0.00000000000E+00 -0.00000000000E+00 -0.85391902699E+02  0.85391902699E+02  0.00000000000E+00 0. -1.
         23    2    1    2    0    0  0.21693494156E+02  0.24371935732E+02  0.10742997124E+03  0.14591018779E+03  0.93187902866E+02 0.  0.
         24    2    1    2    0    0 -0.41293287448E+02 -0.18283263716E+02 -0.10505152410E+02  0.92543528299E+02  0.80090780259E+02 0.  0.
        -13    1    4    4    0    0 -0.60913020153E+02  0.20945937891E+01  0.33580799400E+01  0.61041461714E+02  0.00000000000E+00 0.  1.
         14    1    4    4    0    0  0.19619732705E+02 -0.20377857505E+02 -0.13863232350E+02  0.31502066585E+02  0.00000000000E+00 0. -1.
        -11    1    3    3    0    0 -0.15289293403E+02  0.41256778992E+02  0.17747729006E+02  0.47443294472E+02  0.00000000000E+00 0.  1.
         11    1    3    3    0    0  0.36982787559E+02 -0.16884843260E+02  0.89682242239E+02  0.98466893322E+02  0.00000000000E+00 0. -1.
         21    1    1    2  502  501  0.19599793292E+02 -0.60886720155E+01 -0.74282548454E+01  0.21826653294E+02  0.00000000000E+00 0. -1.
<scales pt_clust_5="13000.00000" pt_clust_6="13000.00000" pt_clust_7="13000.00000" pt_clust_8="13000.00000" pt_clust_9="20.52374"></scales>
<clustering>
<clus scale="   20.524">  2  9  1 -1</clus>
<clus scale="   80.091">  5  6 -1 -1</clus>
<clus scale="   87.526">  2  5  1 -1</clus>
<clus scale="   93.188">  7  8 -1 -1</clus>
<clus scale="   20.524">  2  5  1 -1</clus>
</clustering>
</event>
<event>
 9    2  0.2984928E-005  0.3153975E+03  0.7546771E-02  0.1078155E+00
         -1   -1    0    0    0  501 -0.00000000000E+00  0.00000000000E+00  0.69505984932E+03  0.69505984932E+03  0.00000000000E+00 0.  1.
          2   -1    0    0  502    0  0.00000000000E+00 -0.00000000000E+00 -0.31712000123E+03  0.31712000123E+03  0.00000000000E+00 0. -1.
         23    2    1    2    0    0  0.10968656024E+03  0.28542322102E+03  0.55716495968E+03  0.64197901598E+03  0.90590882947E+02 0.  0.
         24    2    1    2    0    0 -0.11869367633E+03 -0.25509984098E+03 -0.15997244849E+03  0.33316975905E+03  0.79036614315E+02 0.  0.
        -11    1    4    4    0    0 -0.47724274962E+02 -0.15583118356E+03 -0.54409546581E+02  0.17181781907E+03  0.00000000000E+00 0.  1.
         12    1    4    4    0    0 -0.70969401365E+02 -0.99268657413E+02 -0.10556290191E+03  0.16135193998E+03  0.00000000000E+00 0. -1.
        -13    1    3    3    0    0  0.43051934833E+02  0.21542899341E+03  0.42280680434E+03  0.47647530271E+03  0.00000000000E+00 0.  1.
         13    1    3    3    0    0  0.66634625403E+02  0.69994227608E+02  0.13435815534E+03  0.16550371327E+03  0.00000000000E+00 0. -1.
         21    1    1    2  502  501  0.90071160916E+01 -0.30323380040E+02 -0.19252663097E+02  0.37031075513E+02  0.00000000000E+00 0. -1.
<scales pt_clust_5="13000.00000" pt_clust_6="13000.00000" pt_clust_7="13000.00000" pt_clust_8="13000.00000" pt_clust_9="31.63282"></scales>
<clustering>
<clus scale="   31.633">  2  9  1 -1</clus>
<clus scale="   79.037">  5  6 -1 -1</clus>
<clus scale="   90.591">  7  8 -1 -1</clus>
<clus scale="  312.275">  2  5  1 -1</clus>
<clus scale="   31.633">  2  5  1 -1</clus>
</clustering>
</event>
<event>
 9    2  0.2984928E-005  0.1372197E+03  0.7546771E-02  0.1239446E+00
          2   -1    0    0  502    0  0.00000000000E+00  0.00000000000E+00  0.13609525086E+04  0.13609525086E+04  0.00000000000E+00 0. -1.
         -1   -1    0    0    0  501 -0.00000000000E+00 -0.00000000000E+00 -0.32655101434E+02  0.32655101434E+02  0.00000000000E+00 0.  1.
         23    2    1    2    0    0 -0.23366614138E+02  0.10388921047E+03  0.16452028908E+03  0.21600651676E+03  0.90845600083E+02 0.  0.
         24    2    1    2    0    0 -0.18334493544E+02 -0.21640458956E+02  0.49338722461E+03  0.50089846377E+03  0.81632435240E+02 0.  0.
        -11    1    4    4    0    0  0.21774692377E+02 -0.11868976938E+01  0.42492680184E+02  0.47761635477E+02  0.00000000000E+00 0.  1.
         12    1    4    4    0    0 -0.40109185921E+02 -0.20453561263E+02  0.45089454443E+03  0.45313682830E+03  0.00000000000E+00 0. -1.
        -13    1    3    3    0    0  0.32706376306E+02  0.55615384017E+02  0.61222599680E+02  0.88943716484E+02  0.00000000000E+00 0.  1.
         13    1    3    3    0    0 -0.56072990445E+02  0.48273826450E+02  0.10329768940E+03  0.12706280027E+03  0.00000000000E+00 0. -1.
         21    1    1    2  502  501  0.41701107683E+02 -0.82248751510E+02  0.67038989343E+03  0.67670262946E+03  0.00000000000E+00 0. -1.
<scales pt_clust_5="13000.00000" pt_clust_6="13000.00000" pt_clust_7="13000.00000" pt_clust_8="13000.00000" pt_clust_9="102.84131"></scales>
<clustering>
<clus scale="   81.632">  5  6 -1 -1</clus>
<clus scale="   86.419">  1  5  2 -1</clus>
<clus scale="   90.846">  7  8 -1 -1</clus>
<clus scale="  102.841">  1  9  2 -1</clus>
<clus scale="   86.419">  1  5  2 -1</clus>
</clustering>
</event>
<event>
 9    2  0.2984928E-005  0.9262035E+02  0.7546771E-02  0.1302694E+00
          4   -1    0    0  502    0  0.00000000000E+00  0.00000000000E+00  0.36588308542E+03  0.36588308542E+03  0.00000000000E+00 0. -1.
         -3   -1    0    0    0  501 -0.00000000000E+00 -0.00000000000E+00 -0.63898218204E+02  0.63898218204E+02  0.00000000000E+00 0.  1.
         23    2    1    2    0    0 -0.83428326990E+01 -0.18238255504E+02 -0.79012851894E+01  0.93805785216E+02  0.91295444635E+02 0.  0.
         24    2    1    2    0    0  0.10772615387E+02 -0.44781875813E+01  0.12437972667E+03  0.14906758754E+03  0.81330964850E+02 0.  0.
        -11    1    4    4    0    0 -0.19202811708E+02  0.23640178915E+02  0.91496012293E+02  0.96431977591E+02  0.00000000000E+00 0.  1.
         12    1    4    4    0    0  0.29975427095E+02 -0.28118366496E+02  0.32883714378E+02  0.52635609953E+02  0.00000000000E+00 0. -1.
        -11    1    3    3    0    0  0.14371067083E+02 -0.17114458523E+02  0.37142054447E+02  0.43347023752E+02  0.00000000000E+00 0. -1.
         11    1    3    3    0    0 -0.22713899782E+02 -0.11237969813E+01 -0.45043339636E+02  0.50458761464E+02  0.00000000000E+00 0.  1.
         21    1    1    2  502  501 -0.24297826878E+01  0.22716443086E+02  0.18550642574E+03  0.18690793087E+03  0.00000000000E+00 0.  1.
<scales pt_clust_5="13000.00000" pt_clust_6="13000.00000" pt_clust_7="13000.00000" pt_clust_8="13000.00000" pt_clust_9="22.84602"></scales>
<clustering>
<clus scale="   22.846">  1  9  2 -1</clus>
<clus scale="   81.331">  5  6 -1 -1</clus>
<clus scale="   82.815">  1  5  2 -1</clus>
<clus scale="   91.295">  7  8 -1 -1</clus>
<clus scale="   22.846">  1  5  2 -1</clus>
</clustering>
</event>
<event>
 9    2  0.2984928E-005  0.1041595E+03  0.7546771E-02  0.1277645E+00
          2   -1    0    0  502    0  0.00000000000E+00  0.00000000000E+00  0.13776749136E+04  0.13776749136E+04  0.00000000000E+00 0. -1.
         -1   -1    0    0    0  501 -0.00000000000E+00 -0.00000000000E+00 -0.19100988463E+02  0.19100988463E+02  0.00000000000E+00 0.  1.
         23    2    1    2    0    0 -0.26576166244E+02 -0.10529315319E+02  0.19446809836E+03  0.21877367346E+03  0.96056857267E+02 0.  0.
         24    2    1    2    0    0  0.10812191894E+01 -0.50776149518E+02  0.91347632721E+03  0.91872728110E+03  0.83913230658E+02 0.  0.
        -11    1    4    4    0    0 -0.20504018974E+02  0.15067016876E+02  0.15306478051E+03  0.15516525650E+03  0.00000000000E+00 0.  1.
         12    1    4    4    0    0  0.21585238164E+02 -0.65843166394E+02  0.76041154670E+03  0.76356202460E+03  0.00000000000E+00 0. -1.
        -13    1    3    3    0    0 -0.47124408138E+02  0.21213664657E+02  0.60480916751E+02  0.79552942759E+02  0.00000000000E+00 0.  1.
         13    1    3    3    0    0  0.20548241894E+02 -0.31742979976E+02  0.13398718161E+03  0.13922073070E+03  0.00000000000E+00 0. -1.
         21    1    1    2  502  501  0.25494947055E+02  0.61305464837E+02  0.25062949958E+03  0.25927494750E+03  0.00000000000E+00 0. -1.
<scales pt_clust_5="13000.00000" pt_clust_6="13000.00000" pt_clust_7="13000.00000" pt_clust_8="13000.00000" pt_clust_9="66.39542"></scales>
<clustering>
<clus scale="   66.395">  2  9  1 -1</clus>
<clus scale="   83.913">  5  6 -1 -1</clus>
<clus scale="   93.079">  1  5  2 -1</clus>
<clus scale="   96.057">  7  8 -1 -1</clus>
<clus scale="   93.079">  1  5  2 -1</clus>
</clustering>
</event>
<event>
 9    2  0.2984928E-005  0.9437935E+02  0.7546771E-02  0.1297934E+00
         -1   -1    0    0    0  501 -0.00000000000E+00  0.00000000000E+00  0.12320486584E+03  0.12320486584E+03  0.00000000000E+00 0.  1.
          2   -1    0    0  502    0  0.00000000000E+00 -0.00000000000E+00 -0.33425206238E+03  0.33425206238E+03  0.00000000000E+00 0. -1.
         23    2    1    2    0    0  0.20131723179E+02 -0.11723217257E+02  0.88932141062E+02  0.12938844196E+03  0.91047916492E+02 0.  0.
         24    2    1    2    0    0 -0.50124245846E+02  0.32436472454E+01 -0.26151666790E+03  0.27856261302E+03  0.81750844129E+02 0.  0.
        -11    1    4    4    0    0 -0.52331122393E+02  0.29978173571E+02 -0.22684462930E+03  0.23472478162E+03  0.00000000000E+00 0.  1.
         12    1    4    4    0    0  0.22068765467E+01 -0.26734526326E+02 -0.34672038598E+02  0.43837831407E+02  0.00000000000E+00 0. -1.
        -13    1    3    3    0    0  0.16689551196E+02 -0.44433711058E+02  0.17217541233E+02  0.50490984577E+02  0.00000000000E+00 0. -1.
         13    1    3    3    0    0  0.34421719836E+01  0.32710493800E+02  0.71714599829E+02  0.78897457381E+02  0.00000000000E+00 0.  1.
         21    1    1    2  502  501  0.29992522667E+02  0.84795700118E+01 -0.38462669703E+02  0.49505873230E+02  0.00000000000E+00 0.  1.
<scales pt_clust_5="13000.00000" pt_clust_6="13000.00000" pt_clust_7="13000.00000" pt_clust_8="13000.00000" pt_clust_9="31.16817"></scales>
<clustering>
<clus scale="   31.168">  2  9  1 -1</clus>
<clus scale="   81.751">  5  6 -1 -1</clus>
<clus scale="   85.446">  2  5  1 -1</clus>
<clus scale="   91.048">  7  8 -1 -1</clus>
<clus scale="   31.168">  2  5  1 -1</clus>
</clustering>
</event>
<event>
 9    2  0.2984928E-005  0.9925785E+02  0.7546771E-02  0.1287863E+00
          2   -1    0    0  502    0  0.00000000000E+00  0.00000000000E+00  0.13761890963E+03  0.13761890963E+03  0.00000000000E+00 0. -1.
         -1   -1    0    0    0  501 -0.00000000000E+00 -0.00000000000E+00 -0.93590281760E+02  0.93590281760E+02  0.00000000000E+00 0.  1.
         23    2    1    2    0    0 -0.20609956754E+02  0.26039193940E+02 -0.17876782925E+02  0.98947827582E+02  0.91478321350E+02 0.  0.
         24    2    1    2    0    0  0.33218236940E+01 -0.42406910827E+02  0.59656928716E+02  0.10834824247E+03  0.79818618773E+02 0.  0.
        -13    1    4    4    0    0  0.31765648616E+02 -0.39080316498E+01  0.18447398472E+00  0.32005674091E+02  0.00000000000E+00 0.  1.
         14    1    4    4    0    0 -0.28443824922E+02 -0.38498879177E+02  0.59472454732E+02  0.76342568374E+02  0.00000000000E+00 0. -1.
        -13    1    3    3    0    0  0.92453627169E+01 -0.21761852128E+02  0.20062581338E+02  0.31009064960E+02  0.00000000000E+00 0.  1.
         13    1    3    3    0    0 -0.29855319471E+02  0.47801046067E+02 -0.37939364263E+02  0.67938762621E+02  0.00000000000E+00 0. -1.
         21    1    1    2  502  501  0.17288133060E+02  0.16367716888E+02  0.22484820812E+01  0.23913121345E+02  0.00000000000E+00 0.  1.
<scales pt_clust_5="13000.00000" pt_clust_6="13000.00000" pt_clust_7="13000.00000" pt_clust_8="13000.00000" pt_clust_9="23.80718"></scales>
<clustering>
<clus scale="   23.807">  2  9  1 -1</clus>
<clus scale="   79.819">  5  6 -1 -1</clus>
<clus scale="   88.628">  1  5  2 -1</clus>
<clus scale="   91.478">  7  8 -1 -1</clus>
<clus scale="   88.628">  1  5  2 -1</clus>
</clustering>
</event>
<event>
 9    2  0.2984928E-005  0.3120969E+03  0.7546771E-02  0.1112577E+00
          2   -1    0    0  502    0  0.00000000000E+00  0.00000000000E+00  0.93138352551E+03  0.93138352551E+03  0.00000000000E+00 0. -1.
         -1   -1    0    0    0  501 -0.00000000000E+00 -0.00000000000E+00 -0.17767530919E+03  0.17767530919E+03  0.00000000000E+00 0.  1.
         23    2    1    2    0    0 -0.11036038647E+02 -0.26622322863E+03  0.16788836045E+03  0.32262411041E+03  0.70022949306E+02 0.  0.
         24    2    1    2    0    0  0.36239807730E+02 -0.97679659230E+02  0.28500867223E+03  0.31362619013E+03  0.79226286041E+02 0.  0.
        -13    1    4    4    0    0  0.51198071035E+02 -0.90047543147E+02  0.27549623456E+03  0.29432631170E+03  0.00000000000E+00 0.  1.
         14    1    4    4    0    0 -0.14958263305E+02 -0.76321160830E+01  0.95124376718E+01  0.19299878432E+02  0.00000000000E+00 0. -1.
        -11    1    3    3    0    0 -0.91030097631E+01 -0.15623115541E+03  0.57351180281E+02  0.16667392294E+03  0.00000000000E+00 0.  1.
         11    1    3    3    0    0 -0.19330288841E+01 -0.10999207322E+03  0.11053718017E+03  0.15595018747E+03  0.00000000000E+00 0. -1.
         21    1    1    2  502  501 -0.25203769082E+02  0.36390288786E+03  0.30081118364E+03  0.47280853416E+03  0.00000000000E+00 0. -1.
<scales pt_clust_5="13000.00000" pt_clust_6="13000.00000" pt_clust_7="13000.00000" pt_clust_8="13000.00000" pt_clust_9="304.14024"></scales>
<clustering>
<clus scale="   70.023">  7  8 -1 -1</clus>
<clus scale="   79.226">  5  6 -1 -1</clus>
<clus scale="  130.887">  1  5  2 -1</clus>
<clus scale="  304.140">  1  9  2 -1</clus>
<clus scale="  130.887">  1  5  2 -1</clus>
</clustering>
</event>
<event>
 9    2  0.3083383E-005  0.5471816E+03  0.7546771E-02  0.1002230E+00
         -1   -1    0    0    0  501 -0.00000000000E+00  0.00000000000E+00  0.36265556043E+03  0.36265556043E+03  0.00000000000E+00 0.  1.
          2   -1    0    0  502    0  0.00000000000E+00 -0.00000000000E+00 -0.20674472719E+04  0.20674472719E+04  0.00000000000E+00 0. -1.
         24    2    1    2    0    0 -0.39108017010E+03 -0.37701236816E+03  0.79449418038E+02  0.55513723067E+03  0.82359636062E+02 0.  0.
         23    2    1    2    0    0  0.34260127125E+03  0.38581350717E+03 -0.15696948681E+04  0.16548343637E+04  0.91143286409E+02 0.  0.
        -11    1    3    3    0    0 -0.31147563082E+03 -0.25454804772E+03  0.73749820957E+02  0.40896309526E+03  0.00000000000E+00 0.  1.
         12    1    3    3    0    0 -0.79604539283E+02 -0.12246432044E+03  0.56995970807E+01  0.14617413541E+03  0.00000000000E+00 0. -1.
        -13    1    4    4    0    0  0.67687191569E+02  0.50060241755E+02 -0.17513462139E+03  0.19431860260E+03  0.00000000000E+00 0.  1.
         13    1    4    4    0    0  0.27491407968E+03  0.33575326541E+03 -0.13945602468E+04  0.14605157611E+04  0.00000000000E+00 0. -1.
         21    1    1    2  502  501  0.48478898847E+02 -0.88011390074E+01 -0.21454626133E+03  0.22013123798E+03  0.00000000000E+00 0. -1.
<scales pt_clust_5="13000.00000" pt_clust_6="13000.00000" pt_clust_7="13000.00000" pt_clust_8="13000.00000" pt_clust_9="49.27133"></scales>
<clustering>
<clus scale="   49.271">  2  9  1 -1</clus>
<clus scale="   82.360">  5  6 -1 -1</clus>
<clus scale="   91.143">  7  8 -1 -1</clus>
<clus scale="  545.787">  1  5  2 -1</clus>
<clus scale="   49.271">  2  5  1 -1</clus>
</clustering>
</event>
<event>
 9    2  0.2984928E-005  0.9826186E+02  0.7546771E-02  0.1290627E+00
         -1   -1    0    0    0  501 -0.00000000000E+00  0.00000000000E+00  0.66957428277E+02  0.66957428277E+02  0.00000000000E+00 0.  1.
          2   -1    0    0  502    0  0.00000000000E+00 -0.00000000000E+00 -0.36077598443E+03  0.36077598443E+03  0.00000000000E+00 0. -1.
         23    2    1    2    0    0 -0.11627792590E+02 -0.26882127575E+02  0.12764221629E+02  0.98610173994E+02  0.93290871568E+02 0.  0.
         24    2    1    2    0    0  0.38179263703E+02  0.25177007853E+02 -0.23552145354E+03  0.25324438886E+03  0.81060640954E+02 0.  0.
        -11    1    4    4    0    0  0.57785518765E+02  0.59928572345E+01 -0.10625907323E+03  0.12110355553E+03  0.00000000000E+00 0.  1.
         12    1    4    4    0    0 -0.19606255062E+02  0.19184150618E+02 -0.12926238031E+03  0.13214083334E+03  0.00000000000E+00 0. -1.
        -13    1    3    3    0    0  0.39135093537E+02 -0.26035280996E+02  0.67027967706E+01  0.47479668146E+02  0.00000000000E+00 0. -1.
         13    1    3    3    0    0 -0.50762886126E+02 -0.84684657858E+00  0.60614248585E+01  0.51130505848E+02  0.00000000000E+00 0.  1.
         21    1    1    2  502  501 -0.26551471113E+02  0.17051197222E+01 -0.71061324243E+02  0.75878849851E+02  0.00000000000E+00 0. -1.
<scales pt_clust_5="13000.00000" pt_clust_6="13000.00000" pt_clust_7="13000.00000" pt_clust_8="13000.00000" pt_clust_9="26.60617"></scales>
<clustering>
<clus scale="   26.606">  2  9  1 -1</clus>
<clus scale="   81.061">  5  6 -1 -1</clus>
<clus scale="   86.735">  2  5  1 -1</clus>
<clus scale="   93.291">  7  8 -1 -1</clus>
<clus scale="   26.606">  2  5  1 -1</clus>
</clustering>
</event>
<event>
 9    2  0.2984928E-005  0.1737657E+03  0.7546771E-02  0.1174403E+00
          2   -1    0    0  502    0  0.00000000000E+00  0.00000000000E+00  0.85082640109E+03  0.85082640109E+03  0.00000000000E+00 0. -1.
         -1   -1    0    0    0  501 -0.00000000000E+00 -0.00000000000E+00 -0.55282470945E+02  0.55282470945E+02  0.00000000000E+00 0.  1.
         23    2    1    2    0    0 -0.60840032883E+02  0.14160575753E+03  0.14727955261E+03  0.23195259849E+03  0.91416853817E+02 0.  0.
         24    2    1    2    0    0  0.62653618684E+02 -0.11326596402E+03  0.55174831044E+03  0.57354919528E+03  0.88191988276E+02 0.  0.
        -11    1    4    4    0    0 -0.20257947038E+02 -0.88165487022E+01  0.56664313535E+02  0.60819079059E+02  0.00000000000E+00 0.  1.
         12    1    4    4    0    0  0.82911565722E+02 -0.10444941532E+03  0.49508399690E+03  0.51273011622E+03  0.00000000000E+00 0. -1.
        -11    1    3    3    0    0 -0.45750115791E+02  0.54304175886E+02  0.14727746230E+02  0.72518432984E+02  0.00000000000E+00 0.  1.
         11    1    3    3    0    0 -0.15089917093E+02  0.87301581642E+02  0.13255180638E+03  0.15943416550E+03  0.00000000000E+00 0. -1.
         21    1    1    2  502  501 -0.18135858006E+01 -0.28339793504E+02  0.96516067098E+02  0.10060707827E+03  0.00000000000E+00 0.  1.
<scales pt_clust_5="13000.00000" pt_clust_6="13000.00000" pt_clust_7="13000.00000" pt_clust_8="13000.00000" pt_clust_9="28.39776"></scales>
<clustering>
<clus scale="   28.398">  1  9  2 -1</clus>
<clus scale="   88.192">  5  6 -1 -1</clus>
<clus scale="   91.417">  7  8 -1 -1</clus>
<clus scale="  172.091">  1  5  2 -1</clus>
<clus scale="   28.398">  1  5  2 -1</clus>
</clustering>
</event>
<event>
 9    2  0.2984928E-005  0.1170105E+03  0.7546771E-02  0.1253137E+00
          2   -1    0    0  502    0  0.00000000000E+00  0.00000000000E+00  0.58439767386E+03  0.58439767386E+03  0.00000000000E+00 0. -1.
         -1   -1    0    0    0  501 -0.00000000000E+00 -0.00000000000E+00 -0.35966825279E+02  0.35966825279E+02  0.00000000000E+00 0.  1.
         23    2    1    2    0    0  0.78144435724E+02 -0.14377083650E+02  0.10809849350E+03  0.16294871685E+03  0.92486467419E+02 0.  0.
         24    2    1    2    0    0 -0.53819578009E+02  0.75480480982E+01  0.29518148786E+03  0.31008245719E+03  0.77881316620E+02 0.  0.
        -11    1    4    4    0    0 -0.29967601565E+02  0.40640890386E+02  0.11956241288E+03  0.12978794123E+03  0.00000000000E+00 0.  1.
         12    1    4    4    0    0 -0.23851976444E+02 -0.33092842288E+02  0.17561907497E+03  0.18029451596E+03  0.00000000000E+00 0. -1.
        -13    1    3    3    0    0  0.29659903554E+01  0.30149275367E+02  0.10765533086E+02  0.32150779253E+02  0.00000000000E+00 0.  1.
         13    1    3    3    0    0  0.75178445369E+02 -0.44526359017E+02  0.97332960417E+02  0.13079793759E+03  0.00000000000E+00 0. -1.
         21    1    1    2  502  501 -0.24324857715E+02  0.68290355513E+01  0.14515086722E+03  0.14733332510E+03  0.00000000000E+00 0. -1.
<scales pt_clust_5="13000.00000" pt_clust_6="13000.00000" pt_clust_7="13000.00000" pt_clust_8="13000.00000" pt_clust_9="25.26528"></scales>
<clustering>
<clus scale="   25.265">  1  9  2 -1</clus>
<clus scale="   77.881">  5  6 -1 -1</clus>
<clus scale="   92.486">  7  8 -1 -1</clus>
<clus scale="  105.845">  1  5  2 -1</clus>
<clus scale="   25.265">  1  5  2 -1</clus>
</clustering>
</event>
<event>
 9    2  0.2984928E-005  0.9191758E+02  0.7546771E-02  0.1307260E+00
          2   -1    0    0  502    0  0.00000000000E+00  0.00000000000E+00  0.41595292910E+03  0.41595292910E+03  0.00000000000E+00 0. -1.
         -1   -1    0    0    0  501 -0.00000000000E+00 -0.00000000000E+00 -0.53361793792E+02  0.53361793792E+02  0.00000000000E+00 0.  1.
         24    2    1    2    0    0  0.16635782834E+00  0.59547305077E-01 -0.81962837753E+01  0.78311567878E+02  0.77881264596E+02 0.  0.
         23    2    1    2    0    0 -0.80745321714E+01  0.23894010237E+02  0.24837464115E+03  0.26601835457E+03  0.91867735402E+02 0.  0.
        -13    1    3    3    0    0 -0.18042396070E+02  0.19395329523E+02 -0.32762933494E+02  0.42132133514E+02  0.00000000000E+00 0.  1.
         14    1    3    3    0    0  0.18208753898E+02 -0.19335782218E+02  0.24566649719E+02  0.36179434365E+02  0.00000000000E+00 0. -1.
        -11    1    4    4    0    0  0.40595268360E+02  0.21079039068E+02  0.10338216122E+03  0.11304942707E+03  0.00000000000E+00 0. -1.
         11    1    4    4    0    0 -0.48669800531E+02  0.28149711686E+01  0.14499247992E+03  0.15296892750E+03  0.00000000000E+00 0.  1.
         21    1    1    2  502  501  0.79081743431E+01 -0.23953557542E+02  0.12241277794E+03  0.12498480045E+03  0.00000000000E+00 0. -1.
<scales pt_clust_5="13000.00000" pt_clust_6="13000.00000" pt_clust_7="13000.00000" pt_clust_8="13000.00000" pt_clust_9="25.22523"></scales>
<clustering>
<clus scale="   25.225">  1  9  2 -1</clus>
<clus scale="   77.881">  5  6 -1 -1</clus>
<clus scale="   77.940">  2  5  1 -1</clus>
<clus scale="   91.868">  7  8 -1 -1</clus>
<clus scale="   25.225">  1  5  2 -1</clus>
</clustering>
</event>
<event>
 9    2  0.2984928E-005  0.1274374E+03  0.7546771E-02  0.1234681E+00
          2   -1    0    0  502    0  0.00000000000E+00  0.00000000000E+00  0.10178498531E+04  0.10178498531E+04  0.00000000000E+00 0. -1.
         -1   -1    0    0    0  501 -0.00000000000E+00 -0.00000000000E+00 -0.50688599416E+02  0.50688599416E+02  0.00000000000E+00 0.  1.
         23    2    1    2    0    0 -0.13544933402E+01  0.87932528338E+02  0.53586150869E+02  0.13860191413E+03  0.92763413281E+02 0.  0.
         24    2    1    2    0    0  0.47856968499E+02 -0.81442398627E+02  0.58639758303E+03  0.59940706703E+03  0.80644608613E+02 0.  0.
        -13    1    4    4    0    0  0.47407325349E+02 -0.82965483891E+02  0.34456432872E+03  0.35756859851E+03  0.00000000000E+00 0.  1.
         14    1    4    4    0    0  0.44964314973E+00  0.15230852646E+01  0.24183325431E+03  0.24183846852E+03  0.00000000000E+00 0. -1.
        -11    1    3    3    0    0  0.36034472283E+02  0.82498934234E+02  0.38777378465E+02  0.98021642626E+02  0.00000000000E+00 0.  1.
         11    1    3    3    0    0 -0.37388965623E+02  0.54335941037E+01  0.14808772404E+02  0.40580271505E+02  0.00000000000E+00 0. -1.
         21    1    1    2  502  501 -0.46502475159E+02 -0.64901297112E+01  0.32717751981E+03  0.33052947137E+03  0.00000000000E+00 0. -1.
<scales pt_clust_5="13000.00000" pt_clust_6="13000.00000" pt_clust_7="13000.00000" pt_clust_8="13000.00000" pt_clust_9="46.95319"></scales>
<clustering>
<clus scale="   46.953">  1  9  2 -1</clus>
<clus scale="   80.645">  5  6 -1 -1</clus>
<clus scale="   92.763">  7  8 -1 -1</clus>
<clus scale="  118.907">  1  5  2 -1</clus>
<clus scale="   46.953">  1  5  2 -1</clus>
</clustering>
</event>
<event>
 9    2  0.2984928E-005  0.9074857E+02  0.7546771E-02  0.1306717E+00
         -1   -1    0    0    0  501 -0.00000000000E+00  0.00000000000E+00  0.32056053373E+03  0.32056053373E+03  0.00000000000E+00 0.  1.
          2   -1    0    0  502    0  0.00000000000E+00 -0.00000000000E+00 -0.69185483027E+02  0.69185483027E+02  0.00000000000E+00 0. -1.
         24    2    1    2    0    0 -0.21100302187E+02 -0.21463009372E+01  0.23182396118E+03  0.24589114488E+03  0.79185079335E+02 0.  0.
         23    2    1    2    0    0 -0.19264297907E+01 -0.24068394256E+02 -0.17132235628E+02  0.93227735150E+02  0.88401913836E+02 0.  0.
        -13    1    3    3    0    0 -0.46836125506E+02 -0.19698138707E+02  0.14140654944E+03  0.15025795002E+03  0.00000000000E+00 0.  1.
         14    1    3    3    0    0  0.25735823319E+02  0.17551837770E+02  0.90417411748E+02  0.95633194855E+02  0.00000000000E+00 0. -1.
        -11    1    4    4    0    0  0.19720292365E+02  0.17258432697E+02 -0.34606985119E+02  0.43409524867E+02  0.00000000000E+00 0. -1.
         11    1    4    4    0    0 -0.21646722156E+02 -0.41326826953E+02  0.17474749490E+02  0.49818210284E+02  0.00000000000E+00 0.  1.
         21    1    1    2  502  501  0.23026731977E+02  0.26214695193E+02  0.36683325144E+02  0.50627136728E+02  0.00000000000E+00 0. -1.
<scales pt_clust_5="13000.00000" pt_clust_6="13000.00000" pt_clust_7="13000.00000" pt_clust_8="13000.00000" pt_clust_9="34.89184"></scales>
<clustering>
<clus scale="   34.892">  1  9  2 -1</clus>
<clus scale="   79.185">  5  6 -1 -1</clus>
<clus scale="   81.797">  1  5  2 -1</clus>
<clus scale="   88.402">  7  8 -1 -1</clus>
<clus scale="   90.749">  2  5  1 -1</clus>
</clustering>
</event>
<event>
 9    2  0.2984928E-005  0.1108255E+03  0.7546771E-02  0.1273293E+00
          2   -1    0    0  502    0  0.00000000000E+00  0.00000000000E+00  0.38118756292E+03  0.38118756292E+03  0.00000000000E+00 0. -1.
         -1   -1    0    0    0  501 -0.00000000000E+00 -0.00000000000E+00 -0.42023857949E+02  0.42023857949E+02  0.00000000000E+00 0.  1.
         23    2    1    2    0    0 -0.65653282506E+02 -0.22848337085E+02  0.67508159269E+02  0.13397477328E+03  0.92517502648E+02 0.  0.
         24    2    1    2    0    0  0.43878847313E+02  0.86996837753E+01  0.19003933959E+03  0.20358902346E+03  0.57727828151E+02 0.  0.
        -11    1    4    4    0    0  0.49516458703E+02  0.13514529423E+02  0.18930368954E+03  0.19613874952E+03  0.00000000000E+00 0.  1.
         12    1    4    4    0    0 -0.56376113895E+01 -0.48148456475E+01  0.73565004263E+00  0.74502739395E+01  0.00000000000E+00 0. -1.
        -13    1    3    3    0    0 -0.71364258917E+02 -0.45538320522E+02  0.30091623227E+02  0.89844876733E+02  0.00000000000E+00 0.  1.
         13    1    3    3    0    0  0.57109764104E+01  0.22689983436E+02  0.37416536042E+02  0.44129896548E+02  0.00000000000E+00 0. -1.
         21    1    1    2  502  501  0.21774435193E+02  0.14148653310E+02  0.81616206118E+02  0.85647624133E+02  0.00000000000E+00 0. -1.
<scales pt_clust_5="13000.00000" pt_clust_6="13000.00000" pt_clust_7="13000.00000" pt_clust_8="13000.00000" pt_clust_9="25.96749"></scales>
<clustering>
<clus scale="   25.967">  1  9  2 -1</clus>
<clus scale="   57.728">  5  6 -1 -1</clus>
<clus scale="   83.996">  1  5  2 -1</clus>
<clus scale="   92.518">  7  8 -1 -1</clus>
<clus scale="   25.967">  1  5  2 -1</clus>
</clustering>
</event>
<event>
 9    2  0.2984928E-005  0.1744791E+03  0.7546771E-02  0.1174469E+00
          2   -1    0    0  502    0  0.00000000000E+00  0.00000000000E+00  0.10991795289E+04  0.10991795289E+04  0.00000000000E+00 0. -1.
         -1   -1    0    0    0  501 -0.00000000000E+00 -0.00000000000E+00 -0.43673541536E+02  0.43673541536E+02  0.00000000000E+00 0.  1.
         23    2    1    2    0    0  0.12293206104E+02 -0.15379246714E+03  0.19919467749E+03  0.26797270504E+03  0.91255713476E+02 0.  0.
         24    2    1    2    0    0 -0.17162000315E+02  0.13040840846E+03  0.71773434392E+03  0.73425997266E+03  0.81818285002E+02 0.  0.
        -13    1    4    4    0    0  0.18615309963E+02  0.38177239942E+02  0.99880046752E+02  0.10853596249E+03  0.00000000000E+00 0.  1.
         14    1    4    4    0    0 -0.35777310278E+02  0.92231168518E+02  0.61785429716E+03  0.62572401017E+03  0.00000000000E+00 0. -1.
        -11    1    3    3    0    0  0.20261756923E+02 -0.36655502070E+02  0.65810928083E+01  0.42396643831E+02  0.00000000000E+00 0. -1.
         11    1    3    3    0    0 -0.79685508184E+01 -0.11713696507E+03  0.19261358468E+03  0.22557606121E+03  0.00000000000E+00 0.  1.
         21    1    1    2  502  501  0.48687942108E+01  0.23384058684E+02  0.13857696598E+03  0.14062039275E+03  0.00000000000E+00 0. -1.
<scales pt_clust_5="13000.00000" pt_clust_6="13000.00000" pt_clust_7="13000.00000" pt_clust_8="13000.00000" pt_clust_9="23.88555"></scales>
<clustering>
<clus scale="   23.886">  1  9  2 -1</clus>
<clus scale="   81.818">  5  6 -1 -1</clus>
<clus scale="   91.256">  7  8 -1 -1</clus>
<clus scale="  169.734">  1  5  2 -1</clus>
<clus scale="   23.886">  1  5  2 -1</clus>
</clustering>
</event>
<event>
 9    2  0.2984928E-005  0.1134027E+03  0.7546771E-02  0.1258141E+00
          2   -1    0    0  502    0  0.00000000000E+00  0.00000000000E+00  0.39513523706E+03  0.39513523706E+03  0.00000000000E+00 0. -1.
         -1   -1    0    0    0  501 -0.00000000000E+00 -0.00000000000E+00 -0.12597197315E+03  0.12597197315E+03  0.00000000000E+00 0.  1.
         23    2    1    2    0    0  0.33968554745E+02  0.81952019550E+02 -0.61563434386E+02  0.14159467680E+03  0.91591483363E+02 0.  0.
         24    2    1    2    0    0 -0.54219226618E+02 -0.37780449530E+02  0.30898534166E+03  0.32627810942E+03  0.81353404502E+02 0.  0.
        -13    1    4    4    0    0 -0.41698781834E+02 -0.43193874139E+01  0.51871994213E+02  0.66694447277E+02  0.00000000000E+00 0.  1.
         14    1    4    4    0    0 -0.12520444784E+02 -0.33461062116E+02  0.25711334745E+03  0.25958366215E+03  0.00000000000E+00 0. -1.
        -11    1    3    3    0    0 -0.29963857165E+02  0.23481924576E+02 -0.32967596390E+02  0.50359665703E+02  0.00000000000E+00 0.  1.
         11    1    3    3    0    0  0.63932411910E+02  0.58470094974E+02 -0.28595837996E+02  0.91235011096E+02  0.00000000000E+00 0. -1.
         21    1    1    2  502  501  0.20250671873E+02 -0.44171570020E+02  0.21741356638E+02  0.53234423993E+02  0.00000000000E+00 0.  1.
<scales pt_clust_5="13000.00000" pt_clust_6="13000.00000" pt_clust_7="13000.00000" pt_clust_8="13000.00000" pt_clust_9="48.59236"></scales>
<clustering>
<clus scale="   48.592">  2  9  1 -1</clus>
<clus scale="   81.353">  5  6 -1 -1</clus>
<clus scale="   91.591">  7  8 -1 -1</clus>
<clus scale="  105.307">  1  5  2 -1</clus>
<clus scale="  105.307">  1  5  2 -1</clus>
</clustering>
</event>
<event>
 9    2  0.2984928E-005  0.1182735E+03  0.7546771E-02  0.1249945E+00
         -1   -1    0    0    0  501 -0.00000000000E+00  0.00000000000E+00  0.14458763959E+02  0.14458763959E+02  0.00000000000E+00 0.  1.
          2   -1    0    0  502    0  0.00000000000E+00 -0.00000000000E+00 -0.14308908251E+04  0.14308908251E+04  0.00000000000E+00 0. -1.
         23    2    1    2    0    0 -0.38095565530E+02 -0.63997720689E+02 -0.37308278457E+03  0.39146459592E+03  0.92232235984E+02 0.  0.
         24    2    1    2    0    0  0.65689234273E+01  0.75628163490E+02 -0.89393503843E+03  0.90073862223E+03  0.80295969856E+02 0.  0.
        -13    1    4    4    0    0 -0.27783530295E+02  0.28704204642E+02 -0.17715259649E+03  0.18160093162E+03  0.00000000000E+00 0.  1.
         14    1    4    4    0    0  0.34352453723E+02  0.46923958848E+02 -0.71678244194E+03  0.71913769061E+03  0.00000000000E+00 0. -1.
        -11    1    3    3    0    0 -0.63728869627E+02 -0.43148274752E+02 -0.18289836678E+03  0.19843123497E+03  0.00000000000E+00 0.  1.
         11    1    3    3    0    0  0.25633304097E+02 -0.20849445937E+02 -0.19018441778E+03  0.19303336096E+03  0.00000000000E+00 0. -1.
         21    1    1    2  502  501  0.31526642103E+02 -0.11630442802E+02 -0.14941423818E+03  0.15314637094E+03  0.00000000000E+00 0.  1.
<scales pt_clust_5="13000.00000" pt_clust_6="13000.00000" pt_clust_7="13000.00000" pt_clust_8="13000.00000" pt_clust_9="33.60352"></scales>
<clustering>
<clus scale="   33.604">  1  9  2 -1</clus>
<clus scale="   80.296">  5  6 -1 -1</clus>
<clus scale="   92.232">  7  8 -1 -1</clus>
<clus scale="  109.221">  2  5  1 -1</clus>
<clus scale="  109.221">  2  5  1 -1</clus>
</clustering>
</event>
<event>
 9    2  0.2984928E-005  0.1032514E+03  0.7546771E-02  0.1278822E+00
         -1   -1    0    0    0  501 -0.00000000000E+00  0.00000000000E+00  0.27215422089E+03  0.27215422089E+03  0.00000000000E+00 0.  1.
          2   -1    0    0  502    0  0.00000000000E+00 -0.00000000000E+00 -0.10977738572E+03  0.10977738572E+03  0.00000000000E+00 0. -1.
         24    2    1    2    0    0 -0.47264915238E+02  0.45141558110E+01  0.22626446687E+03  0.24528018003E+03  0.81929286181E+02 0.  0.
         23    2    1    2    0    0  0.25313303541E+02  0.52488214744E+00 -0.41558265478E+02  0.10493603984E+03  0.92970125262E+02 0.  0.
        -11    1    3    3    0    0 -0.61299090730E+02  0.27949074194E+02  0.16233993780E+03  0.17576400280E+03  0.00000000000E+00 0.  1.
         12    1    3    3    0    0  0.14034175492E+02 -0.23434918383E+02  0.63924529066E+02  0.69516177237E+02  0.00000000000E+00 0. -1.
        -13    1    4    4    0    0  0.29704892320E+02 -0.23561878367E+02  0.16935133172E+02  0.41525190854E+02  0.00000000000E+00 0.  1.
         13    1    4    4    0    0 -0.43915887783E+01  0.24086760515E+02 -0.58493398650E+02  0.63410848990E+02  0.00000000000E+00 0. -1.
         21    1    1    2  502  501  0.21951611697E+02 -0.50390379585E+01 -0.22329366217E+02  0.31715386728E+02  0.00000000000E+00 0. -1.
<scales pt_clust_5="13000.00000" pt_clust_6="13000.00000" pt_clust_7="13000.00000" pt_clust_8="13000.00000" pt_clust_9="22.52255"></scales>
<clustering>
<clus scale="   22.523">  2  9  1 -1</clus>
<clus scale="   81.929">  5  6 -1 -1</clus>
<clus scale="   92.970">  7  8 -1 -1</clus>
<clus scale="   93.433">  1  5  2 -1</clus>
<clus scale="   22.523">  2  5  1 -1</clus>
</clustering>
</event>
<event>
 9    2  0.2984928E-005  0.1642544E+03  0.7546771E-02  0.1185600E+00
          2   -1    0    0  502    0  0.00000000000E+00  0.00000000000E+00  0.25440810140E+03  0.25440810140E+03  0.00000000000E+00 0. -1.
         -1   -1    0    0    0  501 -0.00000000000E+00 -0.00000000000E+00 -0.39958780110E+03  0.39958780110E+03  0.00000000000E+00 0.  1.
         24    2    1    2    0    0  0.14045108042E+03 -0.12439541550E+02 -0.32169128969E+03  0.36036494478E+03  0.80599996116E+02 0.  0.
         23    2    1    2    0    0 -0.10953640643E+03  0.37834700105E+02  0.42361674303E+02  0.15364227595E+03  0.91551890450E+02 0.  0.
        -13    1    3    3    0    0  0.10151120110E+03  0.85128678834E+01 -0.28580492182E+03  0.30341629193E+03  0.00000000000E+00 0.  1.
         14    1    3    3    0    0  0.38939879320E+02 -0.20952409433E+02 -0.35886367872E+02  0.56948652851E+02  0.00000000000E+00 0. -1.
        -11    1    4    4    0    0 -0.88692989745E+02  0.64430754779E+02  0.47480647015E+02  0.11946623135E+03  0.00000000000E+00 0. -1.
         11    1    4    4    0    0 -0.20843416683E+02 -0.26596054674E+02 -0.51189727121E+01  0.34176044606E+02  0.00000000000E+00 0.  1.
         21    1    1    2  502  501 -0.30914673995E+02 -0.25395158555E+02  0.13414991569E+03  0.13998868178E+03  0.00000000000E+00 0. -1.
<scales pt_clust_5="13000.00000" pt_clust_6="13000.00000" pt_clust_7="13000.00000" pt_clust_8="13000.00000" pt_clust_9="40.00789"></scales>
<clustering>
<clus scale="   40.008">  1  9  2 -1</clus>
<clus scale="   80.600">  5  6 -1 -1</clus>
<clus scale="   91.552">  7  8 -1 -1</clus>
<clus scale="  158.411">  2  5  1 -1</clus>
<clus scale="   40.008">  1  5  2 -1</clus>
</clustering>
</event>
<event>
 9    2  0.2984928E-005  0.9371754E+02  0.7546771E-02  0.1298813E+00
          2   -1    0    0  502    0  0.00000000000E+00  0.00000000000E+00  0.90197896481E+02  0.90197896481E+02  0.00000000000E+00 0. -1.
         -1   -1    0    0    0  501 -0.00000000000E+00 -0.00000000000E+00 -0.17822809663E+03  0.17822809663E+03  0.00000000000E+00 0.  1.
         23    2    1    2    0    0  0.39136017227E+02  0.37537510529E+01 -0.11696527778E+03  0.15212687885E+03  0.88971863935E+02 0.  0.
         24    2    1    2    0    0 -0.22216650666E+02 -0.17737960395E+02  0.36637130392E+02  0.93036597359E+02  0.80655528756E+02 0.  0.
        -11    1    4    4    0    0  0.28300287092E+02 -0.17298845576E+02  0.53045023509E+01  0.33590088612E+02  0.00000000000E+00 0.  1.
         12    1    4    4    0    0 -0.50516937758E+02 -0.43911481909E+00  0.31332628041E+02  0.59446508747E+02  0.00000000000E+00 0. -1.
        -13    1    3    3    0    0  0.65148494865E+02  0.10403582283E+02 -0.10174877993E+03  0.12126572114E+03  0.00000000000E+00 0.  1.
         13    1    3    3    0    0 -0.26012477638E+02 -0.66498312300E+01 -0.15216497849E+02  0.30861157708E+02  0.00000000000E+00 0. -1.
         21    1    1    2  502  501 -0.16919366561E+02  0.13984209342E+02 -0.77020527626E+01  0.23262516900E+02  0.00000000000E+00 0. -1.
<scales pt_clust_5="13000.00000" pt_clust_6="13000.00000" pt_clust_7="13000.00000" pt_clust_8="13000.00000" pt_clust_9="21.95047"></scales>
<clustering>
<clus scale="   21.950">  2  9  1 -1</clus>
<clus scale="   80.656">  5  6 -1 -1</clus>
<clus scale="   85.862">  1  5  2 -1</clus>
<clus scale="   88.972">  7  8 -1 -1</clus>
<clus scale="   85.862">  1  5  2 -1</clus>
</clustering>
</event>
<event>
 9    2  0.2984928E-005  0.1068763E+03  0.7546771E-02  0.1270397E+00
          2   -1    0    0  502    0  0.00000000000E+00  0.00000000000E+00  0.17483755130E+03  0.17483755130E+03  0.00000000000E+00 0. -1.
         -1   -1    0    0    0  501 -0.00000000000E+00 -0.00000000000E+00 -0.11757349468E+03  0.11757349468E+03  0.00000000000E+00 0.  1.
         24    2    1    2    0    0  0.61493663770E+02 -0.85168391551E+01 -0.59816356077E+02  0.11888809333E+03  0.81868034345E+02 0.  0.
         23    2    1    2    0    0 -0.34162645082E+02 -0.29024806491E+01  0.80014037586E+02  0.12607506955E+03  0.91198499108E+02 0.  0.
        -11    1    3    3    0    0  0.45489898399E+02  0.32536029447E+02 -0.19689211935E+02  0.59292403689E+02  0.00000000000E+00 0.  1.
         12    1    3    3    0    0  0.16003765371E+02 -0.41052868602E+02 -0.40127144142E+02  0.59595689638E+02  0.00000000000E+00 0. -1.
        -13    1    4    4    0    0 -0.49772766130E+02  0.12635353486E+02  0.95279198339E+01  0.52227977774E+02  0.00000000000E+00 0.  1.
         13    1    4    4    0    0  0.15610121048E+02 -0.15537834135E+02  0.70486117752E+02  0.73847091781E+02  0.00000000000E+00 0. -1.
         21    1    1    2  502  501 -0.27331018688E+02  0.11419319804E+02  0.37066375104E+02  0.47447883100E+02  0.00000000000E+00 0.  1.
<scales pt_clust_5="13000.00000" pt_clust_6="13000.00000" pt_clust_7="13000.00000" pt_clust_8="13000.00000" pt_clust_9="29.62069"></scales>
<clustering>
<clus scale="   29.621">  1  9  2 -1</clus>
<clus scale="   81.868">  5  6 -1 -1</clus>
<clus scale="   91.198">  7  8 -1 -1</clus>
<clus scale="   99.034">  2  5  1 -1</clus>
<clus scale="   29.621">  1  5  2 -1</clus>
</clustering>
</event>
<event>
 9    2  0.3076381E-005  0.1068498E+03  0.7546771E-02  0.1273255E+00
          2   -1    0    0  502    0  0.00000000000E+00  0.00000000000E+00  0.21498982110E+03  0.21498982110E+03  0.00000000000E+00 0. -1.
         -1   -1    0    0    0  501 -0.00000000000E+00 -0.00000000000E+00 -0.34182131015E+03  0.34182131015E+03  0.00000000000E+00 0.  1.
         24    2    1    2    0    0  0.39619357440E+01 -0.52228013322E+02 -0.31616516631E+03  0.32989553288E+03  0.78276356042E+02 0.  0.
         23    2    1    2    0    0 -0.11827550078E+02  0.31714544691E+02  0.17294859264E+03  0.19950864155E+03  0.93524216505E+02 0.  0.
        -11    1    3    3    0    0 -0.30344013621E+02 -0.38363552607E+02 -0.24336318864E+03  0.24823006046E+03  0.00000000000E+00 0.  1.
         12    1    3    3    0    0  0.34305949365E+02 -0.13864460715E+02 -0.72801977675E+02  0.81665472424E+02  0.00000000000E+00 0. -1.
        -11    1    4    4    0    0  0.65412474208E+01  0.45042937442E+02  0.17074453381E+03  0.17670696069E+03  0.00000000000E+00 0. -1.
         11    1    4    4    0    0 -0.18368797498E+02 -0.13328392751E+02  0.22040588312E+01  0.22801680863E+02  0.00000000000E+00 0.  1.
         21    1    1    2  502  501  0.78656143337E+01  0.20513468631E+02  0.16385084621E+02  0.27406956820E+02  0.00000000000E+00 0. -1.
<scales pt_clust_5="13000.00000" pt_clust_6="13000.00000" pt_clust_7="13000.00000" pt_clust_8="13000.00000" pt_clust_9="21.96976"></scales>
<clustering>
<clus scale="   21.970">  1  9  2 -1</clus>
<clus scale="   78.276">  5  6 -1 -1</clus>
<clus scale="   93.524">  7  8 -1 -1</clus>
<clus scale="   93.794">  2  5  1 -1</clus>
<clus scale="   21.970">  1  5  2 -1</clus>
</clustering>
</event>
<event>
 9    2  0.2984928E-005  0.9811500E+02  0.7546771E-02  0.1289055E+00
         -1   -1    0    0    0  501 -0.00000000000E+00  0.00000000000E+00  0.34048143418E+03  0.34048143418E+03  0.00000000000E+00 0.  1.
          2   -1    0    0  502    0  0.00000000000E+00 -0.00000000000E+00 -0.63648848911E+02  0.63648848911E+02  0.00000000000E+00 0. -1.
         24    2    1    2    0    0  0.48380276265E+02 -0.65525813417E+01  0.25972640944E+03  0.27572278249E+03  0.78623517901E+02 0.  0.
         23    2    1    2    0    0 -0.11995007050E+02  0.89564342500E+01  0.32359944414E+01  0.89394063732E+02  0.88072294519E+02 0.  0.
        -13    1    3    3    0    0  0.29114432121E+02  0.23266308587E+02  0.21697644306E+03  0.22015391915E+03  0.00000000000E+00 0.  1.
         14    1    3    3    0    0  0.19265844144E+02 -0.29818889929E+02  0.42749966380E+02  0.55568863338E+02  0.00000000000E+00 0. -1.
        -11    1    4    4    0    0  0.22012104533E+02  0.37672694532E+02  0.88843265236E+01  0.44527473733E+02  0.00000000000E+00 0.  1.
         11    1    4    4    0    0 -0.34007111583E+02 -0.28716260282E+02 -0.56483320821E+01  0.44866589999E+02  0.00000000000E+00 0. -1.
         21    1    1    2  502  501 -0.36385269215E+02 -0.24038529083E+01  0.13870181381E+02  0.39013436868E+02  0.00000000000E+00 0. -1.
<scales pt_clust_5="13000.00000" pt_clust_6="13000.00000" pt_clust_7="13000.00000" pt_clust_8="13000.00000" pt_clust_9="36.46459"></scales>
<clustering>
<clus scale="   36.465">  2  9  1 -1</clus>
<clus scale="   78.624">  5  6 -1 -1</clus>
<clus scale="   88.072">  7  8 -1 -1</clus>
<clus scale="   89.730">  1  5  2 -1</clus>
<clus scale="   36.465">  2  5  1 -1</clus>
</clustering>
</event>
<event>
 9    2  0.2984928E-005  0.1527443E+03  0.7546771E-02  0.1221079E+00
         -1   -1    0    0    0  501 -0.00000000000E+00  0.00000000000E+00  0.28616489571E+03  0.28616489571E+03  0.00000000000E+00 0.  1.
          2   -1    0    0  502    0  0.00000000000E+00 -0.00000000000E+00 -0.18832001994E+03  0.18832001994E+03  0.00000000000E+00 0. -1.
         24    2    1    2    0    0  0.94891244382E+02  0.90958676336E+02  0.18218649163E+03  0.23812799553E+03  0.78963253868E+02 0.  0.
         23    2    1    2    0    0  0.82373350583E+01 -0.13377921239E+02 -0.30001898337E+02  0.96331628276E+02  0.90182294476E+02 0.  0.
        -11    1    3    3    0    0  0.39807065405E+02  0.28535735237E+02  0.13229652722E+03  0.14107183190E+03  0.00000000000E+00 0.  1.
         12    1    3    3    0    0  0.55084178978E+02  0.62422941099E+02  0.49889964404E+02  0.97056163624E+02  0.00000000000E+00 0. -1.
        -11    1    4    4    0    0 -0.75949578361E+01 -0.36532868261E+02 -0.49632625397E+02  0.62094535602E+02  0.00000000000E+00 0.  1.
         11    1    4    4    0    0  0.15832292894E+02  0.23154947022E+02  0.19630727059E+02  0.34237092674E+02  0.00000000000E+00 0. -1.
         21    1    1    2  502  501 -0.10312857944E+03 -0.77580755097E+02 -0.54339717514E+02  0.14002529185E+03  0.00000000000E+00 0. -1.
<scales pt_clust_5="13000.00000" pt_clust_6="13000.00000" pt_clust_7="13000.00000" pt_clust_8="13000.00000" pt_clust_9="130.75028"></scales>
<clustering>
<clus scale="   78.963">  5  6 -1 -1</clus>
<clus scale="   90.182">  7  8 -1 -1</clus>
<clus scale="   91.541">  2  7  1 -1</clus>
<clus scale="  130.750">  2  9  1 -1</clus>
<clus scale="   91.541">  2  5  1 -1</clus>
</clustering>
</event>
<event>
 9    2  0.2984928E-005  0.1295815E+03  0.7546771E-02  0.1231558E+00
          2   -1    0    0  502    0  0.00000000000E+00  0.00000000000E+00  0.38584036823E+03  0.38584036823E+03  0.00000000000E+00 0. -1.
         -1   -1    0    0    0  501 -0.00000000000E+00 -0.00000000000E+00 -0.13188250921E+03  0.13188250921E+03  0.00000000000E+00 0.  1.
         23    2    1    2    0    0 -0.11034045323E+03 -0.45857047046E+01 -0.30117007804E+02  0.14758325499E+03  0.93154380946E+02 0.  0.
         24    2    1    2    0    0  0.29876306597E+02  0.82505048159E+02  0.10331264823E+03  0.15748760000E+03  0.80182069076E+02 0.  0.
        -13    1    4    4    0    0 -0.27606998456E+02  0.26089227315E+02  0.38757040403E+02  0.54266954276E+02  0.00000000000E+00 0.  1.
         14    1    4    4    0    0  0.57483305053E+02  0.56415820844E+02  0.64555607829E+02  0.10322064572E+03  0.00000000000E+00 0. -1.
        -13    1    3    3    0    0 -0.10114375118E+03 -0.33232516909E+02 -0.43045471920E+02  0.11483628013E+03  0.00000000000E+00 0.  1.
         13    1    3    3    0    0 -0.91967020508E+01  0.28646812205E+02  0.12928464116E+02  0.32746974860E+02  0.00000000000E+00 0. -1.
         21    1    1    2  502  501  0.80464146630E+02 -0.77919343454E+02  0.18076221860E+03  0.21265202244E+03  0.00000000000E+00 0. -1.
<scales pt_clust_5="13000.00000" pt_clust_6="13000.00000" pt_clust_7="13000.00000" pt_clust_8="13000.00000" pt_clust_9="112.00850"></scales>
<clustering>
<clus scale="   80.182">  5  6 -1 -1</clus>
<clus scale="   93.154">  7  8 -1 -1</clus>
<clus scale="  112.008">  1  9  2 -1</clus>
<clus scale="  120.593">  1  5  2 -1</clus>
<clus scale="  112.008">  1  5  2 -1</clus>
</clustering>
</event>
<event>
 9    2  0.2984928E-005  0.1278833E+03  0.7546771E-02  0.1233068E+00
          2   -1    0    0  502    0  0.00000000000E+00  0.00000000000E+00  0.19727980402E+03  0.19727980402E+03  0.00000000000E+00 0. -1.
         -1   -1    0    0    0  501 -0.00000000000E+00 -0.00000000000E+00 -0.11607005154E+03  0.11607005154E+03  0.00000000000E+00 0.  1.
         23    2    1    2    0    0 -0.72935180377E+02  0.67420300332E+02 -0.20236591852E+02  0.13619267382E+03  0.90960910933E+02 0.  0.
         24    2    1    2    0    0  0.61749835455E+02 -0.43604485966E+02  0.56261459978E+02  0.12486971930E+03  0.81931078015E+02 0.  0.
        -13    1    4    4    0    0  0.31276188446E+02 -0.46279809819E+02 -0.53187754715E+01  0.56109804252E+02  0.00000000000E+00 0.  1.
         14    1    4    4    0    0  0.30473647008E+02  0.26753238532E+01  0.61580235450E+02  0.68759915050E+02  0.00000000000E+00 0. -1.
        -11    1    3    3    0    0 -0.90855580308E+02  0.47902824846E+02 -0.31455026265E+02  0.10741897308E+03  0.00000000000E+00 0.  1.
         11    1    3    3    0    0  0.17920399931E+02  0.19517475487E+02  0.11218434413E+02  0.28773700731E+02  0.00000000000E+00 0. -1.
         21    1    1    2  502  501  0.11185344922E+02 -0.23815814366E+02  0.45184884356E+02  0.52287462448E+02  0.00000000000E+00 0. -1.
<scales pt_clust_5="13000.00000" pt_clust_6="13000.00000" pt_clust_7="13000.00000" pt_clust_8="13000.00000" pt_clust_9="26.31169"></scales>
<clustering>
<clus scale="   26.312">  1  9  2 -1</clus>
<clus scale="   81.931">  5  6 -1 -1</clus>
<clus scale="   90.961">  7  8 -1 -1</clus>
<clus scale="  121.626">  1  5  2 -1</clus>
<clus scale="   26.312">  1  5  2 -1</clus>
</clustering>
</event>
<event>
 9    2  0.2984928E-005  0.1025537E+03  0.7546771E-02  0.1279733E+00
         -1   -1    0    0    0  501 -0.00000000000E+00  0.00000000000E+00  0.11290197752E+03  0.11290197752E+03  0.00000000000E+00 0.  1.
          2   -1    0    0  502    0  0.00000000000E+00 -0.00000000000E+00 -0.14537534999E+03  0.14537534999E+03  0.00000000000E+00 0. -1.
         24    2    1    2    0    0 -0.40359513298E+02 -0.49687871943E+02  0.97454084184E+01  0.10353309710E+03  0.80785854449E+02 0.  0.
         23    2    1    2    0    0  0.98452724512E+00  0.42721456157E+02 -0.52676486644E+02  0.11341283694E+03  0.90893163808E+02 0.  0.
        -11    1    3    3    0    0  0.24008800110E+02 -0.23334314432E+02  0.18313852492E+01  0.33530086261E+02  0.00000000000E+00 0.  1.
         12    1    3    3    0    0 -0.64368313408E+02 -0.26353557511E+02  0.79140231692E+01  0.70003010844E+02  0.00000000000E+00 0. -1.
        -13    1    4    4    0    0 -0.19492081209E+02 -0.22842268845E+02 -0.26024240273E+02  0.39736275085E+02  0.00000000000E+00 0. -1.
         13    1    4    4    0    0  0.20476608454E+02  0.65563725002E+02 -0.26652246371E+02  0.73676561853E+02  0.00000000000E+00 0.  1.
         21    1    1    2  502  501  0.39374986053E+02  0.69664157852E+01  0.10457705756E+02  0.41331393459E+02  0.00000000000E+00 0.  1.
<scales pt_clust_5="13000.00000" pt_clust_6="13000.00000" pt_clust_7="13000.00000" pt_clust_8="13000.00000" pt_clust_9="39.98650"></scales>
<clustering>
<clus scale="   39.987">  1  9  2 -1</clus>
<clus scale="   80.786">  5  6 -1 -1</clus>
<clus scale="   90.893">  7  8 -1 -1</clus>
<clus scale="   93.713">  1  5  2 -1</clus>
<clus scale="  102.554">  2  5  1 -1</clus>
</clustering>
</event>
<event>
 9    2  0.2984928E-005  0.1002295E+03  0.7546771E-02  0.1284785E+00
          4   -1    0    0  502    0  0.00000000000E+00  0.00000000000E+00  0.99932109153E+02  0.99932109153E+02  0.00000000000E+00 0. -1.
         -3   -1    0    0    0  501 -0.00000000000E+00 -0.00000000000E+00 -0.28894503200E+03  0.28894503200E+03  0.00000000000E+00 0.  1.
         23    2    1    2    0    0  0.28661462130E+02 -0.14041398831E+02 -0.16863071841E+03  0.19403043418E+03  0.90514362968E+02 0.  0.
         24    2    1    2    0    0 -0.44553612905E+02  0.59128500966E+02 -0.66890765954E+02  0.12814997895E+03  0.80416655525E+02 0.  0.
        -11    1    4    4    0    0 -0.24686263788E+02 -0.29444017554E+01 -0.57056156633E+02  0.62237337116E+02  0.00000000000E+00 0.  1.
         12    1    4    4    0    0 -0.19867349117E+02  0.62072902721E+02 -0.98346093212E+01  0.65912641835E+02  0.00000000000E+00 0. -1.
        -13    1    3    3    0    0  0.24538291820E+02 -0.52154205505E+02 -0.10053541059E+03  0.11588596852E+03  0.00000000000E+00 0.  1.
         13    1    3    3    0    0  0.41231703103E+01  0.38112806674E+02 -0.68095307821E+02  0.78144465659E+02  0.00000000000E+00 0. -1.
         21    1    1    2  502  501  0.15892150775E+02 -0.45087102135E+02  0.46508561516E+02  0.66696728026E+02  0.00000000000E+00 0.  1.
<scales pt_clust_5="13000.00000" pt_clust_6="13000.00000" pt_clust_7="13000.00000" pt_clust_8="13000.00000" pt_clust_9="47.80593"></scales>
<clustering>
<clus scale="   47.806">  1  9  2 -1</clus>
<clus scale="   80.417">  5  6 -1 -1</clus>
<clus scale="   90.514">  7  8 -1 -1</clus>
<clus scale="   91.214">  1  5  2 -1</clus>
<clus scale="   47.806">  1  5  2 -1</clus>
</clustering>
</event>
<event>
 9    2  0.2984928E-005  0.1128847E+03  0.7546771E-02  0.1261241E+00
         -1   -1    0    0    0  501 -0.00000000000E+00  0.00000000000E+00  0.23450675408E+03  0.23450675408E+03  0.00000000000E+00 0.  1.
          2   -1    0    0  502    0  0.00000000000E+00 -0.00000000000E+00 -0.20149634352E+03  0.20149634352E+03  0.00000000000E+00 0. -1.
         24    2    1    2    0    0 -0.78168887100E+02 -0.69813079051E+01  0.16559585690E+03  0.19973099442E+03  0.79444123389E+02 0.  0.
         23    2    1    2    0    0 -0.13778380688E+02 -0.17414593254E+02 -0.45760975531E+02  0.10747789221E+03  0.94680085552E+02 0.  0.
        -11    1    3    3    0    0 -0.32075084219E+02  0.33173519667E+02  0.99615291838E+02  0.10978387770E+03  0.00000000000E+00 0.  1.
         12    1    3    3    0    0 -0.46093802880E+02 -0.40154827572E+02  0.65980565058E+02  0.89947116723E+02  0.00000000000E+00 0. -1.
        -13    1    4    4    0    0 -0.44178710830E+02  0.19961678583E+02 -0.28869800016E+02  0.56424218696E+02  0.00000000000E+00 0.  1.
         13    1    4    4    0    0  0.30400330142E+02 -0.37376271837E+02 -0.16891175515E+02  0.51053673516E+02  0.00000000000E+00 0. -1.
         21    1    1    2  502  501  0.91947267787E+02  0.24395901159E+02 -0.86824470805E+02  0.12879421096E+03  0.00000000000E+00 0. -1.
<scales pt_clust_5="13000.00000" pt_clust_6="13000.00000" pt_clust_7="13000.00000" pt_clust_8="13000.00000" pt_clust_9="95.12865"></scales>
<clustering>
<clus scale="   79.444">  5  6 -1 -1</clus>
<clus scale="   94.680">  7  8 -1 -1</clus>
<clus scale="   95.129">  2  9  1 -1</clus>
<clus scale="  100.449">  1  5  2 -1</clus>
<clus scale="   95.129">  2  5  1 -1</clus>
</clustering>
</event>
<event>
 9    2  0.2984928E-005  0.9895347E+02  0.7546771E-02  0.1287332E+00
          2   -1    0    0  502    0  0.00000000000E+00  0.00000000000E+00  0.16856850386E+03  0.16856850386E+03  0.00000000000E+00 0. -1.
         -1   -1    0    0    0  501 -0.00000000000E+00 -0.00000000000E+00 -0.12662486268E+03  0.12662486268E+03  0.00000000000E+00 0.  1.
         23    2    1    2    0    0 -0.32089099119E+01 -0.42483717875E+02 -0.69680902256E+02  0.12177677492E+03  0.90327135366E+02 0.  0.
         24    2    1    2    0    0 -0.34561360136E+02  0.31071942329E+02  0.80396317059E+02  0.12309737021E+03  0.80804959875E+02 0.  0.
        -13    1    4    4    0    0 -0.59770621428E+02  0.32142827861E+02  0.55786442242E+02  0.87851099634E+02  0.00000000000E+00 0.  1.
         14    1    4    4    0    0  0.25209261292E+02 -0.10708855323E+01  0.24609874817E+02  0.35246270572E+02  0.00000000000E+00 0. -1.
        -13    1    3    3    0    0 -0.35273768945E+02 -0.18319810300E+01 -0.59221934995E+02  0.68955293594E+02  0.00000000000E+00 0.  1.
         13    1    3    3    0    0  0.32064859033E+02 -0.40651736845E+02 -0.10458967260E+02  0.52821481326E+02  0.00000000000E+00 0. -1.
         21    1    1    2  502  501  0.37770270048E+02  0.11411775546E+02  0.31228226383E+02  0.50319221414E+02  0.00000000000E+00 0. -1.
<scales pt_clust_5="13000.00000" pt_clust_6="13000.00000" pt_clust_7="13000.00000" pt_clust_8="13000.00000" pt_clust_9="39.45658"></scales>
<clustering>
<clus scale="   39.457">  1  9  2 -1</clus>
<clus scale="   80.805">  5  6 -1 -1</clus>
<clus scale="   90.327">  7  8 -1 -1</clus>
<clus scale="   90.345">  1  5  2 -1</clus>
<clus scale="   39.457">  1  5  2 -1</clus>
</clustering>
</event>
<event>
 9    2  0.2984928E-005  0.9557943E+02  0.7546771E-02  0.1296253E+00
          2   -1    0    0  502    0  0.00000000000E+00  0.00000000000E+00  0.38372983760E+03  0.38372983760E+03  0.00000000000E+00 0. -1.
         -1   -1    0    0    0  501 -0.00000000000E+00 -0.00000000000E+00 -0.94452251171E+02  0.94452251171E+02  0.00000000000E+00 0.  1.
         23    2    1    2    0    0  0.58652032166E+01 -0.22927435460E+02 -0.58385714740E+02  0.11194966483E+03  0.92540628183E+02 0.  0.
         24    2    1    2    0    0  0.18834329326E+02  0.30688617066E+02  0.25976200068E+03  0.27459759718E+03  0.81431076382E+02 0.  0.
        -11    1    4    4    0    0  0.37587441144E+02 -0.13671809751E+02  0.13724793395E+03  0.14295708967E+03  0.00000000000E+00 0.  1.
         12    1    4    4    0    0 -0.18753111818E+02  0.44360426817E+02  0.12251406673E+03  0.13164050751E+03  0.00000000000E+00 0. -1.
        -11    1    3    3    0    0  0.36009818163E+02 -0.39910667454E+01  0.75583553822E+01  0.37010327666E+02  0.00000000000E+00 0. -1.
         11    1    3    3    0    0 -0.30144614946E+02 -0.18936368715E+02 -0.65944070123E+02  0.74939337165E+02  0.00000000000E+00 0.  1.
         21    1    1    2  502  501 -0.24699532543E+02 -0.77611816060E+01  0.87901300487E+02  0.91634826759E+02  0.00000000000E+00 0.  1.
<scales pt_clust_5="13000.00000" pt_clust_6="13000.00000" pt_clust_7="13000.00000" pt_clust_8="13000.00000" pt_clust_9="25.89021"></scales>
<clustering>
<clus scale="   25.890">  1  9  2 -1</clus>
<clus scale="   81.431">  5  6 -1 -1</clus>
<clus scale="   84.869">  1  5  2 -1</clus>
<clus scale="   92.541">  7  8 -1 -1</clus>
<clus scale="   25.890">  1  5  2 -1</clus>
</clustering>
</event>
<event>
 9    2  0.2984928E-005  0.1431330E+03  0.7546771E-02  0.1211104E+00
         -3   -1    0    0    0  501 -0.00000000000E+00  0.00000000000E+00  0.26222259186E+03  0.26222259186E+03  0.00000000000E+00 0.  1.
          4   -1    0    0  502    0  0.00000000000E+00 -0.00000000000E+00 -0.94139021705E+02  0.94139021705E+02  0.00000000000E+00 0. -1.
         24    2    1    2    0    0 -0.57951213460E+02 -0.10651630161E+03  0.11688835323E+03  0.18687795821E+03  0.80971714160E+02 0.  0.
         23    2    1    2    0    0  0.56362508764E+02  0.80073885522E+02  0.51772909022E+02  0.14298725787E+03  0.90423239644E+02 0.  0.
        -11    1    3    3    0    0 -0.61727796962E+01 -0.87583997040E+02  0.89282411513E+02  0.12522143887E+03  0.00000000000E+00 0.  1.
         12    1    3    3    0    0 -0.51778433764E+02 -0.18932304570E+02  0.27605941720E+02  0.61656519344E+02  0.00000000000E+00 0. -1.
        -11    1    4    4    0    0  0.32901894152E+02  0.66347650822E+02 -0.10728976986E+02  0.74830851629E+02  0.00000000000E+00 0. -1.
         11    1    4    4    0    0  0.23460614612E+02  0.13726234700E+02  0.62501886008E+02  0.68156406240E+02  0.00000000000E+00 0.  1.
         21    1    1    2  502  501  0.15887046961E+01  0.26442416088E+02 -0.57769210552E+00  0.26496397479E+02  0.00000000000E+00 0.  1.
<scales pt_clust_5="13000.00000" pt_clust_6="13000.00000" pt_clust_7="13000.00000" pt_clust_8="13000.00000" pt_clust_9="26.49010"></scales>
<clustering>
<clus scale="   26.490">  2  9  1 -1</clus>
<clus scale="   80.972">  5  6 -1 -1</clus>
<clus scale="   90.423">  7  8 -1 -1</clus>
<clus scale="  137.358">  1  5  2 -1</clus>
<clus scale="   26.490">  2  5  1 -1</clus>
</clustering>
</event>
<event>
 9    2  0.2984928E-005  0.9397110E+02  0.7546771E-02  0.1294476E+00
         -3   -1    0    0    0  501 -0.00000000000E+00  0.00000000000E+00  0.22611665007E+03  0.22611665007E+03  0.00000000000E+00 0.  1.
          4   -1    0    0  502    0  0.00000000000E+00 -0.00000000000E+00 -0.12861305169E+03  0.12861305169E+03  0.00000000000E+00 0. -1.
         23    2    1    2    0    0  0.34736317762E+02  0.28569576923E+02  0.19000875265E+03  0.21236918762E+03  0.83513551391E+02 0.  0.
         24    2    1    2    0    0 -0.14995801756E+02 -0.22395369245E+02 -0.83371757214E+02  0.11975016797E+03  0.81626136704E+02 0.  0.
        -13    1    4    4    0    0  0.27908952654E+02 -0.27409902888E+02 -0.57025413142E+02  0.69152802970E+02  0.00000000000E+00 0.  1.
         14    1    4    4    0    0 -0.42904754411E+02  0.50145336432E+01 -0.26346344073E+02  0.50597364998E+02  0.00000000000E+00 0. -1.
        -13    1    3    3    0    0  0.24219773601E+01  0.39570199181E+02  0.32673155585E+02  0.51373161606E+02  0.00000000000E+00 0. -1.
         13    1    3    3    0    0  0.32314340402E+02 -0.11000622258E+02  0.15733559707E+03  0.16099602601E+03  0.00000000000E+00 0.  1.
         21    1    1    2  502  501 -0.19740516005E+02 -0.61742076779E+01 -0.91333970599E+01  0.22610346182E+02  0.00000000000E+00 0. -1.
<scales pt_clust_5="13000.00000" pt_clust_6="13000.00000" pt_clust_7="13000.00000" pt_clust_8="13000.00000" pt_clust_9="20.68354"></scales>
<clustering>
<clus scale="   20.684">  2  9  1 -1</clus>
<clus scale="   81.626">  5  6 -1 -1</clus>
<clus scale="   83.514">  7  8 -1 -1</clus>
<clus scale="   92.298">  2  5  1 -1</clus>
<clus scale="   20.684">  2  5  1 -1</clus>
</clustering>
</event>
<event>
 9    2  0.2984928E-005  0.9942427E+02  0.7546771E-02  0.1285741E+00
          2   -1    0    0  502    0  0.00000000000E+00  0.00000000000E+00  0.38389673595E+03  0.38389673595E+03  0.00000000000E+00 0. -1.
         -1   -1    0    0    0  501 -0.00000000000E+00 -0.00000000000E+00 -0.49272537264E+02  0.49272537264E+02  0.00000000000E+00 0.  1.
         23    2    1    2    0    0  0.16163188582E+01 -0.33679312419E+02  0.33313401345E+02  0.10402872777E+03  0.92602834300E+02 0.  0.
         24    2    1    2    0    0 -0.21566727011E+02  0.39987938054E+02  0.16152454135E+03  0.18779693962E+03  0.84340702922E+02 0.  0.
        -11    1    4    4    0    0 -0.38288890470E+02 -0.54281437079E+01  0.34348816826E+02  0.51723738215E+02  0.00000000000E+00 0.  1.
         12    1    4    4    0    0  0.16722163458E+02  0.45416081762E+02  0.12717572452E+03  0.13607320140E+03  0.00000000000E+00 0. -1.
        -11    1    3    3    0    0 -0.33187127989E+02 -0.49923962502E+02  0.23476128302E+02  0.64381022795E+02  0.00000000000E+00 0.  1.
         11    1    3    3    0    0  0.34803446847E+02  0.16244650084E+02  0.98372730433E+01  0.39647704974E+02  0.00000000000E+00 0. -1.
         21    1    1    2  502  501  0.19950408153E+02 -0.63086256357E+01  0.13978625600E+03  0.14134360583E+03  0.00000000000E+00 0. -1.
<scales pt_clust_5="13000.00000" pt_clust_6="13000.00000" pt_clust_7="13000.00000" pt_clust_8="13000.00000" pt_clust_9="20.92409"></scales>
<clustering>
<clus scale="   20.924">  1  9  2 -1</clus>
<clus scale="   84.341">  5  6 -1 -1</clus>
<clus scale="   91.778">  1  5  2 -1</clus>
<clus scale="   92.603">  7  8 -1 -1</clus>
<clus scale="   20.924">  1  5  2 -1</clus>
</clustering>
</event>
<event>
 9    2  0.2984928E-005  0.1683003E+03  0.7546771E-02  0.1200420E+00
         -1   -1    0    0    0  501 -0.00000000000E+00  0.00000000000E+00  0.15702373701E+03  0.15702373701E+03  0.00000000000E+00 0.  1.
          2   -1    0    0  502    0  0.00000000000E+00 -0.00000000000E+00 -0.10677886283E+04  0.10677886283E+04  0.00000000000E+00 0. -1.
         23    2    1    2    0    0  0.12384801148E+03  0.59163067358E+02  0.80662860481E+02  0.18383758846E+03  0.91930209305E+02 0.  0.
         24    2    1    2    0    0  0.16926640109E+01  0.67199414719E+02 -0.61993727306E+03  0.62898798841E+03  0.82371357785E+02 0.  0.
        -11    1    4    4    0    0 -0.22213687804E+02  0.48037163674E+01 -0.47423181834E+02  0.52587848331E+02  0.00000000000E+00 0.  1.
         12    1    4    4    0    0  0.23906351815E+02  0.62395698351E+02 -0.57251409122E+03  0.57640014008E+03  0.00000000000E+00 0. -1.
        -13    1    3    3    0    0  0.87565582513E+02 -0.65597371884E+01  0.58678600003E+02  0.10561221279E+03  0.00000000000E+00 0.  1.
         13    1    3    3    0    0  0.36282428963E+02  0.65722804546E+02  0.21984260478E+02  0.78225375663E+02  0.00000000000E+00 0. -1.
         21    1    1    2  502  501 -0.12554067549E+03 -0.12636248208E+03 -0.37149047874E+03  0.41198678847E+03  0.00000000000E+00 0.  1.
<scales pt_clust_5="13000.00000" pt_clust_6="13000.00000" pt_clust_7="13000.00000" pt_clust_8="13000.00000" pt_clust_9="140.97460"></scales>
<clustering>
<clus scale="   82.371">  5  6 -1 -1</clus>
<clus scale="   91.930">  7  8 -1 -1</clus>
<clus scale="  106.319">  2  5  1 -1</clus>
<clus scale="  140.975">  2  9  1 -1</clus>
<clus scale="  106.319">  2  5  1 -1</clus>
</clustering>
</event>
<event>
 9    2  0.2984928E-005  0.3116512E+03  0.7546771E-02  0.1080284E+00
          2   -1    0    0  502    0  0.00000000000E+00  0.00000000000E+00  0.92163048556E+03  0.92163048556E+03  0.00000000000E+00 0. -1.
         -1   -1    0    0    0  501 -0.00000000000E+00 -0.00000000000E+00 -0.15798703784E+03  0.15798703784E+03  0.00000000000E+00 0.  1.
         23    2    1    2    0    0 -0.23960197751E+02 -0.30897169534E+03  0.10843801712E+03  0.34050095350E+03  0.90246862444E+02 0.  0.
         24    2    1    2    0    0  0.97027340011E+01  0.27286632080E+03  0.45194061448E+03  0.53217827278E+03  0.66432092609E+02 0.  0.
        -13    1    4    4    0    0 -0.24289798994E+02  0.11078895017E+03  0.15331741266E+03  0.19071029033E+03  0.00000000000E+00 0.  1.
         14    1    4    4    0    0  0.33992532995E+02  0.16207737063E+03  0.29862320182E+03  0.34146798245E+03  0.00000000000E+00 0. -1.
        -11    1    3    3    0    0  0.11021418477E+02 -0.48113779484E+02 -0.12399938141E+02  0.50893672567E+02  0.00000000000E+00 0.  1.
         11    1    3    3    0    0 -0.34981616228E+02 -0.26085791586E+03  0.12083795526E+03  0.28960728093E+03  0.00000000000E+00 0. -1.
         21    1    1    2  502  501  0.14257463750E+02  0.36105374543E+02  0.20326481612E+03  0.20693829713E+03  0.00000000000E+00 0. -1.
<scales pt_clust_5="13000.00000" pt_clust_6="13000.00000" pt_clust_7="13000.00000" pt_clust_8="13000.00000" pt_clust_9="38.81847"></scales>
<clustering>
<clus scale="   38.818">  1  9  2 -1</clus>
<clus scale="   66.432">  5  6 -1 -1</clus>
<clus scale="   90.247">  7  8 -1 -1</clus>
<clus scale="  305.606">  1  5  2 -1</clus>
<clus scale="   38.818">  1  5  2 -1</clus>
</clustering>
</event>
<event>
 9    2  0.2984928E-005  0.9194228E+02  0.7546771E-02  0.1307902E+00
         -1   -1    0    0    0  501 -0.00000000000E+00  0.00000000000E+00  0.81136704838E+02  0.81136704838E+02  0.00000000000E+00 0.  1.
          2   -1    0    0  502    0  0.00000000000E+00 -0.00000000000E+00 -0.46976555146E+03  0.46976555146E+03  0.00000000000E+00 0. -1.
         24    2    1    2    0    0 -0.12878267918E+01 -0.95668717383E+01  0.45725476890E+02  0.89505713717E+02  0.76336557550E+02 0.  0.
         23    2    1    2    0    0 -0.43599528335E+02  0.13597501056E+02 -0.36207165620E+03  0.37621494470E+03  0.91411101570E+02 0.  0.
        -13    1    3    3    0    0  0.35336108830E+02  0.39066057382E+01  0.32871956484E+02  0.48419703415E+02  0.00000000000E+00 0.  1.
         14    1    3    3    0    0 -0.36623935622E+02 -0.13473477477E+02  0.12853520406E+02  0.41086010303E+02  0.00000000000E+00 0. -1.
        -11    1    4    4    0    0 -0.69056419068E+02  0.30910360301E+01 -0.30644027410E+03  0.31414007244E+03  0.00000000000E+00 0. -1.
         11    1    4    4    0    0  0.25456890733E+02  0.10506465026E+02 -0.55631382096E+02  0.62074872267E+02  0.00000000000E+00 0.  1.
         21    1    1    2  502  501  0.44887355126E+02 -0.40306293173E+01 -0.72282667312E+02  0.85181597876E+02  0.00000000000E+00 0. -1.
<scales pt_clust_5="13000.00000" pt_clust_6="13000.00000" pt_clust_7="13000.00000" pt_clust_8="13000.00000" pt_clust_9="45.06796"></scales>
<clustering>
<clus scale="   45.068">  2  9  1 -1</clus>
<clus scale="   76.337">  5  6 -1 -1</clus>
<clus scale="   76.972">  1  5  2 -1</clus>
<clus scale="   91.411">  7  8 -1 -1</clus>
<clus scale="   45.068">  2  5  1 -1</clus>
</clustering>
</event>
<event>
 9    2  0.2984928E-005  0.1179150E+03  0.7546771E-02  0.1246672E+00
          2   -1    0    0  502    0  0.00000000000E+00  0.00000000000E+00  0.65199795645E+03  0.65199795645E+03  0.00000000000E+00 0. -1.
         -1   -1    0    0    0  501 -0.00000000000E+00 -0.00000000000E+00 -0.92534540382E+02  0.92534540382E+02  0.00000000000E+00 0.  1.
         23    2    1    2    0    0 -0.67216294168E+02 -0.62901471906E+02 -0.33209906832E+02  0.12578540412E+03  0.79021798304E+02 0.  0.
         24    2    1    2    0    0  0.20687623644E+02  0.26875007043E+02  0.51011402724E+03  0.51736237665E+03  0.79355303617E+02 0.  0.
        -11    1    4    4    0    0  0.43294390882E+02  0.27119435964E+02  0.19986764665E+03  0.20629334518E+03  0.00000000000E+00 0.  1.
         12    1    4    4    0    0 -0.22606767238E+02 -0.24442892075E+00  0.31024638059E+03  0.31106903147E+03  0.00000000000E+00 0. -1.
        -13    1    3    3    0    0 -0.54106597267E+02 -0.81631646809E+02 -0.22244272922E+02  0.10042936476E+03  0.00000000000E+00 0.  1.
         13    1    3    3    0    0 -0.13109696901E+02  0.18730174902E+02 -0.10965633909E+02  0.25356039354E+02  0.00000000000E+00 0. -1.
         21    1    1    2  502  501  0.46528670525E+02  0.36026464863E+02  0.82559295658E+02  0.10138471606E+03  0.00000000000E+00 0. -1.
<scales pt_clust_5="13000.00000" pt_clust_6="13000.00000" pt_clust_7="13000.00000" pt_clust_8="13000.00000" pt_clust_9="58.84576"></scales>
<clustering>
<clus scale="   58.846">  1  9  2 -1</clus>
<clus scale="   79.022">  7  8 -1 -1</clus>
<clus scale="   79.355">  5  6 -1 -1</clus>
<clus scale="  117.691">  2  7  1 -1</clus>
<clus scale="   58.846">  1  5  2 -1</clus>
</clustering>
</event>
<event>
 9    2  0.2984928E-005  0.1375795E+03  0.7546771E-02  0.1218833E+00
         -1   -1    0    0    0  501 -0.00000000000E+00  0.00000000000E+00  0.44054473814E+03  0.44054473814E+03  0.00000000000E+00 0.  1.
          2   -1    0    0  502    0  0.00000000000E+00 -0.00000000000E+00 -0.27366982561E+03  0.27366982561E+03  0.00000000000E+00 0. -1.
         24    2    1    2    0    0  0.14745902284E+02 -0.10393423917E+03  0.40121268213E+03  0.42285089862E+03  0.82531802710E+02 0.  0.
         23    2    1    2    0    0 -0.18076330383E+02  0.66716573296E+02 -0.10207243190E+03  0.15392143740E+03  0.92169260955E+02 0.  0.
        -11    1    3    3    0    0  0.15132964858E+02 -0.11231690275E+03  0.29055452236E+03  0.31187501300E+03  0.00000000000E+00 0.  1.
         12    1    3    3    0    0 -0.38706257412E+00  0.83826635858E+01  0.11065815977E+03  0.11097588562E+03  0.00000000000E+00 0. -1.
        -11    1    4    4    0    0 -0.55089273722E+02  0.31998026571E+02 -0.65468433258E+02  0.91349972835E+02  0.00000000000E+00 0. -1.
         11    1    4    4    0    0  0.37012943339E+02  0.34718546726E+02 -0.36603998642E+02  0.62571464566E+02  0.00000000000E+00 0.  1.
         21    1    1    2  502  501  0.33304280988E+01  0.37217665872E+02 -0.13226533771E+03  0.13744222773E+03  0.00000000000E+00 0. -1.
<scales pt_clust_5="13000.00000" pt_clust_6="13000.00000" pt_clust_7="13000.00000" pt_clust_8="13000.00000" pt_clust_9="37.36638"></scales>
<clustering>
<clus scale="   37.366">  2  9  1 -1</clus>
<clus scale="   82.532">  5  6 -1 -1</clus>
<clus scale="   92.169">  7  8 -1 -1</clus>
<clus scale="  131.318">  1  5  2 -1</clus>
<clus scale="   37.366">  2  5  1 -1</clus>
</clustering>
</event>
<event>
 9    2  0.2984928E-005  0.1455663E+03  0.7546771E-02  0.1208138E+00
          2   -1    0    0  502    0  0.00000000000E+00  0.00000000000E+00  0.37656592889E+03  0.37656592889E+03  0.00000000000E+00 0. -1.
         -1   -1    0    0    0  501 -0.00000000000E+00 -0.00000000000E+00 -0.17467819052E+03  0.17467819052E+03  0.00000000000E+00 0.  1.
         23    2    1    2    0    0 -0.12383151271E+03  0.55000382307E+01 -0.11570212266E+03  0.19276208453E+03  0.91682856002E+02 0.  0.
         24    2    1    2    0    0  0.57191483487E+02 -0.75608513143E+01  0.18408356004E+03  0.20925377734E+03  0.81070056103E+02 0.  0.
        -11    1    4    4    0    0  0.54722222275E+02 -0.21031421180E+02  0.58132864875E+02  0.82560718663E+02  0.00000000000E+00 0.  1.
         12    1    4    4    0    0  0.24692612121E+01  0.13470569866E+02  0.12595069517E+03  0.12669305867E+03  0.00000000000E+00 0. -1.
        -11    1    3    3    0    0 -0.45277533264E+02  0.46176618659E+02 -0.37920527627E+02  0.74968670422E+02  0.00000000000E+00 0. -1.
         11    1    3    3    0    0 -0.78553979445E+02 -0.40676580428E+02 -0.77781595031E+02  0.11779341411E+03  0.00000000000E+00 0.  1.
         21    1    1    2  502  501  0.66640029222E+02  0.20608130836E+01  0.13350630099E+03  0.14922825754E+03  0.00000000000E+00 0. -1.
<scales pt_clust_5="13000.00000" pt_clust_6="13000.00000" pt_clust_7="13000.00000" pt_clust_8="13000.00000" pt_clust_9="66.67189"></scales>
<clustering>
<clus scale="   66.672">  1  9  2 -1</clus>
<clus scale="   81.070">  5  6 -1 -1</clus>
<clus scale="   91.683">  7  8 -1 -1</clus>
<clus scale="  139.126">  1  5  2 -1</clus>
<clus scale="   66.672">  1  5  2 -1</clus>
</clustering>
</event>
<event>
 9    2  0.2984928E-005  0.1170900E+03  0.7546771E-02  0.1251683E+00
         -1   -1    0    0    0  501 -0.00000000000E+00  0.00000000000E+00  0.29535777138E+02  0.29535777138E+02  0.00000000000E+00 0.  1.
          2   -1    0    0  502    0  0.00000000000E+00 -0.00000000000E+00 -0.97174324854E+03  0.97174324854E+03  0.00000000000E+00 0. -1.
         23    2    1    2    0    0  0.11514864082E+03  0.36201720458E+00 -0.31855499355E+03  0.35092523218E+03  0.91716378734E+02 0.  0.
         24    2    1    2    0    0 -0.59478965263E+02  0.13371162981E+02 -0.53697584257E+03  0.54642808870E+03  0.80771686257E+02 0.  0.
        -13    1    4    4    0    0 -0.62728063413E+02 -0.57566696097E+01 -0.21949601024E+03  0.22835596707E+03  0.00000000000E+00 0.  1.
         14    1    4    4    0    0  0.32490981501E+01  0.19127832591E+02 -0.31747983233E+03  0.31807212163E+03  0.00000000000E+00 0. -1.
        -13    1    3    3    0    0  0.41679373447E+02 -0.38603451026E+02 -0.18563308720E+03  0.19413150096E+03  0.00000000000E+00 0.  1.
         13    1    3    3    0    0  0.73469267373E+02  0.38965468230E+02 -0.13292190635E+03  0.15679373122E+03  0.00000000000E+00 0. -1.
         21    1    1    2  502  501 -0.55669675557E+02 -0.13733180185E+02 -0.86676635277E+02  0.10392570480E+03  0.00000000000E+00 0. -1.
<scales pt_clust_5="13000.00000" pt_clust_6="13000.00000" pt_clust_7="13000.00000" pt_clust_8="13000.00000" pt_clust_9="57.33858"></scales>
<clustering>
<clus scale="   57.339">  1  9  2 -1</clus>
<clus scale="   80.772">  5  6 -1 -1</clus>
<clus scale="   91.716">  7  8 -1 -1</clus>
<clus scale="  108.730">  2  5  1 -1</clus>
<clus scale="  108.730">  2  5  1 -1</clus>
</clustering>
</event>
<event>
 9    2  0.2984928E-005  0.2503396E+03  0.7546771E-02  0.1158067E+00
          2   -1    0    0  502    0  0.00000000000E+00  0.00000000000E+00  0.45495543454E+03  0.45495543454E+03  0.00000000000E+00 0. -1.
         -1   -1    0    0    0  501 -0.00000000000E+00 -0.00000000000E+00 -0.19156173744E+03  0.19156173744E+03  0.00000000000E+00 0.  1.
         24    2    1    2    0    0 -0.12955491246E+02  0.25200326133E+02 -0.72118015324E+01  0.84143876129E+02  0.78900447515E+02 0.  0.
         23    2    1    2    0    0  0.15505628944E+03 -0.19086295877E+03  0.21140660472E+03  0.33622897526E+03  0.88803430997E+02 0.  0.
        -13    1    3    3    0    0 -0.10866955323E+02 -0.19820450352E+02 -0.26750325398E+02  0.35021720104E+02  0.00000000000E+00 0.  1.
         14    1    3    3    0    0 -0.20885359233E+01  0.45020776486E+02  0.19538523866E+02  0.49122156025E+02  0.00000000000E+00 0. -1.
        -13    1    4    4    0    0  0.69808146389E+02 -0.55990418005E+02  0.29415062047E+02  0.94198461165E+02  0.00000000000E+00 0. -1.
         13    1    4    4    0    0  0.85248143051E+02 -0.13487254077E+03  0.18199154268E+03  0.24203051409E+03  0.00000000000E+00 0.  1.
         21    1    1    2  502  501 -0.14210079819E+03  0.16566263264E+03  0.59198893906E+02  0.22614432060E+03  0.00000000000E+00 0. -1.
<scales pt_clust_5="13000.00000" pt_clust_6="13000.00000" pt_clust_7="13000.00000" pt_clust_8="13000.00000" pt_clust_9="234.05951"></scales>
<clustering>
<clus scale="   78.900">  5  6 -1 -1</clus>
<clus scale="   83.834">  2  5  1 -1</clus>
<clus scale="   88.803">  7  8 -1 -1</clus>
<clus scale="  234.060">  2  9  1 -1</clus>
<clus scale="  250.340">  1  5  2 -1</clus>
</clustering>
</event>
<event>
 9    2  0.2984928E-005  0.1267797E+03  0.7546771E-02  0.1238793E+00
          2   -1    0    0  502    0  0.00000000000E+00  0.00000000000E+00  0.39096072873E+03  0.39096072873E+03  0.00000000000E+00 0. -1.
         -1   -1    0    0    0  501 -0.00000000000E+00 -0.00000000000E+00 -0.92959302689E+02  0.92959302689E+02  0.00000000000E+00 0.  1.
         24    2    1    2    0    0  0.60628359000E+02  0.42283888541E+02 -0.33353882832E+02  0.11381105815E+03  0.79854557235E+02 0.  0.
         23    2    1    2    0    0 -0.45149585835E+02 -0.64044034489E+02  0.31222383601E+03  0.33725916925E+03  0.10059771377E+03 0.  0.
        -11    1    3    3    0    0  0.54853018112E+02  0.80224526710E+01 -0.50568144344E+02  0.75035661956E+02  0.00000000000E+00 0.  1.
         12    1    3    3    0    0  0.57753408884E+01  0.34261435870E+02  0.17214261512E+02  0.38775396190E+02  0.00000000000E+00 0. -1.
        -11    1    4    4    0    0  0.31910602284E+02 -0.10644869111E+02  0.76085081368E+02  0.83189779320E+02  0.00000000000E+00 0.  1.
         11    1    4    4    0    0 -0.77060188119E+02 -0.53399165378E+02  0.23613875465E+03  0.25406938993E+03  0.00000000000E+00 0. -1.
         21    1    1    2  502  501 -0.15478773165E+02  0.21760145948E+02  0.19131472862E+02  0.32849804021E+02  0.00000000000E+00 0.  1.
<scales pt_clust_5="13000.00000" pt_clust_6="13000.00000" pt_clust_7="13000.00000" pt_clust_8="13000.00000" pt_clust_9="26.70386"></scales>
<clustering>
<clus scale="   26.704">  2  9  1 -1</clus>
<clus scale="   79.855">  5  6 -1 -1</clus>
<clus scale="  100.598">  7  8 -1 -1</clus>
<clus scale="  111.040">  2  5  1 -1</clus>
<clus scale="  126.780">  1  5  2 -1</clus>
</clustering>
</event>
<event>
 9    2  0.2984928E-005  0.1261607E+03  0.7546771E-02  0.1236124E+00
         -1   -1    0    0    0  501 -0.00000000000E+00  0.00000000000E+00  0.14207071364E+03  0.14207071364E+03  0.00000000000E+00 0.  1.
          2   -1    0    0  502    0  0.00000000000E+00 -0.00000000000E+00 -0.52755960801E+03  0.52755960801E+03  0.00000000000E+00 0. -1.
         24    2    1    2    0    0 -0.70190698205E+02 -0.58075611532E+02  0.95910242287E+02  0.15493432629E+03  0.80662011614E+02 0.  0.
         23    2    1    2    0    0  0.29872399376E+02  0.59953869949E+02 -0.19396454231E+03  0.22444138453E+03  0.90911301010E+02 0.  0.
        -13    1    3    3    0    0 -0.60818474797E+02 -0.23727371041E+02  0.99654624362E+02  0.11913403867E+03  0.00000000000E+00 0.  1.
         14    1    3    3    0    0 -0.93722234076E+01 -0.34348240491E+02 -0.37443820748E+01  0.35800287618E+02  0.00000000000E+00 0. -1.
        -11    1    4    4    0    0  0.76407272420E+01  0.21802343153E+02  0.23504448015E+01  0.23221702575E+02  0.00000000000E+00 0.  1.
         11    1    4    4    0    0  0.22231672134E+02  0.38151526796E+02 -0.19631498711E+03  0.20121968195E+03  0.00000000000E+00 0. -1.
         21    1    1    2  502  501  0.40318298829E+02 -0.18782584162E+01 -0.28743459436E+03  0.29025461083E+03  0.00000000000E+00 0.  1.
<scales pt_clust_5="13000.00000" pt_clust_6="13000.00000" pt_clust_7="13000.00000" pt_clust_8="13000.00000" pt_clust_9="40.36203"></scales>
<clustering>
<clus scale="   40.362">  2  9  1 -1</clus>
<clus scale="   80.662">  5  6 -1 -1</clus>
<clus scale="   90.911">  7  8 -1 -1</clus>
<clus scale="  118.987">  1  5  2 -1</clus>
<clus scale="   40.362">  2  5  1 -1</clus>
</clustering>
</event>
<event>
 9    2  0.2984928E-005  0.1129707E+03  0.7546771E-02  0.1263093E+00
          4   -1    0    0  502    0  0.00000000000E+00  0.00000000000E+00  0.15107599975E+03  0.15107599975E+03  0.00000000000E+00 0. -1.
         -3   -1    0    0    0  501 -0.00000000000E+00 -0.00000000000E+00 -0.28868159650E+03  0.28868159650E+03  0.00000000000E+00 0.  1.
         23    2    1    2    0    0  0.63564442445E+02  0.29310656612E+01 -0.25136263117E+03  0.27608925195E+03  0.94831815361E+02 0.  0.
         24    2    1    2    0    0 -0.40396256021E+02 -0.21372010832E+02  0.91532962721E+02  0.12664480200E+03  0.74645845579E+02 0.  0.
        -11    1    4    4    0    0 -0.44797006544E+02  0.34595340070E+01  0.17131580112E+02  0.48085665306E+02  0.00000000000E+00 0.  1.
         12    1    4    4    0    0  0.44007505230E+01 -0.24831544839E+02  0.74401382609E+02  0.78559136695E+02  0.00000000000E+00 0. -1.
        -11    1    3    3    0    0  0.76352293689E+02 -0.27278250900E+02 -0.18800043908E+03  0.20473871353E+03  0.00000000000E+00 0. -1.
         11    1    3    3    0    0 -0.12787851243E+02  0.30209316561E+02 -0.63362192095E+02  0.71350538425E+02  0.00000000000E+00 0.  1.
         21    1    1    2  502  501 -0.23168186425E+02  0.18440945170E+02  0.22224071706E+02  0.37023542297E+02  0.00000000000E+00 0. -1.
<scales pt_clust_5="13000.00000" pt_clust_6="13000.00000" pt_clust_7="13000.00000" pt_clust_8="13000.00000" pt_clust_9="29.61137"></scales>
<clustering>
<clus scale="   29.611">  1  9  2 -1</clus>
<clus scale="   74.646">  5  6 -1 -1</clus>
<clus scale="   94.832">  7  8 -1 -1</clus>
<clus scale="   96.650">  1  5  2 -1</clus>
<clus scale="   29.611">  1  5  2 -1</clus>
</clustering>
</event>
<event>
 9    2  0.2984928E-005  0.1043970E+03  0.7546771E-02  0.1271417E+00
          2   -1    0    0  502    0  0.00000000000E+00  0.00000000000E+00  0.72790773606E+03  0.72790773606E+03  0.00000000000E+00 0. -1.
         -1   -1    0    0    0  501 -0.00000000000E+00 -0.00000000000E+00 -0.53238159689E+02  0.53238159689E+02  0.00000000000E+00 0.  1.
         23    2    1    2    0    0  0.46901913483E+02 -0.28396989197E+02  0.29463009187E+02  0.11033368375E+03  0.91100353319E+02 0.  0.
         24    2    1    2    0    0 -0.53085326297E+02 -0.41240807260E+02  0.37103932408E+03  0.38787169797E+03  0.90859330959E+02 0.  0.
        -13    1    4    4    0    0  0.58850524542E+01 -0.52455413931E+02  0.18548948514E+03  0.19285370982E+03  0.00000000000E+00 0.  1.
         14    1    4    4    0    0 -0.58970378751E+02  0.11214606672E+02  0.18554983894E+03  0.19501798815E+03  0.00000000000E+00 0. -1.
        -11    1    3    3    0    0  0.46602459849E+02 -0.50337018752E+02 -0.57562429606E+01  0.68838499794E+02  0.00000000000E+00 0.  1.
         11    1    3    3    0    0  0.29945363354E+00  0.21940029555E+02  0.35219252148E+02  0.41495183952E+02  0.00000000000E+00 0. -1.
         21    1    1    2  502  501  0.61834128142E+01  0.69637796456E+02  0.27416724311E+03  0.28294051404E+03  0.00000000000E+00 0. -1.
<scales pt_clust_5="13000.00000" pt_clust_6="13000.00000" pt_clust_7="13000.00000" pt_clust_8="13000.00000" pt_clust_9="69.91178"></scales>
<clustering>
<clus scale="   69.912">  1  9  2 -1</clus>
<clus scale="   90.859">  5  6 -1 -1</clus>
<clus scale="   91.100">  7  8 -1 -1</clus>
<clus scale="  104.187">  1  5  2 -1</clus>
<clus scale="   69.912">  1  5  2 -1</clus>
</clustering>
</event>
<event>
 9    2  0.2984928E-005  0.9045958E+02  0.7546771E-02  0.1307143E+00
         -1   -1    0    0    0  501 -0.00000000000E+00  0.00000000000E+00  0.66609721112E+02  0.66609721112E+02  0.00000000000E+00 0.  1.
          2   -1    0    0  502    0  0.00000000000E+00 -0.00000000000E+00 -0.28848207583E+03  0.28848207583E+03  0.00000000000E+00 0. -1.
         23    2    1    2    0    0  0.60786872504E+01 -0.24360258612E+02 -0.34993800701E+01  0.93507549034E+02  0.90005796630E+02 0.  0.
         24    2    1    2    0    0 -0.58933285929E+01 -0.12331797647E+02 -0.20747685417E+03  0.22330805698E+03  0.81443469611E+02 0.  0.
        -13    1    4    4    0    0 -0.22482883969E+02  0.27868462646E+02 -0.12552347041E+03  0.13053073548E+03  0.00000000000E+00 0.  1.
         14    1    4    4    0    0  0.16589555376E+02 -0.40200260292E+02 -0.81953383761E+02  0.92777321502E+02  0.00000000000E+00 0. -1.
        -13    1    3    3    0    0 -0.18834259487E+02 -0.20252607858E+02  0.36749902335E+02  0.45994051541E+02  0.00000000000E+00 0.  1.
         13    1    3    3    0    0  0.24912946737E+02 -0.41076507540E+01 -0.40249282405E+02  0.47513497493E+02  0.00000000000E+00 0. -1.
         21    1    1    2  502  501 -0.18535865748E+00  0.36692056259E+02 -0.10896120480E+02  0.38276190927E+02  0.00000000000E+00 0. -1.
<scales pt_clust_5="13000.00000" pt_clust_6="13000.00000" pt_clust_7="13000.00000" pt_clust_8="13000.00000" pt_clust_9="36.69252"></scales>
<clustering>
<clus scale="   36.693">  1  9  2 -1</clus>
<clus scale="   81.443">  5  6 -1 -1</clus>
<clus scale="   81.945">  2  5  1 -1</clus>
<clus scale="   90.006">  7  8 -1 -1</clus>
<clus scale="   81.945">  2  5  1 -1</clus>
</clustering>
</event>
<event>
 9    2  0.2984928E-005  0.1224322E+03  0.7546771E-02  0.1239464E+00
          2   -1    0    0  502    0  0.00000000000E+00  0.00000000000E+00  0.60524577414E+03  0.60524577414E+03  0.00000000000E+00 0. -1.
         -1   -1    0    0    0  501 -0.00000000000E+00 -0.00000000000E+00 -0.64785888670E+02  0.64785888670E+02  0.00000000000E+00 0.  1.
         24    2    1    2    0    0  0.10250935024E+03 -0.53166352319E+01  0.14000271639E+03  0.19357958572E+03  0.85649646317E+02 0.  0.
         23    2    1    2    0    0 -0.42633069498E+02 -0.10194056525E+03  0.19222968106E+03  0.23469194221E+03  0.76932437893E+02 0.  0.
        -11    1    3    3    0    0  0.11080965860E+03 -0.17842021562E+02  0.98106957651E+02  0.14907076612E+03  0.00000000000E+00 0.  1.
         12    1    3    3    0    0 -0.83003083619E+01  0.12525386330E+02  0.41895758740E+02  0.44508819598E+02  0.00000000000E+00 0. -1.
        -13    1    4    4    0    0  0.12283512615E+02 -0.26766593543E+02  0.97594001159E+02  0.10194078808E+03  0.00000000000E+00 0.  1.
         13    1    4    4    0    0 -0.54916582113E+02 -0.75173971704E+02  0.94635679901E+02  0.13275115413E+03  0.00000000000E+00 0. -1.
         21    1    1    2  502  501 -0.59876280742E+02  0.10725720048E+03  0.20822748802E+03  0.24176013488E+03  0.00000000000E+00 0. -1.
<scales pt_clust_5="13000.00000" pt_clust_6="13000.00000" pt_clust_7="13000.00000" pt_clust_8="13000.00000" pt_clust_9="122.83841"></scales>
<clustering>
<clus scale="   76.932">  7  8 -1 -1</clus>
<clus scale="   85.650">  5  6 -1 -1</clus>
<clus scale="  122.838">  1  9  2 -1</clus>
<clus scale="  122.838">  1  7  2 -1</clus>
<clus scale="  122.432">  1  5  2 -1</clus>
</clustering>
</event>
<event>
 9    2  0.2984928E-005  0.1176467E+03  0.7546771E-02  0.1249759E+00
          2   -1    0    0  502    0  0.00000000000E+00  0.00000000000E+00  0.29684409020E+03  0.29684409020E+03  0.00000000000E+00 0. -1.
         -1   -1    0    0    0  501 -0.00000000000E+00 -0.00000000000E+00 -0.12288015088E+03  0.12288015088E+03  0.00000000000E+00 0.  1.
         23    2    1    2    0    0  0.69441867944E+02 -0.29289449993E+02 -0.69461140112E+02  0.13620342251E+03  0.89702159464E+02 0.  0.
         24    2    1    2    0    0 -0.83935039299E+02  0.93651649532E+01  0.22114946340E+03  0.25030587886E+03  0.81321280698E+02 0.  0.
        -13    1    4    4    0    0 -0.21011557404E+02 -0.34497451343E+02  0.82348689798E+02  0.91721679035E+02  0.00000000000E+00 0.  1.
         14    1    4    4    0    0 -0.62923481895E+02  0.43862616296E+02  0.13880077360E+03  0.15858419982E+03  0.00000000000E+00 0. -1.
        -11    1    3    3    0    0  0.89788072192E+02 -0.12786511246E+02 -0.49957658429E+02  0.10354303653E+03  0.00000000000E+00 0.  1.
         11    1    3    3    0    0 -0.20346204247E+02 -0.16502938748E+02 -0.19503481683E+02  0.32660385980E+02  0.00000000000E+00 0. -1.
         21    1    1    2  502  501  0.14493171354E+02  0.19924285040E+02  0.22275616043E+02  0.33214939716E+02  0.00000000000E+00 0.  1.
<scales pt_clust_5="13000.00000" pt_clust_6="13000.00000" pt_clust_7="13000.00000" pt_clust_8="13000.00000" pt_clust_9="24.63796"></scales>
<clustering>
<clus scale="   24.638">  1  9  2 -1</clus>
<clus scale="   81.321">  5  6 -1 -1</clus>
<clus scale="   89.702">  7  8 -1 -1</clus>
<clus scale="  111.389">  1  5  2 -1</clus>
<clus scale="   24.638">  1  5  2 -1</clus>
</clustering>
</event>
<event>
 9    2  0.2984928E-005  0.1037593E+03  0.7546771E-02  0.1274395E+00
          4   -1    0    0  502    0  0.00000000000E+00  0.00000000000E+00  0.43270742723E+02  0.43270742723E+02  0.00000000000E+00 0. -1.
         -3   -1    0    0    0  501 -0.00000000000E+00 -0.00000000000E+00 -0.41332968995E+03  0.41332968995E+03  0.00000000000E+00 0.  1.
         23    2    1    2    0    0 -0.11351344055E+02  0.56256213493E+02 -0.29529431030E+03  0.31294514834E+03  0.86268891293E+02 0.  0.
         24    2    1    2    0    0 -0.84644069597E+01 -0.60562783418E+02 -0.59914363966E+02  0.11852082314E+03  0.81963147736E+02 0.  0.
        -11    1    4    4    0    0 -0.37236752369E+02 -0.57849713272E+02 -0.57242006050E+02  0.89497554767E+02  0.00000000000E+00 0.  1.
         12    1    4    4    0    0  0.28772345410E+02 -0.27130701464E+01 -0.26723579163E+01  0.29023268369E+02  0.00000000000E+00 0. -1.
        -11    1    3    3    0    0 -0.31823730909E+02  0.52716783735E+02 -0.28114262655E+03  0.28780720213E+03  0.00000000000E+00 0.  1.
         11    1    3    3    0    0  0.20472386854E+02  0.35394297575E+01 -0.14151683752E+02  0.25137946208E+02  0.00000000000E+00 0. -1.
         21    1    1    2  502  501  0.19815751015E+02  0.43065699257E+01 -0.14850272964E+02  0.25134461202E+02  0.00000000000E+00 0. -1.
<scales pt_clust_5="13000.00000" pt_clust_6="13000.00000" pt_clust_7="13000.00000" pt_clust_8="13000.00000" pt_clust_9="20.27833"></scales>
<clustering>
<clus scale="   20.278">  1  9  2 -1</clus>
<clus scale="   81.963">  5  6 -1 -1</clus>
<clus scale="   86.269">  7  8 -1 -1</clus>
<clus scale="  100.208">  1  5  2 -1</clus>
<clus scale="   20.278">  1  5  2 -1</clus>
</clustering>
</event>
<event>
 9    2  0.2984928E-005  0.2264168E+03  0.7546771E-02  0.1130373E+00
         -1   -1    0    0    0  501 -0.00000000000E+00  0.00000000000E+00  0.27972343164E+03  0.27972343164E+03  0.00000000000E+00 0.  1.
          2   -1    0    0  502    0  0.00000000000E+00 -0.00000000000E+00 -0.22667850342E+03  0.22667850342E+03  0.00000000000E+00 0. -1.
         23    2    1    2    0    0 -0.52142959109E+02  0.19353588280E+03  0.10786690111E+03  0.24689483931E+03  0.95638732790E+02 0.  0.
         24    2    1    2    0    0  0.73085469503E+02 -0.20302697714E+03 -0.55862154883E+02  0.23649076259E+03  0.79030760737E+02 0.  0.
        -11    1    4    4    0    0  0.37259464173E+02 -0.44343973257E+02  0.13776084320E+02  0.59535167202E+02  0.00000000000E+00 0.  1.
         12    1    4    4    0    0  0.35826005330E+02 -0.15868300388E+03 -0.69638239202E+02  0.17695559539E+03  0.00000000000E+00 0. -1.
        -11    1    3    3    0    0  0.24775274134E+02  0.19170867978E+02  0.18772476074E+02  0.36520435997E+02  0.00000000000E+00 0. -1.
         11    1    3    3    0    0 -0.76918233243E+02  0.17436501482E+03  0.89094425034E+02  0.21037440332E+03  0.00000000000E+00 0.  1.
         21    1    1    2  502  501 -0.20942510393E+02  0.94910943412E+01  0.10401820025E+01  0.23016333157E+02  0.00000000000E+00 0. -1.
<scales pt_clust_5="13000.00000" pt_clust_6="13000.00000" pt_clust_7="13000.00000" pt_clust_8="13000.00000" pt_clust_9="22.99282"></scales>
<clustering>
<clus scale="   22.993">  2  9  1 -1</clus>
<clus scale="   79.031">  5  6 -1 -1</clus>
<clus scale="   95.639">  7  8 -1 -1</clus>
<clus scale="  219.917">  2  5  1 -1</clus>
<clus scale="   22.993">  2  5  1 -1</clus>
</clustering>
</event>
<event>
 9    2  0.2984928E-005  0.4050185E+03  0.7546771E-02  0.1042260E+00
          2   -1    0    0  502    0  0.00000000000E+00  0.00000000000E+00  0.16540166852E+04  0.16540166852E+04  0.00000000000E+00 0. -1.
         -1   -1    0    0    0  501 -0.00000000000E+00 -0.00000000000E+00 -0.13228103097E+03  0.13228103097E+03  0.00000000000E+00 0.  1.
         24    2    1    2    0    0  0.17728783319E+03 -0.36906671663E+03  0.42028772345E+03  0.59204257227E+03  0.78939342429E+02 0.  0.
         23    2    1    2    0    0 -0.21656636696E+03  0.30245967790E+03  0.87869925198E+03  0.95846652090E+03  0.90348482022E+02 0.  0.
        -13    1    3    3    0    0  0.62759916098E+02 -0.21683295643E+03  0.21025969133E+03  0.30848739984E+03  0.00000000000E+00 0.  1.
         14    1    3    3    0    0  0.11452791710E+03 -0.15223376020E+03  0.21002803212E+03  0.28355517243E+03  0.00000000000E+00 0. -1.
        -11    1    4    4    0    0 -0.57919328956E+02  0.96093389810E+02  0.37584701107E+03  0.39223661731E+03  0.00000000000E+00 0. -1.
         11    1    4    4    0    0 -0.15864703800E+03  0.20636628809E+03  0.50285224091E+03  0.56622990359E+03  0.00000000000E+00 0.  1.
         21    1    1    2  502  501  0.39278533763E+02  0.66607038724E+02  0.22274867882E+03  0.23578862301E+03  0.00000000000E+00 0. -1.
<scales pt_clust_5="13000.00000" pt_clust_6="13000.00000" pt_clust_7="13000.00000" pt_clust_8="13000.00000" pt_clust_9="77.32594"></scales>
<clustering>
<clus scale="   77.326">  1  9  2 -1</clus>
<clus scale="   78.939">  5  6 -1 -1</clus>
<clus scale="   90.348">  7  8 -1 -1</clus>
<clus scale="  402.627">  2  5  1 -1</clus>
<clus scale="   77.326">  1  5  2 -1</clus>
</clustering>
</event>
<event>
 9    2  0.2984928E-005  0.1092516E+03  0.7546771E-02  0.1267538E+00
          2   -1    0    0  502    0  0.00000000000E+00  0.00000000000E+00  0.33515341738E+03  0.33515341738E+03  0.00000000000E+00 0. -1.
         -1   -1    0    0    0  501 -0.00000000000E+00 -0.00000000000E+00 -0.13161198005E+03  0.13161198005E+03  0.00000000000E+00 0.  1.
         23    2    1    2    0    0 -0.96331503826E+01 -0.56168357691E+02 -0.94716207627E+02  0.14521250739E+03  0.94169158030E+02 0.  0.
         24    2    1    2    0    0 -0.84014112728E+01  0.39833515938E+02  0.26710936394E+03  0.28202710251E+03  0.80836758625E+02 0.  0.
        -13    1    4    4    0    0  0.35096413712E+02  0.64662636765E+01  0.10526232152E+03  0.11114732184E+03  0.00000000000E+00 0.  1.
         14    1    4    4    0    0 -0.43497824985E+02  0.33367252262E+02  0.16184704242E+03  0.17087978067E+03  0.00000000000E+00 0. -1.
        -11    1    3    3    0    0 -0.36046630100E+02 -0.41265694585E+02 -0.10616409046E+02  0.55811515230E+02  0.00000000000E+00 0. -1.
         11    1    3    3    0    0  0.26413479718E+02 -0.14902663105E+02 -0.84099798581E+02  0.89400992163E+02  0.00000000000E+00 0.  1.
         21    1    1    2  502  501  0.18034561655E+02  0.16334841753E+02  0.31148281020E+02  0.39525787528E+02  0.00000000000E+00 0. -1.
<scales pt_clust_5="13000.00000" pt_clust_6="13000.00000" pt_clust_7="13000.00000" pt_clust_8="13000.00000" pt_clust_9="24.33254"></scales>
<clustering>
<clus scale="   24.333">  1  9  2 -1</clus>
<clus scale="   80.837">  5  6 -1 -1</clus>
<clus scale="   94.169">  7  8 -1 -1</clus>
<clus scale="   97.993">  1  5  2 -1</clus>
<clus scale="   24.333">  1  5  2 -1</clus>
</clustering>
</event>
<event>
 9    2  0.2984928E-005  0.9942650E+02  0.7546771E-02  0.1286998E+00
         -1   -1    0    0    0  501 -0.00000000000E+00  0.00000000000E+00  0.51107077651E+02  0.51107077651E+02  0.00000000000E+00 0.  1.
          2   -1    0    0  502    0  0.00000000000E+00 -0.00000000000E+00 -0.39535233442E+03  0.39535233442E+03  0.00000000000E+00 0. -1.
         23    2    1    2    0    0 -0.27852455936E+02 -0.11073164445E+02 -0.35995902945E+02  0.10317367729E+03  0.91927843352E+02 0.  0.
         24    2    1    2    0    0  0.39101435170E+02  0.47746765380E+02 -0.15686745045E+03  0.18711924283E+03  0.81225231248E+02 0.  0.
        -11    1    4    4    0    0  0.26980334671E+02  0.92165741615E+00 -0.46395692552E+01  0.27391851237E+02  0.00000000000E+00 0.  1.
         12    1    4    4    0    0  0.12121100499E+02  0.46825107964E+02 -0.15222788119E+03  0.15972739160E+03  0.00000000000E+00 0. -1.
        -13    1    3    3    0    0 -0.23330529908E+02  0.37832657866E+02 -0.41566337110E+01  0.44641922347E+02  0.00000000000E+00 0.  1.
         13    1    3    3    0    0 -0.45219260284E+01 -0.48905822311E+02 -0.31839269234E+02  0.58531754939E+02  0.00000000000E+00 0. -1.
         21    1    1    2  502  501 -0.11248979233E+02 -0.36673600935E+02 -0.15138190338E+03  0.15616649196E+03  0.00000000000E+00 0. -1.
<scales pt_clust_5="13000.00000" pt_clust_6="13000.00000" pt_clust_7="13000.00000" pt_clust_8="13000.00000" pt_clust_9="38.36004"></scales>
<clustering>
<clus scale="   38.360">  2  9  1 -1</clus>
<clus scale="   81.225">  5  6 -1 -1</clus>
<clus scale="   89.624">  2  5  1 -1</clus>
<clus scale="   91.928">  7  8 -1 -1</clus>
<clus scale="   38.360">  2  5  1 -1</clus>
</clustering>
</event>
<event>
 9    2  0.2984928E-005  0.9424843E+02  0.7546771E-02  0.1297274E+00
          2   -1    0    0  502    0  0.00000000000E+00  0.00000000000E+00  0.50330407743E+03  0.50330407743E+03  0.00000000000E+00 0. -1.
         -1   -1    0    0    0  501 -0.00000000000E+00 -0.00000000000E+00 -0.16524985506E+03  0.16524985506E+03  0.00000000000E+00 0.  1.
         23    2    1    2    0    0 -0.20473605789E+02 -0.23159423432E+02 -0.13241639775E+03  0.16186594902E+03  0.87812047195E+02 0.  0.
         24    2    1    2    0    0  0.44304462300E+02  0.64426422720E+02  0.17662174756E+03  0.20900016904E+03  0.79825933298E+02 0.  0.
        -11    1    4    4    0    0 -0.19310094362E+02  0.22452683639E+02  0.83913877004E+02  0.88986187134E+02  0.00000000000E+00 0.  1.
         12    1    4    4    0    0  0.63614556662E+02  0.41973739082E+02  0.92707870551E+02  0.12001398191E+03  0.00000000000E+00 0. -1.
        -11    1    3    3    0    0 -0.11004936189E+02  0.31237599729E+02 -0.26480312038E+02  0.42404046776E+02  0.00000000000E+00 0. -1.
         11    1    3    3    0    0 -0.94686696007E+01 -0.54397023160E+02 -0.10593608571E+03  0.11946190225E+03  0.00000000000E+00 0.  1.
         21    1    1    2  502  501 -0.23830856510E+02 -0.41266999289E+02  0.29384887256E+03  0.29768781442E+03  0.00000000000E+00 0.  1.
<scales pt_clust_5="13000.00000" pt_clust_6="13000.00000" pt_clust_7="13000.00000" pt_clust_8="13000.00000" pt_clust_9="47.65370"></scales>
<clustering>
<clus scale="   47.654">  1  9  2 -1</clus>
<clus scale="   79.826">  5  6 -1 -1</clus>
<clus scale="   86.856">  1  5  2 -1</clus>
<clus scale="   87.812">  7  8 -1 -1</clus>
<clus scale="   47.654">  1  5  2 -1</clus>
</clustering>
</event>
<event>
 9    2  0.2984928E-005  0.3850300E+03  0.7546771E-02  0.1089891E+00
         -1   -1    0    0    0  501 -0.00000000000E+00  0.00000000000E+00  0.91384675659E+03  0.91384675659E+03  0.00000000000E+00 0.  1.
          2   -1    0    0  502    0  0.00000000000E+00 -0.00000000000E+00 -0.55150230905E+03  0.55150230905E+03  0.00000000000E+00 0. -1.
         24    2    1    2    0    0 -0.21212024199E+03 -0.35258682969E+03  0.55907597204E+03  0.69877607090E+03  0.80059885151E+02 0.  0.
         23    2    1    2    0    0  0.61652639461E+02  0.60972603790E+02 -0.37339364427E+03  0.39389503629E+03  0.90618870366E+02 0.  0.
        -13    1    3    3    0    0 -0.14625546804E+03 -0.27937839894E+03  0.37460013784E+03  0.48966132683E+03  0.00000000000E+00 0.  1.
         14    1    3    3    0    0 -0.65864773952E+02 -0.73208430749E+02  0.18447583420E+03  0.20911474406E+03  0.00000000000E+00 0. -1.
        -13    1    4    4    0    0  0.27949094995E+02 -0.21655452996E+02 -0.12740945047E+03  0.13222434959E+03  0.00000000000E+00 0.  1.
         13    1    4    4    0    0  0.33703544466E+02  0.82628056786E+02 -0.24598419380E+03  0.26167068670E+03  0.00000000000E+00 0. -1.
         21    1    1    2  502  501  0.15046760253E+03  0.29161422590E+03  0.17666211978E+03  0.37267795846E+03  0.00000000000E+00 0. -1.
<scales pt_clust_5="13000.00000" pt_clust_6="13000.00000" pt_clust_7="13000.00000" pt_clust_8="13000.00000" pt_clust_9="376.61459"></scales>
<clustering>
<clus scale="   80.060">  5  6 -1 -1</clus>
<clus scale="   90.619">  7  8 -1 -1</clus>
<clus scale="  125.421">  2  7  1 -1</clus>
<clus scale="  376.615">  2  9  1 -1</clus>
<clus scale="  125.421">  2  5  1 -1</clus>
</clustering>
</event>
<event>
 9    2  0.2984928E-005  0.1313652E+03  0.7546771E-02  0.1230717E+00
          4   -1    0    0  502    0  0.00000000000E+00  0.00000000000E+00  0.49110640919E+03  0.49110640919E+03  0.00000000000E+00 0. -1.
         -3   -1    0    0    0  501 -0.00000000000E+00 -0.00000000000E+00 -0.56006458599E+02  0.56006458599E+02  0.00000000000E+00 0.  1.
         24    2    1    2    0    0  0.56265227019E+02 -0.41790361078E+02  0.11839710393E+03  0.15658786947E+03  0.74764139754E+02 0.  0.
         23    2    1    2    0    0 -0.82736700609E+02  0.82988347453E+02  0.13493726439E+03  0.20227851126E+03  0.94742299715E+02 0.  0.
        -13    1    3    3    0    0  0.78770179042E+01 -0.34344830859E+02  0.84533403795E+01  0.36236359935E+02  0.00000000000E+00 0.  1.
         14    1    3    3    0    0  0.48388209115E+02 -0.74455302190E+01  0.10994376355E+03  0.12035150953E+03  0.00000000000E+00 0. -1.
        -11    1    4    4    0    0 -0.55914140064E+02  0.37079019209E+02  0.13312672779E+03  0.14907706187E+03  0.00000000000E+00 0. -1.
         11    1    4    4    0    0 -0.26822560545E+02  0.45909328244E+02  0.18105365998E+01  0.53201449386E+02  0.00000000000E+00 0.  1.
         21    1    1    2  502  501  0.26471473590E+02 -0.41197986375E+02  0.18176558227E+03  0.18824648707E+03  0.00000000000E+00 0. -1.
<scales pt_clust_5="13000.00000" pt_clust_6="13000.00000" pt_clust_7="13000.00000" pt_clust_8="13000.00000" pt_clust_9="48.96951"></scales>
<clustering>
<clus scale="   48.970">  1  9  2 -1</clus>
<clus scale="   74.764">  5  6 -1 -1</clus>
<clus scale="   94.742">  7  8 -1 -1</clus>
<clus scale="  117.773">  2  5  1 -1</clus>
<clus scale="   48.970">  1  5  2 -1</clus>
</clustering>
</event>
<event>
 9    2  0.2984928E-005  0.9819389E+02  0.7546771E-02  0.1291213E+00
         -1   -1    0    0    0  501 -0.00000000000E+00  0.00000000000E+00  0.17728305161E+03  0.17728305161E+03  0.00000000000E+00 0.  1.
          2   -1    0    0  502    0  0.00000000000E+00 -0.00000000000E+00 -0.28149050406E+03  0.28149050406E+03  0.00000000000E+00 0. -1.
         24    2    1    2    0    0  0.25946812280E+02 -0.17677984645E+02  0.13775785405E+03  0.16255804854E+03  0.80387465337E+02 0.  0.
         23    2    1    2    0    0 -0.42756758257E+02 -0.32739231162E+02 -0.11019533565E+03  0.15413174609E+03  0.93346588153E+02 0.  0.
        -11    1    3    3    0    0  0.14829606915E+02 -0.44877505939E+02  0.45011211530E+02  0.65268039222E+02  0.00000000000E+00 0.  1.
         12    1    3    3    0    0  0.11117205366E+02  0.27199521294E+02  0.92746642524E+02  0.97290009318E+02  0.00000000000E+00 0. -1.
        -13    1    4    4    0    0  0.15039960292E+02 -0.29025777341E+02 -0.36907561044E+01  0.32898599309E+02  0.00000000000E+00 0.  1.
         13    1    4    4    0    0 -0.57796718549E+02 -0.37134538212E+01 -0.10650457954E+03  0.12123314678E+03  0.00000000000E+00 0. -1.
         21    1    1    2  502  501  0.16809945976E+02  0.50417215807E+02 -0.13176997086E+03  0.14208376105E+03  0.00000000000E+00 0.  1.
<scales pt_clust_5="13000.00000" pt_clust_6="13000.00000" pt_clust_7="13000.00000" pt_clust_8="13000.00000" pt_clust_9="53.14574"></scales>
<clustering>
<clus scale="   53.146">  2  9  1 -1</clus>
<clus scale="   80.387">  5  6 -1 -1</clus>
<clus scale="   85.969">  1  5  2 -1</clus>
<clus scale="   93.347">  7  8 -1 -1</clus>
<clus scale="   53.146">  2  5  1 -1</clus>
</clustering>
</event>
<event>
 9    2  0.2984928E-005  0.9084850E+02  0.7546771E-02  0.1306712E+00
          2   -1    0    0  502    0  0.00000000000E+00  0.00000000000E+00  0.66627106309E+03  0.66627106309E+03  0.00000000000E+00 0. -1.
         -1   -1    0    0    0  501 -0.00000000000E+00 -0.00000000000E+00 -0.20000132859E+02  0.20000132859E+02  0.00000000000E+00 0.  1.
         23    2    1    2    0    0 -0.12743324253E+02 -0.44242654653E+00  0.19210851838E+03  0.21258544855E+03  0.90134910259E+02 0.  0.
         24    2    1    2    0    0 -0.23606019421E+02  0.23890759615E+02  0.24609882125E+03  0.26117326108E+03  0.80739271313E+02 0.  0.
        -13    1    4    4    0    0 -0.24229919879E+02  0.30771730206E+02  0.43803469117E+02  0.58759954935E+02  0.00000000000E+00 0.  1.
         14    1    4    4    0    0  0.62390045828E+00 -0.68809705910E+01  0.20229535214E+03  0.20241330614E+03  0.00000000000E+00 0. -1.
        -11    1    3    3    0    0 -0.33517301276E+02 -0.32469318758E+02  0.66038598012E+02  0.80862615421E+02  0.00000000000E+00 0.  1.
         11    1    3    3    0    0  0.20773977023E+02  0.32026892212E+02  0.12606992037E+03  0.13172283313E+03  0.00000000000E+00 0. -1.
         21    1    1    2  502  501  0.36349343674E+02 -0.23448333069E+02  0.20806359059E+03  0.21251248632E+03  0.00000000000E+00 0.  1.
<scales pt_clust_5="13000.00000" pt_clust_6="13000.00000" pt_clust_7="13000.00000" pt_clust_8="13000.00000" pt_clust_9="43.25620"></scales>
<clustering>
<clus scale="   43.256">  1  9  2 -1</clus>
<clus scale="   80.739">  5  6 -1 -1</clus>
<clus scale="   81.535">  1  5  2 -1</clus>
<clus scale="   90.135">  7  8 -1 -1</clus>
<clus scale="   43.256">  1  5  2 -1</clus>
</clustering>
</event>
<event>
 9    2  0.2984928E-005  0.1750261E+03  0.7546771E-02  0.1203840E+00
         -1   -1    0    0    0  501 -0.00000000000E+00  0.00000000000E+00  0.73087238803E+02  0.73087238803E+02  0.00000000000E+00 0.  1.
          2   -1    0    0  502    0  0.00000000000E+00 -0.00000000000E+00 -0.11268691224E+04  0.11268691224E+04  0.00000000000E+00 0. -1.
         24    2    1    2    0    0  0.18272548992E+01 -0.36117022711E+02 -0.49816988964E+01  0.87924179177E+02  0.79987910149E+02 0.  0.
         23    2    1    2    0    0 -0.14993396670E+03  0.32181889913E+02 -0.30557186278E+03  0.35418033512E+03  0.92486096555E+02 0.  0.
        -11    1    3    3    0    0 -0.37774238933E+02 -0.28230532992E+02 -0.59618496123E+01  0.47533143918E+02  0.00000000000E+00 0.  1.
         12    1    3    3    0    0  0.39601493832E+02 -0.78864897186E+01  0.98015071586E+00  0.40391035258E+02  0.00000000000E+00 0. -1.
        -13    1    4    4    0    0 -0.82708702913E+01  0.30877326163E+02 -0.27783149491E+02  0.42352331247E+02  0.00000000000E+00 0.  1.
         13    1    4    4    0    0 -0.14166309641E+03  0.13045637499E+01 -0.27778871329E+03  0.31182800387E+03  0.00000000000E+00 0. -1.
         21    1    1    2  502  501  0.14810671180E+03  0.39351327973E+01 -0.74322832192E+03  0.75785184690E+03  0.00000000000E+00 0.  1.
<scales pt_clust_5="13000.00000" pt_clust_6="13000.00000" pt_clust_7="13000.00000" pt_clust_8="13000.00000" pt_clust_9="148.59498"></scales>
<clustering>
<clus scale="   79.988">  5  6 -1 -1</clus>
<clus scale="   87.783">  1  5  2 -1</clus>
<clus scale="   92.486">  7  8 -1 -1</clus>
<clus scale="  148.595">  2  9  1 -1</clus>
<clus scale="  148.595">  2  5  1 -1</clus>
</clustering>
</event>
<event>
 9    2  0.2984928E-005  0.9582240E+02  0.7546771E-02  0.1295179E+00
          2   -1    0    0  502    0  0.00000000000E+00  0.00000000000E+00  0.96167579324E+03  0.96167579324E+03  0.00000000000E+00 0. -1.
         -1   -1    0    0    0  501 -0.00000000000E+00 -0.00000000000E+00 -0.19942345224E+02  0.19942345224E+02  0.00000000000E+00 0.  1.
         24    2    1    2    0    0  0.31911631674E+02  0.54325226975E+02  0.24985800229E+03  0.27034124565E+03  0.81766651338E+02 0.  0.
         23    2    1    2    0    0  0.13170771430E+02 -0.15220540428E+02  0.53863565534E+03  0.54682619218E+03  0.92116128782E+02 0.  0.
        -13    1    3    3    0    0  0.20447276946E+02  0.74862241807E+02  0.21215946158E+03  0.22590724539E+03  0.00000000000E+00 0.  1.
         14    1    3    3    0    0  0.11464354728E+02 -0.20537014832E+02  0.37698540707E+02  0.44434000258E+02  0.00000000000E+00 0. -1.
        -11    1    4    4    0    0 -0.14195681516E+02 -0.48867692379E+02  0.28383671757E+03  0.28836236054E+03  0.00000000000E+00 0. -1.
         11    1    4    4    0    0  0.27366452946E+02  0.33647151950E+02  0.25479893777E+03  0.25846383165E+03  0.00000000000E+00 0.  1.
         21    1    1    2  502  501 -0.45082403104E+02 -0.39104686547E+02  0.15323979038E+03  0.16445070062E+03  0.00000000000E+00 0. -1.
<scales pt_clust_5="13000.00000" pt_clust_6="13000.00000" pt_clust_7="13000.00000" pt_clust_8="13000.00000" pt_clust_9="59.67914"></scales>
<clustering>
<clus scale="   59.679">  2  9  1 -1</clus>
<clus scale="   81.767">  5  6 -1 -1</clus>
<clus scale="   85.921">  2  5  1 -1</clus>
<clus scale="   92.116">  7  8 -1 -1</clus>
<clus scale="   95.822">  1  5  2 -1</clus>
</clustering>
</event>
<event>
 9    2  0.2984928E-005  0.3819651E+03  0.7546771E-02  0.1079398E+00
         -1   -1    0    0    0  501 -0.00000000000E+00  0.00000000000E+00  0.52521128745E+03  0.52521128745E+03  0.00000000000E+00 0.  1.
          2   -1    0    0  502    0  0.00000000000E+00 -0.00000000000E+00 -0.61609556549E+03  0.61609556549E+03  0.00000000000E+00 0. -1.
         24    2    1    2    0    0 -0.39219725925E+02 -0.14438674733E+03  0.21173117305E+03  0.27153704755E+03  0.80725205736E+02 0.  0.
         23    2    1    2    0    0  0.15157997043E+03 -0.25147247132E+03  0.69373663818E+02  0.31505794583E+03  0.90740909923E+02 0.  0.
        -13    1    3    3    0    0 -0.52046197864E+02 -0.14768243996E+03  0.19837672924E+03  0.25272957185E+03  0.00000000000E+00 0.  1.
         14    1    3    3    0    0  0.12826471939E+02  0.32956926335E+01  0.13354443817E+02  0.18807475695E+02  0.00000000000E+00 0. -1.
        -11    1    4    4    0    0  0.51493460174E+02 -0.15152468545E+03  0.67264135915E+02  0.17359657463E+03  0.00000000000E+00 0. -1.
         11    1    4    4    0    0  0.10008651026E+03 -0.99947785865E+02  0.21095279038E+01  0.14146137121E+03  0.00000000000E+00 0.  1.
         21    1    1    2  502  501 -0.11236024451E+03  0.39585921864E+03 -0.37198911491E+03  0.55471185956E+03  0.00000000000E+00 0. -1.
<scales pt_clust_5="13000.00000" pt_clust_6="13000.00000" pt_clust_7="13000.00000" pt_clust_8="13000.00000" pt_clust_9="371.03022"></scales>
<clustering>
<clus scale="   80.725">  5  6 -1 -1</clus>
<clus scale="   90.741">  7  8 -1 -1</clus>
<clus scale="  170.007">  1  5  2 -1</clus>
<clus scale="  371.030">  2  9  1 -1</clus>
<clus scale="  371.030">  2  5  1 -1</clus>
</clustering>
</event>
<event>
 9    2  0.2984928E-005  0.1148484E+03  0.7546771E-02  0.1253899E+00
          2   -1    0    0  502    0  0.00000000000E+00  0.00000000000E+00  0.46522504338E+03  0.46522504338E+03  0.00000000000E+00 0. -1.
         -1   -1    0    0    0  501 -0.00000000000E+00 -0.00000000000E+00 -0.48608278558E+02  0.48608278558E+02  0.00000000000E+00 0.  1.
         23    2    1    2    0    0 -0.54108362402E+02  0.58697171499E+02  0.54138309957E+02  0.12959775744E+03  0.86553736522E+02 0.  0.
         24    2    1    2    0    0  0.53124142852E+02 -0.35205805678E+02  0.27024904813E+03  0.28905638388E+03  0.80358084452E+02 0.  0.
        -13    1    4    4    0    0  0.55065072670E+02 -0.20659467303E+02  0.85786826683E+02  0.10401132366E+03  0.00000000000E+00 0.  1.
         14    1    4    4    0    0 -0.19409298173E+01 -0.14546338375E+02  0.18446222145E+03  0.18504506022E+03  0.00000000000E+00 0. -1.
        -13    1    3    3    0    0 -0.63280983237E+02  0.54153438407E+01  0.25765653083E+02  0.68539606558E+02  0.00000000000E+00 0. -1.
         13    1    3    3    0    0  0.91726208348E+01  0.53281827658E+02  0.28372656874E+02  0.61058150887E+02  0.00000000000E+00 0.  1.
         21    1    1    2  502  501  0.98421954994E+00 -0.23491365820E+02  0.92229406736E+02  0.95179180618E+02  0.00000000000E+00 0. -1.
<scales pt_clust_5="13000.00000" pt_clust_6="13000.00000" pt_clust_7="13000.00000" pt_clust_8="13000.00000" pt_clust_9="23.51197"></scales>
<clustering>
<clus scale="   23.512">  1  9  2 -1</clus>
<clus scale="   80.358">  5  6 -1 -1</clus>
<clus scale="   86.554">  7  8 -1 -1</clus>
<clus scale="  110.254">  1  5  2 -1</clus>
<clus scale="   23.512">  1  5  2 -1</clus>
</clustering>
</event>
<event>
 9    2  0.2984928E-005  0.1588219E+03  0.7546771E-02  0.1192182E+00
          4   -1    0    0  502    0  0.00000000000E+00  0.00000000000E+00  0.70494671540E+03  0.70494671540E+03  0.00000000000E+00 0. -1.
         -3   -1    0    0    0  501 -0.00000000000E+00 -0.00000000000E+00 -0.87366324500E+02  0.87366324500E+02  0.00000000000E+00 0.  1.
         23    2    1    2    0    0  0.89656755011E-01 -0.14532234252E+03  0.50850044673E+02  0.17921851470E+03  0.91733078515E+02 0.  0.
         24    2    1    2    0    0 -0.51006797834E+02  0.95375971696E+02  0.20682618474E+03  0.24619099474E+03  0.78324107352E+02 0.  0.
        -11    1    4    4    0    0 -0.60392508875E+02  0.82744175859E+02  0.11923265175E+03  0.15719503494E+03  0.00000000000E+00 0.  1.
         12    1    4    4    0    0  0.93857110405E+01  0.12631795837E+02  0.87593532998E+02  0.88995959801E+02  0.00000000000E+00 0. -1.
        -13    1    3    3    0    0  0.36863572836E+02 -0.12376492241E+03  0.35736171510E+02  0.13399161531E+03  0.00000000000E+00 0.  1.
         13    1    3    3    0    0 -0.36773916081E+02 -0.21557420112E+02  0.15113873163E+02  0.45226899383E+02  0.00000000000E+00 0. -1.
         21    1    1    2  502  501  0.50917141079E+02  0.49946370822E+02  0.35990416149E+03  0.36690353047E+03  0.00000000000E+00 0. -1.
<scales pt_clust_5="13000.00000" pt_clust_6="13000.00000" pt_clust_7="13000.00000" pt_clust_8="13000.00000" pt_clust_9="71.32458"></scales>
<clustering>
<clus scale="   71.325">  1  9  2 -1</clus>
<clus scale="   78.324">  5  6 -1 -1</clus>
<clus scale="   91.733">  7  8 -1 -1</clus>
<clus scale="  151.473">  1  5  2 -1</clus>
<clus scale="   71.325">  1  5  2 -1</clus>
</clustering>
</event>
<event>
 9    2  0.2984928E-005  0.1090953E+03  0.7546771E-02  0.1266672E+00
         -1   -1    0    0    0  501 -0.00000000000E+00  0.00000000000E+00  0.34986590043E+03  0.34986590043E+03  0.00000000000E+00 0.  1.
          2   -1    0    0  502    0  0.00000000000E+00 -0.00000000000E+00 -0.31091362686E+03  0.31091362686E+03  0.00000000000E+00 0. -1.
         23    2    1    2    0    0 -0.57514190305E+02 -0.24252207026E+02  0.31162058509E+03  0.33057079223E+03  0.90959375521E+02 0.  0.
         24    2    1    2    0    0  0.19293091709E+01 -0.31624356241E+01 -0.25274302606E+03  0.26510682538E+03  0.79930397296E+02 0.  0.
        -11    1    4    4    0    0 -0.85881918555E+01  0.25216242672E+02 -0.29204084965E+02  0.39528401340E+02  0.00000000000E+00 0.  1.
         12    1    4    4    0    0  0.10517501026E+02 -0.28378678297E+02 -0.22353894109E+03  0.22557842404E+03  0.00000000000E+00 0. -1.
        -11    1    3    3    0    0 -0.31243313784E+02  0.23264898674E+02  0.50039652908E+02  0.63414249421E+02  0.00000000000E+00 0. -1.
         11    1    3    3    0    0 -0.26270876521E+02 -0.47517105700E+02  0.26158093218E+03  0.26715654281E+03  0.00000000000E+00 0.  1.
         21    1    1    2  502  501  0.55584881134E+02  0.27414642650E+02 -0.19925285467E+02  0.65101909675E+02  0.00000000000E+00 0. -1.
<scales pt_clust_5="13000.00000" pt_clust_6="13000.00000" pt_clust_7="13000.00000" pt_clust_8="13000.00000" pt_clust_9="61.97775"></scales>
<clustering>
<clus scale="   61.978">  2  9  1 -1</clus>
<clus scale="   79.930">  5  6 -1 -1</clus>
<clus scale="   90.959">  7  8 -1 -1</clus>
<clus scale="  100.085">  2  5  1 -1</clus>
<clus scale="   61.978">  2  5  1 -1</clus>
</clustering>
</event>
<event>
 9    2  0.2984928E-005  0.3095451E+03  0.7546771E-02  0.1080821E+00
          2   -1    0    0  502    0  0.00000000000E+00  0.00000000000E+00  0.98441624485E+03  0.98441624485E+03  0.00000000000E+00 0. -1.
         -1   -1    0    0    0  501 -0.00000000000E+00 -0.00000000000E+00 -0.11798210769E+03  0.11798210769E+03  0.00000000000E+00 0.  1.
         23    2    1    2    0    0  0.28361395174E+03 -0.10084790240E+03  0.23488680492E+03  0.39208590485E+03  0.89176076483E+02 0.  0.
         24    2    1    2    0    0 -0.26471346624E+03  0.11371505268E+03  0.55743192640E+03  0.63275030943E+03  0.81475573600E+02 0.  0.
        -13    1    4    4    0    0 -0.13780908195E+03  0.17518011118E+02  0.23115378088E+03  0.26968554688E+03  0.00000000000E+00 0.  1.
         14    1    4    4    0    0 -0.12690438429E+03  0.96197041564E+02  0.32627814553E+03  0.36306476255E+03  0.00000000000E+00 0. -1.
        -11    1    3    3    0    0  0.10350814863E+03 -0.81854914442E+01  0.40795574972E+02  0.11155813749E+03  0.00000000000E+00 0.  1.
         11    1    3    3    0    0  0.18010580312E+03 -0.92662410955E+02  0.19409122995E+03  0.28052776737E+03  0.00000000000E+00 0. -1.
         21    1    1    2  502  501 -0.18900485507E+02 -0.12867150283E+02  0.74115405841E+02  0.77562138262E+02  0.00000000000E+00 0.  1.
<scales pt_clust_5="13000.00000" pt_clust_6="13000.00000" pt_clust_7="13000.00000" pt_clust_8="13000.00000" pt_clust_9="22.86464"></scales>
<clustering>
<clus scale="   22.865">  1  9  2 -1</clus>
<clus scale="   81.476">  5  6 -1 -1</clus>
<clus scale="   89.176">  7  8 -1 -1</clus>
<clus scale="  307.415">  1  5  2 -1</clus>
<clus scale="   22.865">  1  5  2 -1</clus>
</clustering>
</event>
<event>
 9    2  0.2984928E-005  0.9952894E+02  0.7546771E-02  0.1281519E+00
         -1   -1    0    0    0  501 -0.00000000000E+00  0.00000000000E+00  0.55760639637E+02  0.55760639637E+02  0.00000000000E+00 0.  1.
          2   -1    0    0  502    0  0.00000000000E+00 -0.00000000000E+00 -0.10991956148E+04  0.10991956148E+04  0.00000000000E+00 0. -1.
         23    2    1    2    0    0 -0.66279550730E+02 -0.23935335769E+02 -0.48769843527E-01  0.10196123220E+03  0.73689967777E+02 0.  0.
         24    2    1    2    0    0  0.22188662353E+02 -0.19302597119E+02 -0.62173961574E+03  0.62685024428E+03  0.74270801611E+02 0.  0.
        -11    1    4    4    0    0 -0.18618840159E+02 -0.20124352290E+02 -0.10565561443E+03  0.10915475081E+03  0.00000000000E+00 0.  1.
         12    1    4    4    0    0  0.40807502512E+02  0.82175517121E+00 -0.51608400131E+03  0.51769549347E+03  0.00000000000E+00 0. -1.
        -13    1    3    3    0    0 -0.34268142618E+02 -0.16049045005E+02 -0.36665114581E+02  0.52689734022E+02  0.00000000000E+00 0. -1.
         13    1    3    3    0    0 -0.32011408112E+02 -0.78862907639E+01  0.36616344737E+02  0.49271498183E+02  0.00000000000E+00 0.  1.
         21    1    1    2  502  501  0.44090888377E+02  0.43237932888E+02 -0.42164658963E+03  0.42614477801E+03  0.00000000000E+00 0.  1.
<scales pt_clust_5="13000.00000" pt_clust_6="13000.00000" pt_clust_7="13000.00000" pt_clust_8="13000.00000" pt_clust_9="61.75375"></scales>
<clustering>
<clus scale="   61.754">  2  9  1 -1</clus>
<clus scale="   73.690">  7  8 -1 -1</clus>
<clus scale="   74.271">  5  6 -1 -1</clus>
<clus scale="   99.096">  1  7  2 -1</clus>
<clus scale="   61.754">  2  5  1 -1</clus>
</clustering>
</event>
<event>
 9    2  0.2984928E-005  0.1432238E+03  0.7546771E-02  0.1211182E+00
          2   -1    0    0  502    0  0.00000000000E+00  0.00000000000E+00  0.20076614067E+03  0.20076614067E+03  0.00000000000E+00 0. -1.
         -1   -1    0    0    0  501 -0.00000000000E+00 -0.00000000000E+00 -0.15249599644E+03  0.15249599644E+03  0.00000000000E+00 0.  1.
         23    2    1    2    0    0 -0.10556694607E+03  0.10655571691E+02 -0.51248473657E+02  0.14867076758E+03  0.90656879329E+02 0.  0.
         24    2    1    2    0    0  0.11898932015E+03 -0.37695597979E+02  0.79146931946E+02  0.16817257308E+03  0.80239398569E+02 0.  0.
        -13    1    4    4    0    0  0.11338051097E+03 -0.54968473011E+02  0.53839323042E+02  0.13702315863E+03  0.00000000000E+00 0.  1.
         14    1    4    4    0    0  0.56088091722E+01  0.17272875032E+02  0.25307608904E+02  0.31149414451E+02  0.00000000000E+00 0. -1.
        -13    1    3    3    0    0 -0.11212869129E+03 -0.11447378486E+02 -0.54825720655E+02  0.12533852373E+03  0.00000000000E+00 0.  1.
         13    1    3    3    0    0  0.65617452245E+01  0.22102950177E+02  0.35772469978E+01  0.23332243849E+02  0.00000000000E+00 0. -1.
         21    1    1    2  502  501 -0.13422374078E+02  0.27040026288E+02  0.20371685935E+02  0.36418796457E+02  0.00000000000E+00 0.  1.
<scales pt_clust_5="13000.00000" pt_clust_6="13000.00000" pt_clust_7="13000.00000" pt_clust_8="13000.00000" pt_clust_9="30.18813"></scales>
<clustering>
<clus scale="   30.188">  1  9  2 -1</clus>
<clus scale="   80.239">  5  6 -1 -1</clus>
<clus scale="   90.657">  7  8 -1 -1</clus>
<clus scale="  136.868">  1  5  2 -1</clus>
<clus scale="   30.188">  1  5  2 -1</clus>
</clustering>
</event>
<event>
 9    2  0.2984928E-005  0.1005464E+03  0.7546771E-02  0.1285434E+00
          2   -1    0    0  502    0  0.00000000000E+00  0.00000000000E+00  0.22545700982E+03  0.22545700982E+03  0.00000000000E+00 0. -1.
         -1   -1    0    0    0  501 -0.00000000000E+00 -0.00000000000E+00 -0.12575639364E+03  0.12575639364E+03  0.00000000000E+00 0.  1.
         24    2    1    2    0    0  0.61946622808E+02 -0.20816025837E+02 -0.41526337015E+02  0.11120552701E+03  0.79821936605E+02 0.  0.
         23    2    1    2    0    0  0.25448831066E+02 -0.19703187510E+02  0.71012098232E+02  0.12080260028E+03  0.92275086232E+02 0.  0.
        -11    1    3    3    0    0  0.23581399666E+02  0.22807901633E+02 -0.41766926441E+02  0.53110817461E+02  0.00000000000E+00 0.  1.
         12    1    3    3    0    0  0.38365223142E+02 -0.43623927470E+02  0.24058942572E+00  0.58094709552E+02  0.00000000000E+00 0. -1.
        -13    1    4    4    0    0  0.18093689280E+02 -0.54368970381E+02  0.61612814375E+02  0.84139796929E+02  0.00000000000E+00 0.  1.
         13    1    4    4    0    0  0.73551417861E+01  0.34665782871E+02  0.93992838573E+01  0.36662803354E+02  0.00000000000E+00 0. -1.
         21    1    1    2  502  501 -0.87395453874E+02  0.40519213347E+02  0.70214854959E+02  0.11920527616E+03  0.00000000000E+00 0. -1.
<scales pt_clust_5="13000.00000" pt_clust_6="13000.00000" pt_clust_7="13000.00000" pt_clust_8="13000.00000" pt_clust_9="96.33157"></scales>
<clustering>
<clus scale="   79.822">  5  6 -1 -1</clus>
<clus scale="   92.275">  7  8 -1 -1</clus>
<clus scale="   96.332">  1  9  2 -1</clus>
<clus scale="   89.255">  2  5  1 -1</clus>
<clus scale="   96.332">  1  5  2 -1</clus>
</clustering>
</event>
<event>
 9    2  0.2984928E-005  0.9798184E+02  0.7546771E-02  0.1288534E+00
         -1   -1    0    0    0  501 -0.00000000000E+00  0.00000000000E+00  0.92399676159E+02  0.92399676159E+02  0.00000000000E+00 0.  1.
          2   -1    0    0  502    0  0.00000000000E+00 -0.00000000000E+00 -0.37581519857E+03  0.37581519857E+03  0.00000000000E+00 0. -1.
         24    2    1    2    0    0  0.24747909295E+02  0.15384532376E+02  0.28801694044E+02  0.91622685896E+02  0.81951425492E+02 0.  0.
         23    2    1    2    0    0 -0.67870981239E+02 -0.65988104929E+02 -0.13671946231E+03  0.18892284504E+03  0.89658964514E+02 0.  0.
        -11    1    3    3    0    0  0.51125419963E+02  0.30209976772E+01  0.80760501207E+00  0.51220964645E+02  0.00000000000E+00 0.  1.
         12    1    3    3    0    0 -0.26377510668E+02  0.12363534699E+02  0.27994089032E+02  0.40401721251E+02  0.00000000000E+00 0. -1.
        -13    1    4    4    0    0 -0.82075602936E+01 -0.26689441205E+02  0.66810235173E+01  0.28711084847E+02  0.00000000000E+00 0.  1.
         13    1    4    4    0    0 -0.59663420946E+02 -0.39298663724E+02 -0.14340048583E+03  0.16021176019E+03  0.00000000000E+00 0. -1.
         21    1    1    2  502  501  0.43123071945E+02  0.50603572553E+02 -0.17549775415E+03  0.18766934379E+03  0.00000000000E+00 0. -1.
<scales pt_clust_5="13000.00000" pt_clust_6="13000.00000" pt_clust_7="13000.00000" pt_clust_8="13000.00000" pt_clust_9="66.48549"></scales>
<clustering>
<clus scale="   66.485">  2  9  1 -1</clus>
<clus scale="   81.951">  5  6 -1 -1</clus>
<clus scale="   89.659">  7  8 -1 -1</clus>
<clus scale="   90.982">  1  5  2 -1</clus>
<clus scale="   66.485">  2  5  1 -1</clus>
</clustering>
</event>
<event>
 9    2  0.2984928E-005  0.1104678E+03  0.7546771E-02  0.1263321E+00
         -3   -1    0    0    0  501 -0.00000000000E+00  0.00000000000E+00  0.14696743439E+03  0.14696743439E+03  0.00000000000E+00 0.  1.
          4   -1    0    0  502    0  0.00000000000E+00 -0.00000000000E+00 -0.13180680200E+03  0.13180680200E+03  0.00000000000E+00 0. -1.
         23    2    1    2    0    0 -0.68308806211E+02 -0.23890801702E+02  0.75324736538E+02  0.13851929403E+03  0.90977554773E+02 0.  0.
         24    2    1    2    0    0  0.41739286825E+02  0.11274834810E+01 -0.44541505328E+02  0.10193818870E+03  0.81633383698E+02 0.  0.
        -11    1    4    4    0    0  0.46410342610E+02 -0.32065584615E+02 -0.18095208051E+02  0.59241524054E+02  0.00000000000E+00 0.  1.
         12    1    4    4    0    0 -0.46710557848E+01  0.33193068096E+02 -0.26446297277E+02  0.42696664641E+02  0.00000000000E+00 0. -1.
        -11    1    3    3    0    0  0.18111310274E+02 -0.22508702995E+02  0.26754242436E+02  0.39375763595E+02  0.00000000000E+00 0. -1.
         11    1    3    3    0    0 -0.86420116485E+02 -0.13820987066E+01  0.48570494102E+02  0.99143530437E+02  0.00000000000E+00 0.  1.
         21    1    1    2  502  501  0.26569519386E+02  0.22763318221E+02 -0.15622598818E+02  0.38316753655E+02  0.00000000000E+00 0. -1.
<scales pt_clust_5="13000.00000" pt_clust_6="13000.00000" pt_clust_7="13000.00000" pt_clust_8="13000.00000" pt_clust_9="34.98726"></scales>
<clustering>
<clus scale="   34.987">  2  9  1 -1</clus>
<clus scale="   81.633">  5  6 -1 -1</clus>
<clus scale="   90.978">  7  8 -1 -1</clus>
<clus scale="  102.909">  2  5  1 -1</clus>
<clus scale="   34.987">  2  5  1 -1</clus>
</clustering>
</event>
<event>
 9    2  0.2984928E-005  0.1501236E+03  0.7546771E-02  0.1212886E+00
          2   -1    0    0  502    0  0.00000000000E+00  0.00000000000E+00  0.16029144054E+03  0.16029144054E+03  0.00000000000E+00 0. -1.
         -1   -1    0    0    0  501 -0.00000000000E+00 -0.00000000000E+00 -0.25582662214E+03  0.25582662214E+03  0.00000000000E+00 0.  1.
         23    2    1    2    0    0  0.50503665276E+02 -0.54494381910E+02 -0.37593743021E+02  0.12062638285E+03  0.87276439309E+02 0.  0.
         24    2    1    2    0    0  0.91742674822E+02  0.79128637933E+02 -0.20592107056E+02  0.14637481155E+03  0.79520380154E+02 0.  0.
        -11    1    4    4    0    0  0.58137628947E+02  0.10226555814E+02 -0.34632231903E+02  0.68439446447E+02  0.00000000000E+00 0.  1.
         12    1    4    4    0    0  0.33605045875E+02  0.68902082120E+02  0.14040124847E+02  0.77935365107E+02  0.00000000000E+00 0. -1.
        -13    1    3    3    0    0  0.23361109286E+02 -0.37811554202E+02 -0.64903822560E+02  0.78663595399E+02  0.00000000000E+00 0. -1.
         13    1    3    3    0    0  0.27142555991E+02 -0.16682827708E+02  0.27310079539E+02  0.41962787448E+02  0.00000000000E+00 0.  1.
         21    1    1    2  502  501 -0.14224634010E+03 -0.24634256023E+02 -0.37349331523E+02  0.14911686828E+03  0.00000000000E+00 0.  1.
<scales pt_clust_5="13000.00000" pt_clust_6="13000.00000" pt_clust_7="13000.00000" pt_clust_8="13000.00000" pt_clust_9="127.33262"></scales>
<clustering>
<clus scale="   79.520">  5  6 -1 -1</clus>
<clus scale="   87.276">  7  8 -1 -1</clus>
<clus scale="  114.619">  2  7  1 -1</clus>
<clus scale="  127.333">  2  9  1 -1</clus>
<clus scale="  150.124">  1  5  2 -1</clus>
</clustering>
</event>
<event>
 9    2  0.2984928E-005  0.9856439E+02  0.7546771E-02  0.1289256E+00
         -1   -1    0    0    0  501 -0.00000000000E+00  0.00000000000E+00  0.33611187468E+03  0.33611187468E+03  0.00000000000E+00 0.  1.
          2   -1    0    0  502    0  0.00000000000E+00 -0.00000000000E+00 -0.23712214208E+03  0.23712214208E+03  0.00000000000E+00 0. -1.
         23    2    1    2    0    0 -0.32695583428E+02  0.97004097613E+01  0.29568262843E+03  0.31139563417E+03  0.91520080303E+02 0.  0.
         24    2    1    2    0    0  0.60711192252E+01 -0.36736226962E+02 -0.20476081786E+03  0.22304548540E+03  0.80223981248E+02 0.  0.
        -13    1    4    4    0    0  0.37883736342E+02  0.19659203828E-01 -0.67125384027E+02  0.77077850557E+02  0.00000000000E+00 0.  1.
         14    1    4    4    0    0 -0.31812617117E+02 -0.36755886166E+02 -0.13763543383E+03  0.14596763484E+03  0.00000000000E+00 0. -1.
        -11    1    3    3    0    0  0.21455097463E+02  0.31480769611E+02  0.93690965471E+02  0.10114028413E+03  0.00000000000E+00 0. -1.
         11    1    3    3    0    0 -0.54150680891E+02 -0.21780359849E+02  0.20199166296E+03  0.21025535004E+03  0.00000000000E+00 0.  1.
         21    1    1    2  502  501  0.26624464203E+02  0.27035817201E+02  0.80679220286E+01  0.38792897181E+02  0.00000000000E+00 0.  1.
<scales pt_clust_5="13000.00000" pt_clust_6="13000.00000" pt_clust_7="13000.00000" pt_clust_8="13000.00000" pt_clust_9="37.94466"></scales>
<clustering>
<clus scale="   37.945">  1  9  2 -1</clus>
<clus scale="   80.224">  5  6 -1 -1</clus>
<clus scale="   88.175">  2  5  1 -1</clus>
<clus scale="   91.520">  7  8 -1 -1</clus>
<clus scale="   88.175">  2  5  1 -1</clus>
</clustering>
</event>
<event>
 9    2  0.2984928E-005  0.1667299E+03  0.7546771E-02  0.1204415E+00
         -1   -1    0    0    0  501 -0.00000000000E+00  0.00000000000E+00  0.31318610070E+03  0.31318610070E+03  0.00000000000E+00 0.  1.
          2   -1    0    0  502    0  0.00000000000E+00 -0.00000000000E+00 -0.28134284705E+03  0.28134284705E+03  0.00000000000E+00 0. -1.
         24    2    1    2    0    0 -0.35981520052E+01 -0.60448532051E+02  0.16681043214E+03  0.19464247406E+03  0.79956242470E+02 0.  0.
         23    2    1    2    0    0  0.74411176393E+02  0.13274033230E+03 -0.20899236781E+03  0.27450578356E+03  0.92296242686E+02 0.  0.
        -11    1    3    3    0    0 -0.40237737419E+02 -0.44998074271E+02  0.10606087122E+03  0.12203610369E+03  0.00000000000E+00 0.  1.
         12    1    3    3    0    0  0.36639585414E+02 -0.15450457780E+02  0.60749560924E+02  0.72606370363E+02  0.00000000000E+00 0. -1.
        -13    1    4    4    0    0  0.77907585030E+02  0.65734948105E+02 -0.16605755682E+03  0.19484811363E+03  0.00000000000E+00 0. -1.
         13    1    4    4    0    0 -0.34964086364E+01  0.67005384191E+02 -0.42934810990E+02  0.79657669930E+02  0.00000000000E+00 0.  1.
         21    1    1    2  502  501 -0.70813024388E+02 -0.72291800245E+02  0.74025189310E+02  0.12538069013E+03  0.00000000000E+00 0.  1.
<scales pt_clust_5="13000.00000" pt_clust_6="13000.00000" pt_clust_7="13000.00000" pt_clust_8="13000.00000" pt_clust_9="138.85341"></scales>
<clustering>
<clus scale="   79.956">  5  6 -1 -1</clus>
<clus scale="   92.296">  7  8 -1 -1</clus>
<clus scale="  100.299">  1  5  2 -1</clus>
<clus scale="  138.853">  1  9  2 -1</clus>
<clus scale="  166.730">  2  5  1 -1</clus>
</clustering>
</event>
<event>
 9    2  0.2984928E-005  0.1175396E+03  0.7546771E-02  0.1254293E+00
          2   -1    0    0  502    0  0.00000000000E+00  0.00000000000E+00  0.54774287679E+03  0.54774287679E+03  0.00000000000E+00 0. -1.
         -1   -1    0    0    0  501 -0.00000000000E+00 -0.00000000000E+00 -0.90201709966E+02  0.90201709966E+02  0.00000000000E+00 0.  1.
         24    2    1    2    0    0 -0.60797408226E+02  0.86548150929E+01 -0.45289282380E+02  0.11074746569E+03  0.80266128517E+02 0.  0.
         23    2    1    2    0    0  0.82498000846E+02  0.23303208545E+01  0.36279124652E+03  0.38506138587E+03  0.99214070552E+02 0.  0.
        -13    1    3    3    0    0 -0.69854540740E+02  0.10385450206E+02 -0.60477866562E+02  0.92978958812E+02  0.00000000000E+00 0.  1.
         14    1    3    3    0    0  0.90571325135E+01 -0.17306351128E+01  0.15188584181E+02  0.17768506879E+02  0.00000000000E+00 0. -1.
        -11    1    4    4    0    0  0.16494191558E+02  0.46695549931E+02  0.14023542288E+03  0.14872291877E+03  0.00000000000E+00 0.  1.
         11    1    4    4    0    0  0.66003809287E+02 -0.44365229077E+02  0.22255582365E+03  0.23633846710E+03  0.00000000000E+00 0. -1.
         21    1    1    2  502  501 -0.21700592619E+02 -0.10985135947E+02  0.14003920268E+03  0.14213573520E+03  0.00000000000E+00 0.  1.
<scales pt_clust_5="13000.00000" pt_clust_6="13000.00000" pt_clust_7="13000.00000" pt_clust_8="13000.00000" pt_clust_9="24.32260"></scales>
<clustering>
<clus scale="   24.323">  1  9  2 -1</clus>
<clus scale="   80.266">  5  6 -1 -1</clus>
<clus scale="   99.214">  7  8 -1 -1</clus>
<clus scale="  102.053">  2  5  1 -1</clus>
<clus scale="   24.323">  1  5  2 -1</clus>
</clustering>
</event>
<event>
 9    2  0.2984928E-005  0.8700904E+02  0.7546771E-02  0.1313176E+00
          2   -1    0    0  502    0  0.00000000000E+00  0.00000000000E+00  0.28149384587E+03  0.28149384587E+03  0.00000000000E+00 0. -1.
         -1   -1    0    0    0  501 -0.00000000000E+00 -0.00000000000E+00 -0.94731482488E+02  0.94731482488E+02  0.00000000000E+00 0.  1.
         24    2    1    2    0    0  0.14775978280E+02  0.46435882181E+01 -0.61601927112E+02  0.10320244628E+03  0.81339136020E+02 0.  0.
         23    2    1    2    0    0  0.56513863694E+01 -0.17191410121E+02  0.17380964174E+03  0.19470863873E+03  0.85873043987E+02 0.  0.
        -11    1    3    3    0    0  0.37762756141E+02 -0.16364500757E+02 -0.59023297152E+02  0.71955348954E+02  0.00000000000E+00 0.  1.
         12    1    3    3    0    0 -0.22986777860E+02  0.21008088975E+02 -0.25786299594E+01  0.31247097325E+02  0.00000000000E+00 0. -1.
        -11    1    4    4    0    0  0.15143311354E+02 -0.35426720854E+02  0.16934397946E+03  0.17367140181E+03  0.00000000000E+00 0. -1.
         11    1    4    4    0    0 -0.94919249849E+01  0.18235310732E+02  0.44656622837E+01  0.21037236916E+02  0.00000000000E+00 0.  1.
         21    1    1    2  502  501 -0.20427364650E+02  0.12547821903E+02  0.74554648755E+02  0.78314243354E+02  0.00000000000E+00 0. -1.
<scales pt_clust_5="13000.00000" pt_clust_6="13000.00000" pt_clust_7="13000.00000" pt_clust_8="13000.00000" pt_clust_9="23.97342"></scales>
<clustering>
<clus scale="   23.973">  1  9  2 -1</clus>
<clus scale="   81.339">  5  6 -1 -1</clus>
<clus scale="   82.538">  2  5  1 -1</clus>
<clus scale="   85.873">  7  8 -1 -1</clus>
<clus scale="   23.973">  1  5  2 -1</clus>
</clustering>
</event>
<event>
 9    2  0.2984928E-005  0.1867993E+03  0.7546771E-02  0.1165307E+00
         -1   -1    0    0    0  501 -0.00000000000E+00  0.00000000000E+00  0.32689607804E+02  0.32689607804E+02  0.00000000000E+00 0.  1.
          2   -1    0    0  502    0  0.00000000000E+00 -0.00000000000E+00 -0.11738520777E+04  0.11738520777E+04  0.00000000000E+00 0. -1.
         23    2    1    2    0    0  0.13638541309E+03 -0.54770087875E+02 -0.44331789084E+03  0.48016932860E+03  0.11149479071E+03 0.  0.
         24    2    1    2    0    0 -0.13236105314E+03  0.80156383139E+02 -0.58151170430E+03  0.60723379384E+03  0.81440309434E+02 0.  0.
        -13    1    4    4    0    0 -0.66479239189E+02  0.46833626839E+02 -0.16188660473E+03  0.18116332586E+03  0.00000000000E+00 0.  1.
         14    1    4    4    0    0 -0.65881813954E+02  0.33322756300E+02 -0.41962509957E+03  0.42607046799E+03  0.00000000000E+00 0. -1.
        -11    1    3    3    0    0  0.37972371140E+02 -0.69215131295E+02 -0.13714796956E+03  0.15824727778E+03  0.00000000000E+00 0. -1.
         11    1    3    3    0    0  0.98413041945E+02  0.14445043420E+02 -0.30616992128E+03  0.32192205081E+03  0.00000000000E+00 0.  1.
         21    1    1    2  502  501 -0.40243599431E+01 -0.25386295264E+02 -0.11633287472E+03  0.11913856303E+03  0.00000000000E+00 0. -1.
<scales pt_clust_5="13000.00000" pt_clust_6="13000.00000" pt_clust_7="13000.00000" pt_clust_8="13000.00000" pt_clust_9="25.70330"></scales>
<clustering>
<clus scale="   25.703">  2  9  1 -1</clus>
<clus scale="   81.440">  5  6 -1 -1</clus>
<clus scale="  111.495">  7  8 -1 -1</clus>
<clus scale="  170.574">  2  5  1 -1</clus>
<clus scale="   25.703">  2  5  1 -1</clus>
</clustering>
</event>
<event>
 9    2  0.2984928E-005  0.1635041E+03  0.7546771E-02  0.1186999E+00
         -1   -1    0    0    0  501 -0.00000000000E+00  0.00000000000E+00  0.84808809415E+02  0.84808809415E+02  0.00000000000E+00 0.  1.
          2   -1    0    0  502    0  0.00000000000E+00 -0.00000000000E+00 -0.66041775031E+03  0.66041775031E+03  0.00000000000E+00 0. -1.
         23    2    1    2    0    0 -0.38232361302E+02  0.13459019480E+03 -0.34994621496E+02  0.17119607014E+03  0.92234683887E+02 0.  0.
         24    2    1    2    0    0  0.69281508553E+02 -0.97312744292E+02 -0.43701991979E+03  0.45963880505E+03  0.77535302817E+02 0.  0.
        -13    1    4    4    0    0  0.47480390659E+02 -0.96524421536E+02 -0.41471595259E+03  0.42843981232E+03  0.00000000000E+00 0.  1.
         14    1    4    4    0    0  0.21801117894E+02 -0.78832275630E+00 -0.22303967199E+02  0.31198992724E+02  0.00000000000E+00 0. -1.
        -13    1    3    3    0    0 -0.75526833083E+01  0.11282733733E+03  0.88521538804E+01  0.11342579822E+03  0.00000000000E+00 0.  1.
         13    1    3    3    0    0 -0.30679677993E+02  0.21762857472E+02 -0.43846775377E+02  0.57770271923E+02  0.00000000000E+00 0. -1.
         21    1    1    2  502  501 -0.31049147251E+02 -0.37277450505E+02 -0.10359439961E+03  0.11439168454E+03  0.00000000000E+00 0. -1.
<scales pt_clust_5="13000.00000" pt_clust_6="13000.00000" pt_clust_7="13000.00000" pt_clust_8="13000.00000" pt_clust_9="48.51451"></scales>
<clustering>
<clus scale="   48.515">  2  9  1 -1</clus>
<clus scale="   77.535">  5  6 -1 -1</clus>
<clus scale="   92.235">  7  8 -1 -1</clus>
<clus scale="  155.686">  2  5  1 -1</clus>
<clus scale="   48.515">  2  5  1 -1</clus>
</clustering>
</event>
<event>
 9    2  0.2984928E-005  0.2768420E+03  0.7546771E-02  0.1097850E+00
         -1   -1    0    0    0  501 -0.00000000000E+00  0.00000000000E+00  0.10115457730E+03  0.10115457730E+03  0.00000000000E+00 0.  1.
          2   -1    0    0  502    0  0.00000000000E+00 -0.00000000000E+00 -0.14439445629E+04  0.14439445629E+04  0.00000000000E+00 0. -1.
         24    2    1    2    0    0  0.23179515879E+03  0.10349844529E+03 -0.16136950641E+03  0.31138759673E+03  0.80505863018E+02 0.  0.
         23    2    1    2    0    0 -0.26439667308E+03 -0.13471311835E+03 -0.10236003867E+04  0.10695640606E+04  0.90312253044E+02 0.  0.
        -11    1    3    3    0    0  0.20985470606E+03  0.61105349641E+02 -0.13152811920E+03  0.25509313506E+03  0.00000000000E+00 0.  1.
         12    1    3    3    0    0  0.21940452726E+02  0.42393095644E+02 -0.29841387211E+02  0.56294461670E+02  0.00000000000E+00 0. -1.
        -11    1    4    4    0    0 -0.17737634023E+03 -0.43767413587E+02 -0.65855045878E+03  0.68342275301E+03  0.00000000000E+00 0.  1.
         11    1    4    4    0    0 -0.87020332850E+02 -0.90945704767E+02 -0.36504992790E+03  0.38614130756E+03  0.00000000000E+00 0. -1.
         21    1    1    2  502  501  0.32601514296E+02  0.31214673070E+02 -0.15782009251E+03  0.16414748292E+03  0.00000000000E+00 0.  1.
<scales pt_clust_5="13000.00000" pt_clust_6="13000.00000" pt_clust_7="13000.00000" pt_clust_8="13000.00000" pt_clust_9="45.13551"></scales>
<clustering>
<clus scale="   45.136">  2  9  1 -1</clus>
<clus scale="   80.506">  5  6 -1 -1</clus>
<clus scale="   90.312">  7  8 -1 -1</clus>
<clus scale="  273.800">  1  5  2 -1</clus>
<clus scale="   45.136">  2  5  1 -1</clus>
</clustering>
</event>
<event>
 9    2  0.2984928E-005  0.9184914E+02  0.7546771E-02  0.1303512E+00
         -1   -1    0    0    0  501 -0.00000000000E+00  0.00000000000E+00  0.79692290188E+02  0.79692290188E+02  0.00000000000E+00 0.  1.
          2   -1    0    0  502    0  0.00000000000E+00 -0.00000000000E+00 -0.40721044603E+03  0.40721044603E+03  0.00000000000E+00 0. -1.
         24    2    1    2    0    0 -0.14360255161E+02  0.28243936798E+01  0.43561611423E+02  0.94003308462E+02  0.82004962558E+02 0.  0.
         23    2    1    2    0    0  0.37446453964E+02 -0.18561514992E+02 -0.31299176006E+03  0.32844133173E+03  0.90349874206E+02 0.  0.
        -11    1    3    3    0    0 -0.48727672431E+02  0.41021519931E+01  0.26273318646E+02  0.55511268984E+02  0.00000000000E+00 0.  1.
         12    1    3    3    0    0  0.34367417270E+02 -0.12777583133E+01  0.17288292777E+02  0.38492039479E+02  0.00000000000E+00 0. -1.
        -11    1    4    4    0    0  0.47764806954E+02  0.21865873847E+02 -0.12006038038E+03  0.13104994529E+03  0.00000000000E+00 0. -1.
         11    1    4    4    0    0 -0.10318352990E+02 -0.40427388839E+02 -0.19293137967E+03  0.19739138644E+03  0.00000000000E+00 0.  1.
         21    1    1    2  502  501 -0.23086198803E+02  0.15737121312E+02 -0.58088007202E+02  0.64458096024E+02  0.00000000000E+00 0. -1.
<scales pt_clust_5="13000.00000" pt_clust_6="13000.00000" pt_clust_7="13000.00000" pt_clust_8="13000.00000" pt_clust_9="27.93975"></scales>
<clustering>
<clus scale="   27.940">  2  9  1 -1</clus>
<clus scale="   82.005">  5  6 -1 -1</clus>
<clus scale="   83.654">  1  5  2 -1</clus>
<clus scale="   90.350">  7  8 -1 -1</clus>
<clus scale="   27.940">  2  5  1 -1</clus>
</clustering>
</event>
<event>
 9    2  0.2984928E-005  0.9179434E+02  0.7546771E-02  0.1304366E+00
         -3   -1    0    0    0  501 -0.00000000000E+00  0.00000000000E+00  0.12760586263E+03  0.12760586263E+03  0.00000000000E+00 0.  1.
          4   -1    0    0  502    0  0.00000000000E+00 -0.00000000000E+00 -0.23812964755E+03  0.23812964755E+03  0.00000000000E+00 0. -1.
         24    2    1    2    0    0  0.16840117173E+02 -0.15498337061E+02  0.71582891462E+02  0.11052407682E+03  0.81041182182E+02 0.  0.
         23    2    1    2    0    0  0.54715745457E+02  0.79831125043E+00 -0.10654600497E+03  0.15011268314E+03  0.90483790601E+02 0.  0.
        -11    1    3    3    0    0 -0.32822000864E+02 -0.54512430989E+01  0.32755400110E+02  0.46689570874E+02  0.00000000000E+00 0.  1.
         12    1    3    3    0    0  0.49662118037E+02 -0.10047093962E+02  0.38827491352E+02  0.63834505949E+02  0.00000000000E+00 0. -1.
        -13    1    4    4    0    0  0.15057572647E+02  0.28801298475E+02 -0.94725992376E+02  0.10014618774E+03  0.00000000000E+00 0. -1.
         13    1    4    4    0    0  0.39658172811E+02 -0.28002987225E+02 -0.11820012594E+02  0.49966495394E+02  0.00000000000E+00 0.  1.
         21    1    1    2  502  501 -0.71555862630E+02  0.14700025811E+02 -0.75560671411E+02  0.10509875023E+03  0.00000000000E+00 0. -1.
<scales pt_clust_5="13000.00000" pt_clust_6="13000.00000" pt_clust_7="13000.00000" pt_clust_8="13000.00000" pt_clust_9="73.05020"></scales>
<clustering>
<clus scale="   73.050">  2  9  1 -1</clus>
<clus scale="   81.041">  5  6 -1 -1</clus>
<clus scale="   82.502">  1  5  2 -1</clus>
<clus scale="   90.484">  7  8 -1 -1</clus>
<clus scale="   73.050">  2  5  1 -1</clus>
</clustering>
</event>
<event>
 9    2  0.2984928E-005  0.2512632E+03  0.7546771E-02  0.1143997E+00
          2   -1    0    0  502    0  0.00000000000E+00  0.00000000000E+00  0.18074903443E+04  0.18074903443E+04  0.00000000000E+00 0. -1.
         -1   -1    0    0    0  501 -0.00000000000E+00 -0.00000000000E+00 -0.13545256388E+03  0.13545256388E+03  0.00000000000E+00 0.  1.
         23    2    1    2    0    0 -0.64239567893E+02 -0.16745578023E+02 -0.13825616929E+02  0.11647594533E+03  0.94701434474E+02 0.  0.
         24    2    1    2    0    0  0.19504211340E+02  0.25013725600E+03  0.22446964367E+03  0.34587767788E+03  0.79345359181E+02 0.  0.
        -13    1    4    4    0    0 -0.11405321822E+02  0.21827877022E+03  0.18170214220E+03  0.28423822996E+03  0.00000000000E+00 0.  1.
         14    1    4    4    0    0  0.30909533161E+02  0.31858485783E+02  0.42767501477E+02  0.61639447915E+02  0.00000000000E+00 0. -1.
        -11    1    3    3    0    0 -0.64494826962E+02  0.28230453947E+02 -0.45274933853E+01  0.70548135562E+02  0.00000000000E+00 0.  1.
         11    1    3    3    0    0  0.25525906938E+00 -0.44976031970E+02 -0.92981235432E+01  0.45927809771E+02  0.00000000000E+00 0. -1.
         21    1    1    2  502  501  0.44735356553E+02 -0.23339167798E+03  0.14613937537E+04  0.14805892850E+04  0.00000000000E+00 0. -1.
<scales pt_clust_5="13000.00000" pt_clust_6="13000.00000" pt_clust_7="13000.00000" pt_clust_8="13000.00000" pt_clust_9="238.40624"></scales>
<clustering>
<clus scale="   79.345">  5  6 -1 -1</clus>
<clus scale="   94.701">  7  8 -1 -1</clus>
<clus scale="  115.652">  2  7  1 -1</clus>
<clus scale="  238.406">  1  9  2 -1</clus>
<clus scale="  238.406">  1  5  2 -1</clus>
</clustering>
</event>
<event>
 9    2  0.2984928E-005  0.9220693E+02  0.7546771E-02  0.1303058E+00
         -3   -1    0    0    0  501 -0.00000000000E+00  0.00000000000E+00  0.16569011064E+03  0.16569011064E+03  0.00000000000E+00 0.  1.
          4   -1    0    0  502    0  0.00000000000E+00 -0.00000000000E+00 -0.18474044882E+03  0.18474044882E+03  0.00000000000E+00 0. -1.
         23    2    1    2    0    0  0.16792621442E+02 -0.36309297693E+01  0.12857375438E+03  0.15848811530E+03  0.91060949856E+02 0.  0.
         24    2    1    2    0    0  0.10307281147E+02  0.21122169134E+02 -0.80001342861E+02  0.11702125589E+03  0.82105867002E+02 0.  0.
        -11    1    4    4    0    0  0.38876036402E+02  0.13111648449E+02 -0.11870887598E+02  0.42710414465E+02  0.00000000000E+00 0.  1.
         12    1    4    4    0    0 -0.28568755255E+02  0.80105206851E+01 -0.68130455264E+02  0.74310841422E+02  0.00000000000E+00 0. -1.
        -13    1    3    3    0    0  0.45733545339E+02 -0.26148230435E+02  0.95695476681E+02  0.10923786606E+03  0.00000000000E+00 0.  1.
         13    1    3    3    0    0 -0.28940923897E+02  0.22517300666E+02  0.32878277699E+02  0.49250249236E+02  0.00000000000E+00 0. -1.
         21    1    1    2  502  501 -0.27099902589E+02 -0.17491239365E+02 -0.67622749703E+02  0.74921188273E+02  0.00000000000E+00 0. -1.
<scales pt_clust_5="13000.00000" pt_clust_6="13000.00000" pt_clust_7="13000.00000" pt_clust_8="13000.00000" pt_clust_9="32.25443"></scales>
<clustering>
<clus scale="   32.254">  2  9  1 -1</clus>
<clus scale="   82.106">  5  6 -1 -1</clus>
<clus scale="   83.375">  2  5  1 -1</clus>
<clus scale="   91.061">  7  8 -1 -1</clus>
<clus scale="   32.254">  2  5  1 -1</clus>
</clustering>
</event>
<event>
 9    2  0.2984928E-005  0.1190833E+03  0.7546771E-02  0.1248465E+00
          2   -1    0    0  502    0  0.00000000000E+00  0.00000000000E+00  0.15287418778E+03  0.15287418778E+03  0.00000000000E+00 0. -1.
         -1   -1    0    0    0  501 -0.00000000000E+00 -0.00000000000E+00 -0.43978474723E+03  0.43978474723E+03  0.00000000000E+00 0.  1.
         24    2    1    2    0    0 -0.37915256899E+02 -0.64481853914E+02 -0.30729026453E+03  0.32646031965E+03  0.80954045257E+02 0.  0.
         23    2    1    2    0    0 -0.68142676250E+02  0.19679963005E+02  0.76675618441E+02  0.13803963411E+03  0.90250013022E+02 0.  0.
        -13    1    3    3    0    0  0.54235861196E+00 -0.60301724676E+02 -0.25111132289E+03  0.25825082504E+03  0.00000000000E+00 0.  1.
         14    1    3    3    0    0 -0.38457615511E+02 -0.41801292384E+01 -0.56178941639E+02  0.68209494610E+02  0.00000000000E+00 0. -1.
        -11    1    4    4    0    0 -0.16075546437E+02  0.30851301929E+02 -0.10102031753E+02  0.36225365001E+02  0.00000000000E+00 0.  1.
         11    1    4    4    0    0 -0.52067129814E+02 -0.11171338923E+02  0.86777650193E+02  0.10181426911E+03  0.00000000000E+00 0. -1.
         21    1    1    2  502  501  0.10605793315E+03  0.44801890909E+02 -0.56295913361E+02  0.12815898125E+03  0.00000000000E+00 0. -1.
<scales pt_clust_5="13000.00000" pt_clust_6="13000.00000" pt_clust_7="13000.00000" pt_clust_8="13000.00000" pt_clust_9="77.69018"></scales>
<clustering>
<clus scale="   80.954">  5  6 -1 -1</clus>
<clus scale="   90.250">  7  8 -1 -1</clus>
<clus scale="  110.223">  2  5  1 -1</clus>
<clus scale="   77.690">  2  9  1 -1</clus>
<clus scale="  119.083">  1  5  2 -1</clus>
</clustering>
</event>
<event>
 9    2  0.2984928E-005  0.1462625E+03  0.7546771E-02  0.1206801E+00
          2   -1    0    0  502    0  0.00000000000E+00  0.00000000000E+00  0.46495644823E+03  0.46495644823E+03  0.00000000000E+00 0. -1.
         -1   -1    0    0    0  501 -0.00000000000E+00 -0.00000000000E+00 -0.68739287373E+02  0.68739287373E+02  0.00000000000E+00 0.  1.
         24    2    1    2    0    0 -0.12033180250E+03 -0.60771860368E-01  0.49204485609E+02  0.15267832279E+03  0.80061491742E+02 0.  0.
         23    2    1    2    0    0  0.10343261886E+03  0.11522371752E+02  0.29664432154E+03  0.32666741985E+03  0.88784446801E+02 0.  0.
        -11    1    3    3    0    0 -0.11448314803E+03  0.26343016460E+02  0.40812177180E+02  0.12436229133E+03  0.00000000000E+00 0.  1.
         12    1    3    3    0    0 -0.58486544698E+01 -0.26403788321E+02  0.83923084288E+01  0.28316031459E+02  0.00000000000E+00 0. -1.
        -13    1    4    4    0    0  0.82274860352E+02  0.75507321670E+01  0.29350546656E+03  0.30491248761E+03  0.00000000000E+00 0. -1.
         13    1    4    4    0    0  0.21157758510E+02  0.39716395847E+01  0.31388549844E+01  0.21754932240E+02  0.00000000000E+00 0.  1.
         21    1    1    2  502  501  0.16899183639E+02 -0.11461599891E+02  0.50368353705E+02  0.54349992960E+02  0.00000000000E+00 0. -1.
<scales pt_clust_5="13000.00000" pt_clust_6="13000.00000" pt_clust_7="13000.00000" pt_clust_8="13000.00000" pt_clust_9="20.41937"></scales>
<clustering>
<clus scale="   20.419">  1  9  2 -1</clus>
<clus scale="   80.061">  5  6 -1 -1</clus>
<clus scale="   88.784">  7  8 -1 -1</clus>
<clus scale="  141.138">  2  5  1 -1</clus>
<clus scale="   20.419">  1  5  2 -1</clus>
</clustering>
</event>
<event>
 9    2  0.2984928E-005  0.1933244E+03  0.7546771E-02  0.1155980E+00
         -1   -1    0    0    0  501 -0.00000000000E+00  0.00000000000E+00  0.89069823416E+03  0.89069823416E+03  0.00000000000E+00 0.  1.
          2   -1    0    0  502    0  0.00000000000E+00 -0.00000000000E+00 -0.32659129808E+03  0.32659129808E+03  0.00000000000E+00 0. -1.
         24    2    1    2    0    0 -0.84302998542E+02  0.15056104157E+03  0.80416996176E+03  0.82638509482E+03  0.80295546218E+02 0.  0.
         23    2    1    2    0    0  0.11573557197E+03 -0.14720224393E+03 -0.69151413018E+02  0.21709400178E+03  0.85350245757E+02 0.  0.
        -11    1    3    3    0    0 -0.91921877359E+02  0.13674750268E+03  0.61934910149E+03  0.64089220665E+03  0.00000000000E+00 0.  1.
         12    1    3    3    0    0  0.76188788177E+01  0.13813538884E+02  0.18482086027E+03  0.18549288817E+03  0.00000000000E+00 0. -1.
        -13    1    4    4    0    0  0.34519102735E+02 -0.11207253133E+03 -0.41226759386E+02  0.12430392762E+03  0.00000000000E+00 0.  1.
         13    1    4    4    0    0  0.81216469233E+02 -0.35129712593E+02 -0.27924653632E+02  0.92790074156E+02  0.00000000000E+00 0. -1.
         21    1    1    2  502  501 -0.31432573425E+02 -0.33587976423E+01 -0.17091161267E+03  0.17381043564E+03  0.00000000000E+00 0.  1.
<scales pt_clust_5="13000.00000" pt_clust_6="13000.00000" pt_clust_7="13000.00000" pt_clust_8="13000.00000" pt_clust_9="31.61152"></scales>
<clustering>
<clus scale="   31.612">  2  9  1 -1</clus>
<clus scale="   80.296">  5  6 -1 -1</clus>
<clus scale="   85.350">  7  8 -1 -1</clus>
<clus scale="  191.147">  1  5  2 -1</clus>
<clus scale="   31.612">  2  5  1 -1</clus>
</clustering>
</event>
<event>
 9    2  0.2984928E-005  0.9642550E+02  0.7546771E-02  0.1295342E+00
          2   -1    0    0  502    0  0.00000000000E+00  0.00000000000E+00  0.71923173206E+02  0.71923173206E+02  0.00000000000E+00 0. -1.
         -1   -1    0    0    0  501 -0.00000000000E+00 -0.00000000000E+00 -0.27422302033E+03  0.27422302033E+03  0.00000000000E+00 0.  1.
         23    2    1    2    0    0 -0.54330154252E+01 -0.20002068273E+02 -0.20121834026E+03  0.22254547970E+03  0.92779683594E+02 0.  0.
         24    2    1    2    0    0  0.19250079226E+02  0.43599840834E+02 -0.12756165556E+02  0.93867503827E+02  0.79855349501E+02 0.  0.
        -13    1    4    4    0    0  0.86550999843E+01  0.48652959924E+02  0.24248613912E+02  0.55045586033E+02  0.00000000000E+00 0.  1.
         14    1    4    4    0    0  0.10594979242E+02 -0.50531190897E+01 -0.37004779468E+02  0.38821917793E+02  0.00000000000E+00 0. -1.
        -11    1    3    3    0    0  0.17128430657E+02  0.21197295695E+02 -0.15232823686E+03  0.15474689084E+03  0.00000000000E+00 0.  1.
         11    1    3    3    0    0 -0.22561446082E+02 -0.41199363969E+02 -0.48890103403E+02  0.67798588860E+02  0.00000000000E+00 0. -1.
         21    1    1    2  502  501 -0.13817063801E+02 -0.23597772561E+02  0.11674658689E+02  0.29733210009E+02  0.00000000000E+00 0. -1.
<scales pt_clust_5="13000.00000" pt_clust_6="13000.00000" pt_clust_7="13000.00000" pt_clust_8="13000.00000" pt_clust_9="27.34531"></scales>
<clustering>
<clus scale="   27.345">  1  9  2 -1</clus>
<clus scale="   79.855">  5  6 -1 -1</clus>
<clus scale="   84.064">  1  5  2 -1</clus>
<clus scale="   92.780">  7  8 -1 -1</clus>
<clus scale="   27.345">  1  5  2 -1</clus>
</clustering>
</event>
<event>
 9    2  0.2984928E-005  0.1038378E+03  0.7546771E-02  0.1276972E+00
         -1   -1    0    0    0  501 -0.00000000000E+00  0.00000000000E+00  0.17518117700E+03  0.17518117700E+03  0.00000000000E+00 0.  1.
          2   -1    0    0  502    0  0.00000000000E+00 -0.00000000000E+00 -0.25042856141E+03  0.25042856141E+03  0.00000000000E+00 0. -1.
         23    2    1    2    0    0 -0.17846634492E+02  0.51895345134E+02  0.11365674390E+03  0.15580683818E+03  0.91358011027E+02 0.  0.
         24    2    1    2    0    0 -0.52269952252E+01 -0.38728617150E+02 -0.12163590376E+02  0.91076928798E+02  0.81362317833E+02 0.  0.
        -11    1    4    4    0    0 -0.28832816883E+02 -0.12177030694E+02 -0.36448177580E+02  0.48042492180E+02  0.00000000000E+00 0.  1.
         12    1    4    4    0    0  0.23605821658E+02 -0.26551586455E+02  0.24284587204E+02  0.43034436619E+02  0.00000000000E+00 0. -1.
        -13    1    3    3    0    0  0.60997500107E+01  0.60670699252E+02  0.11510872705E+03  0.13026188905E+03  0.00000000000E+00 0.  1.
         13    1    3    3    0    0 -0.23946384503E+02 -0.87753541175E+01 -0.14519831426E+01  0.25544949123E+02  0.00000000000E+00 0. -1.
         21    1    1    2  502  501  0.23073629717E+02 -0.13166727985E+02 -0.17674053794E+03  0.17872597143E+03  0.00000000000E+00 0. -1.
<scales pt_clust_5="13000.00000" pt_clust_6="13000.00000" pt_clust_7="13000.00000" pt_clust_8="13000.00000" pt_clust_9="26.56605"></scales>
<clustering>
<clus scale="   26.566">  2  9  1 -1</clus>
<clus scale="   81.362">  5  6 -1 -1</clus>
<clus scale="   91.358">  7  8 -1 -1</clus>
<clus scale="   95.162">  2  5  1 -1</clus>
<clus scale="   26.566">  2  5  1 -1</clus>
</clustering>
</event>
<event>
 9    2  0.2984928E-005  0.1314365E+03  0.7546771E-02  0.1240829E+00
          2   -1    0    0  502    0  0.00000000000E+00  0.00000000000E+00  0.70074371058E+02  0.70074371058E+02  0.00000000000E+00 0. -1.
         -1   -1    0    0    0  501 -0.00000000000E+00 -0.00000000000E+00 -0.72749376769E+03  0.72749376769E+03  0.00000000000E+00 0.  1.
         24    2    1    2    0    0 -0.60914235451E+02  0.57202506393E+02 -0.32165647260E+03  0.34267310357E+03  0.83542197285E+02 0.  0.
         23    2    1    2    0    0 -0.25536164102E+02  0.24061269681E+02  0.33020428637E+01  0.95670140911E+02  0.88942858056E+02 0.  0.
        -13    1    3    3    0    0 -0.13132488209E+02 -0.19030124916E+02 -0.32805718235E+02  0.40135060107E+02  0.00000000000E+00 0.  1.
         14    1    3    3    0    0 -0.47781747242E+02  0.76232631309E+02 -0.28885075437E+03  0.30253804347E+03  0.00000000000E+00 0. -1.
        -11    1    4    4    0    0 -0.65985733887E+01  0.36788333116E+02 -0.34923659570E+02  0.51152562223E+02  0.00000000000E+00 0.  1.
         11    1    4    4    0    0 -0.18937590713E+02 -0.12727063435E+02  0.38225702434E+02  0.44517578688E+02  0.00000000000E+00 0. -1.
         21    1    1    2  502  501  0.86450399553E+02 -0.81263776074E+02 -0.33906496689E+03  0.35922489426E+03  0.00000000000E+00 0.  1.
<scales pt_clust_5="13000.00000" pt_clust_6="13000.00000" pt_clust_7="13000.00000" pt_clust_8="13000.00000" pt_clust_9="101.47044"></scales>
<clustering>
<clus scale="   83.542">  5  6 -1 -1</clus>
<clus scale="   88.943">  7  8 -1 -1</clus>
<clus scale="   95.613">  1  7  2 -1</clus>
<clus scale="  101.470">  1  9  2 -1</clus>
<clus scale="   95.613">  1  5  2 -1</clus>
</clustering>
</event>
<event>
 9    2  0.2984928E-005  0.1643788E+03  0.7546771E-02  0.1185342E+00
          2   -1    0    0  502    0  0.00000000000E+00  0.00000000000E+00  0.39694897049E+03  0.39694897049E+03  0.00000000000E+00 0. -1.
         -1   -1    0    0    0  501 -0.00000000000E+00 -0.00000000000E+00 -0.10164668692E+03  0.10164668692E+03  0.00000000000E+00 0.  1.
         23    2    1    2    0    0 -0.12630797220E+03 -0.77834715527E+02  0.36228306449E+02  0.17747798014E+03  0.90410156870E+02 0.  0.
         24    2    1    2    0    0  0.99944563145E+02  0.64527284867E+02  0.14768700567E+03  0.20588237686E+03  0.80146211793E+02 0.  0.
        -11    1    4    4    0    0 -0.42926999428E+01  0.26510432105E+02  0.91079128605E+01  0.28358144507E+02  0.00000000000E+00 0.  1.
         12    1    4    4    0    0  0.10423726309E+03  0.38016852761E+02  0.13857909281E+03  0.17752423236E+03  0.00000000000E+00 0. -1.
        -11    1    3    3    0    0 -0.22308524431E+02 -0.21080273167E+02 -0.29004339512E+02  0.42229135554E+02  0.00000000000E+00 0.  1.
         11    1    3    3    0    0 -0.10399944777E+03 -0.56754442360E+02  0.65232645961E+02  0.13524884459E+03  0.00000000000E+00 0. -1.
         21    1    1    2  502  501  0.26363409057E+02  0.13307430660E+02  0.11138697146E+03  0.11523530040E+03  0.00000000000E+00 0. -1.
<scales pt_clust_5="13000.00000" pt_clust_6="13000.00000" pt_clust_7="13000.00000" pt_clust_8="13000.00000" pt_clust_9="29.53163"></scales>
<clustering>
<clus scale="   29.532">  1  9  2 -1</clus>
<clus scale="   80.146">  5  6 -1 -1</clus>
<clus scale="   90.410">  7  8 -1 -1</clus>
<clus scale="  158.965">  1  5  2 -1</clus>
<clus scale="   29.532">  1  5  2 -1</clus>
</clustering>
</event>
<event>
 9    2  0.2984928E-005  0.1015152E+03  0.7546771E-02  0.1282210E+00
          2   -1    0    0  502    0  0.00000000000E+00  0.00000000000E+00  0.92148197531E+02  0.92148197531E+02  0.00000000000E+00 0. -1.
         -1   -1    0    0    0  501 -0.00000000000E+00 -0.00000000000E+00 -0.18054221287E+03  0.18054221287E+03  0.00000000000E+00 0.  1.
         23    2    1    2    0    0  0.38048509213E+02 -0.15979859793E+02 -0.11362438406E+03  0.15214140908E+03  0.92376743456E+02 0.  0.
         24    2    1    2    0    0 -0.47879507705E+02 -0.29207833987E+01  0.12741087233E+02  0.95853556466E+02  0.82003602052E+02 0.  0.
        -13    1    4    4    0    0 -0.54756482632E+01 -0.38778546235E+02  0.14829554369E+01  0.39191294044E+02  0.00000000000E+00 0.  1.
         14    1    4    4    0    0 -0.42403859442E+02  0.35857762836E+02  0.11258131796E+02  0.56662262422E+02  0.00000000000E+00 0. -1.
        -13    1    3    3    0    0  0.40298066466E+02 -0.51389831325E+02 -0.79858665754E+02  0.10316130777E+03  0.00000000000E+00 0.  1.
         13    1    3    3    0    0 -0.22495572537E+01  0.35409971532E+02 -0.33765718301E+02  0.48980101308E+02  0.00000000000E+00 0. -1.
         21    1    1    2  502  501  0.98309984925E+01  0.18900643191E+02  0.12489281488E+02  0.24695444853E+02  0.00000000000E+00 0. -1.
<scales pt_clust_5="13000.00000" pt_clust_6="13000.00000" pt_clust_7="13000.00000" pt_clust_8="13000.00000" pt_clust_9="21.30453"></scales>
<clustering>
<clus scale="   21.305">  1  9  2 -1</clus>
<clus scale="   82.004">  5  6 -1 -1</clus>
<clus scale="   92.176">  1  5  2 -1</clus>
<clus scale="   92.377">  7  8 -1 -1</clus>
<clus scale="   21.305">  1  5  2 -1</clus>
</clustering>
</event>
<event>
 9    2  0.2984928E-005  0.9599486E+02  0.7546771E-02  0.1296888E+00
         -1   -1    0    0    0  501 -0.00000000000E+00  0.00000000000E+00  0.45142034890E+02  0.45142034890E+02  0.00000000000E+00 0.  1.
          2   -1    0    0  502    0  0.00000000000E+00 -0.00000000000E+00 -0.24455737919E+03  0.24455737919E+03  0.00000000000E+00 0. -1.
         23    2    1    2    0    0  0.16306907686E+02  0.19905629561E+02 -0.60624899380E+02  0.11285781607E+03  0.91648016330E+02 0.  0.
         24    2    1    2    0    0 -0.35087410760E+02 -0.79630840610E+01 -0.96246620212E+02  0.12882796755E+03  0.77709048507E+02 0.  0.
        -11    1    4    4    0    0 -0.20779654762E+02  0.34671213049E+02 -0.50404959081E+02  0.64610734141E+02  0.00000000000E+00 0.  1.
         12    1    4    4    0    0 -0.14307755999E+02 -0.42634297110E+02 -0.45841661131E+02  0.64217233411E+02  0.00000000000E+00 0. -1.
        -13    1    3    3    0    0  0.23474644592E+02 -0.11484172675E+01 -0.79987866663E+02  0.83369278600E+02  0.00000000000E+00 0. -1.
         13    1    3    3    0    0 -0.71677369063E+01  0.21054046828E+02  0.19362967284E+02  0.29488537472E+02  0.00000000000E+00 0.  1.
         21    1    1    2  502  501  0.18780503074E+02 -0.11942545500E+02 -0.42543824706E+02  0.48013630454E+02  0.00000000000E+00 0. -1.
<scales pt_clust_5="13000.00000" pt_clust_6="13000.00000" pt_clust_7="13000.00000" pt_clust_8="13000.00000" pt_clust_9="22.25605"></scales>
<clustering>
<clus scale="   22.256">  2  9  1 -1</clus>
<clus scale="   77.709">  5  6 -1 -1</clus>
<clus scale="   82.791">  2  5  1 -1</clus>
<clus scale="   91.648">  7  8 -1 -1</clus>
<clus scale="   22.256">  2  5  1 -1</clus>
</clustering>
</event>
<event>
 9    2  0.2984928E-005  0.1073367E+03  0.7546771E-02  0.1268665E+00
          2   -1    0    0  502    0  0.00000000000E+00  0.00000000000E+00  0.12191099081E+03  0.12191099081E+03  0.00000000000E+00 0. -1.
         -1   -1    0    0    0  501 -0.00000000000E+00 -0.00000000000E+00 -0.17344971103E+03  0.17344971103E+03  0.00000000000E+00 0.  1.
         23    2    1    2    0    0 -0.81036806517E+02  0.10631432181E+02 -0.82832502696E+02  0.14652728577E+03  0.89045104364E+02 0.  0.
         24    2    1    2    0    0  0.53282442031E+02 -0.11608656735E+02  0.54953870511E+02  0.11234972819E+03  0.81417160358E+02 0.  0.
        -13    1    4    4    0    0  0.11870356461E+02 -0.42508055422E+02  0.13639886810E+02  0.46194010981E+02  0.00000000000E+00 0.  1.
         14    1    4    4    0    0  0.41412085570E+02  0.30899398687E+02  0.41313983701E+02  0.66155717211E+02  0.00000000000E+00 0. -1.
        -11    1    3    3    0    0 -0.63947545595E+02  0.30009487428E+02 -0.94660057730E+02  0.11811174562E+03  0.00000000000E+00 0.  1.
         11    1    3    3    0    0 -0.17089260922E+02 -0.19378055247E+02  0.11827555034E+02  0.28415540151E+02  0.00000000000E+00 0. -1.
         21    1    1    2  502  501  0.27754364487E+02  0.97722455358E+00 -0.23660088034E+02  0.36483687884E+02  0.00000000000E+00 0.  1.
<scales pt_clust_5="13000.00000" pt_clust_6="13000.00000" pt_clust_7="13000.00000" pt_clust_8="13000.00000" pt_clust_9="27.77156"></scales>
<clustering>
<clus scale="   27.772">  2  9  1 -1</clus>
<clus scale="   81.417">  5  6 -1 -1</clus>
<clus scale="   89.045">  7  8 -1 -1</clus>
<clus scale="  101.098">  1  5  2 -1</clus>
<clus scale="  101.098">  1  5  2 -1</clus>
</clustering>
</event>
<event>
 9    2  0.2984928E-005  0.1190794E+03  0.7546771E-02  0.1248649E+00
          2   -1    0    0  502    0  0.00000000000E+00  0.00000000000E+00  0.22223508007E+03  0.22223508007E+03  0.00000000000E+00 0. -1.
         -1   -1    0    0    0  501 -0.00000000000E+00 -0.00000000000E+00 -0.16322707409E+03  0.16322707409E+03  0.00000000000E+00 0.  1.
         24    2    1    2    0    0  0.76459225985E+02  0.91034927714E+01 -0.61126226953E+02  0.12647332377E+03  0.79562548886E+02 0.  0.
         23    2    1    2    0    0 -0.52083117589E+02 -0.82176150745E+02  0.24291092343E+02  0.13602657764E+03  0.91910835963E+02 0.  0.
        -13    1    3    3    0    0  0.56397681150E+02 -0.11780635936E+02 -0.74826099177E+02  0.94437423409E+02  0.00000000000E+00 0.  1.
         14    1    3    3    0    0  0.20061544834E+02  0.20884128708E+02  0.13699872224E+02  0.32035900361E+02  0.00000000000E+00 0. -1.
        -13    1    4    4    0    0 -0.13156780546E+01 -0.82865060547E+02  0.18594510330E+02  0.84935888072E+02  0.00000000000E+00 0.  1.
         13    1    4    4    0    0 -0.50767439534E+02  0.68890980191E+00  0.56965820129E+01  0.51090689565E+02  0.00000000000E+00 0. -1.
         21    1    1    2  502  501 -0.24376108396E+02  0.73072657974E+02  0.95843140594E+02  0.12296225276E+03  0.00000000000E+00 0. -1.
<scales pt_clust_5="13000.00000" pt_clust_6="13000.00000" pt_clust_7="13000.00000" pt_clust_8="13000.00000" pt_clust_9="77.03121"></scales>
<clustering>
<clus scale="   77.031">  1  9  2 -1</clus>
<clus scale="   79.563">  5  6 -1 -1</clus>
<clus scale="   91.911">  7  8 -1 -1</clus>
<clus scale="  109.829">  2  5  1 -1</clus>
<clus scale="   77.031">  1  5  2 -1</clus>
</clustering>
</event>
<event>
 9    2  0.2984928E-005  0.4890095E+03  0.7546771E-02  0.1016688E+00
         -1   -1    0    0    0  501 -0.00000000000E+00  0.00000000000E+00  0.51533847466E+03  0.51533847466E+03  0.00000000000E+00 0.  1.
          2   -1    0    0  502    0  0.00000000000E+00 -0.00000000000E+00 -0.58608041592E+03  0.58608041592E+03  0.00000000000E+00 0. -1.
         24    2    1    2    0    0  0.91775089267E+02 -0.13462525557E+03  0.13112563192E+02  0.18401304214E+03  0.84511738338E+02 0.  0.
         23    2    1    2    0    0  0.16450449372E+03 -0.19553362298E+03  0.26008035778E+03  0.37613392121E+03  0.92411081621E+02 0.  0.
        -13    1    3    3    0    0  0.22406179067E+02  0.21102155948E+01  0.20593425748E+02  0.30505393856E+02  0.00000000000E+00 0.  1.
         14    1    3    3    0    0  0.69368910200E+02 -0.13673547117E+03 -0.74808625566E+01  0.15350764829E+03  0.00000000000E+00 0. -1.
        -11    1    4    4    0    0  0.79776464184E+01 -0.47160579975E+02  0.16039555488E+02  0.50448295176E+02  0.00000000000E+00 0. -1.
         11    1    4    4    0    0  0.15652684730E+03 -0.14837304301E+03  0.24404080229E+03  0.32568562603E+03  0.00000000000E+00 0.  1.
         21    1    1    2  502  501 -0.25627958299E+03  0.33015887856E+03 -0.34393486224E+03  0.54127192723E+03  0.00000000000E+00 0. -1.
<scales pt_clust_5="13000.00000" pt_clust_6="13000.00000" pt_clust_7="13000.00000" pt_clust_8="13000.00000" pt_clust_9="417.95228"></scales>
<clustering>
<clus scale="   84.512">  5  6 -1 -1</clus>
<clus scale="   92.411">  7  8 -1 -1</clus>
<clus scale="  164.556">  5  7 -1 -1</clus>
<clus scale="  417.952">  2  9  1 -1</clus>
<clus scale="  417.952">  2  5  1 -1</clus>
</clustering>
</event>
<event>
 9    2  0.2984928E-005  0.2457164E+03  0.7546771E-02  0.1116554E+00
          2   -1    0    0  502    0  0.00000000000E+00  0.00000000000E+00  0.12163377226E+04  0.12163377226E+04  0.00000000000E+00 0. -1.
         -1   -1    0    0    0  501 -0.00000000000E+00 -0.00000000000E+00 -0.71357387580E+02  0.71357387580E+02  0.00000000000E+00 0.  1.
         23    2    1    2    0    0 -0.18014569150E+03  0.13102008709E+03  0.24242095026E+03  0.34109140203E+03  0.89200302847E+02 0.  0.
         24    2    1    2    0    0  0.20098357560E+03 -0.14179963239E+03  0.77882966274E+03  0.82066935969E+03  0.80131273287E+02 0.  0.
        -13    1    4    4    0    0  0.41939151098E+02 -0.78915252553E+00  0.81446764274E+02  0.91613812099E+02  0.00000000000E+00 0.  1.
         14    1    4    4    0    0  0.15904442451E+03 -0.14101047987E+03  0.69738289846E+03  0.72905554759E+03  0.00000000000E+00 0. -1.
        -11    1    3    3    0    0 -0.15309794306E+02  0.51347584683E+02  0.33007666321E+02  0.62932267481E+02  0.00000000000E+00 0. -1.
         11    1    3    3    0    0 -0.16483589719E+03  0.79672502406E+02  0.20941328394E+03  0.27815913455E+03  0.00000000000E+00 0.  1.
         21    1    1    2  502  501 -0.20837884106E+02  0.10779545304E+02  0.12372972200E+03  0.12593434844E+03  0.00000000000E+00 0.  1.
<scales pt_clust_5="13000.00000" pt_clust_6="13000.00000" pt_clust_7="13000.00000" pt_clust_8="13000.00000" pt_clust_9="23.46095"></scales>
<clustering>
<clus scale="   23.461">  1  9  2 -1</clus>
<clus scale="   80.131">  5  6 -1 -1</clus>
<clus scale="   89.200">  7  8 -1 -1</clus>
<clus scale="  242.571">  1  5  2 -1</clus>
<clus scale="   23.461">  1  5  2 -1</clus>
</clustering>
</event>
<event>
 9    2  0.2984928E-005  0.1366421E+03  0.7546771E-02  0.1231209E+00
          2   -1    0    0  502    0  0.00000000000E+00  0.00000000000E+00  0.12149110072E+04  0.12149110072E+04  0.00000000000E+00 0. -1.
         -1   -1    0    0    0  501 -0.00000000000E+00 -0.00000000000E+00 -0.26010932172E+02  0.26010932172E+02  0.00000000000E+00 0.  1.
         23    2    1    2    0    0 -0.42465454654E+02  0.15854153785E+02  0.32615863877E+03  0.34221426060E+03  0.93147589805E+02 0.  0.
         24    2    1    2    0    0 -0.46932372126E+02 -0.93804906628E+02  0.47693555385E+03  0.49508103173E+03  0.81459789993E+02 0.  0.
        -13    1    4    4    0    0 -0.45581897576E+01 -0.61837029708E+02  0.12909217279E+03  0.14321097867E+03  0.00000000000E+00 0.  1.
         14    1    4    4    0    0 -0.42374182368E+02 -0.31967876920E+02  0.34784338107E+03  0.35187005306E+03  0.00000000000E+00 0. -1.
        -13    1    3    3    0    0  0.18103516376E+02  0.35489309089E+02  0.13209483720E+03  0.13797200579E+03  0.00000000000E+00 0.  1.
         13    1    3    3    0    0 -0.60568971031E+02 -0.19635155303E+02  0.19406380156E+03  0.20424225482E+03  0.00000000000E+00 0. -1.
         21    1    1    2  502  501  0.89397826780E+02  0.77950752843E+02  0.38580588241E+03  0.40362664705E+03  0.00000000000E+00 0.  1.
<scales pt_clust_5="13000.00000" pt_clust_6="13000.00000" pt_clust_7="13000.00000" pt_clust_8="13000.00000" pt_clust_9="109.70582"></scales>
<clustering>
<clus scale="   81.460">  5  6 -1 -1</clus>
<clus scale="   93.148">  7  8 -1 -1</clus>
<clus scale="  103.591">  2  7  1 -1</clus>
<clus scale="  109.706">  2  9  1 -1</clus>
<clus scale="  136.642">  1  5  2 -1</clus>
</clustering>
</event>
<event>
 9    2  0.2984928E-005  0.1649369E+03  0.7546771E-02  0.1184548E+00
         -1   -1    0    0    0  501 -0.00000000000E+00  0.00000000000E+00  0.14434523590E+03  0.14434523590E+03  0.00000000000E+00 0.  1.
          2   -1    0    0  502    0  0.00000000000E+00 -0.00000000000E+00 -0.29612577829E+03  0.29612577829E+03  0.00000000000E+00 0. -1.
         23    2    1    2    0    0  0.10693802813E+02  0.15393950206E+03  0.27900551203E+02  0.18147071184E+03  0.91331543218E+02 0.  0.
         24    2    1    2    0    0 -0.22792360458E+02 -0.10155146266E+03 -0.12605938012E+03  0.18306500143E+03  0.82399248603E+02 0.  0.
        -11    1    4    4    0    0 -0.36442253946E+02 -0.69735045265E+01 -0.38248392139E+02  0.53287964300E+02  0.00000000000E+00 0.  1.
         12    1    4    4    0    0  0.13649893489E+02 -0.94577958136E+02 -0.87810987977E+02  0.12977703713E+03  0.00000000000E+00 0. -1.
        -11    1    3    3    0    0  0.44155345363E+02  0.45978606454E+02  0.24797371944E+02  0.68400558703E+02  0.00000000000E+00 0.  1.
         11    1    3    3    0    0 -0.33461542550E+02  0.10796089560E+03  0.31031792583E+01  0.11307015314E+03  0.00000000000E+00 0. -1.
         21    1    1    2  502  501  0.12098557645E+02 -0.52388039395E+02 -0.53621713481E+02  0.75935300917E+02  0.00000000000E+00 0. -1.
<scales pt_clust_5="13000.00000" pt_clust_6="13000.00000" pt_clust_7="13000.00000" pt_clust_8="13000.00000" pt_clust_9="53.76692"></scales>
<clustering>
<clus scale="   53.767">  2  9  1 -1</clus>
<clus scale="   82.399">  5  6 -1 -1</clus>
<clus scale="   91.332">  7  8 -1 -1</clus>
<clus scale="  160.164">  2  5  1 -1</clus>
<clus scale="   53.767">  2  5  1 -1</clus>
</clustering>
</event>
<event>
 9    2  0.2984928E-005  0.1338418E+03  0.7546771E-02  0.1224818E+00
          2   -1    0    0  502    0  0.00000000000E+00  0.00000000000E+00  0.93107715743E+03  0.93107715743E+03  0.00000000000E+00 0. -1.
         -1   -1    0    0    0  501 -0.00000000000E+00 -0.00000000000E+00 -0.44834902749E+02  0.44834902749E+02  0.00000000000E+00 0.  1.
         23    2    1    2    0    0 -0.49678887397E+02  0.84959667203E+02  0.81705871587E+02  0.15715428748E+03  0.91298870301E+02 0.  0.
         24    2    1    2    0    0  0.25920955245E+02 -0.94199625938E+02  0.63591585310E+03  0.64822126835E+03  0.79097250740E+02 0.  0.
        -13    1    4    4    0    0 -0.23005807138E+02 -0.37972321804E+02  0.14394393380E+03  0.15063538914E+03  0.00000000000E+00 0.  1.
         14    1    4    4    0    0  0.48926762383E+02 -0.56227304134E+02  0.49197191930E+03  0.49758587921E+03  0.00000000000E+00 0. -1.
        -11    1    3    3    0    0  0.15623329978E+02  0.15153190880E+02  0.53082774567E+02  0.57371496313E+02  0.00000000000E+00 0. -1.
         11    1    3    3    0    0 -0.65302217375E+02  0.69806476323E+02  0.28623097020E+02  0.99782791170E+02  0.00000000000E+00 0.  1.
         21    1    1    2  502  501  0.23757932152E+02  0.92399587351E+01  0.16862053000E+03  0.17053650434E+03  0.00000000000E+00 0. -1.
<scales pt_clust_5="13000.00000" pt_clust_6="13000.00000" pt_clust_7="13000.00000" pt_clust_8="13000.00000" pt_clust_9="25.49149"></scales>
<clustering>
<clus scale="   25.491">  1  9  2 -1</clus>
<clus scale="   79.097">  5  6 -1 -1</clus>
<clus scale="   91.299">  7  8 -1 -1</clus>
<clus scale="  125.835">  1  5  2 -1</clus>
<clus scale="   25.491">  1  5  2 -1</clus>
</clustering>
</event>
<event>
 9    2  0.2984928E-005  0.1072019E+03  0.7546771E-02  0.1275183E+00
          2   -1    0    0  502    0  0.00000000000E+00  0.00000000000E+00  0.60953486506E+03  0.60953486506E+03  0.00000000000E+00 0. -1.
         -1   -1    0    0    0  501 -0.00000000000E+00 -0.00000000000E+00 -0.50606005590E+02  0.50606005590E+02  0.00000000000E+00 0.  1.
         23    2    1    2    0    0 -0.58653147286E+02 -0.21388658898E+02  0.27293019530E+02  0.11344610643E+03  0.90705257468E+02 0.  0.
         24    2    1    2    0    0  0.17728115966E+02  0.40703432073E+02  0.32665148385E+03  0.33677452963E+03  0.68882773068E+02 0.  0.
        -13    1    4    4    0    0 -0.13876293295E+02  0.46676692882E+02  0.16901291207E+03  0.17588811676E+03  0.00000000000E+00 0.  1.
         14    1    4    4    0    0  0.31604409261E+02 -0.59732608088E+01  0.15763857179E+03  0.16088641286E+03  0.00000000000E+00 0. -1.
        -11    1    3    3    0    0 -0.31966048008E+02 -0.46602396105E+02 -0.13970984531E+02  0.58213400147E+02  0.00000000000E+00 0.  1.
         11    1    3    3    0    0 -0.26687099278E+02  0.25213737207E+02  0.41264004061E+02  0.55232706280E+02  0.00000000000E+00 0. -1.
         21    1    1    2  502  501  0.40925031320E+02 -0.19314773175E+02  0.20498435609E+03  0.20992023460E+03  0.00000000000E+00 0. -1.
<scales pt_clust_5="13000.00000" pt_clust_6="13000.00000" pt_clust_7="13000.00000" pt_clust_8="13000.00000" pt_clust_9="45.25394"></scales>
<clustering>
<clus scale="   45.254">  1  9  2 -1</clus>
<clus scale="   68.883">  5  6 -1 -1</clus>
<clus scale="   89.497">  1  5  2 -1</clus>
<clus scale="   90.705">  7  8 -1 -1</clus>
<clus scale="   45.254">  1  5  2 -1</clus>
</clustering>
</event>
<event>
 9    2  0.2984928E-005  0.9258529E+02  0.7546771E-02  0.1305643E+00
         -1   -1    0    0    0  501 -0.00000000000E+00  0.00000000000E+00  0.12768445344E+03  0.12768445344E+03  0.00000000000E+00 0.  1.
          2   -1    0    0  502    0  0.00000000000E+00 -0.00000000000E+00 -0.17794623432E+03  0.17794623432E+03  0.00000000000E+00 0. -1.
         24    2    1    2    0    0 -0.10724801205E+02  0.26010586383E+01  0.74853003736E+02  0.10824611163E+03  0.77410991771E+02 0.  0.
         23    2    1    2    0    0  0.15494168846E+02 -0.43918817279E+02 -0.11566706445E+03  0.15473292361E+03  0.91621373438E+02 0.  0.
        -13    1    3    3    0    0 -0.63973132303E+01 -0.27937059054E+02  0.71731736504E+02  0.77245368192E+02  0.00000000000E+00 0.  1.
         14    1    3    3    0    0 -0.43274879749E+01  0.30538117692E+02  0.31212672313E+01  0.31000743434E+02  0.00000000000E+00 0. -1.
        -13    1    4    4    0    0  0.41965168489E+02 -0.58896415868E+02 -0.79285403829E+02  0.10731280645E+03  0.00000000000E+00 0. -1.
         13    1    4    4    0    0 -0.26470999643E+02  0.14977598589E+02 -0.36381660618E+02  0.47420117154E+02  0.00000000000E+00 0.  1.
         21    1    1    2  502  501 -0.47693676409E+01  0.41317758641E+02 -0.94477201773E+01  0.42651652528E+02  0.00000000000E+00 0. -1.
<scales pt_clust_5="13000.00000" pt_clust_6="13000.00000" pt_clust_7="13000.00000" pt_clust_8="13000.00000" pt_clust_9="41.59212"></scales>
<clustering>
<clus scale="   41.592">  2  9  1 -1</clus>
<clus scale="   77.411">  5  6 -1 -1</clus>
<clus scale="   78.549">  1  5  2 -1</clus>
<clus scale="   91.621">  7  8 -1 -1</clus>
<clus scale="   41.592">  2  5  1 -1</clus>
</clustering>
</event>
<event>
 9    2  0.2984928E-005  0.8977047E+02  0.7546771E-02  0.1309550E+00
         -1   -1    0    0    0  501 -0.00000000000E+00  0.00000000000E+00  0.87052986807E+02  0.87052986807E+02  0.00000000000E+00 0.  1.
          2   -1    0    0  502    0  0.00000000000E+00 -0.00000000000E+00 -0.21629218492E+03  0.21629218492E+03  0.00000000000E+00 0. -1.
         23    2    1    2    0    0  0.21462795114E+01  0.10997948982E+02  0.42883988405E+02  0.99058636282E+02  0.88589026199E+02 0.  0.
         24    2    1    2    0    0  0.78711246773E+01 -0.30609995930E+02 -0.11462386634E+03  0.14271419918E+03  0.78928989974E+02 0.  0.
        -13    1    4    4    0    0  0.12897226290E+02 -0.45069587452E+02 -0.27696228432E+02  0.54448941481E+02  0.00000000000E+00 0.  1.
         14    1    4    4    0    0 -0.50261016124E+01  0.14459591522E+02 -0.86927637905E+02  0.88265257696E+02  0.00000000000E+00 0. -1.
        -11    1    3    3    0    0  0.22703917640E+02  0.38602655068E+02  0.46368090341E+02  0.64464196702E+02  0.00000000000E+00 0.  1.
         11    1    3    3    0    0 -0.20557638129E+02 -0.27604706086E+02 -0.34841019359E+01  0.34594439580E+02  0.00000000000E+00 0. -1.
         21    1    1    2  502  501 -0.10017404189E+02  0.19612046948E+02 -0.57499320183E+02  0.61572336270E+02  0.00000000000E+00 0. -1.
<scales pt_clust_5="13000.00000" pt_clust_6="13000.00000" pt_clust_7="13000.00000" pt_clust_8="13000.00000" pt_clust_9="22.02228"></scales>
<clustering>
<clus scale="   22.022">  2  9  1 -1</clus>
<clus scale="   78.929">  5  6 -1 -1</clus>
<clus scale="   80.253">  2  5  1 -1</clus>
<clus scale="   88.589">  7  8 -1 -1</clus>
<clus scale="   22.022">  2  5  1 -1</clus>
</clustering>
</event>
<event>
 9    2  0.2984928E-005  0.9786147E+02  0.7546771E-02  0.1290431E+00
         -1   -1    0    0    0  501 -0.00000000000E+00  0.00000000000E+00  0.37398740627E+02  0.37398740627E+02  0.00000000000E+00 0.  1.
          2   -1    0    0  502    0  0.00000000000E+00 -0.00000000000E+00 -0.98537843123E+03  0.98537843123E+03  0.00000000000E+00 0. -1.
         23    2    1    2    0    0  0.24629300256E+02 -0.26788724009E+02 -0.38854011367E+02  0.10562419624E+03  0.91228276685E+02 0.  0.
         24    2    1    2    0    0 -0.38746304151E+02 -0.14145066684E+01 -0.66693446273E+03  0.67291682478E+03  0.80698194460E+02 0.  0.
        -13    1    4    4    0    0 -0.21267271911E+02 -0.18767795337E+02 -0.70752027565E+02  0.76225825026E+02  0.00000000000E+00 0.  1.
         14    1    4    4    0    0 -0.17479032240E+02  0.17353288669E+02 -0.59618243516E+03  0.59669099976E+03  0.00000000000E+00 0. -1.
        -13    1    3    3    0    0  0.21234467768E+02 -0.60073615531E+02 -0.32656727882E+02  0.71597512389E+02  0.00000000000E+00 0. -1.
         13    1    3    3    0    0  0.33948324879E+01  0.33284891523E+02 -0.61972834853E+01  0.34026683851E+02  0.00000000000E+00 0.  1.
         21    1    1    2  502  501  0.14117003895E+02  0.28203230677E+02 -0.24219121651E+03  0.24423615083E+03  0.00000000000E+00 0. -1.
<scales pt_clust_5="13000.00000" pt_clust_6="13000.00000" pt_clust_7="13000.00000" pt_clust_8="13000.00000" pt_clust_9="31.53906"></scales>
<clustering>
<clus scale="   31.539">  2  9  1 -1</clus>
<clus scale="   80.698">  5  6 -1 -1</clus>
<clus scale="   88.128">  2  5  1 -1</clus>
<clus scale="   91.228">  7  8 -1 -1</clus>
<clus scale="   31.539">  2  5  1 -1</clus>
</clustering>
</event>
<event>
 9    2  0.2984928E-005  0.8873117E+02  0.7546771E-02  0.1308536E+00
          2   -1    0    0  502    0  0.00000000000E+00  0.00000000000E+00  0.55859602369E+03  0.55859602369E+03  0.00000000000E+00 0. -1.
         -1   -1    0    0    0  501 -0.00000000000E+00 -0.00000000000E+00 -0.28725202681E+02  0.28725202681E+02  0.00000000000E+00 0.  1.
         23    2    1    2    0    0  0.15804394543E+02 -0.25025856833E+02  0.66172044579E+02  0.11176792114E+03  0.85072065419E+02 0.  0.
         24    2    1    2    0    0 -0.11179207271E+02  0.31232916557E+01  0.32717132568E+03  0.33720281002E+03  0.80807976768E+02 0.  0.
        -13    1    4    4    0    0 -0.87986177628E+01 -0.38719499699E+02  0.15541341648E+03  0.16040556522E+03  0.00000000000E+00 0.  1.
         14    1    4    4    0    0 -0.23805895085E+01  0.41842791354E+02  0.17175790921E+03  0.17679724480E+03  0.00000000000E+00 0. -1.
        -11    1    3    3    0    0  0.17805412018E+02  0.17926073040E+02  0.63895002136E+02  0.68709155793E+02  0.00000000000E+00 0. -1.
         11    1    3    3    0    0 -0.20010174753E+01 -0.42951929873E+02  0.22770424425E+01  0.43058765345E+02  0.00000000000E+00 0.  1.
         21    1    1    2  502  501 -0.46251872713E+01  0.21902565177E+02  0.13652745075E+03  0.13835049522E+03  0.00000000000E+00 0.  1.
<scales pt_clust_5="13000.00000" pt_clust_6="13000.00000" pt_clust_7="13000.00000" pt_clust_8="13000.00000" pt_clust_9="22.38559"></scales>
<clustering>
<clus scale="   22.386">  1  9  2 -1</clus>
<clus scale="   80.808">  5  6 -1 -1</clus>
<clus scale="   84.652">  1  5  2 -1</clus>
<clus scale="   85.072">  7  8 -1 -1</clus>
<clus scale="   22.386">  1  5  2 -1</clus>
</clustering>
</event>
<event>
 9    2  0.2984928E-005  0.1122458E+03  0.7546771E-02  0.1261622E+00
         -1   -1    0    0    0  501 -0.00000000000E+00  0.00000000000E+00  0.13844478546E+03  0.13844478546E+03  0.00000000000E+00 0.  1.
          2   -1    0    0  502    0  0.00000000000E+00 -0.00000000000E+00 -0.15566000189E+03  0.15566000189E+03  0.00000000000E+00 0. -1.
         23    2    1    2    0    0  0.42173372712E+02  0.26339120367E+02  0.69030574397E+02  0.12562979542E+03  0.92440698111E+02 0.  0.
         24    2    1    2    0    0 -0.35115876159E+02 -0.58665049976E+02 -0.86163546111E+02  0.13538752078E+03  0.78936121376E+02 0.  0.
        -11    1    4    4    0    0 -0.18936189391E+02 -0.98412636371E+01 -0.80919196253E+02  0.83685996803E+02  0.00000000000E+00 0.  1.
         12    1    4    4    0    0 -0.16179686768E+02 -0.48823786339E+02 -0.52443498586E+01  0.51701523979E+02  0.00000000000E+00 0. -1.
        -11    1    3    3    0    0  0.33559458471E+02 -0.31744350452E+02  0.32353354763E+02  0.56397523021E+02  0.00000000000E+00 0.  1.
         11    1    3    3    0    0  0.86139142417E+01  0.58083470819E+02  0.36677219634E+02  0.69232272395E+02  0.00000000000E+00 0. -1.
         21    1    1    2  502  501 -0.70574965533E+01  0.32325929609E+02 -0.82244714190E-01  0.33087471147E+02  0.00000000000E+00 0.  1.
<scales pt_clust_5="13000.00000" pt_clust_6="13000.00000" pt_clust_7="13000.00000" pt_clust_8="13000.00000" pt_clust_9="33.08737"></scales>
<clustering>
<clus scale="   33.087">  1  9  2 -1</clus>
<clus scale="   78.936">  5  6 -1 -1</clus>
<clus scale="   92.441">  7  8 -1 -1</clus>
<clus scale="  101.414">  2  5  1 -1</clus>
<clus scale="  101.414">  2  5  1 -1</clus>
</clustering>
</event>
<event>
 9    2  0.2984928E-005  0.1269135E+03  0.7546771E-02  0.1237881E+00
         -1   -1    0    0    0  501 -0.00000000000E+00  0.00000000000E+00  0.37219660387E+02  0.37219660387E+02  0.00000000000E+00 0.  1.
          2   -1    0    0  502    0  0.00000000000E+00 -0.00000000000E+00 -0.53660543485E+03  0.53660543485E+03  0.00000000000E+00 0. -1.
         23    2    1    2    0    0  0.52415742628E+02  0.74049802516E+02 -0.17519080579E+03  0.22095727988E+03  0.99496320402E+02 0.  0.
         24    2    1    2    0    0 -0.41761780161E+02 -0.51590020344E+02 -0.19419024566E+03  0.22050778839E+03  0.80673767421E+02 0.  0.
        -11    1    4    4    0    0 -0.68348208819E+01 -0.46460790216E+02 -0.38091768513E+02  0.60467368327E+02  0.00000000000E+00 0.  1.
         12    1    4    4    0    0 -0.34926959279E+02 -0.51292301281E+01 -0.15609847715E+03  0.16004042007E+03  0.00000000000E+00 0. -1.
        -13    1    3    3    0    0 -0.93741323316E+01  0.55784404163E+02 -0.34611820726E+02  0.66315550505E+02  0.00000000000E+00 0.  1.
         13    1    3    3    0    0  0.61789874960E+02  0.18265398352E+02 -0.14057898506E+03  0.15464172938E+03  0.00000000000E+00 0. -1.
         21    1    1    2  502  501 -0.10653962468E+02 -0.22459782172E+02 -0.13000472301E+03  0.13236002696E+03  0.00000000000E+00 0. -1.
<scales pt_clust_5="13000.00000" pt_clust_6="13000.00000" pt_clust_7="13000.00000" pt_clust_8="13000.00000" pt_clust_9="24.85857"></scales>
<clustering>
<clus scale="   24.859">  2  9  1 -1</clus>
<clus scale="   80.674">  5  6 -1 -1</clus>
<clus scale="   99.496">  7  8 -1 -1</clus>
<clus scale="  112.764">  2  5  1 -1</clus>
<clus scale="   24.859">  2  5  1 -1</clus>
</clustering>
</event>
<event>
 9    2  0.2984928E-005  0.9322300E+02  0.7546771E-02  0.1301831E+00
         -1   -1    0    0    0  501 -0.00000000000E+00  0.00000000000E+00  0.46385005964E+03  0.46385005964E+03  0.00000000000E+00 0.  1.
          2   -1    0    0  502    0  0.00000000000E+00 -0.00000000000E+00 -0.49338647168E+02  0.49338647168E+02  0.00000000000E+00 0. -1.
         24    2    1    2    0    0 -0.17435537523E+02  0.44993207500E+01  0.36240531582E+03  0.37150735615E+03  0.79723653246E+02 0.  0.
         23    2    1    2    0    0  0.38944974290E+02 -0.22882919327E+02  0.50704815060E+02  0.11335157556E+03  0.90759365318E+02 0.  0.
        -11    1    3    3    0    0 -0.29121266794E+02 -0.22303987684E+02  0.85154895353E+02  0.92719319718E+02  0.00000000000E+00 0.  1.
         12    1    3    3    0    0  0.11685729272E+02  0.26803308434E+02  0.27725042046E+03  0.27878803643E+03  0.00000000000E+00 0. -1.
        -13    1    4    4    0    0  0.67298437075E+02 -0.72864185791E+01  0.42638684502E+02  0.80001430890E+02  0.00000000000E+00 0.  1.
         13    1    4    4    0    0 -0.28353462785E+02 -0.15596500748E+02  0.80661305585E+01  0.33350144673E+02  0.00000000000E+00 0. -1.
         21    1    1    2  502  501 -0.21509436767E+02  0.18383598577E+02  0.14012815940E+01  0.28329775092E+02  0.00000000000E+00 0. -1.
<scales pt_clust_5="13000.00000" pt_clust_6="13000.00000" pt_clust_7="13000.00000" pt_clust_8="13000.00000" pt_clust_9="28.29510"></scales>
<clustering>
<clus scale="   28.295">  2  9  1 -1</clus>
<clus scale="   79.724">  5  6 -1 -1</clus>
<clus scale="   82.517">  1  5  2 -1</clus>
<clus scale="   90.759">  7  8 -1 -1</clus>
<clus scale="   28.295">  2  5  1 -1</clus>
</clustering>
</event>
<event>
 9    2  0.2984928E-005  0.3889044E+03  0.7546771E-02  0.1047893E+00
         -1   -1    0    0    0  501 -0.00000000000E+00  0.00000000000E+00  0.91372041210E+03  0.91372041210E+03  0.00000000000E+00 0.  1.
          2   -1    0    0  502    0  0.00000000000E+00 -0.00000000000E+00 -0.18252748380E+03  0.18252748380E+03  0.00000000000E+00 0. -1.
         24    2    1    2    0    0 -0.19238558402E+03  0.31785946671E+03  0.40713751272E+03  0.55691230749E+03  0.79646157802E+02 0.  0.
         23    2    1    2    0    0  0.22495781888E+03 -0.31603028957E+03  0.30464616182E+03  0.50137487840E+03  0.89923971126E+02 0.  0.
        -11    1    3    3    0    0 -0.10079318787E+03  0.22243938280E+03  0.22689234643E+03  0.33334469039E+03  0.00000000000E+00 0.  1.
         12    1    3    3    0    0 -0.91592396153E+02  0.95420083918E+02  0.18024516629E+03  0.22356761710E+03  0.00000000000E+00 0. -1.
        -11    1    4    4    0    0  0.17294239810E+03 -0.24007850934E+03  0.27686798286E+03  0.40521925379E+03  0.00000000000E+00 0.  1.
         11    1    4    4    0    0  0.52015420785E+02 -0.75951780228E+02  0.27778178957E+02  0.96155624617E+02  0.00000000000E+00 0. -1.
         21    1    1    2  502  501 -0.32572234860E+02 -0.18291771453E+01  0.19409253761E+02  0.37960710009E+02  0.00000000000E+00 0.  1.
<scales pt_clust_5="13000.00000" pt_clust_6="13000.00000" pt_clust_7="13000.00000" pt_clust_8="13000.00000" pt_clust_9="32.62356"></scales>
<clustering>
<clus scale="   32.624">  2  9  1 -1</clus>
<clus scale="   79.646">  5  6 -1 -1</clus>
<clus scale="   89.924">  7  8 -1 -1</clus>
<clus scale="  386.657">  1  5  2 -1</clus>
<clus scale="   32.624">  2  5  1 -1</clus>
</clustering>
</event>
<event>
 9    2  0.2984928E-005  0.1843976E+03  0.7546771E-02  0.1194256E+00
         -1   -1    0    0    0  501 -0.00000000000E+00  0.00000000000E+00  0.54672352687E+02  0.54672352687E+02  0.00000000000E+00 0.  1.
          2   -1    0    0  502    0  0.00000000000E+00 -0.00000000000E+00 -0.90631594729E+03  0.90631594729E+03  0.00000000000E+00 0. -1.
         24    2    1    2    0    0  0.33545610033E+02 -0.31428110637E+02 -0.10553603747E+03  0.14031610601E+03  0.80235405599E+02 0.  0.
         23    2    1    2    0    0 -0.38722714460E+02 -0.12522363664E+03 -0.48226689455E+03  0.51378708913E+03  0.11922838416E+03 0.  0.
        -11    1    3    3    0    0  0.31247013121E+02 -0.52486589048E+02 -0.10192455496E+03  0.11882690252E+03  0.00000000000E+00 0.  1.
         12    1    3    3    0    0  0.22985969124E+01  0.21058478411E+02 -0.36114825033E+01  0.21489203489E+02  0.00000000000E+00 0. -1.
        -13    1    4    4    0    0 -0.42986430045E+02 -0.14723176979E+03 -0.39630391747E+03  0.42494919956E+03  0.00000000000E+00 0. -1.
         13    1    4    4    0    0  0.42637155859E+01  0.22008133146E+02 -0.85962977081E+02  0.88837889573E+02  0.00000000000E+00 0.  1.
         21    1    1    2  502  501  0.51771044260E+01  0.15665174728E+03 -0.26384066258E+03  0.30688510483E+03  0.00000000000E+00 0.  1.
<scales pt_clust_5="13000.00000" pt_clust_6="13000.00000" pt_clust_7="13000.00000" pt_clust_8="13000.00000" pt_clust_9="140.66652"></scales>
<clustering>
<clus scale="   80.235">  5  6 -1 -1</clus>
<clus scale="   92.470">  1  5  2 -1</clus>
<clus scale="  119.228">  7  8 -1 -1</clus>
<clus scale="  140.667">  1  9  2 -1</clus>
<clus scale="  184.398">  2  5  1 -1</clus>
</clustering>
</event>
<event>
 9    2  0.2984928E-005  0.1220905E+03  0.7546771E-02  0.1244709E+00
          2   -1    0    0  502    0  0.00000000000E+00  0.00000000000E+00  0.16308329588E+04  0.16308329588E+04  0.00000000000E+00 0. -1.
         -1   -1    0    0    0  501 -0.00000000000E+00 -0.00000000000E+00 -0.19239903898E+02  0.19239903898E+02  0.00000000000E+00 0.  1.
         23    2    1    2    0    0 -0.44207843895E+02  0.15883850393E+02  0.26589691055E+03  0.28512922703E+03  0.91601740718E+02 0.  0.
         24    2    1    2    0    0  0.11507897889E+03 -0.35636783718E+01  0.95382323566E+03  0.96652315304E+03  0.10551004351E+03 0.  0.
        -13    1    4    4    0    0  0.12811233478E+03 -0.21217962422E+02  0.71523007231E+03  0.72692298670E+03  0.00000000000E+00 0.  1.
         14    1    4    4    0    0 -0.13033355894E+02  0.17654284050E+02  0.23859316335E+03  0.23960016633E+03  0.00000000000E+00 0. -1.
        -11    1    3    3    0    0  0.16295218317E+02 -0.25003286639E+02  0.82214644819E+02  0.87463971471E+02  0.00000000000E+00 0.  1.
         11    1    3    3    0    0 -0.60503062212E+02  0.40887137032E+02  0.18368226573E+03  0.19766525556E+03  0.00000000000E+00 0. -1.
         21    1    1    2  502  501 -0.70871134993E+02 -0.12320172021E+02  0.39187290870E+03  0.39842048264E+03  0.00000000000E+00 0. -1.
<scales pt_clust_5="13000.00000" pt_clust_6="13000.00000" pt_clust_7="13000.00000" pt_clust_8="13000.00000" pt_clust_9="71.93403"></scales>
<clustering>
<clus scale="   71.934">  1  9  2 -1</clus>
<clus scale="   91.602">  7  8 -1 -1</clus>
<clus scale="  105.510">  5  6 -1 -1</clus>
<clus scale="  110.293">  2  7  1 -1</clus>
<clus scale="   71.934">  1  5  2 -1</clus>
</clustering>
</event>
<event>
 9    2  0.2984928E-005  0.1225993E+03  0.7546771E-02  0.1243502E+00
          2   -1    0    0  502    0  0.00000000000E+00  0.00000000000E+00  0.39453180970E+03  0.39453180970E+03  0.00000000000E+00 0. -1.
         -1   -1    0    0    0  501 -0.00000000000E+00 -0.00000000000E+00 -0.99392816989E+02  0.99392816989E+02  0.00000000000E+00 0.  1.
         24    2    1    2    0    0 -0.72368658111E+02 -0.29039405048E+02 -0.44722000971E+02  0.12078480317E+03  0.80674665065E+02 0.  0.
         23    2    1    2    0    0  0.74567439278E+02  0.87493197132E+00  0.30590129284E+03  0.32896592327E+03  0.95299051434E+02 0.  0.
        -11    1    3    3    0    0 -0.18779756907E+02  0.25796941842E+02 -0.27677476011E+02  0.42239840864E+02  0.00000000000E+00 0.  1.
         12    1    3    3    0    0 -0.53588901204E+02 -0.54836346889E+02 -0.17044524960E+02  0.78544962305E+02  0.00000000000E+00 0. -1.
        -11    1    4    4    0    0 -0.73694552308E+01  0.24544304491E+02  0.26613173386E+02  0.36945808301E+02  0.00000000000E+00 0.  1.
         11    1    4    4    0    0  0.81936894509E+02 -0.23669372520E+02  0.27928811945E+03  0.29202011497E+03  0.00000000000E+00 0. -1.
         21    1    1    2  502  501 -0.21987811671E+01  0.28164473076E+02  0.33959700846E+02  0.44173900256E+02  0.00000000000E+00 0. -1.
<scales pt_clust_5="13000.00000" pt_clust_6="13000.00000" pt_clust_7="13000.00000" pt_clust_8="13000.00000" pt_clust_9="28.25017"></scales>
<clustering>
<clus scale="   28.250">  1  9  2 -1</clus>
<clus scale="   80.675">  5  6 -1 -1</clus>
<clus scale="   95.299">  7  8 -1 -1</clus>
<clus scale="  111.611">  2  5  1 -1</clus>
<clus scale="   28.250">  1  5  2 -1</clus>
</clustering>
</event>
<event>
 9    2  0.2984928E-005  0.1029947E+03  0.7546771E-02  0.1278176E+00
         -1   -1    0    0    0  501 -0.00000000000E+00  0.00000000000E+00  0.31459296218E+03  0.31459296218E+03  0.00000000000E+00 0.  1.
          2   -1    0    0  502    0  0.00000000000E+00 -0.00000000000E+00 -0.64942830763E+02  0.64942830763E+02  0.00000000000E+00 0. -1.
         24    2    1    2    0    0 -0.31464732161E+02 -0.38447315423E+02  0.22684551079E+03  0.24644667100E+03  0.82515758790E+02 0.  0.
         23    2    1    2    0    0  0.42092211442E+02  0.13332504978E+02  0.71924007126E+01  0.10166558888E+03  0.91294311877E+02 0.  0.
        -13    1    3    3    0    0 -0.48185420486E+02 -0.38558521270E+02  0.21980426736E+03  0.22830354851E+03  0.00000000000E+00 0.  1.
         14    1    3    3    0    0  0.16720688324E+02  0.11120584710E+00  0.70412434242E+01  0.18143122491E+02  0.00000000000E+00 0. -1.
        -11    1    4    4    0    0  0.35847438442E+02 -0.16971806189E+02  0.40166108186E+02  0.56448182389E+02  0.00000000000E+00 0.  1.
         11    1    4    4    0    0  0.62447730003E+01  0.30304311167E+02 -0.32973707474E+02  0.45217406490E+02  0.00000000000E+00 0. -1.
         21    1    1    2  502  501 -0.10627479281E+02  0.25114810445E+02  0.15612219918E+02  0.31423533066E+02  0.00000000000E+00 0.  1.
<scales pt_clust_5="13000.00000" pt_clust_6="13000.00000" pt_clust_7="13000.00000" pt_clust_8="13000.00000" pt_clust_9="27.27081"></scales>
<clustering>
<clus scale="   27.271">  2  9  1 -1</clus>
<clus scale="   82.516">  5  6 -1 -1</clus>
<clus scale="   91.294">  7  8 -1 -1</clus>
<clus scale="   95.300">  1  5  2 -1</clus>
<clus scale="   27.271">  2  5  1 -1</clus>
</clustering>
</event>
<event>
 9    2  0.2984928E-005  0.8201219E+02  0.7546771E-02  0.1324160E+00
         -1   -1    0    0    0  501 -0.00000000000E+00  0.00000000000E+00  0.69849412044E+02  0.69849412044E+02  0.00000000000E+00 0.  1.
          2   -1    0    0  502    0  0.00000000000E+00 -0.00000000000E+00 -0.18985831927E+03  0.18985831927E+03  0.00000000000E+00 0. -1.
         24    2    1    2    0    0  0.31408994047E+02  0.94511377547E+01 -0.34725001579E+02  0.94696243167E+02  0.81766153287E+02 0.  0.
         23    2    1    2    0    0  0.17994806853E+02 -0.45180963363E+01 -0.79886717891E+02  0.11506952106E+03  0.80714810992E+02 0.  0.
        -13    1    3    3    0    0  0.36532469845E+01 -0.34018213051E+02 -0.34683543906E+01  0.34389162754E+02  0.00000000000E+00 0.  1.
         14    1    3    3    0    0  0.27755747063E+02  0.43469350806E+02 -0.31256647189E+02  0.60307080413E+02  0.00000000000E+00 0. -1.
        -11    1    4    4    0    0  0.39668692410E+02  0.15240514708E+02 -0.17168454575E+02  0.45832676974E+02  0.00000000000E+00 0.  1.
         11    1    4    4    0    0 -0.21673885557E+02 -0.19758611045E+02 -0.62718263317E+02  0.69236844086E+02  0.00000000000E+00 0. -1.
         21    1    1    2  502  501 -0.49403800901E+02 -0.49330414184E+01 -0.53971877592E+01  0.49941967090E+02  0.00000000000E+00 0.  1.
<scales pt_clust_5="13000.00000" pt_clust_6="13000.00000" pt_clust_7="13000.00000" pt_clust_8="13000.00000" pt_clust_9="49.64948"></scales>
<clustering>
<clus scale="   49.649">  1  9  2 -1</clus>
<clus scale="   80.715">  7  8 -1 -1</clus>
<clus scale="   80.964">  2  7  1 -1</clus>
<clus scale="   81.766">  5  6 -1 -1</clus>
<clus scale="   80.964">  2  5  1 -1</clus>
</clustering>
</event>
<event>
 9    2  0.2984928E-005  0.1232228E+03  0.7546771E-02  0.1241302E+00
         -1   -1    0    0    0  501 -0.00000000000E+00  0.00000000000E+00  0.72001927245E+02  0.72001927245E+02  0.00000000000E+00 0.  1.
          2   -1    0    0  502    0  0.00000000000E+00 -0.00000000000E+00 -0.70969669381E+03  0.70969669381E+03  0.00000000000E+00 0. -1.
         24    2    1    2    0    0 -0.53173108640E+02  0.70848469937E+02  0.85917179025E+01  0.11851870298E+03  0.78268640998E+02 0.  0.
         23    2    1    2    0    0  0.13505643684E+02 -0.48266283890E+02 -0.45693690337E+03  0.46840639122E+03  0.90006539233E+02 0.  0.
        -11    1    3    3    0    0 -0.72385380247E+02  0.52636347734E+02 -0.31585492827E+01  0.89555596196E+02  0.00000000000E+00 0.  1.
         12    1    3    3    0    0  0.19212271607E+02  0.18212122203E+02  0.11750267185E+02  0.28963106780E+02  0.00000000000E+00 0. -1.
        -13    1    4    4    0    0  0.25076235262E+02 -0.65307385718E+02 -0.42270890444E+03  0.42845850453E+03  0.00000000000E+00 0. -1.
         13    1    4    4    0    0 -0.11570591579E+02  0.17041101828E+02 -0.34227998922E+02  0.39947886693E+02  0.00000000000E+00 0.  1.
         21    1    1    2  502  501  0.39667464956E+02 -0.22582186047E+02 -0.18934958110E+03  0.19477352686E+03  0.00000000000E+00 0.  1.
<scales pt_clust_5="13000.00000" pt_clust_6="13000.00000" pt_clust_7="13000.00000" pt_clust_8="13000.00000" pt_clust_9="45.64497"></scales>
<clustering>
<clus scale="   45.645">  2  9  1 -1</clus>
<clus scale="   78.269">  5  6 -1 -1</clus>
<clus scale="   90.007">  7  8 -1 -1</clus>
<clus scale="  114.929">  1  5  2 -1</clus>
<clus scale="   45.645">  2  5  1 -1</clus>
</clustering>
</event>
<event>
 9    2  0.6150927E-005  0.9414387E+02  0.7546771E-02  0.1298442E+00
         -1   -1    0    0    0  501 -0.00000000000E+00  0.00000000000E+00  0.30240922574E+03  0.30240922574E+03  0.00000000000E+00 0.  1.
          2   -1    0    0  502    0  0.00000000000E+00 -0.00000000000E+00 -0.60566072901E+03  0.60566072901E+03  0.00000000000E+00 0. -1.
         23    2    1    2    0    0 -0.89337995352E+01 -0.13790862057E+02  0.28831681332E+03  0.30329813417E+03  0.92699367285E+02 0.  0.
         24    2    1    2    0    0  0.30533911898E+02 -0.81906579497E+00 -0.53643972308E+03  0.54378676777E+03  0.83686806922E+02 0.  0.
        -11    1    4    4    0    0  0.45372605394E+02  0.33421900075E+01 -0.14337821503E+03  0.15042325651E+03  0.00000000000E+00 0.  1.
         12    1    4    4    0    0 -0.14838693496E+02 -0.41612558025E+01 -0.39306150806E+03  0.39336351126E+03  0.00000000000E+00 0. -1.
        -11    1    3    3    0    0  0.18748309037E+02 -0.38567975238E+02  0.71913098738E+02  0.83728618619E+02  0.00000000000E+00 0. -1.
         11    1    3    3    0    0 -0.27682108573E+02  0.24777113181E+02  0.21640371458E+03  0.21956951555E+03  0.00000000000E+00 0.  1.
         21    1    1    2  502  501 -0.21600112363E+02  0.14609927852E+02 -0.55128593505E+02  0.60985052822E+02  0.00000000000E+00 0.  1.
<scales pt_clust_5="13000.00000" pt_clust_6="13000.00000" pt_clust_7="13000.00000" pt_clust_8="13000.00000" pt_clust_9="26.07709"></scales>
<clustering>
<clus scale="   26.077">  2  9  1 -1</clus>
<clus scale="   83.687">  5  6 -1 -1</clus>
<clus scale="   85.284">  2  5  1 -1</clus>
<clus scale="   92.699">  7  8 -1 -1</clus>
<clus scale="   26.077">  2  5  1 -1</clus>
</clustering>
</event>
<event>
 9    2  0.2984928E-005  0.1100679E+03  0.7546771E-02  0.1270567E+00
         -1   -1    0    0    0  501 -0.00000000000E+00  0.00000000000E+00  0.49051023199E+02  0.49051023199E+02  0.00000000000E+00 0.  1.
          2   -1    0    0  502    0  0.00000000000E+00 -0.00000000000E+00 -0.46095635129E+03  0.46095635129E+03  0.00000000000E+00 0. -1.
         23    2    1    2    0    0  0.67199730651E+01  0.36758533696E+02 -0.48788641269E+02  0.12155446375E+03  0.10487520348E+03 0.  0.
         24    2    1    2    0    0  0.33757454967E+02 -0.21828180955E+02 -0.27523533917E+03  0.29055261003E+03  0.83966017040E+02 0.  0.
        -13    1    4    4    0    0  0.14313216406E+02 -0.37060442292E+02 -0.49505978193E+02  0.63475872767E+02  0.00000000000E+00 0.  1.
         14    1    4    4    0    0  0.19444238561E+02  0.15232261337E+02 -0.22572936098E+03  0.22707673726E+03  0.00000000000E+00 0. -1.
        -13    1    3    3    0    0 -0.19209242488E+02  0.17603644259E+02  0.28015584120E+02  0.38259067445E+02  0.00000000000E+00 0.  1.
         13    1    3    3    0    0  0.25929215553E+02  0.19154889437E+02 -0.76804225390E+02  0.83295396309E+02  0.00000000000E+00 0. -1.
         21    1    1    2  502  501 -0.40477428032E+02 -0.14930352741E+02 -0.87881347655E+02  0.97900300708E+02  0.00000000000E+00 0.  1.
<scales pt_clust_5="13000.00000" pt_clust_6="13000.00000" pt_clust_7="13000.00000" pt_clust_8="13000.00000" pt_clust_9="43.14322"></scales>
<clustering>
<clus scale="   43.143">  2  9  1 -1</clus>
<clus scale="   83.966">  5  6 -1 -1</clus>
<clus scale="   90.368">  2  5  1 -1</clus>
<clus scale="  104.875">  7  8 -1 -1</clus>
<clus scale="   43.143">  2  5  1 -1</clus>
</clustering>
</event>
<event>
 9    2  0.2984928E-005  0.1311290E+03  0.7546771E-02  0.1227414E+00
          2   -1    0    0  502    0  0.00000000000E+00  0.00000000000E+00  0.18701546100E+03  0.18701546100E+03  0.00000000000E+00 0. -1.
         -1   -1    0    0    0  501 -0.00000000000E+00 -0.00000000000E+00 -0.12149542206E+03  0.12149542206E+03  0.00000000000E+00 0.  1.
         24    2    1    2    0    0 -0.64547934719E+02  0.59632904989E+02  0.39374858286E+01  0.12018548182E+03  0.81893388083E+02 0.  0.
         23    2    1    2    0    0  0.68157861808E+02 -0.85629425537E+02  0.24431599820E+02  0.14283865609E+03  0.88476471222E+02 0.  0.
        -13    1    3    3    0    0 -0.81436577677E+02  0.56561562454E+02 -0.76941820898E+01  0.99450123021E+02  0.00000000000E+00 0.  1.
         14    1    3    3    0    0  0.16888642958E+02  0.30713425357E+01  0.11631667918E+02  0.20735358799E+02  0.00000000000E+00 0. -1.
        -13    1    4    4    0    0  0.22374385174E+02 -0.66648316371E+02 -0.23265496042E+02  0.74053321959E+02  0.00000000000E+00 0.  1.
         13    1    4    4    0    0  0.45783476635E+02 -0.18981109166E+02  0.47697095862E+02  0.68785334132E+02  0.00000000000E+00 0. -1.
         21    1    1    2  502  501 -0.36099270898E+01  0.25996520547E+02  0.37150953288E+02  0.45486745151E+02  0.00000000000E+00 0. -1.
<scales pt_clust_5="13000.00000" pt_clust_6="13000.00000" pt_clust_7="13000.00000" pt_clust_8="13000.00000" pt_clust_9="26.24596"></scales>
<clustering>
<clus scale="   26.246">  1  9  2 -1</clus>
<clus scale="   81.893">  5  6 -1 -1</clus>
<clus scale="   88.476">  7  8 -1 -1</clus>
<clus scale="  126.780">  2  5  1 -1</clus>
<clus scale="   26.246">  1  5  2 -1</clus>
</clustering>
</event>
<event>
 9    2  0.2984928E-005  0.8854093E+02  0.7546771E-02  0.1306701E+00
         -3   -1    0    0    0  501 -0.00000000000E+00  0.00000000000E+00  0.33048991340E+03  0.33048991340E+03  0.00000000000E+00 0.  1.
          4   -1    0    0  502    0  0.00000000000E+00 -0.00000000000E+00 -0.24819339693E+03  0.24819339693E+03  0.00000000000E+00 0. -1.
         24    2    1    2    0    0 -0.21071601199E+02  0.28509086412E+02  0.30508116824E+03  0.31762856916E+03  0.80972886485E+02 0.  0.
         23    2    1    2    0    0  0.52500320752E+02 -0.20266067740E+02 -0.19487210950E+03  0.21821992138E+03  0.80484767803E+02 0.  0.
        -11    1    3    3    0    0  0.30769612934E+02  0.16363939380E+02  0.13365184774E+03  0.13812083115E+03  0.00000000000E+00 0.  1.
         12    1    3    3    0    0 -0.51841214133E+02  0.12145147032E+02  0.17142932050E+03  0.17950773801E+03  0.00000000000E+00 0. -1.
        -13    1    4    4    0    0  0.39138277992E+02  0.20454940734E+02 -0.48007313549E+02  0.65229683112E+02  0.00000000000E+00 0.  1.
         13    1    4    4    0    0  0.13362042760E+02 -0.40721008474E+02 -0.14686479595E+03  0.15299023827E+03  0.00000000000E+00 0. -1.
         21    1    1    2  502  501 -0.31428719553E+02 -0.82430186717E+01 -0.27912542274E+02  0.42834819782E+02  0.00000000000E+00 0.  1.
<scales pt_clust_5="13000.00000" pt_clust_6="13000.00000" pt_clust_7="13000.00000" pt_clust_8="13000.00000" pt_clust_9="32.49172"></scales>
<clustering>
<clus scale="   32.492">  2  9  1 -1</clus>
<clus scale="   80.485">  7  8 -1 -1</clus>
<clus scale="   80.973">  5  6 -1 -1</clus>
<clus scale="   88.095">  2  7  1 -1</clus>
<clus scale="   32.492">  2  5  1 -1</clus>
</clustering>
</event>
<event>
 9    2  0.2984928E-005  0.1102554E+03  0.7546771E-02  0.1264317E+00
          2   -1    0    0  502    0  0.00000000000E+00  0.00000000000E+00  0.17141638555E+03  0.17141638555E+03  0.00000000000E+00 0. -1.
         -1   -1    0    0    0  501 -0.00000000000E+00 -0.00000000000E+00 -0.34377917856E+03  0.34377917856E+03  0.00000000000E+00 0.  1.
         23    2    1    2    0    0 -0.28229653108E+02  0.53925194204E+02 -0.30868359925E+03  0.32791237300E+03  0.92391125297E+02 0.  0.
         24    2    1    2    0    0  0.34103225975E+01 -0.53980785536E+02  0.12774432916E+03  0.16102375059E+03  0.81758663852E+02 0.  0.
        -13    1    4    4    0    0 -0.25943280808E+02 -0.17430676474E+02  0.77558672015E+01  0.32203039880E+02  0.00000000000E+00 0.  1.
         14    1    4    4    0    0  0.29353603406E+02 -0.36550109061E+02  0.11998846196E+03  0.12882071071E+03  0.00000000000E+00 0. -1.
        -11    1    3    3    0    0 -0.52935032810E+02  0.59395828554E+01 -0.11305807263E+03  0.12497809460E+03  0.00000000000E+00 0. -1.
         11    1    3    3    0    0  0.24705379703E+02  0.47985611349E+02 -0.19562552662E+03  0.20293427840E+03  0.00000000000E+00 0.  1.
         21    1    1    2  502  501  0.24819330510E+02  0.55591331786E-01  0.85764770795E+01  0.26259440521E+02  0.00000000000E+00 0.  1.
<scales pt_clust_5="13000.00000" pt_clust_6="13000.00000" pt_clust_7="13000.00000" pt_clust_8="13000.00000" pt_clust_9="24.81939"></scales>
<clustering>
<clus scale="   24.819">  1  9  2 -1</clus>
<clus scale="   81.759">  5  6 -1 -1</clus>
<clus scale="   92.391">  7  8 -1 -1</clus>
<clus scale="  101.512">  1  5  2 -1</clus>
<clus scale="   24.819">  1  5  2 -1</clus>
</clustering>
</event>
<event>
 9    2  0.2984928E-005  0.1495103E+03  0.7546771E-02  0.1201096E+00
         -1   -1    0    0    0  501 -0.00000000000E+00  0.00000000000E+00  0.11278519756E+03  0.11278519756E+03  0.00000000000E+00 0.  1.
          2   -1    0    0  502    0  0.00000000000E+00 -0.00000000000E+00 -0.47249852272E+03  0.47249852272E+03  0.00000000000E+00 0. -1.
         23    2    1    2    0    0 -0.39507499438E+02 -0.12202045620E+03  0.38448347566E+02  0.15679389291E+03  0.81585630964E+02 0.  0.
         24    2    1    2    0    0  0.41887413738E+02  0.99013179533E+02 -0.34892734894E+03  0.37409297628E+03  0.81468367519E+02 0.  0.
        -11    1    4    4    0    0 -0.24358476000E+01  0.49665802018E+02 -0.61380662382E+02  0.78995005906E+02  0.00000000000E+00 0.  1.
         12    1    4    4    0    0  0.44323261338E+02  0.49347377515E+02 -0.28754668656E+03  0.29509797037E+03  0.00000000000E+00 0. -1.
        -13    1    3    3    0    0 -0.46247533754E+02 -0.77560042265E+02  0.58460709609E+02  0.10757345910E+03  0.00000000000E+00 0.  1.
         13    1    3    3    0    0  0.67400343164E+01 -0.44460413935E+02 -0.20012362043E+02  0.49220433810E+02  0.00000000000E+00 0. -1.
         21    1    1    2  502  501 -0.23799142995E+01  0.23007276667E+02 -0.49234323783E+02  0.54396851105E+02  0.00000000000E+00 0.  1.
<scales pt_clust_5="13000.00000" pt_clust_6="13000.00000" pt_clust_7="13000.00000" pt_clust_8="13000.00000" pt_clust_9="23.13004"></scales>
<clustering>
<clus scale="   23.130">  2  9  1 -1</clus>
<clus scale="   81.468">  5  6 -1 -1</clus>
<clus scale="   81.586">  7  8 -1 -1</clus>
<clus scale="  149.446">  2  5  1 -1</clus>
<clus scale="   23.130">  2  5  1 -1</clus>
</clustering>
</event>
<event>
 9    2  0.2984928E-005  0.1352034E+03  0.7546771E-02  0.1223066E+00
          2   -1    0    0  502    0  0.00000000000E+00  0.00000000000E+00  0.24205924036E+03  0.24205924036E+03  0.00000000000E+00 0. -1.
         -1   -1    0    0    0  501 -0.00000000000E+00 -0.00000000000E+00 -0.21242103490E+03  0.21242103490E+03  0.00000000000E+00 0.  1.
         23    2    1    2    0    0 -0.84613999673E+02  0.57603031060E+02 -0.16399944363E+03  0.21410139245E+03  0.92010600540E+02 0.  0.
         24    2    1    2    0    0  0.65668695578E+02 -0.35201575199E+02  0.17408801595E+03  0.20512355799E+03  0.78851177965E+02 0.  0.
        -11    1    4    4    0    0  0.52272238903E+02 -0.84168193824E+01  0.36484773138E+02  0.64299055043E+02  0.00000000000E+00 0.  1.
         12    1    4    4    0    0  0.13396456675E+02 -0.26784755817E+02  0.13760324282E+03  0.14082450294E+03  0.00000000000E+00 0. -1.
        -13    1    3    3    0    0 -0.67252956061E+02  0.17463981418E+02 -0.34819756330E+02  0.77719792697E+02  0.00000000000E+00 0. -1.
         13    1    3    3    0    0 -0.17361043612E+02  0.40139049642E+02 -0.12917968730E+03  0.13638159976E+03  0.00000000000E+00 0.  1.
         21    1    1    2  502  501  0.18945304095E+02 -0.22401455861E+02  0.19549633136E+02  0.35255324813E+02  0.00000000000E+00 0. -1.
<scales pt_clust_5="13000.00000" pt_clust_6="13000.00000" pt_clust_7="13000.00000" pt_clust_8="13000.00000" pt_clust_9="29.33854"></scales>
<clustering>
<clus scale="   29.339">  1  9  2 -1</clus>
<clus scale="   78.851">  5  6 -1 -1</clus>
<clus scale="   92.011">  7  8 -1 -1</clus>
<clus scale="  126.616">  1  5  2 -1</clus>
<clus scale="   29.339">  1  5  2 -1</clus>
</clustering>
</event>
<event>
 9    2  0.2984928E-005  0.9996767E+02  0.7546771E-02  0.1288875E+00
          4   -1    0    0  502    0  0.00000000000E+00  0.00000000000E+00  0.35021220766E+03  0.35021220766E+03  0.00000000000E+00 0. -1.
         -3   -1    0    0    0  501 -0.00000000000E+00 -0.00000000000E+00 -0.68111633176E+02  0.68111633176E+02  0.00000000000E+00 0.  1.
         24    2    1    2    0    0 -0.16088088002E+02 -0.30293694648E+02  0.48708529699E+01  0.81705501191E+02  0.73996818886E+02 0.  0.
         23    2    1    2    0    0  0.78922906488E+02  0.33643620005E+02  0.15391613988E+03  0.19817818713E+03  0.90684603994E+02 0.  0.
        -13    1    3    3    0    0  0.25477970655E+01 -0.51505878195E+02 -0.49612410312E+01  0.51806955817E+02  0.00000000000E+00 0.  1.
         14    1    3    3    0    0 -0.18635885067E+02  0.21212183546E+02  0.98320940011E+01  0.29898545374E+02  0.00000000000E+00 0. -1.
        -13    1    4    4    0    0  0.68642521080E+02 -0.12916382247E+02  0.56945823341E+02  0.90119117986E+02  0.00000000000E+00 0.  1.
         13    1    4    4    0    0  0.10280385408E+02  0.46560002251E+02  0.96970316538E+02  0.10805906914E+03  0.00000000000E+00 0. -1.
         21    1    1    2  502  501 -0.62834818486E+02 -0.33499253563E+01  0.12331358163E+03  0.13844015252E+03  0.00000000000E+00 0. -1.
<scales pt_clust_5="13000.00000" pt_clust_6="13000.00000" pt_clust_7="13000.00000" pt_clust_8="13000.00000" pt_clust_9="62.92405"></scales>
<clustering>
<clus scale="   62.924">  1  9  2 -1</clus>
<clus scale="   73.997">  5  6 -1 -1</clus>
<clus scale="   85.120">  2  5  1 -1</clus>
<clus scale="   90.685">  7  8 -1 -1</clus>
<clus scale="   62.924">  1  5  2 -1</clus>
</clustering>
</event>
<event>
 9    2  0.2984928E-005  0.2665333E+03  0.7546771E-02  0.1103780E+00
          4   -1    0    0  502    0  0.00000000000E+00  0.00000000000E+00  0.73189791099E+03  0.73189791099E+03  0.00000000000E+00 0. -1.
         -3   -1    0    0    0  501 -0.00000000000E+00 -0.00000000000E+00 -0.26927700240E+03  0.26927700240E+03  0.00000000000E+00 0.  1.
         24    2    1    2    0    0  0.23404916092E+03 -0.88027960628E+02 -0.16401759581E+03  0.30958701198E+03  0.80090041043E+02 0.  0.
         23    2    1    2    0    0 -0.23195356865E+03  0.10875915979E+03  0.58070973201E+03  0.64115352564E+03  0.90680966848E+02 0.  0.
        -11    1    3    3    0    0  0.14508835080E+03 -0.64410340120E+02 -0.14625387932E+03  0.21584605317E+03  0.00000000000E+00 0.  1.
         12    1    3    3    0    0  0.88960810117E+02 -0.23617620508E+02 -0.17763716481E+02  0.93740958808E+02  0.00000000000E+00 0. -1.
        -13    1    4    4    0    0 -0.41122091139E+02 -0.50221173206E+01  0.44826005424E+02  0.61037847310E+02  0.00000000000E+00 0.  1.
         13    1    4    4    0    0 -0.19083147751E+03  0.11378127711E+03  0.53588372658E+03  0.58011567833E+03  0.00000000000E+00 0. -1.
         21    1    1    2  502  501 -0.20955922712E+01 -0.20731199163E+02  0.45928772385E+02  0.50434375762E+02  0.00000000000E+00 0. -1.
<scales pt_clust_5="13000.00000" pt_clust_6="13000.00000" pt_clust_7="13000.00000" pt_clust_8="13000.00000" pt_clust_9="20.83685"></scales>
<clustering>
<clus scale="   20.837">  1  9  2 -1</clus>
<clus scale="   80.090">  5  6 -1 -1</clus>
<clus scale="   90.681">  7  8 -1 -1</clus>
<clus scale="  263.119">  2  5  1 -1</clus>
<clus scale="   20.837">  1  5  2 -1</clus>
</clustering>
</event>
<event>
 9    2  0.2984928E-005  0.1249365E+03  0.7546771E-02  0.1238018E+00
          2   -1    0    0  502    0  0.00000000000E+00  0.00000000000E+00  0.24207713789E+03  0.24207713789E+03  0.00000000000E+00 0. -1.
         -1   -1    0    0    0  501 -0.00000000000E+00 -0.00000000000E+00 -0.24976430506E+03  0.24976430506E+03  0.00000000000E+00 0.  1.
         24    2    1    2    0    0 -0.16846141340E+02  0.87900252073E+02 -0.21321678880E+03  0.24440121282E+03  0.79122101893E+02 0.  0.
         23    2    1    2    0    0  0.57107830030E+01 -0.64420641701E+02  0.15036551605E+03  0.18646181713E+03  0.89306151585E+02 0.  0.
        -11    1    3    3    0    0 -0.13079145671E+02  0.10012762135E+03 -0.15642783486E+03  0.18618880774E+03  0.00000000000E+00 0.  1.
         12    1    3    3    0    0 -0.37669956696E+01 -0.12227369272E+02 -0.56788953934E+02  0.58212405075E+02  0.00000000000E+00 0. -1.
        -13    1    4    4    0    0 -0.38157025287E+02 -0.16265449851E+02  0.36364963649E+02  0.55162795603E+02  0.00000000000E+00 0.  1.
         13    1    4    4    0    0  0.43867808290E+02 -0.48155191851E+02  0.11400055240E+03  0.13129902153E+03  0.00000000000E+00 0. -1.
         21    1    1    2  502  501  0.11135358337E+02 -0.23479610372E+02  0.55164105581E+02  0.60978413009E+02  0.00000000000E+00 0. -1.
<scales pt_clust_5="13000.00000" pt_clust_6="13000.00000" pt_clust_7="13000.00000" pt_clust_8="13000.00000" pt_clust_9="25.98631"></scales>
<clustering>
<clus scale="   25.986">  1  9  2 -1</clus>
<clus scale="   79.122">  5  6 -1 -1</clus>
<clus scale="   89.306">  7  8 -1 -1</clus>
<clus scale="  117.872">  2  5  1 -1</clus>
<clus scale="   25.986">  1  5  2 -1</clus>
</clustering>
</event>
<event>
 9    2  0.2984928E-005  0.1045610E+03  0.7546771E-02  0.1275890E+00
          2   -1    0    0  502    0  0.00000000000E+00  0.00000000000E+00  0.11303220856E+03  0.11303220856E+03  0.00000000000E+00 0. -1.
         -1   -1    0    0    0  501 -0.00000000000E+00 -0.00000000000E+00 -0.18105823268E+03  0.18105823268E+03  0.00000000000E+00 0.  1.
         23    2    1    2    0    0 -0.18333111710E+02  0.42119625116E+02 -0.66584458387E+02  0.12365390147E+03  0.93523427249E+02 0.  0.
         24    2    1    2    0    0 -0.26235724571E+02 -0.52190324975E+02 -0.41612539387E+02  0.10959652591E+03  0.82871296556E+02 0.  0.
        -11    1    4    4    0    0 -0.14804587470E+02 -0.37984309781E+02  0.19952373599E+02  0.45388113113E+02  0.00000000000E+00 0.  1.
         12    1    4    4    0    0 -0.11431137100E+02 -0.14206015195E+02 -0.61564912986E+02  0.64208412799E+02  0.00000000000E+00 0. -1.
        -11    1    3    3    0    0  0.34880391311E+02  0.83083578472E+01 -0.43826853097E+02  0.56625644018E+02  0.00000000000E+00 0. -1.
         11    1    3    3    0    0 -0.53213503021E+02  0.33811267268E+02 -0.22757605290E+02  0.67028257449E+02  0.00000000000E+00 0.  1.
         21    1    1    2  502  501  0.44568836281E+02  0.10070699860E+02  0.40170973645E+02  0.60840013862E+02  0.00000000000E+00 0. -1.
<scales pt_clust_5="13000.00000" pt_clust_6="13000.00000" pt_clust_7="13000.00000" pt_clust_8="13000.00000" pt_clust_9="45.69245"></scales>
<clustering>
<clus scale="   45.692">  1  9  2 -1</clus>
<clus scale="   82.871">  5  6 -1 -1</clus>
<clus scale="   93.523">  7  8 -1 -1</clus>
<clus scale="   95.153">  1  5  2 -1</clus>
<clus scale="   45.692">  1  5  2 -1</clus>
</clustering>
</event>
<event>
 9    2  0.2984928E-005  0.1150355E+03  0.7546771E-02  0.1255118E+00
         -1   -1    0    0    0  501 -0.00000000000E+00  0.00000000000E+00  0.73345998623E+03  0.73345998623E+03  0.00000000000E+00 0.  1.
          2   -1    0    0  502    0  0.00000000000E+00 -0.00000000000E+00 -0.81267048362E+02  0.81267048362E+02  0.00000000000E+00 0. -1.
         24    2    1    2    0    0 -0.51861359633E+02 -0.45710910846E+02  0.45072417351E+03  0.46321882155E+03  0.81488085343E+02 0.  0.
         23    2    1    2    0    0  0.69839672946E+02  0.24129322806E+02  0.26064380410E+03  0.28600500685E+03  0.91672608731E+02 0.  0.
        -13    1    3    3    0    0 -0.65148506062E+02 -0.35104086047E+02  0.43042410194E+03  0.43673966185E+03  0.00000000000E+00 0.  1.
         14    1    3    3    0    0  0.13287146429E+02 -0.10606824799E+02  0.20300071573E+02  0.26479159700E+02  0.00000000000E+00 0. -1.
        -11    1    4    4    0    0  0.71316620511E+02 -0.19227388769E+02  0.17662153931E+03  0.19144430257E+03  0.00000000000E+00 0.  1.
         11    1    4    4    0    0 -0.14769475649E+01  0.43356711576E+02  0.84022264790E+02  0.94560704276E+02  0.00000000000E+00 0. -1.
         21    1    1    2  502  501 -0.17978313313E+02  0.21581588039E+02 -0.59175039749E+02  0.65503206190E+02  0.00000000000E+00 0. -1.
<scales pt_clust_5="13000.00000" pt_clust_6="13000.00000" pt_clust_7="13000.00000" pt_clust_8="13000.00000" pt_clust_9="28.08887"></scales>
<clustering>
<clus scale="   28.089">  2  9  1 -1</clus>
<clus scale="   81.488">  5  6 -1 -1</clus>
<clus scale="   91.673">  7  8 -1 -1</clus>
<clus scale="  107.096">  1  5  2 -1</clus>
<clus scale="   28.089">  2  5  1 -1</clus>
</clustering>
</event>
<event>
 9    2  0.2984928E-005  0.1522796E+03  0.7546771E-02  0.1199821E+00
         -1   -1    0    0    0  501 -0.00000000000E+00  0.00000000000E+00  0.21397251058E+03  0.21397251058E+03  0.00000000000E+00 0.  1.
          2   -1    0    0  502    0  0.00000000000E+00 -0.00000000000E+00 -0.21718888014E+03  0.21718888014E+03  0.00000000000E+00 0. -1.
         24    2    1    2    0    0  0.10995262685E+03 -0.70542194130E+02  0.66913629547E+02  0.16702468930E+03  0.79712180450E+02 0.  0.
         23    2    1    2    0    0 -0.98126654354E+02  0.53870988289E+02  0.41613645024E+02  0.15053905738E+03  0.91648178757E+02 0.  0.
        -13    1    3    3    0    0  0.16859088305E+02 -0.47797448812E+02  0.96370533363E+00  0.50692738132E+02  0.00000000000E+00 0.  1.
         14    1    3    3    0    0  0.93093538541E+02 -0.22744745318E+02  0.65949924213E+02  0.11633195116E+03  0.00000000000E+00 0. -1.
        -13    1    4    4    0    0 -0.89471533168E+02  0.83017303291E+01  0.25416256667E+01  0.89891789586E+02  0.00000000000E+00 0. -1.
         13    1    4    4    0    0 -0.86551211856E+01  0.45569257960E+02  0.39072019357E+02  0.60647267790E+02  0.00000000000E+00 0.  1.
         21    1    1    2  502  501 -0.11825972492E+02  0.16671205841E+02 -0.11174364413E+03  0.11359764405E+03  0.00000000000E+00 0. -1.
<scales pt_clust_5="13000.00000" pt_clust_6="13000.00000" pt_clust_7="13000.00000" pt_clust_8="13000.00000" pt_clust_9="20.43973"></scales>
<clustering>
<clus scale="   20.440">  2  9  1 -1</clus>
<clus scale="   79.712">  5  6 -1 -1</clus>
<clus scale="   91.648">  7  8 -1 -1</clus>
<clus scale="  145.409">  1  5  2 -1</clus>
<clus scale="   20.440">  2  5  1 -1</clus>
</clustering>
</event>
<event>
 9    2  0.2984928E-005  0.9337356E+02  0.7546771E-02  0.1301162E+00
         -1   -1    0    0    0  501 -0.00000000000E+00  0.00000000000E+00  0.10284602770E+03  0.10284602770E+03  0.00000000000E+00 0.  1.
          2   -1    0    0  502    0  0.00000000000E+00 -0.00000000000E+00 -0.12005463018E+03  0.12005463018E+03  0.00000000000E+00 0. -1.
         23    2    1    2    0    0  0.73523478762E+01 -0.16628278509E+02  0.34548765563E+02  0.99500520637E+02  0.91521471467E+02 0.  0.
         24    2    1    2    0    0 -0.28418407941E+02  0.23645224948E+01 -0.45402256113E+02  0.97177607434E+02  0.81048908999E+02 0.  0.
        -11    1    4    4    0    0 -0.13294687953E+02  0.36636023126E+02 -0.86787496650E+00  0.38983331376E+02  0.00000000000E+00 0.  1.
         12    1    4    4    0    0 -0.15123719989E+02 -0.34271500631E+02 -0.44534381146E+02  0.58194276058E+02  0.00000000000E+00 0. -1.
        -11    1    3    3    0    0  0.37994968633E+02 -0.26548134154E+02 -0.70565771302E+01  0.46885139962E+02  0.00000000000E+00 0. -1.
         11    1    3    3    0    0 -0.30642620757E+02  0.99198556458E+01  0.41605342693E+02  0.52615380674E+02  0.00000000000E+00 0.  1.
         21    1    1    2  502  501  0.21066060065E+02  0.14263756014E+02 -0.63551119316E+01  0.26222529816E+02  0.00000000000E+00 0.  1.
<scales pt_clust_5="13000.00000" pt_clust_6="13000.00000" pt_clust_7="13000.00000" pt_clust_8="13000.00000" pt_clust_9="25.44079"></scales>
<clustering>
<clus scale="   25.441">  2  9  1 -1</clus>
<clus scale="   81.049">  5  6 -1 -1</clus>
<clus scale="   83.135">  2  5  1 -1</clus>
<clus scale="   91.521">  7  8 -1 -1</clus>
<clus scale="   25.441">  2  5  1 -1</clus>
</clustering>
</event>
<event>
 9    2  0.2984928E-005  0.1294447E+03  0.7546771E-02  0.1231560E+00
         -1   -1    0    0    0  501 -0.00000000000E+00  0.00000000000E+00  0.37611897651E+03  0.37611897651E+03  0.00000000000E+00 0.  1.
          2   -1    0    0  502    0  0.00000000000E+00 -0.00000000000E+00 -0.40311685644E+03  0.40311685644E+03  0.00000000000E+00 0. -1.
         24    2    1    2    0    0 -0.47806476732E+02 -0.10130374951E+03  0.27842464864E+03  0.31063454405E+03  0.80160003135E+02 0.  0.
         23    2    1    2    0    0  0.17150319832E+02  0.42276899004E+02  0.44589560173E+02  0.11232550905E+03  0.92451724953E+02 0.  0.
        -13    1    3    3    0    0 -0.28699885043E+01 -0.71272653482E+02  0.21892265605E+03  0.23025020587E+03  0.00000000000E+00 0.  1.
         14    1    3    3    0    0 -0.44936488228E+02 -0.30031096030E+02  0.59501992591E+02  0.80384338184E+02  0.00000000000E+00 0. -1.
        -13    1    4    4    0    0  0.40807510337E+02 -0.55604893925E+01  0.42108099658E+02  0.58900458394E+02  0.00000000000E+00 0.  1.
         13    1    4    4    0    0 -0.23657190504E+02  0.47837388396E+02  0.24814605153E+01  0.53425050655E+02  0.00000000000E+00 0. -1.
         21    1    1    2  502  501  0.30656156900E+02  0.59026850509E+02 -0.35001208875E+03  0.35627577985E+03  0.00000000000E+00 0. -1.
<scales pt_clust_5="13000.00000" pt_clust_6="13000.00000" pt_clust_7="13000.00000" pt_clust_8="13000.00000" pt_clust_9="66.51292"></scales>
<clustering>
<clus scale="   66.513">  2  9  1 -1</clus>
<clus scale="   80.160">  5  6 -1 -1</clus>
<clus scale="   92.452">  7  8 -1 -1</clus>
<clus scale="  120.972">  1  5  2 -1</clus>
<clus scale="   66.513">  2  5  1 -1</clus>
</clustering>
</event>
<event>
 9    2  0.2984928E-005  0.1169383E+03  0.7546771E-02  0.1264724E+00
         -1   -1    0    0    0  501 -0.00000000000E+00  0.00000000000E+00  0.14155610510E+03  0.14155610510E+03  0.00000000000E+00 0.  1.
          2   -1    0    0  502    0  0.00000000000E+00 -0.00000000000E+00 -0.20969683305E+03  0.20969683305E+03  0.00000000000E+00 0. -1.
         24    2    1    2    0    0 -0.70901585360E+01 -0.24021572581E+02  0.62023405162E+02  0.10474727807E+03  0.80608828169E+02 0.  0.
         23    2    1    2    0    0  0.23272512075E+01 -0.60629051683E+02 -0.11519910012E+03  0.16041056331E+03  0.93698549332E+02 0.  0.
        -11    1    3    3    0    0 -0.40986598660E+02  0.24842425875E+01  0.34839724677E+02  0.53850525963E+02  0.00000000000E+00 0.  1.
         12    1    3    3    0    0  0.33896440124E+02 -0.26505815168E+02  0.27183680485E+02  0.50896752111E+02  0.00000000000E+00 0. -1.
        -11    1    4    4    0    0  0.15130011405E+02  0.22237622597E+02 -0.37093672090E+02  0.45818878347E+02  0.00000000000E+00 0. -1.
         11    1    4    4    0    0 -0.12802760198E+02 -0.82866674280E+02 -0.78105428029E+02  0.11459168496E+03  0.00000000000E+00 0.  1.
         21    1    1    2  502  501  0.47629073285E+01  0.84650624263E+02 -0.14965032992E+02  0.86095096764E+02  0.00000000000E+00 0. -1.
<scales pt_clust_5="13000.00000" pt_clust_6="13000.00000" pt_clust_7="13000.00000" pt_clust_8="13000.00000" pt_clust_9="69.96538"></scales>
<clustering>
<clus scale="   80.609">  5  6 -1 -1</clus>
<clus scale="   84.410">  1  5  2 -1</clus>
<clus scale="   69.965">  1  9  2 -1</clus>
<clus scale="   93.699">  7  8 -1 -1</clus>
<clus scale="  116.938">  2  5  1 -1</clus>
</clustering>
</event>
<event>
 9    2  0.2984928E-005  0.1287750E+03  0.7546771E-02  0.1233319E+00
          2   -1    0    0  502    0  0.00000000000E+00  0.00000000000E+00  0.55708006798E+03  0.55708006798E+03  0.00000000000E+00 0. -1.
         -1   -1    0    0    0  501 -0.00000000000E+00 -0.00000000000E+00 -0.89350492053E+02  0.89350492053E+02  0.00000000000E+00 0.  1.
         23    2    1    2    0    0  0.39638999204E+02 -0.76517697497E+02 -0.15041660509E+02  0.12710195182E+03  0.92208710639E+02 0.  0.
         24    2    1    2    0    0 -0.15527610947E+02  0.11872187426E+03  0.34647567324E+03  0.37462535280E+03  0.77218991734E+02 0.  0.
        -11    1    4    4    0    0  0.28638307074E+02  0.24008060096E+02  0.76825180330E+02  0.85432124604E+02  0.00000000000E+00 0.  1.
         12    1    4    4    0    0 -0.44165918021E+02  0.94713814161E+02  0.26965049291E+03  0.28919322819E+03  0.00000000000E+00 0. -1.
        -13    1    3    3    0    0 -0.21911037039E+02 -0.42154479632E+02  0.15925626588E+02  0.50107078137E+02  0.00000000000E+00 0. -1.
         13    1    3    3    0    0  0.61550036243E+02 -0.34363217864E+02 -0.30967287097E+02  0.76994873684E+02  0.00000000000E+00 0.  1.
         21    1    1    2  502  501 -0.24111388258E+02 -0.42204176761E+02  0.13629556320E+03  0.14470325541E+03  0.00000000000E+00 0. -1.
<scales pt_clust_5="13000.00000" pt_clust_6="13000.00000" pt_clust_7="13000.00000" pt_clust_8="13000.00000" pt_clust_9="48.60609"></scales>
<clustering>
<clus scale="   48.606">  1  9  2 -1</clus>
<clus scale="   77.219">  5  6 -1 -1</clus>
<clus scale="   92.209">  7  8 -1 -1</clus>
<clus scale="  118.505">  1  5  2 -1</clus>
<clus scale="   48.606">  1  5  2 -1</clus>
</clustering>
</event>
<event>
 9    2  0.2984928E-005  0.9070708E+02  0.7546771E-02  0.1307035E+00
         -3   -1    0    0    0  501 -0.00000000000E+00  0.00000000000E+00  0.84241942753E+02  0.84241942753E+02  0.00000000000E+00 0.  1.
          4   -1    0    0  502    0  0.00000000000E+00 -0.00000000000E+00 -0.23119528325E+03  0.23119528325E+03  0.00000000000E+00 0. -1.
         24    2    1    2    0    0  0.31073908507E+01 -0.17274241145E+02  0.40671274818E+02  0.91402043776E+02  0.79950770641E+02 0.  0.
         23    2    1    2    0    0 -0.23317793613E+02 -0.44296314960E+01 -0.14852901694E+03  0.17496396582E+03  0.89376615104E+02 0.  0.
        -13    1    3    3    0    0  0.13063968472E+02 -0.24566355117E+02  0.61325079750E+02  0.67341951875E+02  0.00000000000E+00 0.  1.
         14    1    3    3    0    0 -0.99565776210E+01  0.72921139722E+01 -0.20653804932E+02  0.24060091901E+02  0.00000000000E+00 0. -1.
        -11    1    4    4    0    0 -0.49274084260E+02 -0.18457833853E+02 -0.51806018008E+02  0.73840981251E+02  0.00000000000E+00 0.  1.
         11    1    4    4    0    0  0.25956290646E+02  0.14028202357E+02 -0.96722998931E+02  0.10112298457E+03  0.00000000000E+00 0. -1.
         21    1    1    2  502  501  0.20210402763E+02  0.21703872641E+02 -0.39095598372E+02  0.49071216405E+02  0.00000000000E+00 0. -1.
<scales pt_clust_5="13000.00000" pt_clust_6="13000.00000" pt_clust_7="13000.00000" pt_clust_8="13000.00000" pt_clust_9="29.65668"></scales>
<clustering>
<clus scale="   29.657">  2  9  1 -1</clus>
<clus scale="   79.951">  5  6 -1 -1</clus>
<clus scale="   81.435">  1  5  2 -1</clus>
<clus scale="   89.377">  7  8 -1 -1</clus>
<clus scale="   29.657">  2  5  1 -1</clus>
</clustering>
</event>
<event>
 9    2  0.2984928E-005  0.9407837E+02  0.7546771E-02  0.1299330E+00
          2   -1    0    0  502    0  0.00000000000E+00  0.00000000000E+00  0.82030014311E+03  0.82030014311E+03  0.00000000000E+00 0. -1.
         -1   -1    0    0    0  501 -0.00000000000E+00 -0.00000000000E+00 -0.81301431683E+02  0.81301431683E+02  0.00000000000E+00 0.  1.
         24    2    1    2    0    0 -0.15521667929E+02  0.11840458775E+02 -0.52122507119E+02  0.98695735040E+02  0.81504439924E+02 0.  0.
         23    2    1    2    0    0  0.28586783482E+02 -0.41049506407E+02  0.57436465063E+03  0.58380021353E+03  0.91791455252E+02 0.  0.
        -11    1    3    3    0    0  0.98501167149E+01  0.42344495261E+02 -0.21066518907E+02  0.48310240085E+02  0.00000000000E+00 0.  1.
         12    1    3    3    0    0 -0.25371784644E+02 -0.30504036486E+02 -0.31055988212E+02  0.50385494954E+02  0.00000000000E+00 0. -1.
        -11    1    4    4    0    0  0.47905546881E+02 -0.60437208763E+02  0.41614411154E+03  0.42322986567E+03  0.00000000000E+00 0. -1.
         11    1    4    4    0    0 -0.19318763399E+02  0.19387702356E+02  0.15822053908E+03  0.16057034785E+03  0.00000000000E+00 0.  1.
         21    1    1    2  502  501 -0.13065115554E+02  0.29209047632E+02  0.21675656792E+03  0.21910562623E+03  0.00000000000E+00 0.  1.
<scales pt_clust_5="13000.00000" pt_clust_6="13000.00000" pt_clust_7="13000.00000" pt_clust_8="13000.00000" pt_clust_9="31.99790"></scales>
<clustering>
<clus scale="   31.998">  1  9  2 -1</clus>
<clus scale="   81.504">  5  6 -1 -1</clus>
<clus scale="   84.072">  2  5  1 -1</clus>
<clus scale="   91.791">  7  8 -1 -1</clus>
<clus scale="   31.998">  1  5  2 -1</clus>
</clustering>
</event>
<event>
 9    2  0.2984928E-005  0.3540994E+03  0.7546771E-02  0.1061159E+00
          2   -1    0    0  502    0  0.00000000000E+00  0.00000000000E+00  0.10357018741E+04  0.10357018741E+04  0.00000000000E+00 0. -1.
         -1   -1    0    0    0  501 -0.00000000000E+00 -0.00000000000E+00 -0.17952328954E+03  0.17952328954E+03  0.00000000000E+00 0.  1.
         24    2    1    2    0    0 -0.33460948780E+03  0.48738620221E+02  0.10475553446E+03  0.36322285170E+03  0.81352047116E+02 0.  0.
         23    2    1    2    0    0  0.35581435116E+03 -0.23426048152E+02  0.67355801272E+03  0.76742491201E+03  0.90044249375E+02 0.  0.
        -11    1    3    3    0    0 -0.29314008156E+03  0.40517920003E+02  0.60554652650E+02  0.30205905915E+03  0.00000000000E+00 0.  1.
         12    1    3    3    0    0 -0.41469406239E+02  0.82207002179E+01  0.44200881810E+02  0.61163792546E+02  0.00000000000E+00 0. -1.
        -13    1    4    4    0    0  0.44669644033E+02  0.27500883256E+02  0.99913151381E+02  0.11284641552E+03  0.00000000000E+00 0.  1.
         13    1    4    4    0    0  0.31114470712E+03 -0.50926931408E+02  0.57364486134E+03  0.65457849648E+03  0.00000000000E+00 0. -1.
         21    1    1    2  502  501 -0.21204863359E+02 -0.25312572070E+02  0.77865037410E+02  0.84577399971E+02  0.00000000000E+00 0. -1.
<scales pt_clust_5="13000.00000" pt_clust_6="13000.00000" pt_clust_7="13000.00000" pt_clust_8="13000.00000" pt_clust_9="33.02079"></scales>
<clustering>
<clus scale="   33.021">  1  9  2 -1</clus>
<clus scale="   81.352">  5  6 -1 -1</clus>
<clus scale="   90.044">  7  8 -1 -1</clus>
<clus scale="  351.989">  2  5  1 -1</clus>
<clus scale="   33.021">  1  5  2 -1</clus>
</clustering>
</event>
<event>
 9    2  0.2984928E-005  0.1600277E+03  0.7546771E-02  0.1190994E+00
         -3   -1    0    0    0  501 -0.00000000000E+00  0.00000000000E+00  0.74446616827E+02  0.74446616827E+02  0.00000000000E+00 0.  1.
          4   -1    0    0  502    0  0.00000000000E+00 -0.00000000000E+00 -0.73303999876E+03  0.73303999876E+03  0.00000000000E+00 0. -1.
         24    2    1    2    0    0 -0.12002680928E+03  0.35165209713E+02 -0.34446518232E+02  0.15364769640E+03  0.82328762108E+02 0.  0.
         23    2    1    2    0    0  0.14083025551E+03 -0.32597125282E+02 -0.56369538081E+03  0.58985641989E+03  0.96345110386E+02 0.  0.
        -13    1    3    3    0    0 -0.90811699504E+02  0.16371422789E+02  0.14725217798E+02  0.93443139342E+02  0.00000000000E+00 0.  1.
         14    1    3    3    0    0 -0.29215109777E+02  0.18793786924E+02 -0.49171736030E+02  0.60204557057E+02  0.00000000000E+00 0. -1.
        -11    1    4    4    0    0  0.57825269925E+02 -0.62264198009E+02 -0.30114330126E+03  0.31290234913E+03  0.00000000000E+00 0. -1.
         11    1    4    4    0    0  0.83004985584E+02  0.29667072727E+02 -0.26255207955E+03  0.27695407076E+03  0.00000000000E+00 0.  1.
         21    1    1    2  502  501 -0.20803446229E+02 -0.25680844304E+01 -0.60451482889E+02  0.63982499296E+02  0.00000000000E+00 0. -1.
<scales pt_clust_5="13000.00000" pt_clust_6="13000.00000" pt_clust_7="13000.00000" pt_clust_8="13000.00000" pt_clust_9="20.96136"></scales>
<clustering>
<clus scale="   20.961">  2  9  1 -1</clus>
<clus scale="   82.329">  5  6 -1 -1</clus>
<clus scale="   96.345">  7  8 -1 -1</clus>
<clus scale="  152.002">  1  5  2 -1</clus>
<clus scale="   20.961">  2  5  1 -1</clus>
</clustering>
</event>
<event>
 9    2  0.2984928E-005  0.9848681E+02  0.7546771E-02  0.1289580E+00
         -3   -1    0    0    0  501 -0.00000000000E+00  0.00000000000E+00  0.17670418359E+03  0.17670418359E+03  0.00000000000E+00 0.  1.
          4   -1    0    0  502    0  0.00000000000E+00 -0.00000000000E+00 -0.21447657066E+03  0.21447657066E+03  0.00000000000E+00 0. -1.
         24    2    1    2    0    0  0.36169111122E+02  0.91220374643E+01  0.14353511274E+03  0.16858816457E+03  0.80176208924E+02 0.  0.
         23    2    1    2    0    0 -0.16672503065E+02  0.44776442244E+01 -0.17446696272E+03  0.19785674492E+03  0.91709044128E+02 0.  0.
        -13    1    3    3    0    0  0.17271148066E+02  0.44787586696E+02  0.74780478945E+02  0.88861355543E+02  0.00000000000E+00 0.  1.
         14    1    3    3    0    0  0.18897963056E+02 -0.35665549232E+02  0.68754633792E+02  0.79726809027E+02  0.00000000000E+00 0. -1.
        -11    1    4    4    0    0  0.27196031396E+02 -0.20908976461E+02 -0.11351155831E+03  0.11858196866E+03  0.00000000000E+00 0.  1.
         11    1    4    4    0    0 -0.43868534460E+02  0.25386620685E+02 -0.60955404410E+02  0.79274776267E+02  0.00000000000E+00 0. -1.
         21    1    1    2  502  501 -0.19496608058E+02 -0.13599681689E+02 -0.68405370871E+01  0.24735844749E+02  0.00000000000E+00 0. -1.
<scales pt_clust_5="13000.00000" pt_clust_6="13000.00000" pt_clust_7="13000.00000" pt_clust_8="13000.00000" pt_clust_9="23.77118"></scales>
<clustering>
<clus scale="   23.771">  2  9  1 -1</clus>
<clus scale="   80.176">  5  6 -1 -1</clus>
<clus scale="   87.848">  1  5  2 -1</clus>
<clus scale="   91.709">  7  8 -1 -1</clus>
<clus scale="   23.771">  2  5  1 -1</clus>
</clustering>
</event>
<event>
 9    2  0.2984928E-005  0.1104615E+03  0.7546771E-02  0.1263693E+00
         -1   -1    0    0    0  501 -0.00000000000E+00  0.00000000000E+00  0.46434506486E+02  0.46434506486E+02  0.00000000000E+00 0.  1.
          2   -1    0    0  502    0  0.00000000000E+00 -0.00000000000E+00 -0.38147981771E+03  0.38147981771E+03  0.00000000000E+00 0. -1.
         23    2    1    2    0    0  0.45477723719E+02 -0.53038719975E+02 -0.61560371641E+02  0.12986600885E+03  0.90521664401E+02 0.  0.
         24    2    1    2    0    0 -0.24377350739E+02  0.42926843267E+02 -0.20306630217E+03  0.22384413565E+03  0.80207885422E+02 0.  0.
        -11    1    4    4    0    0 -0.24483044161E+02 -0.77059603194E+01 -0.16462253194E+02  0.30492737759E+02  0.00000000000E+00 0.  1.
         12    1    4    4    0    0  0.10569342241E+00  0.50632803586E+02 -0.18660404898E+03  0.19335139789E+03  0.00000000000E+00 0. -1.
        -11    1    3    3    0    0  0.84564990576E+01 -0.64507501937E+02 -0.63697696909E+02  0.91050133300E+02  0.00000000000E+00 0.  1.
         11    1    3    3    0    0  0.37021224662E+02  0.11468781962E+02  0.21373252677E+01  0.38815875547E+02  0.00000000000E+00 0. -1.
         21    1    1    2  502  501 -0.21100372981E+02  0.10111876708E+02 -0.70418637413E+02  0.74204179704E+02  0.00000000000E+00 0. -1.
<scales pt_clust_5="13000.00000" pt_clust_6="13000.00000" pt_clust_7="13000.00000" pt_clust_8="13000.00000" pt_clust_9="23.39820"></scales>
<clustering>
<clus scale="   23.398">  2  9  1 -1</clus>
<clus scale="   80.208">  5  6 -1 -1</clus>
<clus scale="   90.522">  7  8 -1 -1</clus>
<clus scale="  102.181">  2  5  1 -1</clus>
<clus scale="   23.398">  2  5  1 -1</clus>
</clustering>
</event>
<event>
 9    2  0.2984928E-005  0.1526887E+03  0.7546771E-02  0.1199320E+00
         -1   -1    0    0    0  501 -0.00000000000E+00  0.00000000000E+00  0.25693094039E+03  0.25693094039E+03  0.00000000000E+00 0.  1.
          2   -1    0    0  502    0  0.00000000000E+00 -0.00000000000E+00 -0.34530823431E+03  0.34530823431E+03  0.00000000000E+00 0. -1.
         24    2    1    2    0    0 -0.72653467582E+02  0.10174778522E+03  0.20899201868E+03  0.25613858230E+03  0.79361018891E+02 0.  0.
         23    2    1    2    0    0  0.53860403076E+02 -0.71130432501E+02 -0.27646880216E+03  0.30453819474E+03  0.91367565614E+02 0.  0.
        -13    1    3    3    0    0 -0.75020361640E+02  0.10864120333E+03  0.21070505383E+03  0.24865153414E+03  0.00000000000E+00 0.  1.
         14    1    3    3    0    0  0.23668940582E+01 -0.68934181061E+01 -0.17130351487E+01  0.74870481559E+01  0.00000000000E+00 0. -1.
        -11    1    4    4    0    0  0.76752032272E+02 -0.34009037031E+02 -0.17500715504E+03  0.19410047236E+03  0.00000000000E+00 0. -1.
         11    1    4    4    0    0 -0.22891629196E+02 -0.37121395470E+02 -0.10146164712E+03  0.11043772238E+03  0.00000000000E+00 0.  1.
         21    1    1    2  502  501  0.18793064506E+02 -0.30617352723E+02 -0.20900510447E+02  0.41562397648E+02  0.00000000000E+00 0. -1.
<scales pt_clust_5="13000.00000" pt_clust_6="13000.00000" pt_clust_7="13000.00000" pt_clust_8="13000.00000" pt_clust_9="35.92494"></scales>
<clustering>
<clus scale="   35.925">  2  9  1 -1</clus>
<clus scale="   79.361">  5  6 -1 -1</clus>
<clus scale="   91.368">  7  8 -1 -1</clus>
<clus scale="  145.822">  1  5  2 -1</clus>
<clus scale="   35.925">  2  5  1 -1</clus>
</clustering>
</event>
<event>
 9    2  0.2984928E-005  0.1247745E+03  0.7546771E-02  0.1238691E+00
          2   -1    0    0  502    0  0.00000000000E+00  0.00000000000E+00  0.29494598979E+03  0.29494598979E+03  0.00000000000E+00 0. -1.
         -1   -1    0    0    0  501 -0.00000000000E+00 -0.00000000000E+00 -0.14608001577E+03  0.14608001577E+03  0.00000000000E+00 0.  1.
         24    2    1    2    0    0  0.60010266594E+02 -0.29139596130E+02 -0.99651655378E+02  0.14477286632E+03  0.81107226831E+02 0.  0.
         23    2    1    2    0    0 -0.70716396609E+02  0.49331594730E+02  0.24116210522E+03  0.27224393761E+03  0.92321100406E+02 0.  0.
        -11    1    3    3    0    0  0.29664809151E+02 -0.45930546614E+02 -0.95230499891E+02  0.10981103826E+03  0.00000000000E+00 0.  1.
         12    1    3    3    0    0  0.30345457444E+02  0.16790950484E+02 -0.44211554871E+01  0.34961828062E+02  0.00000000000E+00 0. -1.
        -13    1    4    4    0    0 -0.77417856732E+01  0.59355132640E+02  0.88958765620E+02  0.10722233441E+03  0.00000000000E+00 0.  1.
         13    1    4    4    0    0 -0.62974610936E+02 -0.10023537910E+02  0.15220333960E+03  0.16502160320E+03  0.00000000000E+00 0. -1.
         21    1    1    2  502  501  0.10706130014E+02 -0.20191998600E+02  0.73555241713E+01  0.24009201636E+02  0.00000000000E+00 0.  1.
<scales pt_clust_5="13000.00000" pt_clust_6="13000.00000" pt_clust_7="13000.00000" pt_clust_8="13000.00000" pt_clust_9="22.85472"></scales>
<clustering>
<clus scale="   22.855">  2  9  1 -1</clus>
<clus scale="   81.107">  5  6 -1 -1</clus>
<clus scale="   92.321">  7  8 -1 -1</clus>
<clus scale="  116.721">  2  5  1 -1</clus>
<clus scale="  124.774">  1  5  2 -1</clus>
</clustering>
</event>
<event>
 9    2  0.2984928E-005  0.1126919E+03  0.7546771E-02  0.1264906E+00
          2   -1    0    0  502    0  0.00000000000E+00  0.00000000000E+00  0.21091408395E+03  0.21091408395E+03  0.00000000000E+00 0. -1.
         -1   -1    0    0    0  501 -0.00000000000E+00 -0.00000000000E+00 -0.12921453110E+03  0.12921453110E+03  0.00000000000E+00 0.  1.
         24    2    1    2    0    0  0.46541627928E+02  0.17265370949E+02 -0.74971675385E+02  0.12077855244E+03  0.80638021153E+02 0.  0.
         23    2    1    2    0    0 -0.30292127187E+02 -0.35952974440E+02  0.77327873260E+02  0.13623182889E+03  0.10182967092E+03 0.  0.
        -11    1    3    3    0    0  0.52857857428E+02 -0.94615206612E+01 -0.76279078155E+02  0.93284356831E+02  0.00000000000E+00 0.  1.
         12    1    3    3    0    0 -0.63162294998E+01  0.26726891610E+02  0.13074027701E+01  0.27494195610E+02  0.00000000000E+00 0. -1.
        -11    1    4    4    0    0  0.19415319204E+02  0.24101896034E+02  0.81456476502E+01  0.32003243396E+02  0.00000000000E+00 0.  1.
         11    1    4    4    0    0 -0.49707446391E+02 -0.60054870474E+02  0.69182225610E+02  0.10422858550E+03  0.00000000000E+00 0. -1.
         21    1    1    2  502  501 -0.16249500741E+02  0.18687603491E+02  0.79343354968E+02  0.83118233716E+02  0.00000000000E+00 0. -1.
<scales pt_clust_5="13000.00000" pt_clust_6="13000.00000" pt_clust_7="13000.00000" pt_clust_8="13000.00000" pt_clust_9="24.76435"></scales>
<clustering>
<clus scale="   24.764">  1  9  2 -1</clus>
<clus scale="   80.638">  5  6 -1 -1</clus>
<clus scale="   93.982">  2  5  1 -1</clus>
<clus scale="  101.830">  7  8 -1 -1</clus>
<clus scale="   24.764">  1  5  2 -1</clus>
</clustering>
</event>
<event>
 9    2  0.2984928E-005  0.1410690E+03  0.7546771E-02  0.1214325E+00
          4   -1    0    0  502    0  0.00000000000E+00  0.00000000000E+00  0.30333962521E+03  0.30333962521E+03  0.00000000000E+00 0. -1.
         -3   -1    0    0    0  501 -0.00000000000E+00 -0.00000000000E+00 -0.19811601681E+03  0.19811601681E+03  0.00000000000E+00 0.  1.
         23    2    1    2    0    0  0.10046199933E+03 -0.29007435449E+02 -0.14045624232E+03  0.19809746085E+03  0.92631546295E+02 0.  0.
         24    2    1    2    0    0 -0.11969257492E+03  0.13105595093E+02  0.17000115521E+03  0.22367161695E+03  0.81428068520E+02 0.  0.
        -13    1    4    4    0    0 -0.10866856258E+03 -0.13002258931E+02  0.10039058311E+03  0.14851324658E+03  0.00000000000E+00 0.  1.
         14    1    4    4    0    0 -0.11024012341E+02  0.26107854024E+02  0.69610572096E+02  0.75158370375E+02  0.00000000000E+00 0. -1.
        -11    1    3    3    0    0  0.52407949025E+02  0.22744061500E+02 -0.10391027610E+03  0.11858006128E+03  0.00000000000E+00 0. -1.
         11    1    3    3    0    0  0.48054050302E+02 -0.51751496950E+02 -0.36545966213E+02  0.79517399564E+02  0.00000000000E+00 0.  1.
         21    1    1    2  502  501  0.19230575597E+02  0.15901840357E+02  0.75678695500E+02  0.79686564220E+02  0.00000000000E+00 0. -1.
<scales pt_clust_5="13000.00000" pt_clust_6="13000.00000" pt_clust_7="13000.00000" pt_clust_8="13000.00000" pt_clust_9="24.95363"></scales>
<clustering>
<clus scale="   24.954">  1  9  2 -1</clus>
<clus scale="   81.428">  5  6 -1 -1</clus>
<clus scale="   92.632">  7  8 -1 -1</clus>
<clus scale="  133.979">  1  5  2 -1</clus>
<clus scale="   24.954">  1  5  2 -1</clus>
</clustering>
</event>
<event>
 9    2  0.2984928E-005  0.4186361E+03  0.7546771E-02  0.1037511E+00
          2   -1    0    0  502    0  0.00000000000E+00  0.00000000000E+00  0.13058973440E+04  0.13058973440E+04  0.00000000000E+00 0. -1.
         -1   -1    0    0    0  501 -0.00000000000E+00 -0.00000000000E+00 -0.21780455418E+03  0.21780455418E+03  0.00000000000E+00 0.  1.
         24    2    1    2    0    0 -0.36110088459E+02  0.25782938766E+03 -0.39251273037E+02  0.27498943633E+03  0.79363694646E+02 0.  0.
         23    2    1    2    0    0 -0.16668082101E+02  0.80059143401E+02  0.78453348185E+02  0.14547815944E+03  0.91223218696E+02 0.  0.
        -11    1    3    3    0    0 -0.58107133531E+02  0.12947725538E+03 -0.18362287999E+02  0.14310126571E+03  0.00000000000E+00 0.  1.
         12    1    3    3    0    0  0.21997045072E+02  0.12835213228E+03 -0.20888985038E+02  0.13188817062E+03  0.00000000000E+00 0. -1.
        -13    1    4    4    0    0  0.17445342960E+02  0.47559474571E+02 -0.36783400801E+01  0.50791473677E+02  0.00000000000E+00 0.  1.
         13    1    4    4    0    0 -0.34113425061E+02  0.32499668830E+02  0.82131688265E+02  0.94686685762E+02  0.00000000000E+00 0. -1.
         21    1    1    2  502  501  0.52778170560E+02 -0.33788853106E+03  0.10488907147E+04  0.11032343024E+04  0.00000000000E+00 0. -1.
<scales pt_clust_5="13000.00000" pt_clust_6="13000.00000" pt_clust_7="13000.00000" pt_clust_8="13000.00000" pt_clust_9="341.98566"></scales>
<clustering>
<clus scale="   79.364">  5  6 -1 -1</clus>
<clus scale="   91.223">  7  8 -1 -1</clus>
<clus scale="  105.899">  5  7 -1 -1</clus>
<clus scale="  341.986">  1  9  2 -1</clus>
<clus scale="  341.986">  1  5  2 -1</clus>
</clustering>
</event>
<event>
 9    2  0.2984928E-005  0.1267294E+03  0.7546771E-02  0.1233324E+00
         -1   -1    0    0    0  501 -0.00000000000E+00  0.00000000000E+00  0.14730164486E+03  0.14730164486E+03  0.00000000000E+00 0.  1.
          2   -1    0    0  502    0  0.00000000000E+00 -0.00000000000E+00 -0.74306358045E+03  0.74306358045E+03  0.00000000000E+00 0. -1.
         23    2    1    2    0    0 -0.56391069679E+01 -0.90759141137E+02  0.90527713232E+02  0.15778914248E+03  0.91832049931E+02 0.  0.
         24    2    1    2    0    0 -0.72066261149E+02  0.29565457051E+02 -0.55943004280E+03  0.57171542621E+03  0.88481034900E+02 0.  0.
        -13    1    4    4    0    0 -0.26619605518E+02  0.56265758639E+02 -0.36489747192E+03  0.37016834550E+03  0.00000000000E+00 0.  1.
         14    1    4    4    0    0 -0.45446655631E+02 -0.26700301588E+02 -0.19453257088E+03  0.20154708071E+03  0.00000000000E+00 0. -1.
        -13    1    3    3    0    0 -0.31568852887E+02 -0.14822862412E+02 -0.24651756909E+01  0.34962648839E+02  0.00000000000E+00 0. -1.
         13    1    3    3    0    0  0.25929745919E+02 -0.75936278725E+02  0.92992888923E+02  0.12282649364E+03  0.00000000000E+00 0.  1.
         21    1    1    2  502  501  0.77705368117E+02  0.61193684086E+02 -0.12685960602E+03  0.16086065662E+03  0.00000000000E+00 0.  1.
<scales pt_clust_5="13000.00000" pt_clust_6="13000.00000" pt_clust_7="13000.00000" pt_clust_8="13000.00000" pt_clust_9="98.90799"></scales>
<clustering>
<clus scale="   88.481">  5  6 -1 -1</clus>
<clus scale="   91.832">  7  8 -1 -1</clus>
<clus scale="   98.908">  2  9  1 -1</clus>
<clus scale="  124.323">  2  5  1 -1</clus>
<clus scale="   98.908">  2  5  1 -1</clus>
</clustering>
</event>
<event>
 9    2  0.2984928E-005  0.2562192E+03  0.7546771E-02  0.1124924E+00
          2   -1    0    0  502    0  0.00000000000E+00  0.00000000000E+00  0.10820286379E+03  0.10820286379E+03  0.00000000000E+00 0. -1.
         -1   -1    0    0    0  501 -0.00000000000E+00 -0.00000000000E+00 -0.15075928652E+04  0.15075928652E+04  0.00000000000E+00 0.  1.
         23    2    1    2    0    0 -0.14283558100E+03 -0.35142925120E+02 -0.74604961149E+03  0.76597799402E+03  0.92169605202E+02 0.  0.
         24    2    1    2    0    0 -0.10545442874E+03  0.16154638992E+03 -0.47493261588E+03  0.51897774542E+03  0.80987887851E+02 0.  0.
        -11    1    4    4    0    0 -0.11156861739E+03  0.16666655605E+03 -0.44708079350E+03  0.49000666649E+03  0.00000000000E+00 0.  1.
         12    1    4    4    0    0  0.61141886564E+01 -0.51201661329E+01 -0.27851822387E+02  0.28971078931E+02  0.00000000000E+00 0. -1.
        -11    1    3    3    0    0 -0.12032595711E+03 -0.37869913706E+02 -0.72195363106E+03  0.73289120047E+03  0.00000000000E+00 0.  1.
         11    1    3    3    0    0 -0.22509623891E+02  0.27269885864E+01 -0.24095980431E+02  0.33086793550E+02  0.00000000000E+00 0. -1.
         21    1    1    2  502  501  0.24829000974E+03 -0.12640346480E+03 -0.17840777404E+03  0.33083998955E+03  0.00000000000E+00 0. -1.
<scales pt_clust_5="13000.00000" pt_clust_6="13000.00000" pt_clust_7="13000.00000" pt_clust_8="13000.00000" pt_clust_9="243.08283"></scales>
<clustering>
<clus scale="   80.988">  5  6 -1 -1</clus>
<clus scale="   92.170">  7  8 -1 -1</clus>
<clus scale="  173.586">  2  7  1 -1</clus>
<clus scale="  243.083">  1  9  2 -1</clus>
<clus scale="  243.083">  1  5  2 -1</clus>
</clustering>
</event>
<event>
 9    2  0.2984928E-005  0.1230593E+03  0.7546771E-02  0.1241524E+00
          2   -1    0    0  502    0  0.00000000000E+00  0.00000000000E+00  0.34866238118E+03  0.34866238118E+03  0.00000000000E+00 0. -1.
         -1   -1    0    0    0  501 -0.00000000000E+00 -0.00000000000E+00 -0.23194684611E+03  0.23194684611E+03  0.00000000000E+00 0.  1.
         24    2    1    2    0    0 -0.59072804309E+02 -0.59971960443E+02 -0.19826037791E+03  0.22995014995E+03  0.80521188276E+02 0.  0.
         23    2    1    2    0    0  0.37358057606E+02  0.43088600183E+02  0.15892130351E+03  0.19219892710E+03  0.91826983699E+02 0.  0.
        -13    1    3    3    0    0 -0.59969002705E+02 -0.87756579773E+01 -0.13896114863E+03  0.15160308139E+03  0.00000000000E+00 0.  1.
         14    1    3    3    0    0  0.89619839549E+00 -0.51196302466E+02 -0.59299229286E+02  0.78347068558E+02  0.00000000000E+00 0. -1.
        -13    1    4    4    0    0  0.15841046384E+01  0.46781871102E+02  0.14705921621E+03  0.15432908321E+03  0.00000000000E+00 0. -1.
         13    1    4    4    0    0  0.35773952967E+02 -0.36932709188E+01  0.11862087292E+02  0.37869843886E+02  0.00000000000E+00 0.  1.
         21    1    1    2  502  501  0.21714746704E+02  0.16883360260E+02  0.15605460948E+03  0.15846015025E+03  0.00000000000E+00 0. -1.
<scales pt_clust_5="13000.00000" pt_clust_6="13000.00000" pt_clust_7="13000.00000" pt_clust_8="13000.00000" pt_clust_9="27.50596"></scales>
<clustering>
<clus scale="   27.506">  1  9  2 -1</clus>
<clus scale="   80.521">  5  6 -1 -1</clus>
<clus scale="   91.827">  7  8 -1 -1</clus>
<clus scale="  114.870">  2  5  1 -1</clus>
<clus scale="   27.506">  1  5  2 -1</clus>
</clustering>
</event>
<event>
 9    2  0.2984928E-005  0.1165083E+03  0.7546771E-02  0.1253682E+00
         -1   -1    0    0    0  501 -0.00000000000E+00  0.00000000000E+00  0.23319005235E+02  0.23319005235E+02  0.00000000000E+00 0.  1.
          2   -1    0    0  502    0  0.00000000000E+00 -0.00000000000E+00 -0.10130571773E+04  0.10130571773E+04  0.00000000000E+00 0. -1.
         23    2    1    2    0    0  0.85455191690E+02  0.23939353070E+01 -0.21134654235E+03  0.24611421058E+03  0.92717436178E+02 0.  0.
         24    2    1    2    0    0 -0.38675305132E+02  0.74910821069E+01 -0.48506454144E+03  0.49306363403E+03  0.79197489199E+02 0.  0.
        -11    1    4    4    0    0 -0.93253357932E+01 -0.35138007165E+02 -0.17907805477E+03  0.18273092550E+03  0.00000000000E+00 0.  1.
         12    1    4    4    0    0 -0.29349969339E+02  0.42629089272E+02 -0.30598648668E+03  0.31033270853E+03  0.00000000000E+00 0. -1.
        -13    1    3    3    0    0  0.49901899667E+02  0.30573587936E+02 -0.45371642824E+02  0.74050859835E+02  0.00000000000E+00 0.  1.
         13    1    3    3    0    0  0.35553292022E+02 -0.28179652629E+02 -0.16597489953E+03  0.17206335074E+03  0.00000000000E+00 0. -1.
         21    1    1    2  502  501 -0.46779886557E+02 -0.98850174138E+01 -0.29332708830E+03  0.29719833796E+03  0.00000000000E+00 0.  1.
<scales pt_clust_5="13000.00000" pt_clust_6="13000.00000" pt_clust_7="13000.00000" pt_clust_8="13000.00000" pt_clust_9="47.81288"></scales>
<clustering>
<clus scale="   47.813">  2  9  1 -1</clus>
<clus scale="   79.197">  5  6 -1 -1</clus>
<clus scale="   92.717">  7  8 -1 -1</clus>
<clus scale="  106.066">  2  5  1 -1</clus>
<clus scale="   47.813">  2  5  1 -1</clus>
</clustering>
</event>
<event>
 9    2  0.2984928E-005  0.1105011E+03  0.7546771E-02  0.1265797E+00
         -1   -1    0    0    0  501 -0.00000000000E+00  0.00000000000E+00  0.12003132663E+02  0.12003132663E+02  0.00000000000E+00 0.  1.
          2   -1    0    0  502    0  0.00000000000E+00 -0.00000000000E+00 -0.14153694889E+04  0.14153694889E+04  0.00000000000E+00 0. -1.
         23    2    1    2    0    0  0.39295064175E+02  0.40880369115E+02 -0.42523086069E+03  0.43938603657E+03  0.94992092285E+02 0.  0.
         24    2    1    2    0    0 -0.61703937168E+02 -0.12726937993E+02 -0.77793341462E+03  0.78457653982E+03  0.80066212842E+02 0.  0.
        -13    1    4    4    0    0 -0.43212071908E+02  0.22094900171E+01 -0.14801087139E+03  0.15420565183E+03  0.00000000000E+00 0.  1.
         14    1    4    4    0    0 -0.18491865260E+02 -0.14936428010E+02 -0.62992254322E+03  0.63037088799E+03  0.00000000000E+00 0. -1.
        -13    1    3    3    0    0  0.53457846834E+02 -0.12639403932E+02 -0.19469709350E+03  0.20229793409E+03  0.00000000000E+00 0. -1.
         13    1    3    3    0    0 -0.14162782659E+02  0.53519773047E+02 -0.23053376719E+03  0.23708810248E+03  0.00000000000E+00 0.  1.
         21    1    1    2  502  501  0.22408872994E+02 -0.28153431122E+02 -0.20020208089E+03  0.20341004514E+03  0.00000000000E+00 0. -1.
<scales pt_clust_5="13000.00000" pt_clust_6="13000.00000" pt_clust_7="13000.00000" pt_clust_8="13000.00000" pt_clust_9="35.98296"></scales>
<clustering>
<clus scale="   35.983">  2  9  1 -1</clus>
<clus scale="   80.066">  5  6 -1 -1</clus>
<clus scale="   94.992">  7  8 -1 -1</clus>
<clus scale="   97.967">  2  5  1 -1</clus>
<clus scale="   35.983">  2  5  1 -1</clus>
</clustering>
</event>
<event>
 9    2  0.2984928E-005  0.1299688E+03  0.7546771E-02  0.1230377E+00
          2   -1    0    0  502    0  0.00000000000E+00  0.00000000000E+00  0.27678647958E+03  0.27678647958E+03  0.00000000000E+00 0. -1.
         -1   -1    0    0    0  501 -0.00000000000E+00 -0.00000000000E+00 -0.20111406104E+03  0.20111406104E+03  0.00000000000E+00 0.  1.
         23    2    1    2    0    0 -0.83066685686E+02  0.38722743894E+02 -0.15583602758E+03  0.20281934757E+03  0.91930925663E+02 0.  0.
         24    2    1    2    0    0  0.93501399677E+02 -0.21646613214E+02  0.21565716109E+03  0.24955197975E+03  0.80975872081E+02 0.  0.
        -13    1    4    4    0    0  0.24295335344E+01 -0.30123842463E+02  0.83748146721E+02  0.89034266421E+02  0.00000000000E+00 0.  1.
         14    1    4    4    0    0  0.91071866142E+02  0.84772292490E+01  0.13190901437E+03  0.16051771332E+03  0.00000000000E+00 0. -1.
        -11    1    3    3    0    0 -0.51504000553E+02  0.62405495670E+02 -0.65020894276E+02  0.10380185285E+03  0.00000000000E+00 0.  1.
         11    1    3    3    0    0 -0.31562685133E+02 -0.23682751776E+02 -0.90815133302E+02  0.99017494723E+02  0.00000000000E+00 0. -1.
         21    1    1    2  502  501 -0.10434713991E+02 -0.17076130680E+02  0.15851285019E+02  0.25529213302E+02  0.00000000000E+00 0.  1.
<scales pt_clust_5="13000.00000" pt_clust_6="13000.00000" pt_clust_7="13000.00000" pt_clust_8="13000.00000" pt_clust_9="20.01193"></scales>
<clustering>
<clus scale="   20.012">  1  9  2 -1</clus>
<clus scale="   80.976">  5  6 -1 -1</clus>
<clus scale="   91.931">  7  8 -1 -1</clus>
<clus scale="  122.465">  1  5  2 -1</clus>
<clus scale="   20.012">  1  5  2 -1</clus>
</clustering>
</event>
<event>
 9    2  0.2984928E-005  0.8802791E+02  0.7546771E-02  0.1312414E+00
         -3   -1    0    0    0  501 -0.00000000000E+00  0.00000000000E+00  0.27692704675E+03  0.27692704675E+03  0.00000000000E+00 0.  1.
          4   -1    0    0  502    0  0.00000000000E+00 -0.00000000000E+00 -0.67891497213E+02  0.67891497213E+02  0.00000000000E+00 0. -1.
         24    2    1    2    0    0  0.11667496144E+01  0.89888384711E+01  0.20887473535E+03  0.22402832504E+03  0.80485246063E+02 0.  0.
         23    2    1    2    0    0  0.23249645701E+02  0.64773400148E+01 -0.61812688060E+01  0.91199932442E+02  0.87730938867E+02 0.  0.
        -13    1    3    3    0    0  0.38734294563E+02 -0.83173132371E+01  0.10432396730E+03  0.11159307070E+03  0.00000000000E+00 0.  1.
         14    1    3    3    0    0 -0.37567544948E+02  0.17306151708E+02  0.10455076805E+03  0.11243525435E+03  0.00000000000E+00 0. -1.
        -11    1    4    4    0    0 -0.28121654259E+02  0.23204529033E+02 -0.72043819101E+01  0.37164239863E+02  0.00000000000E+00 0. -1.
         11    1    4    4    0    0  0.51371299960E+02 -0.16727189018E+02  0.10231131041E+01  0.54035692579E+02  0.00000000000E+00 0.  1.
         21    1    1    2  502  501 -0.24416395316E+02 -0.15466178486E+02  0.63420829965E+01  0.29590286479E+02  0.00000000000E+00 0. -1.
<scales pt_clust_5="13000.00000" pt_clust_6="13000.00000" pt_clust_7="13000.00000" pt_clust_8="13000.00000" pt_clust_9="28.90265"></scales>
<clustering>
<clus scale="   28.903">  2  9  1 -1</clus>
<clus scale="   80.485">  5  6 -1 -1</clus>
<clus scale="   80.809">  1  5  2 -1</clus>
<clus scale="   87.731">  7  8 -1 -1</clus>
<clus scale="   28.903">  2  5  1 -1</clus>
</clustering>
</event>
<event>
 9    2  0.2984928E-005  0.3251417E+03  0.7546771E-02  0.1073307E+00
          2   -1    0    0  502    0  0.00000000000E+00  0.00000000000E+00  0.48761299779E+03  0.48761299779E+03  0.00000000000E+00 0. -1.
         -1   -1    0    0    0  501 -0.00000000000E+00 -0.00000000000E+00 -0.18053307867E+03  0.18053307867E+03  0.00000000000E+00 0.  1.
         24    2    1    2    0    0  0.98549615881E+02 -0.86212588921E+02  0.17592939709E+03  0.23362197717E+03  0.80519799923E+02 0.  0.
         23    2    1    2    0    0  0.72439935216E+02 -0.10533173927E+03  0.59960452106E+02  0.16807582607E+03  0.91169665893E+02 0.  0.
        -11    1    3    3    0    0  0.45601807726E+02 -0.32076359549E+01  0.21595966673E+02  0.50558872345E+02  0.00000000000E+00 0.  1.
         12    1    3    3    0    0  0.52947808155E+02 -0.83004952966E+02  0.15433343041E+03  0.18306310483E+03  0.00000000000E+00 0. -1.
        -13    1    4    4    0    0 -0.21936667991E+02 -0.17256124278E+02  0.97424667719E+01  0.29561916150E+02  0.00000000000E+00 0.  1.
         13    1    4    4    0    0  0.94376603207E+02 -0.88075614995E+02  0.50217985334E+02  0.13851390992E+03  0.00000000000E+00 0. -1.
         21    1    1    2  502  501 -0.17098955110E+03  0.19154432819E+03  0.71190069928E+02  0.26644827322E+03  0.00000000000E+00 0.  1.
<scales pt_clust_5="13000.00000" pt_clust_6="13000.00000" pt_clust_7="13000.00000" pt_clust_8="13000.00000" pt_clust_9="256.76187"></scales>
<clustering>
<clus scale="   80.520">  5  6 -1 -1</clus>
<clus scale="   91.170">  7  8 -1 -1</clus>
<clus scale="  133.990">  5  7 -1 -1</clus>
<clus scale="  256.762">  2  9  1 -1</clus>
<clus scale="  325.142">  1  5  2 -1</clus>
</clustering>
</event>
<event>
 9    2  0.2984928E-005  0.1237748E+03  0.7546771E-02  0.1240380E+00
         -1   -1    0    0    0  501 -0.00000000000E+00  0.00000000000E+00  0.13378557405E+03  0.13378557405E+03  0.00000000000E+00 0.  1.
          2   -1    0    0  502    0  0.00000000000E+00 -0.00000000000E+00 -0.23784761749E+03  0.23784761749E+03  0.00000000000E+00 0. -1.
         24    2    1    2    0    0 -0.25268256815E+02 -0.79897876998E+02  0.73814559449E+02  0.13731239762E+03  0.79899623291E+02 0.  0.
         23    2    1    2    0    0 -0.61115324122E+00  0.85204982941E+02 -0.13498831803E+03  0.18394903382E+03  0.91406446219E+02 0.  0.
        -13    1    3    3    0    0 -0.20652372458E+01 -0.65877729573E+02  0.85361518286E+02  0.10784585881E+03  0.00000000000E+00 0.  1.
         14    1    3    3    0    0 -0.23203019569E+02 -0.14020147426E+02 -0.11546958837E+02  0.29466538808E+02  0.00000000000E+00 0. -1.
        -11    1    4    4    0    0  0.38028702036E+02  0.24425493913E+02 -0.85031184858E+02  0.96296881205E+02  0.00000000000E+00 0.  1.
         11    1    4    4    0    0 -0.38639855278E+02  0.60779489028E+02 -0.49957133177E+02  0.87652152613E+02  0.00000000000E+00 0. -1.
         21    1    1    2  502  501  0.25879410056E+02 -0.53071059425E+01 -0.42888284857E+02  0.50371760107E+02  0.00000000000E+00 0.  1.
<scales pt_clust_5="13000.00000" pt_clust_6="13000.00000" pt_clust_7="13000.00000" pt_clust_8="13000.00000" pt_clust_9="26.41797"></scales>
<clustering>
<clus scale="   26.418">  2  9  1 -1</clus>
<clus scale="   79.900">  5  6 -1 -1</clus>
<clus scale="   91.406">  7  8 -1 -1</clus>
<clus scale="  115.538">  1  5  2 -1</clus>
<clus scale="   26.418">  2  5  1 -1</clus>
</clustering>
</event>
<event>
 9    2  0.2984928E-005  0.1880553E+03  0.7546771E-02  0.1161233E+00
          2   -1    0    0  502    0  0.00000000000E+00  0.00000000000E+00  0.60469327115E+03  0.60469327115E+03  0.00000000000E+00 0. -1.
         -1   -1    0    0    0  501 -0.00000000000E+00 -0.00000000000E+00 -0.18539280582E+03  0.18539280582E+03  0.00000000000E+00 0.  1.
         24    2    1    2    0    0  0.15247066354E+03  0.70208039726E+02 -0.10934064973E+03  0.21577540741E+03  0.80169674303E+02 0.  0.
         23    2    1    2    0    0 -0.11571830381E+03 -0.84961054672E+02  0.49219998937E+03  0.52049298625E+03  0.89682844248E+02 0.  0.
        -13    1    3    3    0    0  0.60441275665E+02  0.50747160846E+02 -0.90075792745E+02  0.11975838416E+03  0.00000000000E+00 0.  1.
         14    1    3    3    0    0  0.92029387871E+02  0.19460878880E+02 -0.19264856980E+02  0.96017023247E+02  0.00000000000E+00 0. -1.
        -11    1    4    4    0    0 -0.30983355723E+02  0.14658814449E+02  0.15667052686E+03  0.16037613027E+03  0.00000000000E+00 0.  1.
         11    1    4    4    0    0 -0.84734948091E+02 -0.99619869121E+02  0.33552946251E+03  0.36011685598E+03  0.00000000000E+00 0. -1.
         21    1    1    2  502  501 -0.36752359723E+02  0.14753014946E+02  0.36441125691E+02  0.53817683310E+02  0.00000000000E+00 0.  1.
<scales pt_clust_5="13000.00000" pt_clust_6="13000.00000" pt_clust_7="13000.00000" pt_clust_8="13000.00000" pt_clust_9="39.60287"></scales>
<clustering>
<clus scale="   39.603">  1  9  2 -1</clus>
<clus scale="   80.170">  5  6 -1 -1</clus>
<clus scale="   89.683">  7  8 -1 -1</clus>
<clus scale="  183.709">  2  5  1 -1</clus>
<clus scale="   39.603">  1  5  2 -1</clus>
</clustering>
</event>
<event>
 9    2  0.1335291E-004  0.9801389E+02  0.7546771E-02  0.1289182E+00
          2   -1    0    0  502    0  0.00000000000E+00  0.00000000000E+00  0.11759030989E+04  0.11759030989E+04  0.00000000000E+00 0. -1.
         -1   -1    0    0    0  501 -0.00000000000E+00 -0.00000000000E+00 -0.11357451335E+03  0.11357451335E+03  0.00000000000E+00 0.  1.
         23    2    1    2    0    0  0.24776528153E+02 -0.25009432879E+02 -0.86836144211E+02  0.13084509044E+03  0.91326741268E+02 0.  0.
         24    2    1    2    0    0 -0.24808906451E+02  0.51546427192E+02  0.10783521464E+04  0.10830108644E+04  0.82441886458E+02 0.  0.
        -13    1    4    4    0    0 -0.12945277527E+02  0.50139393952E+02  0.29122552668E+03  0.29579358753E+03  0.00000000000E+00 0.  1.
         14    1    4    4    0    0 -0.11863628924E+02  0.14070332393E+01  0.78712661975E+03  0.78721727684E+03  0.00000000000E+00 0. -1.
        -11    1    3    3    0    0 -0.16956754225E+02  0.25951655386E+02 -0.36860195294E+02  0.48163200976E+02  0.00000000000E+00 0. -1.
         11    1    3    3    0    0  0.41733282378E+02 -0.50961088265E+02 -0.49975948917E+02  0.82681889464E+02  0.00000000000E+00 0.  1.
         21    1    1    2  502  501  0.32378298204E-01 -0.26536994313E+02  0.70812583292E+02  0.75621657401E+02  0.00000000000E+00 0. -1.
<scales pt_clust_5="13000.00000" pt_clust_6="13000.00000" pt_clust_7="13000.00000" pt_clust_8="13000.00000" pt_clust_9="26.53701"></scales>
<clustering>
<clus scale="   26.537">  1  9  2 -1</clus>
<clus scale="   82.442">  5  6 -1 -1</clus>
<clus scale="   89.793">  1  5  2 -1</clus>
<clus scale="   91.327">  7  8 -1 -1</clus>
<clus scale="   26.537">  1  5  2 -1</clus>
</clustering>
</event>
<event>
 9    2  0.2984928E-005  0.1054468E+03  0.7546771E-02  0.1270457E+00
          2   -1    0    0  502    0  0.00000000000E+00  0.00000000000E+00  0.68568213623E+03  0.68568213623E+03  0.00000000000E+00 0. -1.
         -1   -1    0    0    0  501 -0.00000000000E+00 -0.00000000000E+00 -0.36463769116E+02  0.36463769116E+02  0.00000000000E+00 0.  1.
         24    2    1    2    0    0 -0.20153492819E+02  0.80386073714E+02  0.18319880060E+03  0.22059534870E+03  0.90732701972E+02 0.  0.
         23    2    1    2    0    0  0.46448213487E+02 -0.73732031673E+01  0.31194580655E+03  0.32903674529E+03  0.93505041911E+02 0.  0.
        -11    1    3    3    0    0 -0.48371001607E+02  0.30073514403E+02  0.13080504800E+03  0.14266790336E+03  0.00000000000E+00 0.  1.
         12    1    3    3    0    0  0.28217508788E+02  0.50312559311E+02  0.52393752594E+02  0.77927445341E+02  0.00000000000E+00 0. -1.
        -13    1    4    4    0    0  0.32702638352E+02 -0.46448340733E+02  0.12129560757E+03  0.13393855057E+03  0.00000000000E+00 0.  1.
         13    1    4    4    0    0  0.13745575135E+02  0.39075137566E+02  0.19065019898E+03  0.19509819472E+03  0.00000000000E+00 0. -1.
         21    1    1    2  502  501 -0.26294720668E+02 -0.73012870547E+02  0.15407375997E+03  0.17251381136E+03  0.00000000000E+00 0.  1.
<scales pt_clust_5="13000.00000" pt_clust_6="13000.00000" pt_clust_7="13000.00000" pt_clust_8="13000.00000" pt_clust_9="77.60343"></scales>
<clustering>
<clus scale="   77.603">  2  9  1 -1</clus>
<clus scale="   90.733">  5  6 -1 -1</clus>
<clus scale="   93.505">  7  8 -1 -1</clus>
<clus scale="  102.996">  2  5  1 -1</clus>
<clus scale="  105.447">  1  5  2 -1</clus>
</clustering>
</event>
<event>
 9    2  0.2984928E-005  0.9254158E+02  0.7546771E-02  0.1304853E+00
         -1   -1    0    0    0  501 -0.00000000000E+00  0.00000000000E+00  0.20451949827E+02  0.20451949827E+02  0.00000000000E+00 0.  1.
          2   -1    0    0  502    0  0.00000000000E+00 -0.00000000000E+00 -0.60396459062E+03  0.60396459062E+03  0.00000000000E+00 0. -1.
         24    2    1    2    0    0  0.13156820296E+02 -0.56750653833E+01 -0.11628256507E+03  0.14132733626E+03  0.79034630063E+02 0.  0.
         23    2    1    2    0    0 -0.22198896878E+01 -0.15964993582E+02 -0.41709728822E+03  0.42740074051E+03  0.91877288920E+02 0.  0.
        -13    1    3    3    0    0 -0.15556253048E+02 -0.25384592045E+02 -0.97111329013E+02  0.10157255902E+03  0.00000000000E+00 0.  1.
         14    1    3    3    0    0  0.28713073345E+02  0.19709526662E+02 -0.19171236053E+02  0.39754777247E+02  0.00000000000E+00 0. -1.
        -11    1    4    4    0    0 -0.45188570396E+02  0.30589106466E+01 -0.23594206009E+03  0.24024991061E+03  0.00000000000E+00 0.  1.
         11    1    4    4    0    0  0.42968680708E+02 -0.19023904229E+02 -0.18115522813E+03  0.18715082990E+03  0.00000000000E+00 0. -1.
         21    1    1    2  502  501 -0.10936930608E+02  0.21640058965E+02 -0.50132787505E+02  0.55688463672E+02  0.00000000000E+00 0.  1.
<scales pt_clust_5="13000.00000" pt_clust_6="13000.00000" pt_clust_7="13000.00000" pt_clust_8="13000.00000" pt_clust_9="24.24683"></scales>
<clustering>
<clus scale="   24.247">  1  9  2 -1</clus>
<clus scale="   79.035">  5  6 -1 -1</clus>
<clus scale="   79.806">  1  5  2 -1</clus>
<clus scale="   91.877">  7  8 -1 -1</clus>
<clus scale="   92.542">  2  5  1 -1</clus>
</clustering>
</event>
<event>
 9    2  0.2984928E-005  0.1018779E+03  0.7546771E-02  0.1278925E+00
          2   -1    0    0  502    0  0.00000000000E+00  0.00000000000E+00  0.33805024273E+03  0.33805024273E+03  0.00000000000E+00 0. -1.
         -1   -1    0    0    0  501 -0.00000000000E+00 -0.00000000000E+00 -0.13470502226E+03  0.13470502226E+03  0.00000000000E+00 0.  1.
         24    2    1    2    0    0 -0.24502416732E+02  0.39972835166E+02 -0.10454631819E+03  0.14303539678E+03  0.85621236312E+02 0.  0.
         23    2    1    2    0    0  0.47398033265E+01 -0.32103198320E+02  0.25625016669E+03  0.27386896515E+03  0.91032857080E+02 0.  0.
        -11    1    3    3    0    0 -0.19327929354E+02  0.16130615890E+02 -0.11409256034E+03  0.11683697166E+03  0.00000000000E+00 0.  1.
         12    1    3    3    0    0 -0.51744873775E+01  0.23842219276E+02  0.95462421464E+01  0.26198425120E+02  0.00000000000E+00 0. -1.
        -13    1    4    4    0    0  0.20582225520E+02  0.25334224271E+02  0.13335968060E+03  0.13729623205E+03  0.00000000000E+00 0.  1.
         13    1    4    4    0    0 -0.15842422193E+02 -0.57437422591E+02  0.12289048609E+03  0.13657273310E+03  0.00000000000E+00 0. -1.
         21    1    1    2  502  501  0.19762613405E+02 -0.78696368466E+01  0.51641371976E+02  0.55850903057E+02  0.00000000000E+00 0.  1.
<scales pt_clust_5="13000.00000" pt_clust_6="13000.00000" pt_clust_7="13000.00000" pt_clust_8="13000.00000" pt_clust_9="21.27186"></scales>
<clustering>
<clus scale="   21.272">  1  9  2 -1</clus>
<clus scale="   85.621">  5  6 -1 -1</clus>
<clus scale="   91.033">  7  8 -1 -1</clus>
<clus scale="   97.073">  2  5  1 -1</clus>
<clus scale="   21.272">  1  5  2 -1</clus>
</clustering>
</event>
<event>
 9    2  0.2984928E-005  0.2932133E+03  0.7546771E-02  0.1089146E+00
         -1   -1    0    0    0  501 -0.00000000000E+00  0.00000000000E+00  0.71100670875E+02  0.71100670875E+02  0.00000000000E+00 0.  1.
          2   -1    0    0  502    0  0.00000000000E+00 -0.00000000000E+00 -0.15905080687E+04  0.15905080687E+04  0.00000000000E+00 0. -1.
         23    2    1    2    0    0 -0.22837061963E+03  0.12718595821E+03 -0.46256240575E+03  0.53924488135E+03  0.92150176211E+02 0.  0.
         24    2    1    2    0    0  0.28483326031E+03 -0.12107590702E+03 -0.86022780006E+03  0.91770882477E+03  0.80051593597E+02 0.  0.
        -11    1    4    4    0    0  0.18065454533E+03 -0.33952978195E+02 -0.50340336005E+03  0.53591399719E+03  0.00000000000E+00 0.  1.
         12    1    4    4    0    0  0.10417871499E+03 -0.87122928829E+02 -0.35682444001E+03  0.38179482759E+03  0.00000000000E+00 0. -1.
        -11    1    3    3    0    0 -0.89254767911E+02  0.10146087590E+03 -0.20888099879E+03  0.24878101734E+03  0.00000000000E+00 0.  1.
         11    1    3    3    0    0 -0.13911585172E+03  0.25725082306E+02 -0.25368140696E+03  0.29046386401E+03  0.00000000000E+00 0. -1.
         21    1    1    2  502  501 -0.56462640684E+02 -0.61100511846E+01 -0.19661719203E+03  0.20465503346E+03  0.00000000000E+00 0.  1.
<scales pt_clust_5="13000.00000" pt_clust_6="13000.00000" pt_clust_7="13000.00000" pt_clust_8="13000.00000" pt_clust_9="56.79228"></scales>
<clustering>
<clus scale="   56.792">  2  9  1 -1</clus>
<clus scale="   80.052">  5  6 -1 -1</clus>
<clus scale="   92.150">  7  8 -1 -1</clus>
<clus scale="  289.639">  2  5  1 -1</clus>
<clus scale="   56.792">  2  5  1 -1</clus>
</clustering>
</event>
<event>
 9    2  0.2984928E-005  0.1645974E+03  0.7546771E-02  0.1208623E+00
         -1   -1    0    0    0  501 -0.00000000000E+00  0.00000000000E+00  0.86044259611E+02  0.86044259611E+02  0.00000000000E+00 0.  1.
          2   -1    0    0  502    0  0.00000000000E+00 -0.00000000000E+00 -0.15724981734E+04  0.15724981734E+04  0.00000000000E+00 0. -1.
         23    2    1    2    0    0  0.13929682846E+02 -0.21964520320E+02  0.37483244933E+02  0.10234959817E+03  0.91618613704E+02 0.  0.
         24    2    1    2    0    0  0.87021417195E+02  0.11921677740E+03 -0.99125593013E+03  0.10053766973E+04  0.80053840331E+02 0.  0.
        -11    1    4    4    0    0  0.20097690681E+02  0.14754402608E+02 -0.48896379867E+02  0.54885931997E+02  0.00000000000E+00 0.  1.
         12    1    4    4    0    0  0.66923726514E+02  0.10446237479E+03 -0.94235955026E+03  0.95049076528E+03  0.00000000000E+00 0. -1.
        -13    1    3    3    0    0  0.55696033027E+01 -0.57868694660E+02  0.19391584414E+02  0.61284907185E+02  0.00000000000E+00 0.  1.
         13    1    3    3    0    0  0.83600795431E+01  0.35904174340E+02  0.18091660519E+02  0.41064690981E+02  0.00000000000E+00 0. -1.
         21    1    1    2  502  501 -0.10095110004E+03 -0.97252257080E+02 -0.53268122860E+03  0.55081613757E+03  0.00000000000E+00 0.  1.
<scales pt_clust_5="13000.00000" pt_clust_6="13000.00000" pt_clust_7="13000.00000" pt_clust_8="13000.00000" pt_clust_9="143.81819"></scales>
<clustering>
<clus scale="   80.054">  5  6 -1 -1</clus>
<clus scale="   91.619">  7  8 -1 -1</clus>
<clus scale="   95.239">  1  7  2 -1</clus>
<clus scale="  143.818">  1  9  2 -1</clus>
<clus scale="  164.597">  2  5  1 -1</clus>
</clustering>
</event>
<event>
 9    2  0.2984928E-005  0.9635843E+02  0.7546771E-02  0.1294241E+00
         -1   -1    0    0    0  501 -0.00000000000E+00  0.00000000000E+00  0.35630868079E+03  0.35630868079E+03  0.00000000000E+00 0.  1.
          2   -1    0    0  502    0  0.00000000000E+00 -0.00000000000E+00 -0.61580531101E+02  0.61580531101E+02  0.00000000000E+00 0. -1.
         23    2    1    2    0    0  0.14479361416E+02  0.22125409583E+02  0.25032262325E+03  0.26824735849E+03  0.92714853019E+02 0.  0.
         24    2    1    2    0    0  0.29340198325E+02 -0.39649015203E+02  0.26809174717E+02  0.99274580660E+02  0.81876851868E+02 0.  0.
        -13    1    4    4    0    0  0.38284836448E+02  0.42219165495E+01  0.36941648338E+02  0.53368892279E+02  0.00000000000E+00 0.  1.
         14    1    4    4    0    0 -0.89446381236E+01 -0.43870931753E+02 -0.10132473620E+02  0.45905688380E+02  0.00000000000E+00 0. -1.
        -13    1    3    3    0    0  0.43857886679E+02  0.21085228818E+02  0.22254242781E+03  0.22780086320E+03  0.00000000000E+00 0.  1.
         13    1    3    3    0    0 -0.29378525263E+02  0.10401807652E+01  0.27780195433E+02  0.40446495286E+02  0.00000000000E+00 0. -1.
         21    1    1    2  502  501 -0.43819559741E+02  0.17523605620E+02  0.17596351727E+02  0.50367272747E+02  0.00000000000E+00 0. -1.
<scales pt_clust_5="13000.00000" pt_clust_6="13000.00000" pt_clust_7="13000.00000" pt_clust_8="13000.00000" pt_clust_9="47.19354"></scales>
<clustering>
<clus scale="   47.194">  2  9  1 -1</clus>
<clus scale="   81.877">  5  6 -1 -1</clus>
<clus scale="   85.981">  2  5  1 -1</clus>
<clus scale="   92.715">  7  8 -1 -1</clus>
<clus scale="   47.194">  2  5  1 -1</clus>
</clustering>
</event>
<event>
 9    2  0.2984928E-005  0.9344534E+02  0.7546771E-02  0.1295237E+00
         -1   -1    0    0    0  501 -0.00000000000E+00  0.00000000000E+00  0.18726665439E+03  0.18726665439E+03  0.00000000000E+00 0.  1.
          2   -1    0    0  502    0  0.00000000000E+00 -0.00000000000E+00 -0.28383246609E+03  0.28383246609E+03  0.00000000000E+00 0. -1.
         23    2    1    2    0    0  0.22395130178E+02 -0.23340288008E+02  0.13163672093E+03  0.16309678498E+03  0.90697431465E+02 0.  0.
         24    2    1    2    0    0 -0.18255984526E+01 -0.66890175258E+02 -0.72574133395E+02  0.12693648895E+03  0.79801247066E+02 0.  0.
        -11    1    4    4    0    0 -0.16033051936E+02 -0.71654711548E+02 -0.81337100310E+02  0.10957728016E+03  0.00000000000E+00 0.  1.
         12    1    4    4    0    0  0.14207453483E+02  0.47645362895E+01  0.87629669150E+01  0.17359208786E+02  0.00000000000E+00 0. -1.
        -13    1    3    3    0    0 -0.23244319573E+02  0.21889560761E+02  0.40091082512E+02  0.51251791770E+02  0.00000000000E+00 0. -1.
         13    1    3    3    0    0  0.45639449750E+02 -0.45229848769E+02  0.91545638417E+02  0.11184499321E+03  0.00000000000E+00 0.  1.
         21    1    1    2  502  501 -0.20569531725E+02  0.90230463267E+02 -0.15562839924E+03  0.18106584655E+03  0.00000000000E+00 0. -1.
<scales pt_clust_5="13000.00000" pt_clust_6="13000.00000" pt_clust_7="13000.00000" pt_clust_8="13000.00000" pt_clust_9="92.54535"></scales>
<clustering>
<clus scale="   79.801">  5  6 -1 -1</clus>
<clus scale="   90.697">  7  8 -1 -1</clus>
<clus scale="   92.545">  2  9  1 -1</clus>
<clus scale="   92.545">  2  5  1 -1</clus>
<clus scale="   92.545">  2  5  1 -1</clus>
</clustering>
</event>
<event>
 9    2  0.2984928E-005  0.9449047E+02  0.7546771E-02  0.1299728E+00
          2   -1    0    0  502    0  0.00000000000E+00  0.00000000000E+00  0.58182696385E+03  0.58182696385E+03  0.00000000000E+00 0. -1.
         -1   -1    0    0    0  501 -0.00000000000E+00 -0.00000000000E+00 -0.21416404068E+02  0.21416404068E+02  0.00000000000E+00 0.  1.
         24    2    1    2    0    0  0.40616944659E+01 -0.23244961214E+02  0.11870955137E+03  0.14500849381E+03  0.79866639511E+02 0.  0.
         23    2    1    2    0    0  0.19824334355E+02  0.11579470186E+02  0.33208756746E+03  0.34544421629E+03  0.92317201780E+02 0.  0.
        -13    1    3    3    0    0 -0.34445496429E+02 -0.27128346684E+02  0.53417491789E+02  0.69107654041E+02  0.00000000000E+00 0.  1.
         14    1    3    3    0    0  0.38507190894E+02  0.38833854698E+01  0.65292059581E+02  0.75900839769E+02  0.00000000000E+00 0. -1.
        -13    1    4    4    0    0  0.78566493012E+01  0.46770676303E+02  0.26049854158E+03  0.26478050016E+03  0.00000000000E+00 0. -1.
         13    1    4    4    0    0  0.11967685054E+02 -0.35191206116E+02  0.71589025887E+02  0.80663716137E+02  0.00000000000E+00 0.  1.
         21    1    1    2  502  501 -0.23886028821E+02  0.11665491027E+02  0.10961344095E+03  0.11279065782E+03  0.00000000000E+00 0.  1.
<scales pt_clust_5="13000.00000" pt_clust_6="13000.00000" pt_clust_7="13000.00000" pt_clust_8="13000.00000" pt_clust_9="26.58244"></scales>
<clustering>
<clus scale="   26.582">  1  9  2 -1</clus>
<clus scale="   79.867">  5  6 -1 -1</clus>
<clus scale="   82.369">  2  5  1 -1</clus>
<clus scale="   92.317">  7  8 -1 -1</clus>
<clus scale="   26.582">  1  5  2 -1</clus>
</clustering>
</event>
<event>
 9    2  0.2984928E-005  0.8145441E+02  0.7546771E-02  0.1325555E+00
         -1   -1    0    0    0  501 -0.00000000000E+00  0.00000000000E+00  0.69387179532E+02  0.69387179532E+02  0.00000000000E+00 0.  1.
          2   -1    0    0  502    0  0.00000000000E+00 -0.00000000000E+00 -0.44648301175E+03  0.44648301175E+03  0.00000000000E+00 0. -1.
         23    2    1    2    0    0  0.29888553705E+02 -0.37052865375E+02 -0.10305306200E+01  0.94148450776E+02  0.81219630110E+02 0.  0.
         24    2    1    2    0    0  0.72209060257E+00 -0.10085488941E+02 -0.35091521743E+03  0.36014607383E+03  0.80383245585E+02 0.  0.
        -11    1    4    4    0    0  0.28649631546E+02  0.69575082270E+01 -0.54786557966E+02  0.62215554665E+02  0.00000000000E+00 0.  1.
         12    1    4    4    0    0 -0.27927540943E+02 -0.17042997168E+02 -0.29612865946E+03  0.29793051917E+03  0.00000000000E+00 0. -1.
        -11    1    3    3    0    0  0.55500807228E+02 -0.93476982897E+01 -0.30427908571E+01  0.56364684355E+02  0.00000000000E+00 0.  1.
         11    1    3    3    0    0 -0.25612253523E+02 -0.27705167085E+02  0.20122602370E+01  0.37783766421E+02  0.00000000000E+00 0. -1.
         21    1    1    2  502  501 -0.30610644308E+02  0.47138354316E+02 -0.25150084166E+02  0.61575666672E+02  0.00000000000E+00 0. -1.
<scales pt_clust_5="13000.00000" pt_clust_6="13000.00000" pt_clust_7="13000.00000" pt_clust_8="13000.00000" pt_clust_9="56.20530"></scales>
<clustering>
<clus scale="   56.205">  1  9  2 -1</clus>
<clus scale="   80.383">  5  6 -1 -1</clus>
<clus scale="   80.620">  2  5  1 -1</clus>
<clus scale="   81.220">  7  8 -1 -1</clus>
<clus scale="   80.620">  2  5  1 -1</clus>
</clustering>
</event>
<event>
 9    2  0.2984928E-005  0.9945944E+02  0.7546771E-02  0.1287942E+00
         -1   -1    0    0    0  501 -0.00000000000E+00  0.00000000000E+00  0.15796462164E+03  0.15796462164E+03  0.00000000000E+00 0.  1.
          2   -1    0    0  502    0  0.00000000000E+00 -0.00000000000E+00 -0.21196388782E+03  0.21196388782E+03  0.00000000000E+00 0. -1.
         23    2    1    2    0    0 -0.49425957199E+01 -0.42380874378E+02  0.10645438326E+03  0.14726719694E+03  0.92382486512E+02 0.  0.
         24    2    1    2    0    0 -0.41917484287E+02  0.11949289737E+02 -0.64173002692E+02  0.11134235016E+03  0.79869165833E+02 0.  0.
        -13    1    4    4    0    0 -0.54518285549E+02  0.20111843959E+02 -0.73478111081E+02  0.93679039997E+02  0.00000000000E+00 0.  1.
         14    1    4    4    0    0  0.12600801262E+02 -0.81625542217E+01  0.93051083890E+01  0.17663310165E+02  0.00000000000E+00 0. -1.
        -11    1    3    3    0    0  0.28216155869E+02  0.21938817265E+01  0.81668747244E+02  0.86433493771E+02  0.00000000000E+00 0.  1.
         11    1    3    3    0    0 -0.33158751589E+02 -0.44574756104E+02  0.24785636018E+02  0.60833703171E+02  0.00000000000E+00 0. -1.
         21    1    1    2  502  501  0.46860080007E+02  0.30431584641E+02 -0.96280646753E+02  0.11131896236E+03  0.00000000000E+00 0. -1.
<scales pt_clust_5="13000.00000" pt_clust_6="13000.00000" pt_clust_7="13000.00000" pt_clust_8="13000.00000" pt_clust_9="55.87440"></scales>
<clustering>
<clus scale="   55.874">  2  9  1 -1</clus>
<clus scale="   79.869">  5  6 -1 -1</clus>
<clus scale="   87.959">  2  5  1 -1</clus>
<clus scale="   92.382">  7  8 -1 -1</clus>
<clus scale="   55.874">  2  5  1 -1</clus>
</clustering>
</event>
<event>
 9    2  0.2984928E-005  0.1102338E+03  0.7546771E-02  0.1264455E+00
          2   -1    0    0  502    0  0.00000000000E+00  0.00000000000E+00  0.49659407638E+03  0.49659407638E+03  0.00000000000E+00 0. -1.
         -1   -1    0    0    0  501 -0.00000000000E+00 -0.00000000000E+00 -0.19396364227E+03  0.19396364227E+03  0.00000000000E+00 0.  1.
         23    2    1    2    0    0  0.72212891592E+00  0.64127000476E+02 -0.16141217518E+03  0.19638173884E+03  0.91646622387E+02 0.  0.
         24    2    1    2    0    0  0.29966929327E+02 -0.34912670445E+02  0.14407738116E+03  0.17141749025E+03  0.80676841721E+02 0.  0.
        -11    1    4    4    0    0  0.15697069429E+01 -0.36037253930E+02  0.14693685861E+02  0.38949352432E+02  0.00000000000E+00 0.  1.
         12    1    4    4    0    0  0.28397222384E+02  0.11245834852E+01  0.12938369530E+03  0.13246813781E+03  0.00000000000E+00 0. -1.
        -13    1    3    3    0    0 -0.23912388621E+02  0.36523752709E+02 -0.15208546073E+03  0.15822697054E+03  0.00000000000E+00 0.  1.
         13    1    3    3    0    0  0.24634517537E+02  0.27603247768E+02 -0.93267144454E+01  0.38154768299E+02  0.00000000000E+00 0. -1.
         21    1    1    2  502  501 -0.30689058243E+02 -0.29214330031E+02  0.31996522813E+03  0.32275848957E+03  0.00000000000E+00 0. -1.
<scales pt_clust_5="13000.00000" pt_clust_6="13000.00000" pt_clust_7="13000.00000" pt_clust_8="13000.00000" pt_clust_9="42.37093"></scales>
<clustering>
<clus scale="   42.371">  1  9  2 -1</clus>
<clus scale="   80.677">  5  6 -1 -1</clus>
<clus scale="   91.647">  7  8 -1 -1</clus>
<clus scale="  101.297">  1  5  2 -1</clus>
<clus scale="   42.371">  1  5  2 -1</clus>
</clustering>
</event>
<event>
 9    2  0.2984928E-005  0.9846379E+02  0.7546771E-02  0.1291391E+00
          2   -1    0    0  502    0  0.00000000000E+00  0.00000000000E+00  0.25940101532E+03  0.25940101532E+03  0.00000000000E+00 0. -1.
         -1   -1    0    0    0  501 -0.00000000000E+00 -0.00000000000E+00 -0.31662300986E+03  0.31662300986E+03  0.00000000000E+00 0.  1.
         23    2    1    2    0    0  0.15772879832E+02  0.27732907253E+02 -0.29131544238E+03  0.30773713061E+03  0.93912494944E+02 0.  0.
         24    2    1    2    0    0  0.16265605131E+02 -0.51622695147E+01  0.10222696529E+03  0.13071993842E+03  0.79662606856E+02 0.  0.
        -13    1    4    4    0    0  0.25237069295E+02 -0.38055133130E+02  0.71414835240E+02  0.84765450017E+02  0.00000000000E+00 0.  1.
         14    1    4    4    0    0 -0.89714641645E+01  0.32892863615E+02  0.30812130048E+02  0.45954488401E+02  0.00000000000E+00 0. -1.
        -11    1    3    3    0    0  0.23796173845E+02  0.51793987170E+02 -0.26548952117E+03  0.27153924366E+03  0.00000000000E+00 0.  1.
         11    1    3    3    0    0 -0.80232940125E+01 -0.24061079917E+02 -0.25825921212E+02  0.36197886955E+02  0.00000000000E+00 0. -1.
         21    1    1    2  502  501 -0.32038484963E+02 -0.22570637738E+02  0.13186648255E+03  0.13756695616E+03  0.00000000000E+00 0. -1.
<scales pt_clust_5="13000.00000" pt_clust_6="13000.00000" pt_clust_7="13000.00000" pt_clust_8="13000.00000" pt_clust_9="39.19054"></scales>
<clustering>
<clus scale="   39.191">  1  9  2 -1</clus>
<clus scale="   79.663">  5  6 -1 -1</clus>
<clus scale="   84.981">  1  5  2 -1</clus>
<clus scale="   93.912">  7  8 -1 -1</clus>
<clus scale="   39.191">  1  5  2 -1</clus>
</clustering>
</event>
<event>
 9    2  0.2984928E-005  0.1331545E+03  0.7546771E-02  0.1225285E+00
          2   -1    0    0  502    0  0.00000000000E+00  0.00000000000E+00  0.63578811198E+03  0.63578811198E+03  0.00000000000E+00 0. -1.
         -1   -1    0    0    0  501 -0.00000000000E+00 -0.00000000000E+00 -0.45556477900E+02  0.45556477900E+02  0.00000000000E+00 0.  1.
         23    2    1    2    0    0  0.75363787847E+02 -0.99640079287E+02  0.17378820546E+03  0.23226582043E+03  0.90206568841E+02 0.  0.
         24    2    1    2    0    0 -0.37597067074E+02  0.45264965291E+02  0.28610186416E+03  0.30288745082E+03  0.80150325323E+02 0.  0.
        -11    1    4    4    0    0 -0.45569228723E+02  0.62805257054E+02  0.19710256038E+03  0.21182651918E+03  0.00000000000E+00 0.  1.
         12    1    4    4    0    0  0.79721616488E+01 -0.17540291763E+02  0.88999303785E+02  0.91060931637E+02  0.00000000000E+00 0. -1.
        -13    1    3    3    0    0  0.84001739149E+02 -0.42191829611E+02  0.88752903309E+02  0.12928078168E+03  0.00000000000E+00 0. -1.
         13    1    3    3    0    0 -0.86379513019E+01 -0.57448249676E+02  0.85035302152E+02  0.10298503875E+03  0.00000000000E+00 0.  1.
         21    1    1    2  502  501 -0.37766720774E+02  0.54375113996E+02  0.13034156446E+03  0.14619131864E+03  0.00000000000E+00 0.  1.
<scales pt_clust_5="13000.00000" pt_clust_6="13000.00000" pt_clust_7="13000.00000" pt_clust_8="13000.00000" pt_clust_9="66.20406"></scales>
<clustering>
<clus scale="   66.204">  1  9  2 -1</clus>
<clus scale="   80.150">  5  6 -1 -1</clus>
<clus scale="   90.207">  7  8 -1 -1</clus>
<clus scale="  126.558">  1  5  2 -1</clus>
<clus scale="   66.204">  1  5  2 -1</clus>
</clustering>
</event>
<event>
 9    2  0.2984928E-005  0.9393240E+02  0.7546771E-02  0.1302004E+00
         -1   -1    0    0    0  501 -0.00000000000E+00  0.00000000000E+00  0.13065017553E+03  0.13065017553E+03  0.00000000000E+00 0.  1.
          2   -1    0    0  502    0  0.00000000000E+00 -0.00000000000E+00 -0.21406091323E+03  0.21406091323E+03  0.00000000000E+00 0. -1.
         24    2    1    2    0    0 -0.20216422657E+02 -0.11295727146E+02  0.10006865128E+03  0.12868533858E+03  0.77523442897E+02 0.  0.
         23    2    1    2    0    0  0.37957027601E+01 -0.31228274710E+01 -0.13908331154E+03  0.16654296073E+03  0.91478034575E+02 0.  0.
        -13    1    3    3    0    0  0.43677649337E+01 -0.35326504386E+02  0.18387052488E+02  0.40063986095E+02  0.00000000000E+00 0.  1.
         14    1    3    3    0    0 -0.24584187591E+02  0.24030777240E+02  0.81681598796E+02  0.88621352485E+02  0.00000000000E+00 0. -1.
        -11    1    4    4    0    0  0.41408955088E+02 -0.18307904756E+02 -0.43842823832E+02  0.63024393210E+02  0.00000000000E+00 0.  1.
         11    1    4    4    0    0 -0.37613252328E+02  0.15185077285E+02 -0.95240487711E+02  0.10351856752E+03  0.00000000000E+00 0. -1.
         21    1    1    2  502  501  0.16420719897E+02  0.14418554617E+02 -0.44396077445E+02  0.49482789449E+02  0.00000000000E+00 0. -1.
<scales pt_clust_5="13000.00000" pt_clust_6="13000.00000" pt_clust_7="13000.00000" pt_clust_8="13000.00000" pt_clust_9="21.85257"></scales>
<clustering>
<clus scale="   21.853">  2  9  1 -1</clus>
<clus scale="   77.523">  5  6 -1 -1</clus>
<clus scale="   80.405">  1  5  2 -1</clus>
<clus scale="   91.478">  7  8 -1 -1</clus>
<clus scale="   21.853">  2  5  1 -1</clus>
</clustering>
</event>
<event>
 9    2  0.2984928E-005  0.2509183E+03  0.7546771E-02  0.1113616E+00
          2   -1    0    0  502    0  0.00000000000E+00  0.00000000000E+00  0.72910765567E+03  0.72910765567E+03  0.00000000000E+00 0. -1.
         -1   -1    0    0    0  501 -0.00000000000E+00 -0.00000000000E+00 -0.10957639508E+03  0.10957639508E+03  0.00000000000E+00 0.  1.
         24    2    1    2    0    0  0.14200386852E+03 -0.18416466525E+03  0.19124358831E+03  0.31047823506E+03  0.75768738807E+02 0.  0.
         23    2    1    2    0    0 -0.12374619592E+03  0.19982066708E+03  0.27618183929E+03  0.37421023966E+03  0.92279332025E+02 0.  0.
        -11    1    3    3    0    0  0.57554202712E+02 -0.12936863542E+03  0.90422671247E+02  0.16800294508E+03  0.00000000000E+00 0.  1.
         12    1    3    3    0    0  0.84449665804E+02 -0.54796029831E+02  0.10082091706E+03  0.14247528998E+03  0.00000000000E+00 0. -1.
        -13    1    4    4    0    0 -0.22197750717E+02  0.12322055817E+03  0.13178910473E+03  0.18178122625E+03  0.00000000000E+00 0.  1.
         13    1    4    4    0    0 -0.10154844521E+03  0.76600108908E+02  0.14439273456E+03  0.19242901341E+03  0.00000000000E+00 0. -1.
         21    1    1    2  502  501 -0.18257672591E+02 -0.15656001827E+02  0.15210583300E+03  0.15399557602E+03  0.00000000000E+00 0. -1.
<scales pt_clust_5="13000.00000" pt_clust_6="13000.00000" pt_clust_7="13000.00000" pt_clust_8="13000.00000" pt_clust_9="24.05105"></scales>
<clustering>
<clus scale="   24.051">  1  9  2 -1</clus>
<clus scale="   75.769">  5  6 -1 -1</clus>
<clus scale="   92.279">  7  8 -1 -1</clus>
<clus scale="  245.327">  2  5  1 -1</clus>
<clus scale="   24.051">  1  5  2 -1</clus>
</clustering>
</event>
<event>
 9    2  0.2984928E-005  0.2108221E+03  0.7546771E-02  0.1141923E+00
         -1   -1    0    0    0  501 -0.00000000000E+00  0.00000000000E+00  0.48536506922E+02  0.48536506922E+02  0.00000000000E+00 0.  1.
          2   -1    0    0  502    0  0.00000000000E+00 -0.00000000000E+00 -0.10772240770E+04  0.10772240770E+04  0.00000000000E+00 0. -1.
         23    2    1    2    0    0 -0.12354113995E+03 -0.15598119176E+03 -0.38240701766E+03  0.44065391182E+03  0.91368470500E+02 0.  0.
         24    2    1    2    0    0  0.10895316868E+03  0.14186312763E+03 -0.49111077020E+03  0.52861453187E+03  0.79041727931E+02 0.  0.
        -13    1    4    4    0    0  0.38280860729E+01  0.49314776150E+02 -0.77556849382E+02  0.91987315842E+02  0.00000000000E+00 0.  1.
         14    1    4    4    0    0  0.10512508261E+03  0.92548351478E+02 -0.41355392082E+03  0.43662721603E+03  0.00000000000E+00 0. -1.
        -13    1    3    3    0    0 -0.69559796117E+02 -0.14898574446E+03 -0.28154732679E+03  0.32604327092E+03  0.00000000000E+00 0.  1.
         13    1    3    3    0    0 -0.53981343835E+02 -0.69954472986E+01 -0.10085969087E+03  0.11461064090E+03  0.00000000000E+00 0. -1.
         21    1    1    2  502  501  0.14587971267E+02  0.14118064130E+02 -0.15516978224E+03  0.15649214025E+03  0.00000000000E+00 0.  1.
<scales pt_clust_5="13000.00000" pt_clust_6="13000.00000" pt_clust_7="13000.00000" pt_clust_8="13000.00000" pt_clust_9="20.30095"></scales>
<clustering>
<clus scale="   20.301">  2  9  1 -1</clus>
<clus scale="   79.042">  5  6 -1 -1</clus>
<clus scale="   91.368">  7  8 -1 -1</clus>
<clus scale="  205.780">  2  5  1 -1</clus>
<clus scale="   20.301">  2  5  1 -1</clus>
</clustering>
</event>
<event>
 9    2  0.2984928E-005  0.1017088E+03  0.7546771E-02  0.1282357E+00
          2   -1    0    0  502    0  0.00000000000E+00  0.00000000000E+00  0.95181145346E+03  0.95181145346E+03  0.00000000000E+00 0. -1.
         -1   -1    0    0    0  501 -0.00000000000E+00 -0.00000000000E+00 -0.47759142539E+02  0.47759142539E+02  0.00000000000E+00 0.  1.
         23    2    1    2    0    0  0.10734464450E+02  0.40606442710E+02  0.16665235801E+02  0.10256682886E+03  0.92076665776E+02 0.  0.
         24    2    1    2    0    0 -0.31015716451E+02 -0.53057570303E+02  0.80160697861E+03  0.80798363055E+03  0.80540167949E+02 0.  0.
        -11    1    4    4    0    0  0.41956596032E+01 -0.32427869225E+02  0.10040580002E+03  0.10559590399E+03  0.00000000000E+00 0.  1.
         12    1    4    4    0    0 -0.35211376054E+02 -0.20629701078E+02  0.70120117859E+03  0.70238772656E+03  0.00000000000E+00 0. -1.
        -13    1    3    3    0    0 -0.20114905393E+02 -0.15108388800E+01  0.40447469289E+02  0.45198338741E+02  0.00000000000E+00 0. -1.
         13    1    3    3    0    0  0.30849369843E+02  0.42117281590E+02 -0.23782233488E+02  0.57368490114E+02  0.00000000000E+00 0.  1.
         21    1    1    2  502  501  0.20281252001E+02  0.12451127593E+02  0.85780096511E+02  0.89020136590E+02  0.00000000000E+00 0. -1.
<scales pt_clust_5="13000.00000" pt_clust_6="13000.00000" pt_clust_7="13000.00000" pt_clust_8="13000.00000" pt_clust_9="23.79831"></scales>
<clustering>
<clus scale="   23.798">  1  9  2 -1</clus>
<clus scale="   80.540">  5  6 -1 -1</clus>
<clus scale="   91.396">  1  5  2 -1</clus>
<clus scale="   92.077">  7  8 -1 -1</clus>
<clus scale="   23.798">  1  5  2 -1</clus>
</clustering>
</event>
<event>
 9    2  0.2984928E-005  0.1006044E+03  0.7546771E-02  0.1282096E+00
         -3   -1    0    0    0  501 -0.00000000000E+00  0.00000000000E+00  0.45449143603E+02  0.45449143603E+02  0.00000000000E+00 0.  1.
          4   -1    0    0  502    0  0.00000000000E+00 -0.00000000000E+00 -0.36754106390E+03  0.36754106390E+03  0.00000000000E+00 0. -1.
         23    2    1    2    0    0  0.30888554419E+02 -0.73799777480E+01 -0.62889202217E+02  0.11529389196E+03  0.91263699804E+02 0.  0.
         24    2    1    2    0    0 -0.67504172317E+02 -0.20135466644E+01 -0.18746302227E+03  0.21660670012E+03  0.84942393228E+02 0.  0.
        -11    1    4    4    0    0 -0.67021211277E+02 -0.14818433489E+02 -0.68559165653E+02  0.97014369694E+02  0.00000000000E+00 0.  1.
         12    1    4    4    0    0 -0.48296104058E+00  0.12804886825E+02 -0.11890385662E+03  0.11959233043E+03  0.00000000000E+00 0. -1.
        -11    1    3    3    0    0  0.25216395745E+02  0.35653665242E+02 -0.56516940471E+02  0.71422790619E+02  0.00000000000E+00 0.  1.
         11    1    3    3    0    0  0.56721586743E+01 -0.43033642990E+02 -0.63722617457E+01  0.43871101340E+02  0.00000000000E+00 0. -1.
         21    1    1    2  502  501  0.36615617898E+02  0.93935244124E+01 -0.71739695814E+02  0.81089615429E+02  0.00000000000E+00 0. -1.
<scales pt_clust_5="13000.00000" pt_clust_6="13000.00000" pt_clust_7="13000.00000" pt_clust_8="13000.00000" pt_clust_9="37.80135"></scales>
<clustering>
<clus scale="   37.801">  2  9  1 -1</clus>
<clus scale="   84.942">  5  6 -1 -1</clus>
<clus scale="   91.264">  7  8 -1 -1</clus>
<clus scale="   94.907">  2  5  1 -1</clus>
<clus scale="   37.801">  2  5  1 -1</clus>
</clustering>
</event>
<event>
 9    2  0.2984928E-005  0.1001998E+03  0.7546771E-02  0.1280096E+00
          2   -1    0    0  502    0  0.00000000000E+00  0.00000000000E+00  0.19288283022E+03  0.19288283022E+03  0.00000000000E+00 0. -1.
         -1   -1    0    0    0  501 -0.00000000000E+00 -0.00000000000E+00 -0.11076329253E+03  0.11076329253E+03  0.00000000000E+00 0.  1.
         24    2    1    2    0    0  0.25448792086E+02 -0.69021310059E+01 -0.21962778702E+02  0.97218500081E+02  0.90960390713E+02 0.  0.
         23    2    1    2    0    0 -0.73178625413E+02  0.19724263174E+02  0.38204873762E+02  0.12407240723E+03  0.90499680012E+02 0.  0.
        -11    1    3    3    0    0 -0.27421706178E-01  0.22062418733E+02 -0.46522842460E+02  0.51489085668E+02  0.00000000000E+00 0.  1.
         12    1    3    3    0    0  0.25476213792E+02 -0.28964549739E+02  0.24560063758E+02  0.45729414413E+02  0.00000000000E+00 0. -1.
        -11    1    4    4    0    0 -0.21643736528E+02  0.48432915537E+02 -0.13168768009E+01  0.53065363494E+02  0.00000000000E+00 0.  1.
         11    1    4    4    0    0 -0.51534888885E+02 -0.28708652363E+02  0.39521750563E+02  0.71007043738E+02  0.00000000000E+00 0. -1.
         21    1    1    2  502  501  0.47729833326E+02 -0.12822132168E+02  0.65877442627E+02  0.82355215438E+02  0.00000000000E+00 0. -1.
<scales pt_clust_5="13000.00000" pt_clust_6="13000.00000" pt_clust_7="13000.00000" pt_clust_8="13000.00000" pt_clust_9="49.42210"></scales>
<clustering>
<clus scale="   49.422">  1  9  2 -1</clus>
<clus scale="   90.500">  7  8 -1 -1</clus>
<clus scale="   90.960">  5  6 -1 -1</clus>
<clus scale="   99.782">  1  7  2 -1</clus>
<clus scale="   49.422">  1  5  2 -1</clus>
</clustering>
</event>
<event>
 9    2  0.2984928E-005  0.1832936E+03  0.7546771E-02  0.1165903E+00
         -1   -1    0    0    0  501 -0.00000000000E+00  0.00000000000E+00  0.75259073018E+02  0.75259073018E+02  0.00000000000E+00 0.  1.
          2   -1    0    0  502    0  0.00000000000E+00 -0.00000000000E+00 -0.56467824646E+03  0.56467824646E+03  0.00000000000E+00 0. -1.
         24    2    1    2    0    0  0.13445359346E+03 -0.10531983597E+03 -0.13122831829E+03  0.22982704500E+03  0.80184552418E+02 0.  0.
         23    2    1    2    0    0 -0.10646987389E+03  0.86610597596E+02 -0.31347937702E+03  0.35414385207E+03  0.91166432836E+02 0.  0.
        -13    1    3    3    0    0  0.17630704203E+02 -0.46237232748E+02 -0.81671331085E+01  0.50154017647E+02  0.00000000000E+00 0.  1.
         14    1    3    3    0    0  0.11682288926E+03 -0.59082603222E+02 -0.12306118518E+03  0.17967302735E+03  0.00000000000E+00 0. -1.
        -13    1    4    4    0    0 -0.83712594426E+02  0.10479508927E+02 -0.18028459206E+03  0.19904811657E+03  0.00000000000E+00 0.  1.
         13    1    4    4    0    0 -0.22757279469E+02  0.76131088669E+02 -0.13319478496E+03  0.15509573550E+03  0.00000000000E+00 0. -1.
         21    1    1    2  502  501 -0.27983719568E+02  0.18709238374E+02 -0.44711478133E+02  0.55966422418E+02  0.00000000000E+00 0.  1.
<scales pt_clust_5="13000.00000" pt_clust_6="13000.00000" pt_clust_7="13000.00000" pt_clust_8="13000.00000" pt_clust_9="33.66191"></scales>
<clustering>
<clus scale="   33.662">  2  9  1 -1</clus>
<clus scale="   80.185">  5  6 -1 -1</clus>
<clus scale="   91.166">  7  8 -1 -1</clus>
<clus scale="  178.086">  1  5  2 -1</clus>
<clus scale="   33.662">  2  5  1 -1</clus>
</clustering>
</event>
<event>
 9    2  0.2984928E-005  0.1188253E+03  0.7546771E-02  0.1248896E+00
          2   -1    0    0  502    0  0.00000000000E+00  0.00000000000E+00  0.37467144649E+03  0.37467144649E+03  0.00000000000E+00 0. -1.
         -1   -1    0    0    0  501 -0.00000000000E+00 -0.00000000000E+00 -0.71770809796E+02  0.71770809796E+02  0.00000000000E+00 0.  1.
         23    2    1    2    0    0  0.44334008346E+01  0.87575625468E+02  0.18892207296E+02  0.12773505283E+03  0.90940546552E+02 0.  0.
         24    2    1    2    0    0  0.28267171984E+01 -0.53900278844E+02  0.13325718660E+03  0.16406996509E+03  0.79045842860E+02 0.  0.
        -11    1    4    4    0    0  0.25316144867E+02 -0.45476836999E+02  0.34522892679E+02  0.62457025332E+02  0.00000000000E+00 0.  1.
         12    1    4    4    0    0 -0.22489427669E+02 -0.84234418447E+01  0.98734293925E+02  0.10161293976E+03  0.00000000000E+00 0. -1.
        -13    1    3    3    0    0  0.35995148683E+02  0.18641879172E+02 -0.16872288970E+02  0.43907226317E+02  0.00000000000E+00 0. -1.
         13    1    3    3    0    0 -0.31561747848E+02  0.68933746295E+02  0.35764496266E+02  0.83827826518E+02  0.00000000000E+00 0.  1.
         21    1    1    2  502  501 -0.72601180330E+01 -0.33675346624E+02  0.15075124279E+03  0.15463723836E+03  0.00000000000E+00 0. -1.
<scales pt_clust_5="13000.00000" pt_clust_6="13000.00000" pt_clust_7="13000.00000" pt_clust_8="13000.00000" pt_clust_9="34.44907"></scales>
<clustering>
<clus scale="   34.449">  1  9  2 -1</clus>
<clus scale="   79.046">  5  6 -1 -1</clus>
<clus scale="   90.941">  7  8 -1 -1</clus>
<clus scale="  109.989">  1  5  2 -1</clus>
<clus scale="   34.449">  1  5  2 -1</clus>
</clustering>
</event>
<event>
 9    2  0.2984928E-005  0.2180219E+03  0.7546771E-02  0.1136241E+00
         -1   -1    0    0    0  501 -0.00000000000E+00  0.00000000000E+00  0.95828854177E+03  0.95828854177E+03  0.00000000000E+00 0.  1.
          2   -1    0    0  502    0  0.00000000000E+00 -0.00000000000E+00 -0.30363048368E+03  0.30363048368E+03  0.00000000000E+00 0. -1.
         24    2    1    2    0    0 -0.54582820902E+02 -0.19039371685E+03  0.89163757751E+03  0.91710258373E+03  0.82647006564E+02 0.  0.
         23    2    1    2    0    0  0.86420164775E+02  0.15388654598E+03 -0.20744854441E+03  0.28808489429E+03  0.93853576513E+02 0.  0.
        -13    1    3    3    0    0 -0.62790631164E+02 -0.11410943436E+03  0.67050876434E+03  0.68304145513E+03  0.00000000000E+00 0.  1.
         14    1    3    3    0    0  0.82078102620E+01 -0.76284282492E+02  0.22112881317E+03  0.23406112860E+03  0.00000000000E+00 0. -1.
        -11    1    4    4    0    0  0.51305521172E+00  0.53311914388E+02 -0.16519078869E+02  0.55814903100E+02  0.00000000000E+00 0.  1.
         11    1    4    4    0    0  0.85907109563E+02  0.10057463159E+03 -0.19092946554E+03  0.23226999119E+03  0.00000000000E+00 0. -1.
         21    1    1    2  502  501 -0.31837343873E+02  0.36507170873E+02 -0.29530975012E+02  0.56731547442E+02  0.00000000000E+00 0.  1.
<scales pt_clust_5="13000.00000" pt_clust_6="13000.00000" pt_clust_7="13000.00000" pt_clust_8="13000.00000" pt_clust_9="48.43955"></scales>
<clustering>
<clus scale="   48.440">  2  9  1 -1</clus>
<clus scale="   82.647">  5  6 -1 -1</clus>
<clus scale="   93.854">  7  8 -1 -1</clus>
<clus scale="  213.438">  1  5  2 -1</clus>
<clus scale="   48.440">  2  5  1 -1</clus>
</clustering>
</event>
<event>
 9    2  0.2984928E-005  0.1439104E+03  0.7546771E-02  0.1209977E+00
         -1   -1    0    0    0  501 -0.00000000000E+00  0.00000000000E+00  0.73046667661E+03  0.73046667661E+03  0.00000000000E+00 0.  1.
          2   -1    0    0  502    0  0.00000000000E+00 -0.00000000000E+00 -0.57038851969E+02  0.57038851969E+02  0.00000000000E+00 0. -1.
         23    2    1    2    0    0  0.19696628724E+02  0.11211301723E+03  0.57739916785E+03  0.59531345159E+03  0.89727480725E+02 0.  0.
         24    2    1    2    0    0  0.99733776418E+01 -0.10956038715E+03  0.83105360196E+02  0.15972922448E+03  0.80647241530E+02 0.  0.
        -13    1    4    4    0    0 -0.25667063848E+02 -0.95072750334E+01  0.31227634558E+02  0.41525312825E+02  0.00000000000E+00 0.  1.
         14    1    4    4    0    0  0.35640441490E+02 -0.10005311211E+03  0.51877725638E+02  0.11820391165E+03  0.00000000000E+00 0. -1.
        -11    1    3    3    0    0  0.51001436723E+02  0.35387263078E+02  0.24786018656E+03  0.25551531660E+03  0.00000000000E+00 0.  1.
         11    1    3    3    0    0 -0.31304807999E+02  0.76725754156E+02  0.32953898129E+03  0.33979813499E+03  0.00000000000E+00 0. -1.
         21    1    1    2  502  501 -0.29670006366E+02 -0.25526300884E+01  0.12923296599E+02  0.32462852510E+02  0.00000000000E+00 0. -1.
<scales pt_clust_5="13000.00000" pt_clust_6="13000.00000" pt_clust_7="13000.00000" pt_clust_8="13000.00000" pt_clust_9="29.77961"></scales>
<clustering>
<clus scale="   29.780">  2  9  1 -1</clus>
<clus scale="   80.647">  5  6 -1 -1</clus>
<clus scale="   89.727">  7  8 -1 -1</clus>
<clus scale="  138.431">  2  5  1 -1</clus>
<clus scale="   29.780">  2  5  1 -1</clus>
</clustering>
</event>
<event>
 9    2  0.2984928E-005  0.9418863E+02  0.7546771E-02  0.1298610E+00
          2   -1    0    0  502    0  0.00000000000E+00  0.00000000000E+00  0.28221212235E+03  0.28221212235E+03  0.00000000000E+00 0. -1.
         -1   -1    0    0    0  501 -0.00000000000E+00 -0.00000000000E+00 -0.52507029917E+02  0.52507029917E+02  0.00000000000E+00 0.  1.
         24    2    1    2    0    0 -0.34033845555E+02 -0.10241010345E+02  0.19789559909E+02  0.89956391745E+02  0.80233065492E+02 0.  0.
         23    2    1    2    0    0  0.20579521185E+01 -0.37250313798E+00  0.17128035068E+03  0.19350086721E+03  0.90006961722E+02 0.  0.
        -13    1    3    3    0    0 -0.15565142899E+02  0.35315171532E+02  0.90014083891E+01  0.39629034391E+02  0.00000000000E+00 0.  1.
         14    1    3    3    0    0 -0.18468702656E+02 -0.45556181877E+02  0.10788151520E+02  0.50327357354E+02  0.00000000000E+00 0. -1.
        -11    1    4    4    0    0  0.35655219182E+02  0.26800580937E+02  0.65601661367E+02  0.79329337370E+02  0.00000000000E+00 0.  1.
         11    1    4    4    0    0 -0.33597267064E+02 -0.27173084075E+02  0.10567868931E+03  0.11417152984E+03  0.00000000000E+00 0. -1.
         21    1    1    2  502  501  0.31975893437E+02  0.10613513483E+02  0.38635181853E+02  0.51261893316E+02  0.00000000000E+00 0. -1.
<scales pt_clust_5="13000.00000" pt_clust_6="13000.00000" pt_clust_7="13000.00000" pt_clust_8="13000.00000" pt_clust_9="33.69131"></scales>
<clustering>
<clus scale="   33.691">  1  9  2 -1</clus>
<clus scale="   80.233">  5  6 -1 -1</clus>
<clus scale="   84.898">  2  5  1 -1</clus>
<clus scale="   90.007">  7  8 -1 -1</clus>
<clus scale="   33.691">  1  5  2 -1</clus>
</clustering>
</event>
<event>
 9    2  0.2984928E-005  0.3015199E+03  0.7546771E-02  0.1084541E+00
         -1   -1    0    0    0  501 -0.00000000000E+00  0.00000000000E+00  0.56871042608E+03  0.56871042608E+03  0.00000000000E+00 0.  1.
          2   -1    0    0  502    0  0.00000000000E+00 -0.00000000000E+00 -0.57953445273E+03  0.57953445273E+03  0.00000000000E+00 0. -1.
         23    2    1    2    0    0  0.24767416070E+03 -0.15125124924E+03  0.45830230787E+03  0.54921968001E+03  0.85917525788E+02 0.  0.
         24    2    1    2    0    0 -0.20021562469E+03  0.20198850209E+03 -0.41894525670E+03  0.51332384505E+03  0.84265001263E+02 0.  0.
        -11    1    4    4    0    0 -0.14022291386E+03  0.10045040360E+03 -0.19588884795E+03  0.26100802651E+03  0.00000000000E+00 0.  1.
         12    1    4    4    0    0 -0.59992710836E+02  0.10153809849E+03 -0.22305640875E+03  0.25231581854E+03  0.00000000000E+00 0. -1.
        -11    1    3    3    0    0  0.10254024450E+03 -0.18803786870E+02  0.18919255420E+03  0.21601367251E+03  0.00000000000E+00 0.  1.
         11    1    3    3    0    0  0.14513391619E+03 -0.13244746237E+03  0.26910975366E+03  0.33320600750E+03  0.00000000000E+00 0. -1.
         21    1    1    2  502  501 -0.47458536002E+02 -0.50737252844E+02 -0.50181077820E+02  0.85701353763E+02  0.00000000000E+00 0. -1.
<scales pt_clust_5="13000.00000" pt_clust_6="13000.00000" pt_clust_7="13000.00000" pt_clust_8="13000.00000" pt_clust_9="69.47360"></scales>
<clustering>
<clus scale="   69.474">  2  9  1 -1</clus>
<clus scale="   84.265">  5  6 -1 -1</clus>
<clus scale="   85.918">  7  8 -1 -1</clus>
<clus scale="  301.053">  2  5  1 -1</clus>
<clus scale="   69.474">  2  5  1 -1</clus>
</clustering>
</event>
<event>
 9    2  0.2984928E-005  0.3446959E+03  0.7546771E-02  0.1082945E+00
          2   -1    0    0  502    0  0.00000000000E+00  0.00000000000E+00  0.56146893056E+03  0.56146893056E+03  0.00000000000E+00 0. -1.
         -1   -1    0    0    0  501 -0.00000000000E+00 -0.00000000000E+00 -0.38890826728E+03  0.38890826728E+03  0.00000000000E+00 0.  1.
         23    2    1    2    0    0 -0.24450392160E+03  0.82402633049E+02  0.66154317500E+02  0.28835843480E+03  0.11046190107E+03 0.  0.
         24    2    1    2    0    0 -0.73453139141E+02  0.18010890229E+03  0.13302984204E+03  0.24883864588E+03  0.79932174200E+02 0.  0.
        -11    1    4    4    0    0 -0.11209004670E+02  0.93547480044E+02  0.25934845732E+02  0.97720975391E+02  0.00000000000E+00 0.  1.
         12    1    4    4    0    0 -0.62244134471E+02  0.86561422251E+02  0.10709499631E+03  0.15111767049E+03  0.00000000000E+00 0. -1.
        -11    1    3    3    0    0 -0.26470633241E+02  0.33234100103E+02 -0.22298788551E+02  0.47983703533E+02  0.00000000000E+00 0. -1.
         11    1    3    3    0    0 -0.21803328836E+03  0.49168532946E+02  0.88453106051E+02  0.24037473127E+03  0.00000000000E+00 0.  1.
         21    1    1    2  502  501  0.31795706074E+03 -0.26251153534E+03 -0.26623496264E+02  0.41318011716E+03  0.00000000000E+00 0. -1.
<scales pt_clust_5="13000.00000" pt_clust_6="13000.00000" pt_clust_7="13000.00000" pt_clust_8="13000.00000" pt_clust_9="326.51710"></scales>
<clustering>
<clus scale="   79.932">  5  6 -1 -1</clus>
<clus scale="  110.462">  7  8 -1 -1</clus>
<clus scale="  210.294">  1  5  2 -1</clus>
<clus scale="  326.517">  1  9  2 -1</clus>
<clus scale="  210.294">  1  5  2 -1</clus>
</clustering>
</event>
<event>
 9    2  0.2984928E-005  0.9949959E+02  0.7546771E-02  0.1288490E+00
         -1   -1    0    0    0  501 -0.00000000000E+00  0.00000000000E+00  0.34836259821E+02  0.34836259821E+02  0.00000000000E+00 0.  1.
          2   -1    0    0  502    0  0.00000000000E+00 -0.00000000000E+00 -0.68980041467E+03  0.68980041467E+03  0.00000000000E+00 0. -1.
         23    2    1    2    0    0  0.27679570268E+02  0.28598689518E+02 -0.74597043653E+02  0.12516609214E+03  0.92291863381E+02 0.  0.
         24    2    1    2    0    0  0.14681659391E+02 -0.37171391033E+02 -0.50456727319E+03  0.51221474913E+03  0.78603769767E+02 0.  0.
        -13    1    4    4    0    0 -0.12003534362E+02 -0.26074099124E+02 -0.58010406231E+02  0.64723648796E+02  0.00000000000E+00 0.  1.
         14    1    4    4    0    0  0.26685193754E+02 -0.11097291909E+02 -0.44655686696E+03  0.44749110034E+03  0.00000000000E+00 0. -1.
        -13    1    3    3    0    0 -0.16103306575E+02 -0.25958420370E+02 -0.23369713444E+02  0.38461663735E+02  0.00000000000E+00 0. -1.
         13    1    3    3    0    0  0.43782876843E+02  0.54557109888E+02 -0.51227330208E+02  0.86704428401E+02  0.00000000000E+00 0.  1.
         21    1    1    2  502  501 -0.42361229660E+02  0.85727015152E+01 -0.75799838009E+02  0.87255833225E+02  0.00000000000E+00 0.  1.
<scales pt_clust_5="13000.00000" pt_clust_6="13000.00000" pt_clust_7="13000.00000" pt_clust_8="13000.00000" pt_clust_9="43.21996"></scales>
<clustering>
<clus scale="   43.220">  1  9  2 -1</clus>
<clus scale="   78.604">  5  6 -1 -1</clus>
<clus scale="   86.954">  2  5  1 -1</clus>
<clus scale="   92.292">  7  8 -1 -1</clus>
<clus scale="   86.954">  2  5  1 -1</clus>
</clustering>
</event>
<event>
 9    2  0.2984928E-005  0.1138668E+03  0.7546771E-02  0.1269366E+00
          2   -1    0    0  502    0  0.00000000000E+00  0.00000000000E+00  0.23711422580E+03  0.23711422580E+03  0.00000000000E+00 0. -1.
         -1   -1    0    0    0  501 -0.00000000000E+00 -0.00000000000E+00 -0.91922681738E+02  0.91922681738E+02  0.00000000000E+00 0.  1.
         23    2    1    2    0    0 -0.20319182855E+02  0.22337414707E+02 -0.29380559119E+02  0.11948647328E+03  0.11181221201E+03 0.  0.
         24    2    1    2    0    0  0.14247605813E+01  0.69668164737E+01  0.12043077154E+03  0.14515306669E+03  0.80717256900E+02 0.  0.
        -11    1    4    4    0    0 -0.30289020216E+02 -0.17504085457E+02  0.29392574361E+02  0.45691806496E+02  0.00000000000E+00 0.  1.
         12    1    4    4    0    0  0.31713780797E+02  0.24470901931E+02  0.91038197182E+02  0.99461260196E+02  0.00000000000E+00 0. -1.
        -11    1    3    3    0    0  0.18120999873E+02  0.27492127715E+02  0.32623378380E+02  0.46351618523E+02  0.00000000000E+00 0. -1.
         11    1    3    3    0    0 -0.38440182728E+02 -0.51547130080E+01 -0.62003937500E+02  0.73134854754E+02  0.00000000000E+00 0.  1.
         21    1    1    2  502  501  0.18894422274E+02 -0.29304231181E+02  0.54141331640E+02  0.64397367570E+02  0.00000000000E+00 0. -1.
<scales pt_clust_5="13000.00000" pt_clust_6="13000.00000" pt_clust_7="13000.00000" pt_clust_8="13000.00000" pt_clust_9="34.86742"></scales>
<clustering>
<clus scale="   34.867">  1  9  2 -1</clus>
<clus scale="   80.717">  5  6 -1 -1</clus>
<clus scale="   83.540">  1  5  2 -1</clus>
<clus scale="  111.812">  7  8 -1 -1</clus>
<clus scale="   34.867">  1  5  2 -1</clus>
</clustering>
</event>
<event>
 9    2  0.2984928E-005  0.1479766E+03  0.7546771E-02  0.1205127E+00
         -1   -1    0    0    0  501 -0.00000000000E+00  0.00000000000E+00  0.18352679009E+03  0.18352679009E+03  0.00000000000E+00 0.  1.
          2   -1    0    0  502    0  0.00000000000E+00 -0.00000000000E+00 -0.74391802749E+03  0.74391802749E+03  0.00000000000E+00 0. -1.
         23    2    1    2    0    0  0.67466094460E+02  0.88362248361E+02  0.11993778886E+03  0.18792645260E+03  0.92583570649E+02 0.  0.
         24    2    1    2    0    0 -0.11738004198E+03 -0.14714843324E+03 -0.56220961360E+03  0.59845308458E+03  0.81459862289E+02 0.  0.
        -11    1    4    4    0    0 -0.10203400807E+03 -0.79126431835E+02 -0.43018350672E+03  0.44914338520E+03  0.00000000000E+00 0.  1.
         12    1    4    4    0    0 -0.15346033915E+02 -0.68022001401E+02 -0.13202610688E+03  0.14930969938E+03  0.00000000000E+00 0. -1.
        -11    1    3    3    0    0 -0.42136081020E+01  0.61971373312E+02  0.27273383683E+02  0.67838359805E+02  0.00000000000E+00 0. -1.
         11    1    3    3    0    0  0.71679702562E+02  0.26390875048E+02  0.92664405173E+02  0.12008809280E+03  0.00000000000E+00 0.  1.
         21    1    1    2  502  501  0.49913947520E+02  0.58786184875E+02 -0.11811941266E+03  0.14106528041E+03  0.00000000000E+00 0.  1.
<scales pt_clust_5="13000.00000" pt_clust_6="13000.00000" pt_clust_7="13000.00000" pt_clust_8="13000.00000" pt_clust_9="77.11821"></scales>
<clustering>
<clus scale="   77.118">  2  9  1 -1</clus>
<clus scale="   81.460">  5  6 -1 -1</clus>
<clus scale="   92.584">  7  8 -1 -1</clus>
<clus scale="  141.284">  2  5  1 -1</clus>
<clus scale="   77.118">  2  5  1 -1</clus>
</clustering>
</event>
<event>
 9    2  0.2984928E-005  0.1144522E+03  0.7546771E-02  0.1256156E+00
         -1   -1    0    0    0  501 -0.00000000000E+00  0.00000000000E+00  0.50339683487E+02  0.50339683487E+02  0.00000000000E+00 0.  1.
          2   -1    0    0  502    0  0.00000000000E+00 -0.00000000000E+00 -0.39976356686E+03  0.39976356686E+03  0.00000000000E+00 0. -1.
         24    2    1    2    0    0 -0.70807140621E+02 -0.71330746313E+02 -0.13929527527E+03  0.18954641315E+03  0.80143262303E+02 0.  0.
         23    2    1    2    0    0  0.34477344533E+02  0.37568626405E+02 -0.15324934661E+03  0.18509171139E+03  0.90407358192E+02 0.  0.
        -11    1    3    3    0    0 -0.46044690451E+02 -0.33743965376E+02 -0.17511722318E+02  0.59711214496E+02  0.00000000000E+00 0.  1.
         12    1    3    3    0    0 -0.24762450170E+02 -0.37586780937E+02 -0.12178355295E+03  0.12983519865E+03  0.00000000000E+00 0. -1.
        -13    1    4    4    0    0  0.65226711749E+02  0.29565045103E+02 -0.98354475538E+02  0.12166436897E+03  0.00000000000E+00 0. -1.
         13    1    4    4    0    0 -0.30749367216E+02  0.80035813015E+01 -0.54894871070E+02  0.63427342429E+02  0.00000000000E+00 0.  1.
         21    1    1    2  502  501  0.36329796087E+02  0.33762119908E+02 -0.56879261494E+02  0.75465125804E+02  0.00000000000E+00 0. -1.
<scales pt_clust_5="13000.00000" pt_clust_6="13000.00000" pt_clust_7="13000.00000" pt_clust_8="13000.00000" pt_clust_9="49.59571"></scales>
<clustering>
<clus scale="   49.596">  1  9  2 -1</clus>
<clus scale="   80.143">  5  6 -1 -1</clus>
<clus scale="   90.407">  7  8 -1 -1</clus>
<clus scale="  106.531">  1  5  2 -1</clus>
<clus scale="  114.452">  2  5  1 -1</clus>
</clustering>
</event>
<event>
 9    2  0.2984928E-005  0.1025611E+03  0.7546771E-02  0.1277183E+00
          4   -1    0    0  502    0  0.00000000000E+00  0.00000000000E+00  0.19232603317E+03  0.19232603317E+03  0.00000000000E+00 0. -1.
         -3   -1    0    0    0  501 -0.00000000000E+00 -0.00000000000E+00 -0.17988219240E+03  0.17988219240E+03  0.00000000000E+00 0.  1.
         24    2    1    2    0    0  0.42103452089E+02  0.13417325837E+02 -0.12972234867E+03  0.16189643268E+03  0.86196530448E+02 0.  0.
         23    2    1    2    0    0 -0.76622213506E+02 -0.90962134962E+01  0.11918749871E+03  0.16861962181E+03  0.90957200424E+02 0.  0.
        -13    1    3    3    0    0  0.37510138769E+02  0.37671897829E+02 -0.12622626143E+03  0.13696441680E+03  0.00000000000E+00 0.  1.
         14    1    3    3    0    0  0.45933133205E+01 -0.24254571992E+02 -0.34960872392E+01  0.24932015878E+02  0.00000000000E+00 0. -1.
        -11    1    4    4    0    0 -0.18632475406E+02  0.38878223514E+02  0.33685245209E+02  0.54711800813E+02  0.00000000000E+00 0.  1.
         11    1    4    4    0    0 -0.57989738100E+02 -0.47974437010E+02  0.85502253502E+02  0.11390782100E+03  0.00000000000E+00 0. -1.
         21    1    1    2  502  501  0.34518761417E+02 -0.43211123405E+01  0.22978690722E+02  0.41692171075E+02  0.00000000000E+00 0.  1.
<scales pt_clust_5="13000.00000" pt_clust_6="13000.00000" pt_clust_7="13000.00000" pt_clust_8="13000.00000" pt_clust_9="34.78817"></scales>
<clustering>
<clus scale="   34.788">  1  9  2 -1</clus>
<clus scale="   86.197">  5  6 -1 -1</clus>
<clus scale="   90.957">  7  8 -1 -1</clus>
<clus scale="   98.364">  2  5  1 -1</clus>
<clus scale="   34.788">  1  5  2 -1</clus>
</clustering>
</event>
<event>
 9    2  0.2984928E-005  0.2356586E+03  0.7546771E-02  0.1123367E+00
          2   -1    0    0  502    0  0.00000000000E+00  0.00000000000E+00  0.67550801294E+03  0.67550801294E+03  0.00000000000E+00 0. -1.
         -1   -1    0    0    0  501 -0.00000000000E+00 -0.00000000000E+00 -0.62255388886E+03  0.62255388886E+03  0.00000000000E+00 0.  1.
         24    2    1    2    0    0  0.57409180393E+02 -0.21011755497E+03 -0.56777544662E+03  0.61348198285E+03  0.80907259196E+02 0.  0.
         23    2    1    2    0    0 -0.81450131345E+01  0.20957168868E+03  0.56856182334E+03  0.61282526746E+03  0.91135215737E+02 0.  0.
        -11    1    3    3    0    0  0.66443513164E+02 -0.10195066508E+03 -0.25847467853E+03  0.28568835817E+03  0.00000000000E+00 0.  1.
         12    1    3    3    0    0 -0.90343327715E+01 -0.10816688989E+03 -0.30930076809E+03  0.32779362468E+03  0.00000000000E+00 0. -1.
        -11    1    4    4    0    0  0.75295830803E+01  0.17468938183E+03  0.35338528884E+03  0.39427685339E+03  0.00000000000E+00 0. -1.
         11    1    4    4    0    0 -0.15674596215E+02  0.34882306851E+02  0.21517653450E+03  0.21854841408E+03  0.00000000000E+00 0.  1.
         21    1    1    2  502  501 -0.49264167258E+02  0.54586628488E+00  0.52167747358E+02  0.71754651487E+02  0.00000000000E+00 0. -1.
<scales pt_clust_5="13000.00000" pt_clust_6="13000.00000" pt_clust_7="13000.00000" pt_clust_8="13000.00000" pt_clust_9="49.26719"></scales>
<clustering>
<clus scale="   49.267">  1  9  2 -1</clus>
<clus scale="   80.907">  5  6 -1 -1</clus>
<clus scale="   91.135">  7  8 -1 -1</clus>
<clus scale="  231.895">  2  5  1 -1</clus>
<clus scale="   49.267">  1  5  2 -1</clus>
</clustering>
</event>
<event>
 9    2  0.2984928E-005  0.1032928E+03  0.7546771E-02  0.1278617E+00
         -1   -1    0    0    0  501 -0.00000000000E+00  0.00000000000E+00  0.11208787625E+03  0.11208787625E+03  0.00000000000E+00 0.  1.
          2   -1    0    0  502    0  0.00000000000E+00 -0.00000000000E+00 -0.23330655493E+03  0.23330655493E+03  0.00000000000E+00 0. -1.
         23    2    1    2    0    0 -0.64017856800E+01 -0.46630856937E+02  0.59821665810E+02  0.11866138823E+03  0.91030070187E+02 0.  0.
         24    2    1    2    0    0  0.29018232810E+02  0.51214025305E+02 -0.94162364160E+02  0.13684259530E+03  0.79965060118E+02 0.  0.
        -13    1    4    4    0    0  0.47869495377E+02  0.29062746860E+02 -0.91963427254E+02  0.10767266968E+03  0.00000000000E+00 0.  1.
         14    1    4    4    0    0 -0.18851262568E+02  0.22151278445E+02 -0.21989369058E+01  0.29169925620E+02  0.00000000000E+00 0. -1.
        -13    1    3    3    0    0 -0.37981738694E+02 -0.50212854985E+02  0.16780902740E+02  0.65157823603E+02  0.00000000000E+00 0. -1.
         13    1    3    3    0    0  0.31579953014E+02  0.35819980480E+01  0.43040763069E+02  0.53503564628E+02  0.00000000000E+00 0.  1.
         21    1    1    2  502  501 -0.22616447130E+02 -0.45831683683E+01 -0.86877980335E+02  0.89890447658E+02  0.00000000000E+00 0. -1.
<scales pt_clust_5="13000.00000" pt_clust_6="13000.00000" pt_clust_7="13000.00000" pt_clust_8="13000.00000" pt_clust_9="23.07616"></scales>
<clustering>
<clus scale="   23.076">  2  9  1 -1</clus>
<clus scale="   79.965">  5  6 -1 -1</clus>
<clus scale="   91.030">  7  8 -1 -1</clus>
<clus scale="   93.687">  2  5  1 -1</clus>
<clus scale="   23.076">  2  5  1 -1</clus>
</clustering>
</event>
<event>
 9    2  0.2984928E-005  0.9741713E+02  0.7546771E-02  0.1297271E+00
         -1   -1    0    0    0  501 -0.00000000000E+00  0.00000000000E+00  0.58675887649E+02  0.58675887649E+02  0.00000000000E+00 0.  1.
          2   -1    0    0  502    0  0.00000000000E+00 -0.00000000000E+00 -0.27781958901E+03  0.27781958901E+03  0.00000000000E+00 0. -1.
         23    2    1    2    0    0 -0.17506950755E+02 -0.29172026461E+02 -0.52807407861E+01  0.98285891206E+02  0.92058295304E+02 0.  0.
         24    2    1    2    0    0 -0.68424734114E+01  0.31532716616E+02 -0.14360440172E+03  0.16381380326E+03  0.71913881042E+02 0.  0.
        -11    1    4    4    0    0 -0.26241427784E+02  0.15105228338E+02 -0.17085127898E+02  0.34766104910E+02  0.00000000000E+00 0.  1.
         12    1    4    4    0    0  0.19398954373E+02  0.16427488278E+02 -0.12651927382E+03  0.12904769835E+03  0.00000000000E+00 0. -1.
        -11    1    3    3    0    0 -0.38316599251E+02 -0.50511265096E+02  0.10963143353E+02  0.64340812801E+02  0.00000000000E+00 0.  1.
         11    1    3    3    0    0  0.20809648496E+02  0.21339238634E+02 -0.16243884139E+02  0.33945078405E+02  0.00000000000E+00 0. -1.
         21    1    1    2  502  501  0.24349424166E+02 -0.23606901543E+01 -0.70258558853E+02  0.74395782188E+02  0.00000000000E+00 0. -1.
<scales pt_clust_5="13000.00000" pt_clust_6="13000.00000" pt_clust_7="13000.00000" pt_clust_8="13000.00000" pt_clust_9="24.46359"></scales>
<clustering>
<clus scale="   24.464">  2  9  1 -1</clus>
<clus scale="   71.914">  5  6 -1 -1</clus>
<clus scale="   78.657">  2  5  1 -1</clus>
<clus scale="   92.058">  7  8 -1 -1</clus>
<clus scale="   24.464">  2  5  1 -1</clus>
</clustering>
</event>
<event>
 9    2  0.2984928E-005  0.1455593E+03  0.7546771E-02  0.1208176E+00
         -1   -1    0    0    0  501 -0.00000000000E+00  0.00000000000E+00  0.90399855264E+02  0.90399855264E+02  0.00000000000E+00 0.  1.
          2   -1    0    0  502    0  0.00000000000E+00 -0.00000000000E+00 -0.27329883122E+03  0.27329883122E+03  0.00000000000E+00 0. -1.
         23    2    1    2    0    0 -0.21778206772E+02  0.11885037879E+03 -0.47283679963E+02  0.15857587997E+03  0.91163920975E+02 0.  0.
         24    2    1    2    0    0  0.50393581655E+01 -0.10364744884E+03 -0.11379871058E+03  0.17370177008E+03  0.80336601984E+02 0.  0.
        -13    1    4    4    0    0 -0.27985068778E+02 -0.41055670933E+02 -0.82529175829E+02  0.96331703262E+02  0.00000000000E+00 0.  1.
         14    1    4    4    0    0  0.33024426943E+02 -0.62591777905E+02 -0.31269534753E+02  0.77370066821E+02  0.00000000000E+00 0. -1.
        -11    1    3    3    0    0 -0.23063486096E+01  0.96441304759E+02  0.69812855499E+01  0.96721160329E+02  0.00000000000E+00 0.  1.
         11    1    3    3    0    0 -0.19471858162E+02  0.22409074030E+02 -0.54264965513E+02  0.61854719636E+02  0.00000000000E+00 0. -1.
         21    1    1    2  502  501  0.16738848606E+02 -0.15202929952E+02 -0.21816585415E+02  0.31421036440E+02  0.00000000000E+00 0. -1.
<scales pt_clust_5="13000.00000" pt_clust_6="13000.00000" pt_clust_7="13000.00000" pt_clust_8="13000.00000" pt_clust_9="22.61234"></scales>
<clustering>
<clus scale="   22.612">  2  9  1 -1</clus>
<clus scale="   80.337">  5  6 -1 -1</clus>
<clus scale="   91.164">  7  8 -1 -1</clus>
<clus scale="  139.035">  2  5  1 -1</clus>
<clus scale="   22.612">  2  5  1 -1</clus>
</clustering>
</event>
<event>
 9    2  0.2984928E-005  0.1003268E+03  0.7546771E-02  0.1283697E+00
          2   -1    0    0  502    0  0.00000000000E+00  0.00000000000E+00  0.52777288252E+02  0.52777288252E+02  0.00000000000E+00 0. -1.
         -1   -1    0    0    0  501 -0.00000000000E+00 -0.00000000000E+00 -0.80013310779E+03  0.80013310779E+03  0.00000000000E+00 0.  1.
         24    2    1    2    0    0 -0.39209161933E+02 -0.15887146084E+02 -0.53179288438E+03  0.53984346208E+03  0.82689369832E+02 0.  0.
         23    2    1    2    0    0  0.47236527119E+02 -0.12555988515E+02 -0.24831711440E+03  0.26895019388E+03  0.91015796116E+02 0.  0.
        -13    1    3    3    0    0 -0.24931150703E+01 -0.39750956585E+02 -0.13828373439E+03  0.14390533474E+03  0.00000000000E+00 0.  1.
         14    1    3    3    0    0 -0.36716046863E+02  0.23863810502E+02 -0.39350915000E+03  0.39593812734E+03  0.00000000000E+00 0. -1.
        -13    1    4    4    0    0 -0.24205744006E+02  0.12650307558E+02 -0.74139432269E+02  0.79010149610E+02  0.00000000000E+00 0. -1.
         13    1    4    4    0    0  0.71442271124E+02 -0.25206296072E+02 -0.17417768213E+03  0.18994004427E+03  0.00000000000E+00 0.  1.
         21    1    1    2  502  501 -0.80273651857E+01  0.28443134598E+02  0.32754179243E+02  0.44116740082E+02  0.00000000000E+00 0. -1.
<scales pt_clust_5="13000.00000" pt_clust_6="13000.00000" pt_clust_7="13000.00000" pt_clust_8="13000.00000" pt_clust_9="29.55420"></scales>
<clustering>
<clus scale="   29.554">  1  9  2 -1</clus>
<clus scale="   82.689">  5  6 -1 -1</clus>
<clus scale="   91.016">  7  8 -1 -1</clus>
<clus scale="   92.839">  2  5  1 -1</clus>
<clus scale="   29.554">  1  5  2 -1</clus>
</clustering>
</event>
<event>
 9    2  0.2984928E-005  0.1852539E+03  0.7546771E-02  0.1180389E+00
          2   -1    0    0  502    0  0.00000000000E+00  0.00000000000E+00  0.69779877868E+03  0.69779877868E+03  0.00000000000E+00 0. -1.
         -1   -1    0    0    0  501 -0.00000000000E+00 -0.00000000000E+00 -0.13249959572E+03  0.13249959572E+03  0.00000000000E+00 0.  1.
         24    2    1    2    0    0 -0.61930948666E+02 -0.71473688027E+02  0.77018592193E+02  0.14602812412E+03  0.80302048595E+02 0.  0.
         23    2    1    2    0    0  0.39773847740E+01 -0.92424844056E+02 -0.33620027074E+02  0.13417789504E+03  0.91187882470E+02 0.  0.
        -13    1    3    3    0    0 -0.66844221392E+02 -0.73898548156E+02  0.38028762996E+02  0.10665520226E+03  0.00000000000E+00 0.  1.
         14    1    3    3    0    0  0.49132727267E+01  0.24248601294E+01  0.38989829197E+02  0.39372921867E+02  0.00000000000E+00 0. -1.
        -11    1    4    4    0    0  0.42859963522E+01 -0.50548648962E+02  0.29309295721E+02  0.58588142933E+02  0.00000000000E+00 0. -1.
         11    1    4    4    0    0 -0.30861157816E+00 -0.41876195095E+02 -0.62929322795E+02  0.75589752111E+02  0.00000000000E+00 0.  1.
         21    1    1    2  502  501  0.57953563892E+02  0.16389853208E+03  0.52190061784E+03  0.55009235523E+03  0.00000000000E+00 0. -1.
<scales pt_clust_5="13000.00000" pt_clust_6="13000.00000" pt_clust_7="13000.00000" pt_clust_8="13000.00000" pt_clust_9="161.25689"></scales>
<clustering>
<clus scale="   80.302">  5  6 -1 -1</clus>
<clus scale="   91.188">  7  8 -1 -1</clus>
<clus scale="  124.066">  2  5  1 -1</clus>
<clus scale="  161.257">  1  9  2 -1</clus>
<clus scale="  161.257">  1  5  2 -1</clus>
</clustering>
</event>
<event>
 9    2  0.2984928E-005  0.9201845E+02  0.7546771E-02  0.1302452E+00
          2   -1    0    0  502    0  0.00000000000E+00  0.00000000000E+00  0.85409080617E+03  0.85409080617E+03  0.00000000000E+00 0. -1.
         -1   -1    0    0    0  501 -0.00000000000E+00 -0.00000000000E+00 -0.51265221335E+02  0.51265221335E+02  0.00000000000E+00 0.  1.
         24    2    1    2    0    0 -0.10549754299E+02 -0.43340750346E+01  0.40635897417E+01  0.84483103542E+02  0.83611007053E+02 0.  0.
         23    2    1    2    0    0  0.50781741375E+02 -0.52395549376E+02  0.42494492820E+03  0.44064133326E+03  0.90898370287E+02 0.  0.
        -13    1    3    3    0    0 -0.81106134764E+00 -0.33488880581E+02 -0.25295606164E+02  0.41976548623E+02  0.00000000000E+00 0.  1.
         14    1    3    3    0    0 -0.97386929510E+01  0.29154805547E+02  0.29359195906E+02  0.42506554919E+02  0.00000000000E+00 0. -1.
        -11    1    4    4    0    0  0.17077966726E+02 -0.73415647470E+02  0.30979264872E+03  0.31883067519E+03  0.00000000000E+00 0.  1.
         11    1    4    4    0    0  0.33703774650E+02  0.21020098095E+02  0.11515227949E+03  0.12181065807E+03  0.00000000000E+00 0. -1.
         21    1    1    2  502  501 -0.40231987077E+02  0.56729624410E+02  0.37381706689E+03  0.38023159071E+03  0.00000000000E+00 0. -1.
<scales pt_clust_5="13000.00000" pt_clust_6="13000.00000" pt_clust_7="13000.00000" pt_clust_8="13000.00000" pt_clust_9="69.54756"></scales>
<clustering>
<clus scale="   69.548">  1  9  2 -1</clus>
<clus scale="   83.611">  5  6 -1 -1</clus>
<clus scale="   84.827">  2  5  1 -1</clus>
<clus scale="   90.898">  7  8 -1 -1</clus>
<clus scale="   69.548">  1  5  2 -1</clus>
</clustering>
</event>
<event>
 9    2  0.2984928E-005  0.1652394E+03  0.7546771E-02  0.1185105E+00
          2   -1    0    0  502    0  0.00000000000E+00  0.00000000000E+00  0.32218271908E+03  0.32218271908E+03  0.00000000000E+00 0. -1.
         -1   -1    0    0    0  501 -0.00000000000E+00 -0.00000000000E+00 -0.23001415654E+03  0.23001415654E+03  0.00000000000E+00 0.  1.
         23    2    1    2    0    0 -0.98496683428E+02 -0.10717198836E+03 -0.75834743166E+02  0.18776869168E+03  0.91207135523E+02 0.  0.
         24    2    1    2    0    0  0.13589557206E+03  0.36284475794E+02 -0.19006044676E+02  0.16096758962E+03  0.75928686839E+02 0.  0.
        -11    1    4    4    0    0  0.15233277612E+02  0.35928796712E+02 -0.76910050604E+01  0.39775403691E+02  0.00000000000E+00 0.  1.
         12    1    4    4    0    0  0.12066229445E+03  0.35567908217E+00 -0.11315039616E+02  0.12119218593E+03  0.00000000000E+00 0. -1.
        -11    1    3    3    0    0 -0.39051461480E+02 -0.56849673798E+02  0.12400470740E+02  0.70076199449E+02  0.00000000000E+00 0.  1.
         11    1    3    3    0    0 -0.59445221948E+02 -0.50322314558E+02 -0.88235213906E+02  0.11769249223E+03  0.00000000000E+00 0. -1.
         21    1    1    2  502  501 -0.37398888629E+02  0.70887512562E+02  0.18700935039E+03  0.20346059432E+03  0.00000000000E+00 0. -1.
<scales pt_clust_5="13000.00000" pt_clust_6="13000.00000" pt_clust_7="13000.00000" pt_clust_8="13000.00000" pt_clust_9="80.14809"></scales>
<clustering>
<clus scale="   75.929">  5  6 -1 -1</clus>
<clus scale="   80.148">  1  9  2 -1</clus>
<clus scale="   91.207">  7  8 -1 -1</clus>
<clus scale="  157.323">  1  5  2 -1</clus>
<clus scale="   80.148">  1  5  2 -1</clus>
</clustering>
</event>
<event>
 9    2  0.2984928E-005  0.1467555E+03  0.7546771E-02  0.1216363E+00
          2   -1    0    0  502    0  0.00000000000E+00  0.00000000000E+00  0.19882413014E+03  0.19882413014E+03  0.00000000000E+00 0. -1.
         -1   -1    0    0    0  501 -0.00000000000E+00 -0.00000000000E+00 -0.35733445527E+03  0.35733445527E+03  0.00000000000E+00 0.  1.
         24    2    1    2    0    0  0.53402673740E+02  0.56193996403E+02 -0.24371844312E+03  0.26905290138E+03  0.83553416605E+02 0.  0.
         23    2    1    2    0    0 -0.27942994801E+00  0.75466540221E+02 -0.52364952491E+01  0.11877029263E+03  0.91562463677E+02 0.  0.
        -13    1    3    3    0    0  0.16246989118E+02  0.71664518007E+02 -0.16577040802E+03  0.18132731722E+03  0.00000000000E+00 0.  1.
         14    1    3    3    0    0  0.37155684622E+02 -0.15470521604E+02 -0.77948035108E+02  0.87725584157E+02  0.00000000000E+00 0. -1.
        -11    1    4    4    0    0  0.10214699260E+02 -0.17457290564E+02 -0.14369460511E+02  0.24810853879E+02  0.00000000000E+00 0.  1.
         11    1    4    4    0    0 -0.10494129208E+02  0.92923830786E+02  0.91329652617E+01  0.93959438750E+02  0.00000000000E+00 0. -1.
         21    1    1    2  502  501 -0.53123243792E+02 -0.13166053662E+03  0.90444613243E+02  0.16833539141E+03  0.00000000000E+00 0. -1.
<scales pt_clust_5="13000.00000" pt_clust_6="13000.00000" pt_clust_7="13000.00000" pt_clust_8="13000.00000" pt_clust_9="114.68863"></scales>
<clustering>
<clus scale="   83.553">  5  6 -1 -1</clus>
<clus scale="   91.562">  7  8 -1 -1</clus>
<clus scale="  113.977">  2  5  1 -1</clus>
<clus scale="  114.689">  1  9  2 -1</clus>
<clus scale="  114.689">  1  5  2 -1</clus>
</clustering>
</event>
<event>
 9    2  0.2984928E-005  0.1317122E+03  0.7546771E-02  0.1238893E+00
          2   -1    0    0  502    0  0.00000000000E+00  0.00000000000E+00  0.55460397472E+03  0.55460397472E+03  0.00000000000E+00 0. -1.
         -1   -1    0    0    0  501 -0.00000000000E+00 -0.00000000000E+00 -0.95388726682E+02  0.95388726682E+02  0.00000000000E+00 0.  1.
         23    2    1    2    0    0  0.41174698390E+02 -0.12651693765E+01 -0.31885381451E+02  0.10384255563E+03  0.89831188171E+02 0.  0.
         24    2    1    2    0    0 -0.14938182406E+02  0.10363548371E+03  0.25645569073E+03  0.28880546774E+03  0.81704431407E+02 0.  0.
        -11    1    4    4    0    0 -0.31895638160E+02  0.10951638187E+03  0.23137474446E+03  0.25796403238E+03  0.00000000000E+00 0.  1.
         12    1    4    4    0    0  0.16957455754E+02 -0.58808981616E+01  0.25080946279E+02  0.30841435360E+02  0.00000000000E+00 0. -1.
        -11    1    3    3    0    0  0.80093587178E+01  0.23421499832E+02  0.23898774279E+02  0.34407381381E+02  0.00000000000E+00 0. -1.
         11    1    3    3    0    0  0.33165339672E+02 -0.24686669209E+02 -0.55784155730E+02  0.69435174247E+02  0.00000000000E+00 0.  1.
         21    1    1    2  502  501 -0.26236515984E+02 -0.10237031433E+03  0.23464493876E+03  0.25734467803E+03  0.00000000000E+00 0. -1.
<scales pt_clust_5="13000.00000" pt_clust_6="13000.00000" pt_clust_7="13000.00000" pt_clust_8="13000.00000" pt_clust_9="103.30768"></scales>
<clustering>
<clus scale="   81.704">  5  6 -1 -1</clus>
<clus scale="   89.831">  7  8 -1 -1</clus>
<clus scale="   98.826">  2  7  1 -1</clus>
<clus scale="  103.308">  1  9  2 -1</clus>
<clus scale="  103.308">  1  5  2 -1</clus>
</clustering>
</event>
<event>
 9    2  0.2984928E-005  0.1316796E+03  0.7546771E-02  0.1227745E+00
         -1   -1    0    0    0  501 -0.00000000000E+00  0.00000000000E+00  0.10346363481E+03  0.10346363481E+03  0.00000000000E+00 0.  1.
          2   -1    0    0  502    0  0.00000000000E+00 -0.00000000000E+00 -0.42513866336E+03  0.42513866336E+03  0.00000000000E+00 0. -1.
         23    2    1    2    0    0  0.49948431889E+02  0.78256637579E+02  0.33050297483E+02  0.13442191121E+03  0.91421993389E+02 0.  0.
         24    2    1    2    0    0 -0.36496993089E+02 -0.99325690016E+02 -0.21920240647E+03  0.25637143259E+03  0.80492193682E+02 0.  0.
        -13    1    4    4    0    0 -0.43245926498E+02 -0.69086907138E+02 -0.81634401107E+02  0.11535764535E+03  0.00000000000E+00 0.  1.
         14    1    4    4    0    0  0.67489334087E+01 -0.30238782878E+02 -0.13756800536E+03  0.14101378724E+03  0.00000000000E+00 0. -1.
        -11    1    3    3    0    0  0.32625988257E+02 -0.10655963002E+02  0.26939195319E+02  0.43631696067E+02  0.00000000000E+00 0.  1.
         11    1    3    3    0    0  0.17322443633E+02  0.88912600580E+02  0.61111021640E+01  0.90790215139E+02  0.00000000000E+00 0. -1.
         21    1    1    2  502  501 -0.13451438800E+02  0.21069052437E+02 -0.13552291957E+03  0.13780895438E+03  0.00000000000E+00 0. -1.
<scales pt_clust_5="13000.00000" pt_clust_6="13000.00000" pt_clust_7="13000.00000" pt_clust_8="13000.00000" pt_clust_9="24.99692"></scales>
<clustering>
<clus scale="   24.997">  2  9  1 -1</clus>
<clus scale="   80.492">  5  6 -1 -1</clus>
<clus scale="   91.422">  7  8 -1 -1</clus>
<clus scale="  124.340">  2  5  1 -1</clus>
<clus scale="   24.997">  2  5  1 -1</clus>
</clustering>
</event>
<event>
 9    2  0.2984928E-005  0.2667000E+03  0.7546771E-02  0.1103559E+00
         -1   -1    0    0    0  501 -0.00000000000E+00  0.00000000000E+00  0.21438279303E+03  0.21438279303E+03  0.00000000000E+00 0.  1.
          2   -1    0    0  502    0  0.00000000000E+00 -0.00000000000E+00 -0.65790521572E+03  0.65790521572E+03  0.00000000000E+00 0. -1.
         24    2    1    2    0    0  0.14620105347E+03  0.22805523366E+03  0.61384540735E+02  0.28933011458E+03  0.80993306661E+02 0.  0.
         23    2    1    2    0    0 -0.96295146922E+02 -0.15985357345E+03 -0.35092902065E+03  0.40731259015E+03  0.89030603151E+02 0.  0.
        -11    1    3    3    0    0  0.14384602244E+03  0.22815330311E+03  0.71429631697E+02  0.27901218643E+03  0.00000000000E+00 0.  1.
         12    1    3    3    0    0  0.23550310257E+01 -0.98069450528E-01 -0.10045090962E+02  0.10317928144E+02  0.00000000000E+00 0. -1.
        -11    1    4    4    0    0 -0.69441471765E+02 -0.51563375359E+02 -0.21311517471E+03  0.22999777689E+03  0.00000000000E+00 0. -1.
         11    1    4    4    0    0 -0.26853675156E+02 -0.10829019809E+03 -0.13781384594E+03  0.17731481327E+03  0.00000000000E+00 0.  1.
         21    1    1    2  502  501 -0.49905906547E+02 -0.68201660210E+02 -0.15397794277E+03  0.17564530402E+03  0.00000000000E+00 0. -1.
<scales pt_clust_5="13000.00000" pt_clust_6="13000.00000" pt_clust_7="13000.00000" pt_clust_8="13000.00000" pt_clust_9="84.51074"></scales>
<clustering>
<clus scale="   80.993">  5  6 -1 -1</clus>
<clus scale="   84.511">  2  9  1 -1</clus>
<clus scale="   89.031">  7  8 -1 -1</clus>
<clus scale="  264.126">  1  5  2 -1</clus>
<clus scale="   84.511">  2  5  1 -1</clus>
</clustering>
</event>
<event>
 9    2  0.2984928E-005  0.2121474E+03  0.7546771E-02  0.1140921E+00
          2   -1    0    0  502    0  0.00000000000E+00  0.00000000000E+00  0.57335326831E+03  0.57335326831E+03  0.00000000000E+00 0. -1.
         -1   -1    0    0    0  501 -0.00000000000E+00 -0.00000000000E+00 -0.11510169782E+03  0.11510169782E+03  0.00000000000E+00 0.  1.
         23    2    1    2    0    0  0.14017048760E+03 -0.12353742928E+03  0.55888796540E+02  0.21532980355E+03  0.91291317706E+02 0.  0.
         24    2    1    2    0    0 -0.16029035340E+03  0.12566945534E+03  0.31331687913E+03  0.38180963312E+03  0.78264422305E+02 0.  0.
        -11    1    4    4    0    0 -0.61690410849E+02  0.67959787362E+02  0.78901331519E+02  0.12103577820E+03  0.00000000000E+00 0.  1.
         12    1    4    4    0    0 -0.98599942548E+02  0.57709667978E+02  0.23441554761E+03  0.26077385492E+03  0.00000000000E+00 0. -1.
        -11    1    3    3    0    0  0.36809205263E+02 -0.52142871049E+02  0.62769806168E+02  0.89520082438E+02  0.00000000000E+00 0. -1.
         11    1    3    3    0    0  0.10336128234E+03 -0.71394558236E+02 -0.68810096278E+01  0.12580972111E+03  0.00000000000E+00 0.  1.
         21    1    1    2  502  501  0.20119865796E+02 -0.21320260561E+01  0.89045894821E+02  0.91315529452E+02  0.00000000000E+00 0.  1.
<scales pt_clust_5="13000.00000" pt_clust_6="13000.00000" pt_clust_7="13000.00000" pt_clust_8="13000.00000" pt_clust_9="20.23251"></scales>
<clustering>
<clus scale="   20.233">  1  9  2 -1</clus>
<clus scale="   78.264">  5  6 -1 -1</clus>
<clus scale="   91.291">  7  8 -1 -1</clus>
<clus scale="  206.876">  1  5  2 -1</clus>
<clus scale="   20.233">  1  5  2 -1</clus>
</clustering>
</event>
<event>
 9    2  0.2984928E-005  0.1011223E+03  0.7546771E-02  0.1282078E+00
          2   -1    0    0  502    0  0.00000000000E+00  0.00000000000E+00  0.14209557796E+03  0.14209557796E+03  0.00000000000E+00 0. -1.
         -1   -1    0    0    0  501 -0.00000000000E+00 -0.00000000000E+00 -0.21837516372E+03  0.21837516372E+03  0.00000000000E+00 0.  1.
         23    2    1    2    0    0 -0.47572284762E+02 -0.58825317883E+01 -0.17039385953E+03  0.19908304693E+03  0.91116769864E+02 0.  0.
         24    2    1    2    0    0  0.18814288085E+02 -0.24079170137E+02  0.75079916825E+02  0.11570364174E+03  0.82562430503E+02 0.  0.
        -13    1    4    4    0    0  0.11086055362E+02 -0.52539904968E+02  0.29089985089E+02  0.61070201163E+02  0.00000000000E+00 0.  1.
         14    1    4    4    0    0  0.77282327232E+01  0.28460734831E+02  0.45989931737E+02  0.54633440577E+02  0.00000000000E+00 0. -1.
        -11    1    3    3    0    0 -0.57421266638E+02 -0.36243524410E+02 -0.91228229150E+02  0.11372503998E+03  0.00000000000E+00 0.  1.
         11    1    3    3    0    0  0.98489818765E+01  0.30360992622E+02 -0.79165630380E+02  0.85358006950E+02  0.00000000000E+00 0. -1.
         21    1    1    2  502  501  0.28757996676E+02  0.29961701926E+02  0.19034356948E+02  0.45684053011E+02  0.00000000000E+00 0. -1.
<scales pt_clust_5="13000.00000" pt_clust_6="13000.00000" pt_clust_7="13000.00000" pt_clust_8="13000.00000" pt_clust_9="41.52982"></scales>
<clustering>
<clus scale="   41.530">  1  9  2 -1</clus>
<clus scale="   82.562">  5  6 -1 -1</clus>
<clus scale="   91.117">  7  8 -1 -1</clus>
<clus scale="   93.488">  1  5  2 -1</clus>
<clus scale="   41.530">  1  5  2 -1</clus>
</clustering>
</event>
<event>
 9    2  0.2984928E-005  0.9507504E+02  0.7546771E-02  0.1295105E+00
          2   -1    0    0  502    0  0.00000000000E+00  0.00000000000E+00  0.42271763521E+03  0.42271763521E+03  0.00000000000E+00 0. -1.
         -1   -1    0    0    0  501 -0.00000000000E+00 -0.00000000000E+00 -0.60214501179E+02  0.60214501179E+02  0.00000000000E+00 0.  1.
         24    2    1    2    0    0  0.99456056823E+01  0.34052318692E+02 -0.13822728703E+02  0.90081716068E+02  0.81640506247E+02 0.  0.
         23    2    1    2    0    0 -0.81314018502E+01 -0.13258027542E+02  0.27880385652E+03  0.29311960475E+03  0.89138192061E+02 0.  0.
        -13    1    3    3    0    0  0.47775997540E+01  0.56512419835E+02 -0.27764996127E+02  0.63145657530E+02  0.00000000000E+00 0.  1.
         14    1    3    3    0    0  0.51680059283E+01 -0.22460101143E+02  0.13942267424E+02  0.26936058538E+02  0.00000000000E+00 0. -1.
        -11    1    4    4    0    0  0.13858221822E+02  0.30624526805E+02  0.59015594704E+02  0.67917246502E+02  0.00000000000E+00 0.  1.
         11    1    4    4    0    0 -0.21989623672E+02 -0.43882554347E+02  0.21978826182E+03  0.22520235824E+03  0.00000000000E+00 0. -1.
         21    1    1    2  502  501 -0.18142038321E+01 -0.20794291150E+02  0.97522006209E+02  0.99730815574E+02  0.00000000000E+00 0. -1.
<scales pt_clust_5="13000.00000" pt_clust_6="13000.00000" pt_clust_7="13000.00000" pt_clust_8="13000.00000" pt_clust_9="20.87328"></scales>
<clustering>
<clus scale="   20.873">  1  9  2 -1</clus>
<clus scale="   81.641">  5  6 -1 -1</clus>
<clus scale="   88.084">  2  5  1 -1</clus>
<clus scale="   89.138">  7  8 -1 -1</clus>
<clus scale="   20.873">  1  5  2 -1</clus>
</clustering>
</event>
<event>
 9    2  0.2984928E-005  0.1525312E+03  0.7546771E-02  0.1199073E+00
         -1   -1    0    0    0  501 -0.00000000000E+00  0.00000000000E+00  0.55469902522E+02  0.55469902522E+02  0.00000000000E+00 0.  1.
          2   -1    0    0  502    0  0.00000000000E+00 -0.00000000000E+00 -0.62187764549E+03  0.62187764549E+03  0.00000000000E+00 0. -1.
         24    2    1    2    0    0 -0.12506410735E+03 -0.21716620280E+02 -0.11004038192E+03  0.18620144302E+03  0.80308462729E+02 0.  0.
         23    2    1    2    0    0  0.11645214923E+03 -0.62918325527E+01 -0.32910767953E+03  0.36055642012E+03  0.89935405439E+02 0.  0.
        -11    1    3    3    0    0 -0.11718857653E+03 -0.39451957778E+02 -0.70952882191E+02  0.14256202487E+03  0.00000000000E+00 0.  1.
         12    1    3    3    0    0 -0.78755308135E+01  0.17735337498E+02 -0.39087499724E+02  0.43639418149E+02  0.00000000000E+00 0. -1.
        -13    1    4    4    0    0  0.69017792531E+02 -0.45461746415E+02 -0.22413629527E+03  0.23888764081E+03  0.00000000000E+00 0. -1.
         13    1    4    4    0    0  0.47434356702E+02  0.39169913862E+02 -0.10497138425E+03  0.12166877931E+03  0.00000000000E+00 0.  1.
         21    1    1    2  502  501  0.86119581135E+01  0.28008452833E+02 -0.12725968153E+03  0.13058968487E+03  0.00000000000E+00 0. -1.
<scales pt_clust_5="13000.00000" pt_clust_6="13000.00000" pt_clust_7="13000.00000" pt_clust_8="13000.00000" pt_clust_9="29.30255"></scales>
<clustering>
<clus scale="   29.303">  2  9  1 -1</clus>
<clus scale="   80.308">  5  6 -1 -1</clus>
<clus scale="   89.935">  7  8 -1 -1</clus>
<clus scale="  147.061">  1  5  2 -1</clus>
<clus scale="   29.303">  2  5  1 -1</clus>
</clustering>
</event>
<event>
 9    2  0.2984928E-005  0.1966903E+03  0.7546771E-02  0.1153010E+00
         -1   -1    0    0    0  501 -0.00000000000E+00  0.00000000000E+00  0.20639696331E+03  0.20639696331E+03  0.00000000000E+00 0.  1.
          2   -1    0    0  502    0  0.00000000000E+00 -0.00000000000E+00 -0.30456823547E+03  0.30456823547E+03  0.00000000000E+00 0. -1.
         24    2    1    2    0    0 -0.18833873987E+03  0.39788567793E+02  0.58588279195E+02  0.21838691621E+03  0.84886086321E+02 0.  0.
         23    2    1    2    0    0  0.14371957165E+03 -0.40408236825E+02 -0.56794448760E+02  0.18310556496E+03  0.89520375510E+02 0.  0.
        -13    1    3    3    0    0 -0.13081140311E+03  0.62801596751E+02  0.22950876253E+02  0.14690951793E+03  0.00000000000E+00 0.  1.
         14    1    3    3    0    0 -0.57527336754E+02 -0.23013028958E+02  0.35637402941E+02  0.71477398276E+02  0.00000000000E+00 0. -1.
        -11    1    4    4    0    0  0.45361779804E+02 -0.46750926468E+02  0.72807969056E+01  0.65546549842E+02  0.00000000000E+00 0.  1.
         11    1    4    4    0    0  0.98357791849E+02  0.63426896433E+01 -0.64075245665E+02  0.11755901512E+03  0.00000000000E+00 0. -1.
         21    1    1    2  502  501  0.44619168213E+02  0.61966903248E+00 -0.99965102600E+02  0.10947271760E+03  0.00000000000E+00 0. -1.
<scales pt_clust_5="13000.00000" pt_clust_6="13000.00000" pt_clust_7="13000.00000" pt_clust_8="13000.00000" pt_clust_9="44.62347"></scales>
<clustering>
<clus scale="   44.623">  2  9  1 -1</clus>
<clus scale="   84.886">  5  6 -1 -1</clus>
<clus scale="   89.520">  7  8 -1 -1</clus>
<clus scale="  194.625">  1  5  2 -1</clus>
<clus scale="   44.623">  2  5  1 -1</clus>
</clustering>
</event>
<event>
 9    2  0.2984928E-005  0.1552452E+03  0.7546771E-02  0.1195817E+00
         -1   -1    0    0    0  501 -0.00000000000E+00  0.00000000000E+00  0.33514616832E+03  0.33514616832E+03  0.00000000000E+00 0.  1.
          2   -1    0    0  502    0  0.00000000000E+00 -0.00000000000E+00 -0.21043562267E+03  0.21043562267E+03  0.00000000000E+00 0. -1.
         23    2    1    2    0    0  0.35697456043E+02 -0.14203888281E+03  0.19311506193E+03  0.25858893450E+03  0.90141318525E+02 0.  0.
         24    2    1    2    0    0 -0.10255713770E+03  0.56012370794E+02  0.24394805773E+02  0.14387579960E+03  0.80310565846E+02 0.  0.
        -13    1    4    4    0    0 -0.72225789196E+02  0.61533273722E+02 -0.12602553698E+02  0.95716940818E+02  0.00000000000E+00 0.  1.
         14    1    4    4    0    0 -0.30331348502E+02 -0.55209029281E+01  0.36997359471E+02  0.48158858780E+02  0.00000000000E+00 0. -1.
        -13    1    3    3    0    0  0.65685471259E+02 -0.97943344693E+02  0.12174898558E+03  0.16950013391E+03  0.00000000000E+00 0. -1.
         13    1    3    3    0    0 -0.29988015216E+02 -0.44095538116E+02  0.71366076345E+02  0.89088800593E+02  0.00000000000E+00 0.  1.
         21    1    1    2  502  501  0.66859681655E+02  0.86026512016E+02 -0.92799322045E+02  0.14311705689E+03  0.00000000000E+00 0.  1.
<scales pt_clust_5="13000.00000" pt_clust_6="13000.00000" pt_clust_7="13000.00000" pt_clust_8="13000.00000" pt_clust_9="108.95310"></scales>
<clustering>
<clus scale="   80.311">  5  6 -1 -1</clus>
<clus scale="   90.141">  7  8 -1 -1</clus>
<clus scale="  108.953">  2  9  1 -1</clus>
<clus scale="  149.751">  2  5  1 -1</clus>
<clus scale="  108.953">  2  5  1 -1</clus>
</clustering>
</event>
<event>
 9    2  0.2984928E-005  0.9198179E+02  0.7546771E-02  0.1303044E+00
         -1   -1    0    0    0  501 -0.00000000000E+00  0.00000000000E+00  0.38468097251E+02  0.38468097251E+02  0.00000000000E+00 0.  1.
          2   -1    0    0  502    0  0.00000000000E+00 -0.00000000000E+00 -0.40585965361E+03  0.40585965361E+03  0.00000000000E+00 0. -1.
         23    2    1    2    0    0 -0.57632767433E+01 -0.38386062227E+02 -0.69986192610E+02  0.12091942584E+03  0.90646209277E+02 0.  0.
         24    2    1    2    0    0  0.99417711855E+00  0.99502105599E+01 -0.27379319768E+03  0.28614069353E+03  0.82545662011E+02 0.  0.
        -11    1    4    4    0    0  0.20248713399E+02 -0.31165935237E+02 -0.14024381733E+03  0.14508498962E+03  0.00000000000E+00 0.  1.
         12    1    4    4    0    0 -0.19254536280E+02  0.41116145797E+02 -0.13354938035E+03  0.14105570390E+03  0.00000000000E+00 0. -1.
        -11    1    3    3    0    0 -0.43415592694E+02 -0.18212231474E+02 -0.61359562527E+02  0.77340771768E+02  0.00000000000E+00 0. -1.
         11    1    3    3    0    0  0.37652315951E+02 -0.20173830753E+02 -0.86266300828E+01  0.43578654067E+02  0.00000000000E+00 0.  1.
         21    1    1    2  502  501  0.47690996248E+01  0.28435851667E+02 -0.23612166073E+02  0.37267631504E+02  0.00000000000E+00 0.  1.
<scales pt_clust_5="13000.00000" pt_clust_6="13000.00000" pt_clust_7="13000.00000" pt_clust_8="13000.00000" pt_clust_9="28.83300"></scales>
<clustering>
<clus scale="   28.833">  1  9  2 -1</clus>
<clus scale="   82.546">  5  6 -1 -1</clus>
<clus scale="   84.010">  2  5  1 -1</clus>
<clus scale="   90.646">  7  8 -1 -1</clus>
<clus scale="   84.010">  2  5  1 -1</clus>
</clustering>
</event>
<event>
 9    2  0.2984928E-005  0.1267946E+03  0.7546771E-02  0.1246193E+00
         -1   -1    0    0    0  501 -0.00000000000E+00  0.00000000000E+00  0.57409267769E+03  0.57409267769E+03  0.00000000000E+00 0.  1.
          2   -1    0    0  502    0  0.00000000000E+00 -0.00000000000E+00 -0.87702711753E+02  0.87702711753E+02  0.00000000000E+00 0. -1.
         23    2    1    2    0    0 -0.22339106477E+02 -0.37312158108E+02  0.40905481332E+03  0.42007075139E+03  0.85102074285E+02 0.  0.
         24    2    1    2    0    0 -0.59608537803E+02  0.86507021145E+02  0.52343965397E+02  0.14293136707E+03  0.81564958736E+02 0.  0.
        -13    1    4    4    0    0 -0.78931962201E+02  0.70380642853E+02  0.51797689203E+02  0.11775691127E+03  0.00000000000E+00 0.  1.
         14    1    4    4    0    0  0.19323424398E+02  0.16126378291E+02  0.54627619422E+00  0.25174455802E+02  0.00000000000E+00 0. -1.
        -11    1    3    3    0    0 -0.49068280049E+02 -0.44945001790E+02  0.25565834857E+03  0.26417596501E+03  0.00000000000E+00 0.  1.
         11    1    3    3    0    0  0.26729173572E+02  0.76328436815E+01  0.15339646475E+03  0.15589478638E+03  0.00000000000E+00 0. -1.
         21    1    1    2  502  501  0.81947644281E+02 -0.49194863037E+02  0.24991187215E+02  0.98793270979E+02  0.00000000000E+00 0. -1.
<scales pt_clust_5="13000.00000" pt_clust_6="13000.00000" pt_clust_7="13000.00000" pt_clust_8="13000.00000" pt_clust_9="97.07750"></scales>
<clustering>
<clus scale="   81.565">  5  6 -1 -1</clus>
<clus scale="   85.102">  7  8 -1 -1</clus>
<clus scale="   95.570">  1  7  2 -1</clus>
<clus scale="   97.077">  2  9  1 -1</clus>
<clus scale="   97.077">  2  5  1 -1</clus>
</clustering>
</event>
<event>
 9    2  0.2984928E-005  0.1117273E+03  0.7546771E-02  0.1261771E+00
         -1   -1    0    0    0  501 -0.00000000000E+00  0.00000000000E+00  0.40747737913E+02  0.40747737913E+02  0.00000000000E+00 0.  1.
          2   -1    0    0  502    0  0.00000000000E+00 -0.00000000000E+00 -0.12727795793E+04  0.12727795793E+04  0.00000000000E+00 0. -1.
         23    2    1    2    0    0  0.44305463275E+02 -0.47644160402E+02 -0.62458034093E+02  0.12891268175E+03  0.92111526951E+02 0.  0.
         24    2    1    2    0    0 -0.72617187513E+02 -0.93772886664E+01 -0.94269662736E+03  0.94897454091E+03  0.80712815617E+02 0.  0.
        -11    1    4    4    0    0 -0.43673348891E+02  0.20746779249E+02 -0.22861730501E+03  0.23367426560E+03  0.00000000000E+00 0.  1.
         12    1    4    4    0    0 -0.28943838621E+02 -0.30124067915E+02 -0.71407932234E+03  0.71530027531E+03  0.00000000000E+00 0. -1.
        -11    1    3    3    0    0  0.17771716744E+02  0.24885408101E+02 -0.36093261456E+02  0.47305823900E+02  0.00000000000E+00 0. -1.
         11    1    3    3    0    0  0.26533746531E+02 -0.72529568502E+02 -0.26364772637E+02  0.81606857851E+02  0.00000000000E+00 0.  1.
         21    1    1    2  502  501  0.28311724238E+02  0.57021449068E+02 -0.22687717995E+03  0.23564009456E+03  0.00000000000E+00 0.  1.
<scales pt_clust_5="13000.00000" pt_clust_6="13000.00000" pt_clust_7="13000.00000" pt_clust_8="13000.00000" pt_clust_9="63.66317"></scales>
<clustering>
<clus scale="   63.663">  2  9  1 -1</clus>
<clus scale="   80.713">  5  6 -1 -1</clus>
<clus scale="   92.112">  7  8 -1 -1</clus>
<clus scale="  102.533">  2  5  1 -1</clus>
<clus scale="   63.663">  2  5  1 -1</clus>
</clustering>
</event>
<event>
 9    2  0.2984928E-005  0.1171738E+03  0.7546771E-02  0.1252004E+00
          2   -1    0    0  502    0  0.00000000000E+00  0.00000000000E+00  0.20799978355E+03  0.20799978355E+03  0.00000000000E+00 0. -1.
         -1   -1    0    0    0  501 -0.00000000000E+00 -0.00000000000E+00 -0.21019239042E+03  0.21019239042E+03  0.00000000000E+00 0.  1.
         24    2    1    2    0    0  0.52652131411E+02 -0.18037949566E+02 -0.14769410543E+03  0.17743498215E+03  0.81067931679E+02 0.  0.
         23    2    1    2    0    0 -0.72684864296E+02  0.66509346829E+01  0.16998977338E+03  0.20713205094E+03  0.93165653774E+02 0.  0.
        -11    1    3    3    0    0  0.50080636602E+02 -0.32448122906E+02 -0.15105629516E+03  0.16241599413E+03  0.00000000000E+00 0.  1.
         12    1    3    3    0    0  0.25714948089E+01  0.14410173340E+02  0.33621897358E+01  0.15018988017E+02  0.00000000000E+00 0. -1.
        -11    1    4    4    0    0  0.21934550190E+02  0.15686086896E-01  0.20097388081E+02  0.29749449504E+02  0.00000000000E+00 0.  1.
         11    1    4    4    0    0 -0.94619414487E+02  0.66352485960E+01  0.14989238530E+03  0.17738260144E+03  0.00000000000E+00 0. -1.
         21    1    1    2  502  501  0.20032732885E+02  0.11387014883E+02 -0.24488274826E+02  0.33625140873E+02  0.00000000000E+00 0.  1.
<scales pt_clust_5="13000.00000" pt_clust_6="13000.00000" pt_clust_7="13000.00000" pt_clust_8="13000.00000" pt_clust_9="23.04288"></scales>
<clustering>
<clus scale="   23.043">  2  9  1 -1</clus>
<clus scale="   81.068">  5  6 -1 -1</clus>
<clus scale="   93.166">  7  8 -1 -1</clus>
<clus scale="  107.805">  2  5  1 -1</clus>
<clus scale="  117.174">  1  5  2 -1</clus>
</clustering>
</event>
<event>
 9    2  0.2984928E-005  0.2516530E+03  0.7546771E-02  0.1155360E+00
          2   -1    0    0  502    0  0.00000000000E+00  0.00000000000E+00  0.16068544062E+04  0.16068544062E+04  0.00000000000E+00 0. -1.
         -1   -1    0    0    0  501 -0.00000000000E+00 -0.00000000000E+00 -0.12112265613E+03  0.12112265613E+03  0.00000000000E+00 0.  1.
         23    2    1    2    0    0 -0.13478928560E+03  0.19626491222E+03  0.48153929583E+02  0.25961713615E+03  0.91619807718E+02 0.  0.
         24    2    1    2    0    0  0.40528303843E+01 -0.34237973548E+02  0.33827147343E+03  0.34951266481E+03  0.80887878339E+02 0.  0.
        -11    1    4    4    0    0  0.37275708529E+02 -0.13378774829E+02  0.92375160769E+02  0.10050691712E+03  0.00000000000E+00 0.  1.
         12    1    4    4    0    0 -0.33222878145E+02 -0.20859198719E+02  0.24589631266E+03  0.24900574769E+03  0.00000000000E+00 0. -1.
        -11    1    3    3    0    0 -0.20892985880E+02  0.22677422473E+02 -0.24784049735E+02  0.39560478640E+02  0.00000000000E+00 0.  1.
         11    1    3    3    0    0 -0.11389629972E+03  0.17358748975E+03  0.72937979318E+02  0.22005665751E+03  0.00000000000E+00 0. -1.
         21    1    1    2  502  501  0.13073645522E+03 -0.16202693867E+03  0.10993063471E+04  0.11188472614E+04  0.00000000000E+00 0. -1.
<scales pt_clust_5="13000.00000" pt_clust_6="13000.00000" pt_clust_7="13000.00000" pt_clust_8="13000.00000" pt_clust_9="234.38231"></scales>
<clustering>
<clus scale="   80.888">  5  6 -1 -1</clus>
<clus scale="   87.929">  1  5  2 -1</clus>
<clus scale="   91.620">  7  8 -1 -1</clus>
<clus scale="  234.382">  1  9  2 -1</clus>
<clus scale="   87.929">  1  5  2 -1</clus>
</clustering>
</event>
<event>
 9    2  0.2984928E-005  0.1449915E+03  0.7546771E-02  0.1210874E+00
          4   -1    0    0  502    0  0.00000000000E+00  0.00000000000E+00  0.31264318528E+03  0.31264318528E+03  0.00000000000E+00 0. -1.
         -3   -1    0    0    0  501 -0.00000000000E+00 -0.00000000000E+00 -0.20036933556E+03  0.20036933556E+03  0.00000000000E+00 0.  1.
         24    2    1    2    0    0 -0.52131401077E+02 -0.99388056556E+02 -0.10600208532E+03  0.17022539936E+03  0.71725697834E+02 0.  0.
         23    2    1    2    0    0  0.12566291924E+03  0.51694117122E+02  0.18887915218E+03  0.25034380445E+03  0.92375512361E+02 0.  0.
        -13    1    3    3    0    0 -0.21490819468E+02 -0.64346039315E+02 -0.10331753934E+03  0.12359928006E+03  0.00000000000E+00 0.  1.
         14    1    3    3    0    0 -0.30640581609E+02 -0.35042017242E+02 -0.26845459864E+01  0.46626119298E+02  0.00000000000E+00 0. -1.
        -11    1    4    4    0    0  0.17687146907E+01  0.25188377930E+02  0.77980577516E+02  0.81966781102E+02  0.00000000000E+00 0.  1.
         11    1    4    4    0    0  0.12389420455E+03  0.26505739192E+02  0.11089857466E+03  0.16837702335E+03  0.00000000000E+00 0. -1.
         21    1    1    2  502  501 -0.73531518161E+02  0.47693939434E+02  0.29396782862E+02  0.92443317035E+02  0.00000000000E+00 0.  1.
<scales pt_clust_5="13000.00000" pt_clust_6="13000.00000" pt_clust_7="13000.00000" pt_clust_8="13000.00000" pt_clust_9="87.64471"></scales>
<clustering>
<clus scale="   71.726">  5  6 -1 -1</clus>
<clus scale="   87.645">  1  9  2 -1</clus>
<clus scale="   92.376">  7  8 -1 -1</clus>
<clus scale="  132.793">  2  5  1 -1</clus>
<clus scale="   87.645">  1  5  2 -1</clus>
</clustering>
</event>
<event>
 9    2  0.2984928E-005  0.1333627E+03  0.7546771E-02  0.1224036E+00
         -1   -1    0    0    0  501 -0.00000000000E+00  0.00000000000E+00  0.67676928473E+02  0.67676928473E+02  0.00000000000E+00 0.  1.
          2   -1    0    0  502    0  0.00000000000E+00 -0.00000000000E+00 -0.44269592023E+03  0.44269592023E+03  0.00000000000E+00 0. -1.
         23    2    1    2    0    0 -0.66508019632E+01 -0.96865789879E+02 -0.57466860267E+02  0.14324741715E+03  0.88261928797E+02 0.  0.
         24    2    1    2    0    0 -0.14069383644E+02  0.10583562952E+03 -0.16513390627E+03  0.21304396124E+03  0.81971912203E+02 0.  0.
        -11    1    4    4    0    0  0.25442709533E+02  0.28256886193E+02 -0.17969909137E+02  0.42055923722E+02  0.00000000000E+00 0.  1.
         12    1    4    4    0    0 -0.39512093177E+02  0.77578743324E+02 -0.14716399713E+03  0.17098803752E+03  0.00000000000E+00 0. -1.
        -11    1    3    3    0    0 -0.11388409497E+02 -0.23003234950E+02  0.22608635911E+02  0.34205191226E+02  0.00000000000E+00 0.  1.
         11    1    3    3    0    0  0.47376075341E+01 -0.73862554929E+02 -0.80075496178E+02  0.10904222592E+03  0.00000000000E+00 0. -1.
         21    1    1    2  502  501  0.20720185607E+02 -0.89698396378E+01 -0.15241822522E+03  0.15408147031E+03  0.00000000000E+00 0. -1.
<scales pt_clust_5="13000.00000" pt_clust_6="13000.00000" pt_clust_7="13000.00000" pt_clust_8="13000.00000" pt_clust_9="22.57840"></scales>
<clustering>
<clus scale="   22.578">  2  9  1 -1</clus>
<clus scale="   81.972">  5  6 -1 -1</clus>
<clus scale="   88.262">  7  8 -1 -1</clus>
<clus scale="  129.286">  2  5  1 -1</clus>
<clus scale="   22.578">  2  5  1 -1</clus>
</clustering>
</event>
<event>
 9    2  0.2984928E-005  0.9250584E+02  0.7546771E-02  0.1306625E+00
         -1   -1    0    0    0  501 -0.00000000000E+00  0.00000000000E+00  0.91570618902E+03  0.91570618902E+03  0.00000000000E+00 0.  1.
          2   -1    0    0  502    0  0.00000000000E+00 -0.00000000000E+00 -0.38551495289E+02  0.38551495289E+02  0.00000000000E+00 0. -1.
         24    2    1    2    0    0  0.68727813279E+01  0.31518852720E+02  0.77954385712E+03  0.78385776682E+03  0.75522845757E+02 0.  0.
         23    2    1    2    0    0 -0.15376797716E+02 -0.59937762955E+01  0.29324440097E+02  0.97004551353E+02  0.90981255948E+02 0.  0.
        -13    1    3    3    0    0 -0.30494460783E+01  0.47700659080E+02  0.28736772383E+03  0.29131574056E+03  0.00000000000E+00 0.  1.
         14    1    3    3    0    0  0.99222274062E+01 -0.16181806360E+02  0.49217613329E+03  0.49254202626E+03  0.00000000000E+00 0. -1.
        -11    1    4    4    0    0 -0.17085191297E+02  0.27454446904E+02  0.48590403072E+02  0.58366751556E+02  0.00000000000E+00 0.  1.
         11    1    4    4    0    0  0.17083935807E+01 -0.33448223199E+02 -0.19265962975E+02  0.38637799797E+02  0.00000000000E+00 0. -1.
         21    1    1    2  502  501  0.85040163883E+01 -0.25525076424E+02  0.68286396513E+02  0.73395366134E+02  0.00000000000E+00 0.  1.
<scales pt_clust_5="13000.00000" pt_clust_6="13000.00000" pt_clust_7="13000.00000" pt_clust_8="13000.00000" pt_clust_9="26.90442"></scales>
<clustering>
<clus scale="   26.904">  1  9  2 -1</clus>
<clus scale="   75.523">  5  6 -1 -1</clus>
<clus scale="   77.353">  1  5  2 -1</clus>
<clus scale="   90.981">  7  8 -1 -1</clus>
<clus scale="   92.506">  2  5  1 -1</clus>
</clustering>
</event>
<event>
 9    2  0.2984928E-005  0.1656675E+03  0.7546771E-02  0.1184056E+00
         -1   -1    0    0    0  501 -0.00000000000E+00  0.00000000000E+00  0.30932517023E+03  0.30932517023E+03  0.00000000000E+00 0.  1.
          2   -1    0    0  502    0  0.00000000000E+00 -0.00000000000E+00 -0.51600147973E+03  0.51600147973E+03  0.00000000000E+00 0. -1.
         23    2    1    2    0    0 -0.13858511692E+03  0.15661388064E+02  0.26942126345E+03  0.31685753449E+03  0.91431757379E+02 0.  0.
         24    2    1    2    0    0  0.11109189275E+03 -0.35927159403E+02 -0.41422615609E+03  0.43779627000E+03  0.80312491045E+02 0.  0.
        -11    1    4    4    0    0  0.47812599135E+01 -0.31352217617E+02 -0.14230648323E+03  0.14579765830E+03  0.00000000000E+00 0.  1.
         12    1    4    4    0    0  0.10631063284E+03 -0.45749417852E+01 -0.27191967286E+03  0.29199861170E+03  0.00000000000E+00 0. -1.
        -13    1    3    3    0    0 -0.74183165140E+02 -0.38068623104E+01  0.55836513456E+02  0.92926586216E+02  0.00000000000E+00 0. -1.
         13    1    3    3    0    0 -0.64401951781E+02  0.19468250375E+02  0.21358474999E+03  0.22393094828E+03  0.00000000000E+00 0.  1.
         21    1    1    2  502  501  0.27493224170E+02  0.20265771338E+02 -0.61871416856E+02  0.70672845471E+02  0.00000000000E+00 0. -1.
<scales pt_clust_5="13000.00000" pt_clust_6="13000.00000" pt_clust_7="13000.00000" pt_clust_8="13000.00000" pt_clust_9="34.15522"></scales>
<clustering>
<clus scale="   34.155">  2  9  1 -1</clus>
<clus scale="   80.312">  5  6 -1 -1</clus>
<clus scale="   91.432">  7  8 -1 -1</clus>
<clus scale="  159.800">  2  5  1 -1</clus>
<clus scale="   34.155">  2  5  1 -1</clus>
</clustering>
</event>
<event>
 9    2  0.2984928E-005  0.1096728E+03  0.7546771E-02  0.1265405E+00
          2   -1    0    0  502    0  0.00000000000E+00  0.00000000000E+00  0.12409402552E+03  0.12409402552E+03  0.00000000000E+00 0. -1.
         -1   -1    0    0    0  501 -0.00000000000E+00 -0.00000000000E+00 -0.13350021599E+03  0.13350021599E+03  0.00000000000E+00 0.  1.
         23    2    1    2    0    0  0.62435263387E+02 -0.94988056855E+01 -0.51753485462E+02  0.12175865369E+03  0.90323624081E+02 0.  0.
         24    2    1    2    0    0 -0.55773035893E+02  0.28536298038E+02  0.15761183964E+02  0.10246445224E+03  0.79533623164E+02 0.  0.
        -11    1    4    4    0    0 -0.37884940984E+02  0.33778765459E+02  0.44971104407E+02  0.67813523584E+02  0.00000000000E+00 0.  1.
         12    1    4    4    0    0 -0.17888094909E+02 -0.52424674215E+01 -0.29209920443E+02  0.34650928652E+02  0.00000000000E+00 0. -1.
        -11    1    3    3    0    0  0.85655655048E+02 -0.67241111753E+01 -0.46858149697E+02  0.97866189799E+02  0.00000000000E+00 0. -1.
         11    1    3    3    0    0 -0.23220391661E+02 -0.27746945102E+01 -0.48953357656E+01  0.23892463891E+02  0.00000000000E+00 0.  1.
         21    1    1    2  502  501 -0.66622274941E+01 -0.19037492352E+02  0.26586111027E+02  0.33371135578E+02  0.00000000000E+00 0. -1.
<scales pt_clust_5="13000.00000" pt_clust_6="13000.00000" pt_clust_7="13000.00000" pt_clust_8="13000.00000" pt_clust_9="20.16957"></scales>
<clustering>
<clus scale="   20.170">  1  9  2 -1</clus>
<clus scale="   79.534">  5  6 -1 -1</clus>
<clus scale="   90.324">  7  8 -1 -1</clus>
<clus scale="  100.972">  1  5  2 -1</clus>
<clus scale="   20.170">  1  5  2 -1</clus>
</clustering>
</event>
<event>
 9    2  0.2984928E-005  0.1501932E+03  0.7546771E-02  0.1202497E+00
          2   -1    0    0  502    0  0.00000000000E+00  0.00000000000E+00  0.86019846929E+03  0.86019846929E+03  0.00000000000E+00 0. -1.
         -1   -1    0    0    0  501 -0.00000000000E+00 -0.00000000000E+00 -0.60579834768E+02  0.60579834768E+02  0.00000000000E+00 0.  1.
         24    2    1    2    0    0  0.11756479301E+02 -0.12100969814E+03  0.49389369058E+02  0.15382685928E+03  0.80261017992E+02 0.  0.
         23    2    1    2    0    0 -0.11486413942E+02  0.96669944375E+02  0.65857338420E+03  0.67211844884E+03  0.92451560514E+02 0.  0.
        -13    1    3    3    0    0 -0.18117993935E+02 -0.12918452381E+02 -0.12721635510E+02  0.25631779614E+02  0.00000000000E+00 0.  1.
         14    1    3    3    0    0  0.29874473236E+02 -0.10809124576E+03  0.62111004568E+02  0.12819507966E+03  0.00000000000E+00 0. -1.
        -11    1    4    4    0    0  0.33416210707E+02  0.79379240541E+02  0.42678685321E+03  0.43539031344E+03  0.00000000000E+00 0.  1.
         11    1    4    4    0    0 -0.44902624649E+02  0.17290703834E+02  0.23178653099E+03  0.23672813540E+03  0.00000000000E+00 0. -1.
         21    1    1    2  502  501 -0.27006535950E+00  0.24339753769E+02  0.91655881265E+02  0.94832995942E+02  0.00000000000E+00 0. -1.
<scales pt_clust_5="13000.00000" pt_clust_6="13000.00000" pt_clust_7="13000.00000" pt_clust_8="13000.00000" pt_clust_9="24.34125"></scales>
<clustering>
<clus scale="   24.341">  1  9  2 -1</clus>
<clus scale="   80.261">  5  6 -1 -1</clus>
<clus scale="   92.452">  7  8 -1 -1</clus>
<clus scale="  143.012">  2  5  1 -1</clus>
<clus scale="   24.341">  1  5  2 -1</clus>
</clustering>
</event>
<event>
 9    2  0.2984928E-005  0.9153001E+02  0.7546771E-02  0.1305058E+00
          2   -1    0    0  502    0  0.00000000000E+00  0.00000000000E+00  0.10950303338E+03  0.10950303338E+03  0.00000000000E+00 0. -1.
         -1   -1    0    0    0  501 -0.00000000000E+00 -0.00000000000E+00 -0.20560153576E+03  0.20560153576E+03  0.00000000000E+00 0.  1.
         23    2    1    2    0    0  0.13000779734E+02 -0.54647099201E+01 -0.16038682549E+03  0.18473856514E+03  0.90584327187E+02 0.  0.
         24    2    1    2    0    0  0.69041470836E+01  0.25357097936E+02  0.48769065424E+02  0.98229411593E+02  0.81116865674E+02 0.  0.
        -13    1    4    4    0    0 -0.21512632394E+01  0.54192908013E+02  0.24713848260E+02  0.59600952243E+02  0.00000000000E+00 0.  1.
         14    1    4    4    0    0  0.90554103230E+01 -0.28835810077E+02  0.24055217165E+02  0.38628459350E+02  0.00000000000E+00 0. -1.
        -13    1    3    3    0    0  0.49218567348E+02  0.92812151834E-01 -0.12256534718E+03  0.13207853843E+03  0.00000000000E+00 0.  1.
         13    1    3    3    0    0 -0.36217787614E+02 -0.55575220719E+01 -0.37821478310E+02  0.52660026707E+02  0.00000000000E+00 0. -1.
         21    1    1    2  502  501 -0.19904926817E+02 -0.19892388016E+02  0.15519257682E+02  0.32136592408E+02  0.00000000000E+00 0. -1.
<scales pt_clust_5="13000.00000" pt_clust_6="13000.00000" pt_clust_7="13000.00000" pt_clust_8="13000.00000" pt_clust_9="28.14095"></scales>
<clustering>
<clus scale="   28.141">  1  9  2 -1</clus>
<clus scale="   81.117">  5  6 -1 -1</clus>
<clus scale="   82.172">  1  5  2 -1</clus>
<clus scale="   90.584">  7  8 -1 -1</clus>
<clus scale="   28.141">  1  5  2 -1</clus>
</clustering>
</event>
<event>
 9    2  0.2984928E-005  0.1296732E+03  0.7546771E-02  0.1234981E+00
          2   -1    0    0  502    0  0.00000000000E+00  0.00000000000E+00  0.46594544285E+03  0.46594544285E+03  0.00000000000E+00 0. -1.
         -1   -1    0    0    0  501 -0.00000000000E+00 -0.00000000000E+00 -0.14326756959E+03  0.14326756959E+03  0.00000000000E+00 0.  1.
         23    2    1    2    0    0 -0.63607093529E+02  0.56133075443E+02 -0.93842626936E+02  0.16199296813E+03  0.10118546628E+03 0.  0.
         24    2    1    2    0    0  0.18770563985E+02 -0.38949177265E+02  0.36953166549E+03  0.38003707529E+03  0.77492930739E+02 0.  0.
        -13    1    4    4    0    0  0.33949438234E+02  0.11596551278E+02  0.14133079282E+03  0.14581302190E+03  0.00000000000E+00 0.  1.
         14    1    4    4    0    0 -0.15178874250E+02 -0.50545728543E+02  0.22820087267E+03  0.23422405339E+03  0.00000000000E+00 0. -1.
        -13    1    3    3    0    0 -0.36702596721E+02 -0.16151720804E+02  0.54073580942E+00  0.40103005950E+02  0.00000000000E+00 0.  1.
         13    1    3    3    0    0 -0.26904496808E+02  0.72284796246E+02 -0.94383362745E+02  0.12188996218E+03  0.00000000000E+00 0. -1.
         21    1    1    2  502  501  0.44836529544E+02 -0.17183898177E+02  0.46988834703E+02  0.67182969009E+02  0.00000000000E+00 0. -1.
<scales pt_clust_5="13000.00000" pt_clust_6="13000.00000" pt_clust_7="13000.00000" pt_clust_8="13000.00000" pt_clust_9="48.01667"></scales>
<clustering>
<clus scale="   48.017">  1  9  2 -1</clus>
<clus scale="   77.493">  5  6 -1 -1</clus>
<clus scale="  101.185">  7  8 -1 -1</clus>
<clus scale="  112.169">  1  5  2 -1</clus>
<clus scale="   48.017">  1  5  2 -1</clus>
</clustering>
</event>
<event>
 9    2  0.2984928E-005  0.1948914E+03  0.7546771E-02  0.1156710E+00
         -1   -1    0    0    0  501 -0.00000000000E+00  0.00000000000E+00  0.13763046609E+03  0.13763046609E+03  0.00000000000E+00 0.  1.
          2   -1    0    0  502    0  0.00000000000E+00 -0.00000000000E+00 -0.88783426087E+03  0.88783426087E+03  0.00000000000E+00 0. -1.
         23    2    1    2    0    0  0.83314951692E+02 -0.14308505324E+03  0.46810656118E+02  0.20034698462E+03  0.10263022499E+03 0.  0.
         24    2    1    2    0    0 -0.10669442360E+03  0.13052702784E+03 -0.72053797313E+03  0.74416741584E+03  0.78671259360E+02 0.  0.
        -13    1    4    4    0    0 -0.10015726070E+03  0.75378404703E+02 -0.57232164301E+03  0.58588859335E+03  0.00000000000E+00 0.  1.
         14    1    4    4    0    0 -0.65371629052E+01  0.55148623135E+02 -0.14821633013E+03  0.15827882249E+03  0.00000000000E+00 0. -1.
        -11    1    3    3    0    0  0.17690448143E+02 -0.10323551642E+03  0.62519471393E+02  0.12198035952E+03  0.00000000000E+00 0.  1.
         11    1    3    3    0    0  0.65624503549E+02 -0.39849536823E+02 -0.15708815275E+02  0.78366625093E+02  0.00000000000E+00 0. -1.
         21    1    1    2  502  501  0.23379471911E+02  0.12558025406E+02 -0.76476477772E+02  0.80950326505E+02  0.00000000000E+00 0.  1.
<scales pt_clust_5="13000.00000" pt_clust_6="13000.00000" pt_clust_7="13000.00000" pt_clust_8="13000.00000" pt_clust_9="26.53872"></scales>
<clustering>
<clus scale="   26.539">  2  9  1 -1</clus>
<clus scale="   78.671">  5  6 -1 -1</clus>
<clus scale="  102.630">  7  8 -1 -1</clus>
<clus scale="  183.409">  2  5  1 -1</clus>
<clus scale="   26.539">  2  5  1 -1</clus>
</clustering>
</event>
<event>
 9    2  0.2984928E-005  0.1594650E+03  0.7546771E-02  0.1190859E+00
          2   -1    0    0  502    0  0.00000000000E+00  0.00000000000E+00  0.10770106588E+04  0.10770106588E+04  0.00000000000E+00 0. -1.
         -1   -1    0    0    0  501 -0.00000000000E+00 -0.00000000000E+00 -0.36598057121E+02  0.36598057121E+02  0.00000000000E+00 0.  1.
         23    2    1    2    0    0 -0.11799875935E+03 -0.54773951271E+02  0.24404302874E+03  0.29100013665E+03  0.90554882279E+02 0.  0.
         24    2    1    2    0    0  0.10085311100E+03  0.96033673625E+02  0.64550500902E+03  0.66526673934E+03  0.80680241307E+02 0.  0.
        -11    1    4    4    0    0  0.10162022077E+03  0.52583332180E+02  0.40432280136E+03  0.42020067087E+03  0.00000000000E+00 0.  1.
         12    1    4    4    0    0 -0.76710977179E+00  0.43450341445E+02  0.24118220766E+03  0.24506606848E+03  0.00000000000E+00 0. -1.
        -13    1    3    3    0    0 -0.37692887529E+02 -0.54347774931E+02  0.56501056676E+02  0.86987377336E+02  0.00000000000E+00 0.  1.
         13    1    3    3    0    0 -0.80305871826E+02 -0.42617634003E+00  0.18754197207E+03  0.20401275931E+03  0.00000000000E+00 0. -1.
         21    1    1    2  502  501  0.17145648355E+02 -0.41259722354E+02  0.15086456388E+03  0.15734183989E+03  0.00000000000E+00 0.  1.
<scales pt_clust_5="13000.00000" pt_clust_6="13000.00000" pt_clust_7="13000.00000" pt_clust_8="13000.00000" pt_clust_9="44.68040"></scales>
<clustering>
<clus scale="   44.680">  1  9  2 -1</clus>
<clus scale="   80.680">  5  6 -1 -1</clus>
<clus scale="   90.555">  7  8 -1 -1</clus>
<clus scale="  154.072">  1  5  2 -1</clus>
<clus scale="   44.680">  1  5  2 -1</clus>
</clustering>
</event>
<event>
 9    2  0.2984928E-005  0.1293332E+03  0.7546771E-02  0.1229447E+00
         -1   -1    0    0    0  501 -0.00000000000E+00  0.00000000000E+00  0.49167734625E+03  0.49167734625E+03  0.00000000000E+00 0.  1.
          2   -1    0    0  502    0  0.00000000000E+00 -0.00000000000E+00 -0.21008338335E+03  0.21008338335E+03  0.00000000000E+00 0. -1.
         23    2    1    2    0    0 -0.78584987870E+02  0.59868934560E+02  0.44978116606E+03  0.46834471035E+03  0.85345068533E+02 0.  0.
         24    2    1    2    0    0  0.64285011386E+02 -0.24397790355E+02 -0.16318776719E+03  0.19484548958E+03  0.81281625143E+02 0.  0.
        -13    1    4    4    0    0  0.65487460839E+01 -0.35097943566E+02 -0.10989007136E+03  0.11554470780E+03  0.00000000000E+00 0.  1.
         14    1    4    4    0    0  0.57736265302E+02  0.10700153211E+02 -0.53297695836E+02  0.79300781782E+02  0.00000000000E+00 0. -1.
        -13    1    3    3    0    0 -0.84754703228E+02  0.18463518137E+02  0.33887903975E+03  0.34980460947E+03  0.00000000000E+00 0.  1.
         13    1    3    3    0    0  0.61697153577E+01  0.41405416423E+02  0.11090212631E+03  0.11854010088E+03  0.00000000000E+00 0. -1.
         21    1    1    2  502  501  0.14299976484E+02 -0.35471144205E+02 -0.49994359637E+01  0.38570529665E+02  0.00000000000E+00 0. -1.
<scales pt_clust_5="13000.00000" pt_clust_6="13000.00000" pt_clust_7="13000.00000" pt_clust_8="13000.00000" pt_clust_9="38.24515"></scales>
<clustering>
<clus scale="   38.245">  2  9  1 -1</clus>
<clus scale="   81.282">  5  6 -1 -1</clus>
<clus scale="   85.345">  7  8 -1 -1</clus>
<clus scale="  126.689">  2  5  1 -1</clus>
<clus scale="   38.245">  2  5  1 -1</clus>
</clustering>
</event>
<event>
 9    2  0.2984928E-005  0.1924089E+03  0.7546771E-02  0.1157381E+00
          2   -1    0    0  502    0  0.00000000000E+00  0.00000000000E+00  0.10268127684E+04  0.10268127684E+04  0.00000000000E+00 0. -1.
         -1   -1    0    0    0  501 -0.00000000000E+00 -0.00000000000E+00 -0.15207089255E+03  0.15207089255E+03  0.00000000000E+00 0.  1.
         23    2    1    2    0    0  0.12808039927E+03 -0.10803109616E+03 -0.71894196089E+02  0.20399352709E+03  0.91483754014E+02 0.  0.
         24    2    1    2    0    0 -0.14241089027E+03  0.12598744295E+03  0.79019083800E+03  0.81676706602E+03  0.80951727778E+02 0.  0.
        -13    1    4    4    0    0 -0.40922148510E+01  0.24806875136E+02  0.39960786925E+02  0.47212199357E+02  0.00000000000E+00 0.  1.
         14    1    4    4    0    0 -0.13831867542E+03  0.10118056781E+03  0.75023005107E+03  0.76955486666E+03  0.00000000000E+00 0. -1.
        -13    1    3    3    0    0  0.47619593786E+02  0.87492501480E+01 -0.25883036227E+02  0.54900880274E+02  0.00000000000E+00 0. -1.
         13    1    3    3    0    0  0.80460805487E+02 -0.11678034631E+03 -0.46011159861E+02  0.14909264682E+03  0.00000000000E+00 0.  1.
         21    1    1    2  502  501  0.14330491002E+02 -0.17956346792E+02  0.15644523393E+03  0.15812306784E+03  0.00000000000E+00 0.  1.
<scales pt_clust_5="13000.00000" pt_clust_6="13000.00000" pt_clust_7="13000.00000" pt_clust_8="13000.00000" pt_clust_9="22.97375"></scales>
<clustering>
<clus scale="   22.974">  1  9  2 -1</clus>
<clus scale="   80.952">  5  6 -1 -1</clus>
<clus scale="   91.484">  7  8 -1 -1</clus>
<clus scale="  187.630">  1  5  2 -1</clus>
<clus scale="   22.974">  1  5  2 -1</clus>
</clustering>
</event>
<event>
 9    2  0.2984928E-005  0.1114476E+03  0.7546771E-02  0.1262349E+00
         -1   -1    0    0    0  501 -0.00000000000E+00  0.00000000000E+00  0.50708274730E+02  0.50708274730E+02  0.00000000000E+00 0.  1.
          2   -1    0    0  502    0  0.00000000000E+00 -0.00000000000E+00 -0.89927436284E+03  0.89927436284E+03  0.00000000000E+00 0. -1.
         23    2    1    2    0    0 -0.38655237591E+02  0.49567280811E+02 -0.30540833003E+02  0.11526897758E+03  0.91668162368E+02 0.  0.
         24    2    1    2    0    0  0.77871391718E+02 -0.21077059057E+02 -0.48289964171E+03  0.49610064158E+03  0.80097356680E+02 0.  0.
        -11    1    4    4    0    0 -0.53427571823E+00 -0.30482683498E+02 -0.81694889191E+02  0.87198247481E+02  0.00000000000E+00 0.  1.
         12    1    4    4    0    0  0.78405667436E+02  0.94056244412E+01 -0.40120475252E+03  0.40890239410E+03  0.00000000000E+00 0. -1.
        -11    1    3    3    0    0  0.26620884666E+02  0.68899059439E+01  0.74916755620E+01  0.28500307140E+02  0.00000000000E+00 0. -1.
         11    1    3    3    0    0 -0.65276122257E+02  0.42677374867E+02 -0.38032508565E+02  0.86768670442E+02  0.00000000000E+00 0.  1.
         21    1    1    2  502  501 -0.39216154127E+02 -0.28490221753E+02 -0.33512561340E+03  0.33861301841E+03  0.00000000000E+00 0. -1.
<scales pt_clust_5="13000.00000" pt_clust_6="13000.00000" pt_clust_7="13000.00000" pt_clust_8="13000.00000" pt_clust_9="48.47267"></scales>
<clustering>
<clus scale="   48.473">  2  9  1 -1</clus>
<clus scale="   80.097">  5  6 -1 -1</clus>
<clus scale="   91.668">  7  8 -1 -1</clus>
<clus scale="  102.143">  2  5  1 -1</clus>
<clus scale="   48.473">  2  5  1 -1</clus>
</clustering>
</event>
<event>
 9    2  0.2984928E-005  0.9313378E+02  0.7546771E-02  0.1302525E+00
          2   -1    0    0  502    0  0.00000000000E+00  0.00000000000E+00  0.44041737530E+03  0.44041737530E+03  0.00000000000E+00 0. -1.
         -1   -1    0    0    0  501 -0.00000000000E+00 -0.00000000000E+00 -0.46112161926E+02  0.46112161926E+02  0.00000000000E+00 0.  1.
         24    2    1    2    0    0 -0.52308445242E+01  0.98197764494E+01  0.70917491556E+02  0.10757980101E+03  0.80126981930E+02 0.  0.
         23    2    1    2    0    0 -0.69558789302E+02  0.17989869921E+02  0.21220552995E+03  0.24209819056E+03  0.91751219841E+02 0.  0.
        -11    1    3    3    0    0 -0.22082027777E+02  0.30649777149E+02  0.71967674793E+01  0.38455406020E+02  0.00000000000E+00 0.  1.
         12    1    3    3    0    0  0.16851183253E+02 -0.20830000699E+02  0.63720724077E+02  0.69124394992E+02  0.00000000000E+00 0. -1.
        -13    1    4    4    0    0 -0.80219126223E+02  0.36658462048E+02  0.19677097445E+03  0.21563340984E+03  0.00000000000E+00 0.  1.
         13    1    4    4    0    0  0.10660336921E+02 -0.18668592127E+02  0.15434555500E+02  0.26464780724E+02  0.00000000000E+00 0. -1.
         21    1    1    2  502  501  0.74789633827E+02 -0.27809646370E+02  0.11118219186E+03  0.13685154565E+03  0.00000000000E+00 0. -1.
<scales pt_clust_5="13000.00000" pt_clust_6="13000.00000" pt_clust_7="13000.00000" pt_clust_8="13000.00000" pt_clust_9="79.79264"></scales>
<clustering>
<clus scale="   79.793">  1  9  2 -1</clus>
<clus scale="   80.127">  5  6 -1 -1</clus>
<clus scale="   81.706">  2  5  1 -1</clus>
<clus scale="   91.751">  7  8 -1 -1</clus>
<clus scale="   79.793">  1  5  2 -1</clus>
</clustering>
</event>
<event>
 9    2  0.2984928E-005  0.1351382E+03  0.7546771E-02  0.1237200E+00
          2   -1    0    0  502    0  0.00000000000E+00  0.00000000000E+00  0.40757811948E+03  0.40757811948E+03  0.00000000000E+00 0. -1.
         -1   -1    0    0    0  501 -0.00000000000E+00 -0.00000000000E+00 -0.68965740627E+02  0.68965740627E+02  0.00000000000E+00 0.  1.
         24    2    1    2    0    0 -0.48652615053E+02  0.27783381187E+01  0.82723984181E+02  0.12575030152E+03  0.81210126577E+02 0.  0.
         23    2    1    2    0    0 -0.39528320808E+02 -0.75682045217E+02  0.12217255781E+03  0.17480846551E+03  0.91332390852E+02 0.  0.
        -13    1    3    3    0    0 -0.15479671997E+02 -0.21354658792E+02 -0.68323219695E+01  0.27245592685E+02  0.00000000000E+00 0.  1.
         14    1    3    3    0    0 -0.33172943056E+02  0.24132996910E+02  0.89556306150E+02  0.98504708832E+02  0.00000000000E+00 0. -1.
        -13    1    4    4    0    0 -0.37466085189E-01 -0.65006337960E+02  0.11663449280E+03  0.13352688976E+03  0.00000000000E+00 0. -1.
         13    1    4    4    0    0 -0.39490854723E+02 -0.10675707257E+02  0.55380650058E+01  0.41281575748E+02  0.00000000000E+00 0.  1.
         21    1    1    2  502  501  0.88180935861E+02  0.72903707098E+02  0.13371583687E+03  0.17598509308E+03  0.00000000000E+00 0. -1.
<scales pt_clust_5="13000.00000" pt_clust_6="13000.00000" pt_clust_7="13000.00000" pt_clust_8="13000.00000" pt_clust_9="99.60287"></scales>
<clustering>
<clus scale="   81.210">  5  6 -1 -1</clus>
<clus scale="   91.332">  7  8 -1 -1</clus>
<clus scale="   94.709">  2  5  1 -1</clus>
<clus scale="   99.603">  2  9  1 -1</clus>
<clus scale="  135.138">  1  5  2 -1</clus>
</clustering>
</event>
<event>
 9    2  0.2984928E-005  0.1019226E+03  0.7546771E-02  0.1281901E+00
         -1   -1    0    0    0  501 -0.00000000000E+00  0.00000000000E+00  0.10296571455E+03  0.10296571455E+03  0.00000000000E+00 0.  1.
          2   -1    0    0  502    0  0.00000000000E+00 -0.00000000000E+00 -0.22246332703E+03  0.22246332703E+03  0.00000000000E+00 0. -1.
         23    2    1    2    0    0 -0.13230113621E+01 -0.50525051523E+02  0.50847249843E+02  0.11651481532E+03  0.91846220296E+02 0.  0.
         24    2    1    2    0    0 -0.29316657786E+01  0.15055028259E+02 -0.13974385096E+03  0.16187544732E+03  0.80250034416E+02 0.  0.
        -11    1    4    4    0    0 -0.17337838587E+02 -0.27694378246E+02 -0.35272703170E+02  0.48080586750E+02  0.00000000000E+00 0.  1.
         12    1    4    4    0    0  0.14406172808E+02  0.42749406505E+02 -0.10447114779E+03  0.11379486057E+03  0.00000000000E+00 0. -1.
        -13    1    3    3    0    0  0.19170783048E+02 -0.68449140174E+02  0.17020768186E+02  0.73092477471E+02  0.00000000000E+00 0.  1.
         13    1    3    3    0    0 -0.20493794410E+02  0.17924088651E+02  0.33826481657E+02  0.43422337852E+02  0.00000000000E+00 0. -1.
         21    1    1    2  502  501  0.42546771407E+01  0.35470023264E+02 -0.30601011361E+02  0.47038778941E+02  0.00000000000E+00 0. -1.
<scales pt_clust_5="13000.00000" pt_clust_6="13000.00000" pt_clust_7="13000.00000" pt_clust_8="13000.00000" pt_clust_9="35.72429"></scales>
<clustering>
<clus scale="   35.724">  2  9  1 -1</clus>
<clus scale="   80.250">  5  6 -1 -1</clus>
<clus scale="   91.611">  2  5  1 -1</clus>
<clus scale="   91.846">  7  8 -1 -1</clus>
<clus scale="   35.724">  2  5  1 -1</clus>
</clustering>
</event>
<event>
 9    2  0.2984928E-005  0.1309661E+03  0.7546771E-02  0.1228354E+00
         -1   -1    0    0    0  501 -0.00000000000E+00  0.00000000000E+00  0.29537029689E+03  0.29537029689E+03  0.00000000000E+00 0.  1.
          2   -1    0    0  502    0  0.00000000000E+00 -0.00000000000E+00 -0.29663562247E+03  0.29663562247E+03  0.00000000000E+00 0. -1.
         24    2    1    2    0    0  0.34672214141E+02  0.74223864902E+02  0.17900083626E+03  0.21357986352E+03  0.82847535654E+02 0.  0.
         23    2    1    2    0    0 -0.97464132883E+02 -0.12205550483E+03  0.46257979710E+00  0.18121153079E+03  0.91872745974E+02 0.  0.
        -13    1    3    3    0    0  0.36968038385E+02  0.40736826908E+02  0.17021502208E+03  0.17888342201E+03  0.00000000000E+00 0.  1.
         14    1    3    3    0    0 -0.22958242439E+01  0.33487037994E+02  0.87858141823E+01  0.34696441509E+02  0.00000000000E+00 0. -1.
        -11    1    4    4    0    0 -0.78551871357E+02 -0.43486905314E+02  0.30755923102E+02  0.94907503567E+02  0.00000000000E+00 0.  1.
         11    1    4    4    0    0 -0.18912261526E+02 -0.78568599520E+02 -0.30293343305E+02  0.86304027225E+02  0.00000000000E+00 0. -1.
         21    1    1    2  502  501  0.62791918742E+02  0.47831639933E+02 -0.18072874163E+03  0.19721452505E+03  0.00000000000E+00 0. -1.
<scales pt_clust_5="13000.00000" pt_clust_6="13000.00000" pt_clust_7="13000.00000" pt_clust_8="13000.00000" pt_clust_9="78.93473"></scales>
<clustering>
<clus scale="   78.935">  2  9  1 -1</clus>
<clus scale="   82.848">  5  6 -1 -1</clus>
<clus scale="   91.873">  7  8 -1 -1</clus>
<clus scale="  124.801">  1  5  2 -1</clus>
<clus scale="   78.935">  2  5  1 -1</clus>
</clustering>
</event>
<event>
 9    2  0.2984928E-005  0.1427739E+03  0.7546771E-02  0.1211272E+00
         -1   -1    0    0    0  501 -0.00000000000E+00  0.00000000000E+00  0.15721468166E+03  0.15721468166E+03  0.00000000000E+00 0.  1.
          2   -1    0    0  502    0  0.00000000000E+00 -0.00000000000E+00 -0.25739022612E+03  0.25739022612E+03  0.00000000000E+00 0. -1.
         23    2    1    2    0    0 -0.14614946163E+02 -0.10336168192E+03  0.49453723413E+02  0.14518686779E+03  0.87956363488E+02 0.  0.
         24    2    1    2    0    0 -0.25402494923E+02  0.14337188227E+03 -0.12433414024E+03  0.20743372579E+03  0.79805944592E+02 0.  0.
        -13    1    4    4    0    0 -0.22276687513E+02  0.19916333459E+01 -0.30092349171E+02  0.37493557961E+02  0.00000000000E+00 0.  1.
         14    1    4    4    0    0 -0.31258074100E+01  0.14138024893E+03 -0.94241791070E+02  0.16994016783E+03  0.00000000000E+00 0. -1.
        -11    1    3    3    0    0 -0.37473586424E+02 -0.17958738330E+02 -0.42070730615E+01  0.41767037549E+02  0.00000000000E+00 0. -1.
         11    1    3    3    0    0  0.22858640261E+02 -0.85402943589E+02  0.53660796474E+02  0.10341983024E+03  0.00000000000E+00 0.  1.
         21    1    1    2  502  501  0.40017441086E+02 -0.40010200356E+02 -0.25295127632E+02  0.61984314189E+02  0.00000000000E+00 0.  1.
<scales pt_clust_5="13000.00000" pt_clust_6="13000.00000" pt_clust_7="13000.00000" pt_clust_8="13000.00000" pt_clust_9="56.58809"></scales>
<clustering>
<clus scale="   56.588">  2  9  1 -1</clus>
<clus scale="   79.806">  5  6 -1 -1</clus>
<clus scale="   87.956">  7  8 -1 -1</clus>
<clus scale="  137.902">  2  5  1 -1</clus>
<clus scale="   56.588">  2  5  1 -1</clus>
</clustering>
</event>
<event>
 9    2  0.5104215E-005  0.1028724E+03  0.7546771E-02  0.1278226E+00
         -1   -1    0    0    0  501 -0.00000000000E+00  0.00000000000E+00  0.13016878240E+03  0.13016878240E+03  0.00000000000E+00 0.  1.
          2   -1    0    0  502    0  0.00000000000E+00 -0.00000000000E+00 -0.72393515016E+03  0.72393515016E+03  0.00000000000E+00 0. -1.
         23    2    1    2    0    0  0.30058626174E+00  0.51061238412E+02  0.10305997176E+03  0.14572157147E+03  0.89476690773E+02 0.  0.
         24    2    1    2    0    0 -0.19074308221E+02 -0.41248018903E+02 -0.65449643561E+03  0.66104767318E+03  0.80951922106E+02 0.  0.
        -11    1    4    4    0    0 -0.20325183289E+01 -0.48442074680E+02 -0.18693055455E+03  0.19311602200E+03  0.00000000000E+00 0.  1.
         12    1    4    4    0    0 -0.17041789892E+02  0.71940557770E+01 -0.46756588106E+03  0.46793165118E+03  0.00000000000E+00 0. -1.
        -13    1    3    3    0    0  0.35717992900E+02  0.48433329255E+02  0.89191545618E+02  0.10759504733E+03  0.00000000000E+00 0.  1.
         13    1    3    3    0    0 -0.35417406639E+02  0.26279091572E+01  0.13868426146E+02  0.38126524144E+02  0.00000000000E+00 0. -1.
         21    1    1    2  502  501  0.18773721959E+02 -0.98132195099E+01 -0.42329903926E+02  0.47334687912E+02  0.00000000000E+00 0.  1.
<scales pt_clust_5="13000.00000" pt_clust_6="13000.00000" pt_clust_7="13000.00000" pt_clust_8="13000.00000" pt_clust_9="21.18377"></scales>
<clustering>
<clus scale="   21.184">  2  9  1 -1</clus>
<clus scale="   80.952">  5  6 -1 -1</clus>
<clus scale="   89.477">  7  8 -1 -1</clus>
<clus scale="   95.550">  2  5  1 -1</clus>
<clus scale="   21.184">  2  5  1 -1</clus>
</clustering>
</event>
<event>
 9    2  0.2984928E-005  0.3189967E+03  0.7546771E-02  0.1076401E+00
         -1   -1    0    0    0  501 -0.00000000000E+00  0.00000000000E+00  0.68221058373E+03  0.68221058373E+03  0.00000000000E+00 0.  1.
          2   -1    0    0  502    0  0.00000000000E+00 -0.00000000000E+00 -0.29341585215E+03  0.29341585215E+03  0.00000000000E+00 0. -1.
         23    2    1    2    0    0 -0.22025863094E+03 -0.20731007635E+03  0.50613448706E+03  0.59644447855E+03  0.89903085285E+02 0.  0.
         24    2    1    2    0    0  0.24407555462E+03  0.21447271158E+03 -0.11592511481E+03  0.35427110818E+03  0.80609958879E+02 0.  0.
        -11    1    4    4    0    0  0.10811949271E+03  0.11213167914E+03 -0.95914783020E+02  0.18292890360E+03  0.00000000000E+00 0.  1.
         12    1    4    4    0    0  0.13595606192E+03  0.10234103244E+03 -0.20010331790E+02  0.17134220458E+03  0.00000000000E+00 0. -1.
        -13    1    3    3    0    0 -0.84729461303E+01 -0.19083846755E+02  0.94106620670E+02  0.96395228498E+02  0.00000000000E+00 0. -1.
         13    1    3    3    0    0 -0.21178568481E+03 -0.18822622960E+03  0.41202786639E+03  0.50004925006E+03  0.00000000000E+00 0.  1.
         21    1    1    2  502  501 -0.23816923677E+02 -0.71626352279E+01 -0.14146406697E+01  0.24910849144E+02  0.00000000000E+00 0.  1.
<scales pt_clust_5="13000.00000" pt_clust_6="13000.00000" pt_clust_7="13000.00000" pt_clust_8="13000.00000" pt_clust_9="24.87065"></scales>
<clustering>
<clus scale="   24.871">  2  9  1 -1</clus>
<clus scale="   80.610">  5  6 -1 -1</clus>
<clus scale="   89.903">  7  8 -1 -1</clus>
<clus scale="  316.503">  2  5  1 -1</clus>
<clus scale="   24.871">  2  5  1 -1</clus>
</clustering>
</event>
<event>
 9    2  0.2984928E-005  0.1736040E+03  0.7546771E-02  0.1175978E+00
         -1   -1    0    0    0  501 -0.00000000000E+00  0.00000000000E+00  0.45828509557E+03  0.45828509557E+03  0.00000000000E+00 0.  1.
          2   -1    0    0  502    0  0.00000000000E+00 -0.00000000000E+00 -0.18385404990E+03  0.18385404990E+03  0.00000000000E+00 0. -1.
         24    2    1    2    0    0 -0.10329839645E+03  0.98705905071E+02  0.33420183087E+03  0.37186034582E+03  0.78586504154E+02 0.  0.
         23    2    1    2    0    0  0.93305444627E+02 -0.14277487514E+03  0.15485871035E+01  0.19410794807E+03  0.92654877984E+02 0.  0.
        -13    1    3    3    0    0 -0.24681904517E+02  0.67225674989E+02  0.20708461791E+03  0.21911760944E+03  0.00000000000E+00 0.  1.
         14    1    3    3    0    0 -0.78616491933E+02  0.31480230082E+02  0.12711721295E+03  0.15274273639E+03  0.00000000000E+00 0. -1.
        -11    1    4    4    0    0  0.10335088635E+03 -0.92951275685E+02 -0.16926614705E+02  0.14002805307E+03  0.00000000000E+00 0.  1.
         11    1    4    4    0    0 -0.10045441718E+02 -0.49823599457E+02  0.18475201809E+02  0.54079895008E+02  0.00000000000E+00 0. -1.
         21    1    1    2  502  501  0.99929518225E+01  0.44068970072E+02 -0.61319372304E+02  0.76170851571E+02  0.00000000000E+00 0. -1.
<scales pt_clust_5="13000.00000" pt_clust_6="13000.00000" pt_clust_7="13000.00000" pt_clust_8="13000.00000" pt_clust_9="45.18776"></scales>
<clustering>
<clus scale="   45.188">  2  9  1 -1</clus>
<clus scale="   78.587">  5  6 -1 -1</clus>
<clus scale="   92.655">  7  8 -1 -1</clus>
<clus scale="  166.521">  1  5  2 -1</clus>
<clus scale="   45.188">  2  5  1 -1</clus>
</clustering>
</event>
<event>
 9    2  0.2984928E-005  0.1429655E+03  0.7546771E-02  0.1217108E+00
          2   -1    0    0  502    0  0.00000000000E+00  0.00000000000E+00  0.45158164853E+03  0.45158164853E+03  0.00000000000E+00 0. -1.
         -1   -1    0    0    0  501 -0.00000000000E+00 -0.00000000000E+00 -0.35873667740E+03  0.35873667740E+03  0.00000000000E+00 0.  1.
         23    2    1    2    0    0  0.25226248120E+02  0.63783483925E+02 -0.17496052040E+03  0.21293151938E+03  0.10011968754E+03 0.  0.
         24    2    1    2    0    0 -0.11873654375E+03  0.42901519189E+02  0.38669468749E+03  0.41229086874E+03  0.67171958008E+02 0.  0.
        -13    1    4    4    0    0 -0.49742120554E+02 -0.80742949059E+01  0.20877569427E+03  0.21477142108E+03  0.00000000000E+00 0.  1.
         14    1    4    4    0    0 -0.68994423192E+02  0.50975814095E+02  0.17791899322E+03  0.19751944766E+03  0.00000000000E+00 0. -1.
        -13    1    3    3    0    0  0.52735320887E+02  0.25553954651E+02 -0.14678186394E+03  0.15804725322E+03  0.00000000000E+00 0.  1.
         13    1    3    3    0    0 -0.27509072767E+02  0.38229529274E+02 -0.28178656455E+02  0.54884266167E+02  0.00000000000E+00 0. -1.
         21    1    1    2  502  501  0.93510295626E+02 -0.10668500311E+03 -0.11888919596E+03  0.18509593781E+03  0.00000000000E+00 0.  1.
<scales pt_clust_5="13000.00000" pt_clust_6="13000.00000" pt_clust_7="13000.00000" pt_clust_8="13000.00000" pt_clust_9="126.20251"></scales>
<clustering>
<clus scale="   67.172">  5  6 -1 -1</clus>
<clus scale="  100.120">  7  8 -1 -1</clus>
<clus scale="  121.362">  2  7  1 -1</clus>
<clus scale="  126.203">  2  9  1 -1</clus>
<clus scale="  142.966">  1  5  2 -1</clus>
</clustering>
</event>
<event>
 9    2  0.2984928E-005  0.1038383E+03  0.7546771E-02  0.1277985E+00
          4   -1    0    0  502    0  0.00000000000E+00  0.00000000000E+00  0.82200304760E+02  0.82200304760E+02  0.00000000000E+00 0. -1.
         -3   -1    0    0    0  501 -0.00000000000E+00 -0.00000000000E+00 -0.21211393878E+03  0.21211393878E+03  0.00000000000E+00 0.  1.
         24    2    1    2    0    0 -0.59308576780E+01  0.55819888737E+02 -0.13153359316E+03  0.16395559976E+03  0.80183025089E+02 0.  0.
         23    2    1    2    0    0 -0.71950061586E+01 -0.25397161855E+02 -0.68994168274E+01  0.96147382769E+02  0.92195082932E+02 0.  0.
        -13    1    3    3    0    0  0.35582265279E+02  0.36160708149E+02 -0.81811654294E+02  0.96264433694E+02  0.00000000000E+00 0.  1.
         14    1    3    3    0    0 -0.41513122957E+02  0.19659180589E+02 -0.49721938869E+02  0.67691166070E+02  0.00000000000E+00 0. -1.
        -13    1    4    4    0    0 -0.26716213596E+02 -0.45636497507E+02 -0.29064576125E+02  0.60342319801E+02  0.00000000000E+00 0.  1.
         13    1    4    4    0    0  0.19521207438E+02  0.20239335652E+02  0.22165159298E+02  0.35805062968E+02  0.00000000000E+00 0. -1.
         21    1    1    2  502  501  0.13125863837E+02 -0.30422726882E+02  0.85193759734E+01  0.34211261002E+02  0.00000000000E+00 0. -1.
<scales pt_clust_5="13000.00000" pt_clust_6="13000.00000" pt_clust_7="13000.00000" pt_clust_8="13000.00000" pt_clust_9="33.13353"></scales>
<clustering>
<clus scale="   33.134">  1  9  2 -1</clus>
<clus scale="   80.183">  5  6 -1 -1</clus>
<clus scale="   92.195">  7  8 -1 -1</clus>
<clus scale="   93.337">  2  5  1 -1</clus>
<clus scale="   33.134">  1  5  2 -1</clus>
</clustering>
</event>
<event>
 9    2  0.2984928E-005  0.1582994E+03  0.7546771E-02  0.1192721E+00
         -3   -1    0    0    0  501 -0.00000000000E+00  0.00000000000E+00  0.75756074762E+03  0.75756074762E+03  0.00000000000E+00 0.  1.
          4   -1    0    0  502    0  0.00000000000E+00 -0.00000000000E+00 -0.72556076764E+02  0.72556076764E+02  0.00000000000E+00 0. -1.
         24    2    1    2    0    0 -0.67979174282E+02  0.10507363415E+03  0.50331061883E+03  0.52455408028E+03  0.78573324908E+02 0.  0.
         23    2    1    2    0    0  0.64170423199E+02 -0.12520384974E+03  0.21111650126E+03  0.26971009172E+03  0.91539659535E+02 0.  0.
        -13    1    3    3    0    0 -0.21157227405E+02  0.96952684430E+02  0.36783763192E+03  0.38098815565E+03  0.00000000000E+00 0.  1.
         14    1    3    3    0    0 -0.46821946877E+02  0.81209497199E+01  0.13547298690E+03  0.14356592463E+03  0.00000000000E+00 0. -1.
        -13    1    4    4    0    0 -0.41769783070E+01 -0.72775988048E+02  0.14065684566E+03  0.15842392438E+03  0.00000000000E+00 0.  1.
         13    1    4    4    0    0  0.68347401506E+02 -0.52427861689E+02  0.70459655596E+02  0.11128616734E+03  0.00000000000E+00 0. -1.
         21    1    1    2  502  501  0.38087510837E+01  0.20130215587E+02 -0.29422449229E+02  0.35852652385E+02  0.00000000000E+00 0. -1.
<scales pt_clust_5="13000.00000" pt_clust_6="13000.00000" pt_clust_7="13000.00000" pt_clust_8="13000.00000" pt_clust_9="20.48737"></scales>
<clustering>
<clus scale="   20.487">  2  9  1 -1</clus>
<clus scale="   78.573">  5  6 -1 -1</clus>
<clus scale="   91.540">  7  8 -1 -1</clus>
<clus scale="  151.172">  1  5  2 -1</clus>
<clus scale="   20.487">  2  5  1 -1</clus>
</clustering>
</event>
<event>
 9    2  0.2984928E-005  0.1626243E+03  0.7546771E-02  0.1207375E+00
          2   -1    0    0  502    0  0.00000000000E+00  0.00000000000E+00  0.14061646684E+03  0.14061646684E+03  0.00000000000E+00 0. -1.
         -1   -1    0    0    0  501 -0.00000000000E+00 -0.00000000000E+00 -0.34421523129E+03  0.34421523129E+03  0.00000000000E+00 0.  1.
         23    2    1    2    0    0 -0.87900650732E+02 -0.16129092486E+02 -0.81687120662E+01  0.15127423774E+03  0.12178052029E+03 0.  0.
         24    2    1    2    0    0 -0.17023983229E+02  0.61848553971E+02  0.63023507387E+01  0.10161908401E+03  0.78559906931E+02 0.  0.
        -13    1    4    4    0    0  0.29489750709E+02  0.15308933291E+02  0.12564989483E+02  0.35523060061E+02  0.00000000000E+00 0.  1.
         14    1    4    4    0    0 -0.46513733938E+02  0.46539620680E+02 -0.62626387443E+01  0.66096023949E+02  0.00000000000E+00 0. -1.
        -11    1    3    3    0    0 -0.58950632969E+02 -0.59206052486E+02 -0.37587516574E+02  0.91615256266E+02  0.00000000000E+00 0.  1.
         11    1    3    3    0    0 -0.28950017763E+02  0.43076959999E+02  0.29418804508E+02  0.59658981469E+02  0.00000000000E+00 0. -1.
         21    1    1    2  502  501  0.10492463396E+03 -0.45719461485E+02 -0.20173240313E+03  0.23193837639E+03  0.00000000000E+00 0.  1.
<scales pt_clust_5="13000.00000" pt_clust_6="13000.00000" pt_clust_7="13000.00000" pt_clust_8="13000.00000" pt_clust_9="107.77826"></scales>
<clustering>
<clus scale="   78.560">  5  6 -1 -1</clus>
<clus scale="  101.423">  1  5  2 -1</clus>
<clus scale="  107.778">  2  9  1 -1</clus>
<clus scale="  121.781">  7  8 -1 -1</clus>
<clus scale="  101.423">  1  5  2 -1</clus>
</clustering>
</event>
<event>
 9    2  0.2984928E-005  0.1086621E+03  0.7546771E-02  0.1269004E+00
          2   -1    0    0  502    0  0.00000000000E+00  0.00000000000E+00  0.26444188080E+03  0.26444188080E+03  0.00000000000E+00 0. -1.
         -1   -1    0    0    0  501 -0.00000000000E+00 -0.00000000000E+00 -0.15592512021E+03  0.15592512021E+03  0.00000000000E+00 0.  1.
         24    2    1    2    0    0 -0.56514468446E+02 -0.16270590929E+02 -0.11907143555E+03  0.15448586625E+03  0.78925653852E+02 0.  0.
         23    2    1    2    0    0  0.32705086952E+02 -0.13232964146E+02  0.16546796377E+03  0.19310566033E+03  0.93088210666E+02 0.  0.
        -11    1    3    3    0    0 -0.28003524899E+02 -0.47702027394E+02 -0.76236194614E+02  0.94189374100E+02  0.00000000000E+00 0.  1.
         12    1    3    3    0    0 -0.28510943547E+02  0.31431436464E+02 -0.42835240931E+02  0.60296492152E+02  0.00000000000E+00 0. -1.
        -13    1    4    4    0    0 -0.23217627401E+02 -0.10322728956E+02  0.11482860023E+03  0.11760622597E+03  0.00000000000E+00 0.  1.
         13    1    4    4    0    0  0.55922714353E+02 -0.29102351898E+01  0.50639363537E+02  0.75499434362E+02  0.00000000000E+00 0. -1.
         21    1    1    2  502  501  0.23809381494E+02  0.29503555075E+02  0.62120232364E+02  0.72775474428E+02  0.00000000000E+00 0. -1.
<scales pt_clust_5="13000.00000" pt_clust_6="13000.00000" pt_clust_7="13000.00000" pt_clust_8="13000.00000" pt_clust_9="37.91235"></scales>
<clustering>
<clus scale="   37.912">  1  9  2 -1</clus>
<clus scale="   78.926">  5  6 -1 -1</clus>
<clus scale="   93.088">  7  8 -1 -1</clus>
<clus scale="   96.805">  2  5  1 -1</clus>
<clus scale="   37.912">  1  5  2 -1</clus>
</clustering>
</event>
<event>
 9    2  0.2984928E-005  0.1196340E+03  0.7546771E-02  0.1246990E+00
         -1   -1    0    0    0  501 -0.00000000000E+00  0.00000000000E+00  0.92844325502E+02  0.92844325502E+02  0.00000000000E+00 0.  1.
          2   -1    0    0  502    0  0.00000000000E+00 -0.00000000000E+00 -0.31742067905E+03  0.31742067905E+03  0.00000000000E+00 0. -1.
         23    2    1    2    0    0  0.47049673439E+02  0.57439467797E+02  0.24112085040E+02  0.11981916442E+03  0.90897058734E+02 0.  0.
         24    2    1    2    0    0 -0.46444358084E+02 -0.82385812530E+02 -0.19447748581E+03  0.23076741921E+03  0.80545693731E+02 0.  0.
        -13    1    4    4    0    0  0.12455775717E+00 -0.39150182055E+02 -0.17794442914E+02  0.43004586595E+02  0.00000000000E+00 0.  1.
         14    1    4    4    0    0 -0.46568915841E+02 -0.43235630475E+02 -0.17668304290E+03  0.18776283262E+03  0.00000000000E+00 0. -1.
        -11    1    3    3    0    0  0.17383306228E+02  0.78524176734E+02  0.11203145029E+02  0.81201823414E+02  0.00000000000E+00 0.  1.
         11    1    3    3    0    0  0.29666367210E+02 -0.21084708937E+02  0.12908940011E+02  0.38617341009E+02  0.00000000000E+00 0. -1.
         21    1    1    2  502  501 -0.60531535471E+00  0.24946344733E+02 -0.54210952779E+02  0.59678420919E+02  0.00000000000E+00 0. -1.
<scales pt_clust_5="13000.00000" pt_clust_6="13000.00000" pt_clust_7="13000.00000" pt_clust_8="13000.00000" pt_clust_9="24.95369"></scales>
<clustering>
<clus scale="   24.954">  2  9  1 -1</clus>
<clus scale="   80.546">  5  6 -1 -1</clus>
<clus scale="   90.897">  7  8 -1 -1</clus>
<clus scale="  111.972">  2  5  1 -1</clus>
<clus scale="   24.954">  2  5  1 -1</clus>
</clustering>
</event>
<event>
 9    2  0.2984928E-005  0.9709252E+02  0.7546771E-02  0.1287023E+00
          2   -1    0    0  502    0  0.00000000000E+00  0.00000000000E+00  0.77523654283E+03  0.77523654283E+03  0.00000000000E+00 0. -1.
         -1   -1    0    0    0  501 -0.00000000000E+00 -0.00000000000E+00 -0.33967924429E+02  0.33967924429E+02  0.00000000000E+00 0.  1.
         23    2    1    2    0    0  0.27340452917E+02 -0.48291027780E+02  0.11915468681E+03  0.16054991012E+03  0.92189535862E+02 0.  0.
         24    2    1    2    0    0  0.77052147781E+01 -0.31198238326E+02  0.33425761917E+03  0.34797532797E+03  0.91246767027E+02 0.  0.
        -11    1    4    4    0    0  0.11851559615E+02  0.16404358162E+02  0.15073372375E+02  0.25234281975E+02  0.00000000000E+00 0.  1.
         12    1    4    4    0    0 -0.41463448368E+01 -0.47602596488E+02  0.31918424680E+03  0.32274104600E+03  0.00000000000E+00 0. -1.
        -11    1    3    3    0    0 -0.16943472346E+02 -0.50154969411E+02  0.29663204286E+02  0.60683670788E+02  0.00000000000E+00 0. -1.
         11    1    3    3    0    0  0.44283925263E+02  0.18639416307E+01  0.89491482520E+02  0.99866239334E+02  0.00000000000E+00 0.  1.
         21    1    1    2  502  501 -0.35045667695E+02  0.79489266107E+02  0.28785631243E+03  0.30067922917E+03  0.00000000000E+00 0.  1.
<scales pt_clust_5="13000.00000" pt_clust_6="13000.00000" pt_clust_7="13000.00000" pt_clust_8="13000.00000" pt_clust_9="86.87199"></scales>
<clustering>
<clus scale="   86.872">  1  9  2 -1</clus>
<clus scale="   91.247">  5  6 -1 -1</clus>
<clus scale="   92.190">  7  8 -1 -1</clus>
<clus scale="   96.198">  1  5  2 -1</clus>
<clus scale="   86.872">  1  5  2 -1</clus>
</clustering>
</event>
<event>
 9    2  0.2984928E-005  0.1794910E+03  0.7546771E-02  0.1168524E+00
          2   -1    0    0  502    0  0.00000000000E+00  0.00000000000E+00  0.45799217369E+03  0.45799217369E+03  0.00000000000E+00 0. -1.
         -1   -1    0    0    0  501 -0.00000000000E+00 -0.00000000000E+00 -0.23316162717E+03  0.23316162717E+03  0.00000000000E+00 0.  1.
         24    2    1    2    0    0 -0.29217716833E+02 -0.15634269634E+03 -0.16247453491E+03  0.24417006090E+03  0.89018708527E+02 0.  0.
         23    2    1    2    0    0  0.63505433475E+02  0.12549027964E+03  0.23180788993E+03  0.28478973362E+03  0.87117989977E+02 0.  0.
        -13    1    3    3    0    0 -0.12412579782E+02 -0.34855159192E+02 -0.99803447464E+02  0.10644098076E+03  0.00000000000E+00 0.  1.
         14    1    3    3    0    0 -0.16805137050E+02 -0.12148753715E+03 -0.62671087444E+02  0.13772908014E+03  0.00000000000E+00 0. -1.
        -11    1    4    4    0    0  0.44799823676E+02  0.24162458474E+02  0.32412102485E+02  0.60343955691E+02  0.00000000000E+00 0.  1.
         11    1    4    4    0    0  0.18705609799E+02  0.10132782116E+03  0.19939578745E+03  0.22444577793E+03  0.00000000000E+00 0. -1.
         21    1    1    2  502  501 -0.34287716642E+02  0.30852416704E+02  0.15549719150E+03  0.16219400634E+03  0.00000000000E+00 0. -1.
<scales pt_clust_5="13000.00000" pt_clust_6="13000.00000" pt_clust_7="13000.00000" pt_clust_8="13000.00000" pt_clust_9="46.12504"></scales>
<clustering>
<clus scale="   46.125">  1  9  2 -1</clus>
<clus scale="   87.118">  7  8 -1 -1</clus>
<clus scale="   89.019">  5  6 -1 -1</clus>
<clus scale="  178.556">  1  7  2 -1</clus>
<clus scale="   46.125">  1  5  2 -1</clus>
</clustering>
</event>
<event>
 9    2  0.2984928E-005  0.1012664E+03  0.7546771E-02  0.1278876E+00
         -1   -1    0    0    0  501 -0.00000000000E+00  0.00000000000E+00  0.19619669202E+03  0.19619669202E+03  0.00000000000E+00 0.  1.
          2   -1    0    0  502    0  0.00000000000E+00 -0.00000000000E+00 -0.20931855070E+03  0.20931855070E+03  0.00000000000E+00 0. -1.
         24    2    1    2    0    0  0.39812023258E+02 -0.23536979849E+02  0.14948853350E+03  0.18011567006E+03  0.89195551108E+02 0.  0.
         23    2    1    2    0    0 -0.18370720786E+01  0.55133163142E+01 -0.15839476268E+03  0.18315361550E+03  0.91774585449E+02 0.  0.
        -11    1    3    3    0    0  0.15535707496E+02  0.17668915195E+02  0.12342891598E+03  0.12565128759E+03  0.00000000000E+00 0.  1.
         12    1    3    3    0    0  0.24276315762E+02 -0.41205895044E+02  0.26059617521E+02  0.54464382478E+02  0.00000000000E+00 0. -1.
        -11    1    4    4    0    0  0.25079953448E+02  0.27327908220E+02 -0.23567638561E+02  0.43946014837E+02  0.00000000000E+00 0.  1.
         11    1    4    4    0    0 -0.26917025527E+02 -0.21814591906E+02 -0.13482712412E+03  0.13920760066E+03  0.00000000000E+00 0. -1.
         21    1    1    2  502  501 -0.37974951180E+02  0.18023663534E+02 -0.42156294984E+01  0.42245957160E+02  0.00000000000E+00 0. -1.
<scales pt_clust_5="13000.00000" pt_clust_6="13000.00000" pt_clust_7="13000.00000" pt_clust_8="13000.00000" pt_clust_9="42.03510"></scales>
<clustering>
<clus scale="   42.035">  2  9  1 -1</clus>
<clus scale="   89.196">  5  6 -1 -1</clus>
<clus scale="   91.775">  7  8 -1 -1</clus>
<clus scale="   98.935">  1  5  2 -1</clus>
<clus scale="   42.035">  2  5  1 -1</clus>
</clustering>
</event>
<event>
 9    2  0.2984928E-005  0.1037052E+03  0.7546771E-02  0.1277491E+00
         -3   -1    0    0    0  501 -0.00000000000E+00  0.00000000000E+00  0.21176512923E+03  0.21176512923E+03  0.00000000000E+00 0.  1.
          4   -1    0    0  502    0  0.00000000000E+00 -0.00000000000E+00 -0.20163532116E+03  0.20163532116E+03  0.00000000000E+00 0. -1.
         23    2    1    2    0    0 -0.46176974612E+02 -0.51714727179E+00  0.16145919246E+03  0.19129625892E+03  0.91611175207E+02 0.  0.
         24    2    1    2    0    0  0.62429940795E+02  0.40234199410E+02 -0.70692160633E+02  0.13075888509E+03  0.81143182988E+02 0.  0.
        -13    1    4    4    0    0  0.77208075184E+02  0.12513268202E+02 -0.55199824990E+02  0.95732384456E+02  0.00000000000E+00 0.  1.
         14    1    4    4    0    0 -0.14778134389E+02  0.27720931208E+02 -0.15492335643E+02  0.35026500635E+02  0.00000000000E+00 0. -1.
        -13    1    3    3    0    0 -0.41380325101E+02 -0.34701178703E+02  0.46496694229E+02  0.71263214094E+02  0.00000000000E+00 0. -1.
         13    1    3    3    0    0 -0.47966495104E+01  0.34184031431E+02  0.11496249823E+03  0.12003304483E+03  0.00000000000E+00 0.  1.
         21    1    1    2  502  501 -0.16252966184E+02 -0.39717052138E+02 -0.80637223761E+02  0.91345306372E+02  0.00000000000E+00 0. -1.
<scales pt_clust_5="13000.00000" pt_clust_6="13000.00000" pt_clust_7="13000.00000" pt_clust_8="13000.00000" pt_clust_9="42.91390"></scales>
<clustering>
<clus scale="   42.914">  2  9  1 -1</clus>
<clus scale="   81.143">  5  6 -1 -1</clus>
<clus scale="   91.611">  7  8 -1 -1</clus>
<clus scale="   94.585">  2  5  1 -1</clus>
<clus scale="   42.914">  2  5  1 -1</clus>
</clustering>
</event>
<event>
 9    2  0.2984928E-005  0.9769547E+02  0.7546771E-02  0.1292317E+00
         -1   -1    0    0    0  501 -0.00000000000E+00  0.00000000000E+00  0.17860955118E+02  0.17860955118E+02  0.00000000000E+00 0.  1.
          2   -1    0    0  502    0  0.00000000000E+00 -0.00000000000E+00 -0.85725644559E+03  0.85725644559E+03  0.00000000000E+00 0. -1.
         23    2    1    2    0    0  0.12074715076E+02 -0.15307145002E+02 -0.24433938446E+03  0.26198091463E+03  0.92477875183E+02 0.  0.
         24    2    1    2    0    0 -0.39473377977E+02 -0.11335109992E+02 -0.53146996605E+03  0.53894960264E+03  0.79496648239E+02 0.  0.
        -11    1    4    4    0    0 -0.55488624135E+02 -0.25050989519E+02 -0.27720503886E+03  0.28381186207E+03  0.00000000000E+00 0.  1.
         12    1    4    4    0    0  0.16015246157E+02  0.13715879527E+02 -0.25426492719E+03  0.25513774056E+03  0.00000000000E+00 0. -1.
        -13    1    3    3    0    0  0.50922964726E+02 -0.83226381058E+01 -0.17200984960E+03  0.17958230147E+03  0.00000000000E+00 0. -1.
         13    1    3    3    0    0 -0.38848249650E+02 -0.69845068966E+01 -0.72329534866E+02  0.82398613164E+02  0.00000000000E+00 0.  1.
         21    1    1    2  502  501  0.27398662901E+02  0.26642254994E+02 -0.63586139959E+02  0.74186883442E+02  0.00000000000E+00 0. -1.
<scales pt_clust_5="13000.00000" pt_clust_6="13000.00000" pt_clust_7="13000.00000" pt_clust_8="13000.00000" pt_clust_9="38.21644"></scales>
<clustering>
<clus scale="   38.216">  1  9  2 -1</clus>
<clus scale="   79.497">  5  6 -1 -1</clus>
<clus scale="   85.510">  2  5  1 -1</clus>
<clus scale="   92.478">  7  8 -1 -1</clus>
<clus scale="   85.510">  2  5  1 -1</clus>
</clustering>
</event>
<event>
 9    2  0.2984928E-005  0.2161210E+03  0.7546771E-02  0.1168641E+00
         -1   -1    0    0    0  501 -0.00000000000E+00  0.00000000000E+00  0.93128953537E+02  0.93128953537E+02  0.00000000000E+00 0.  1.
          2   -1    0    0  502    0  0.00000000000E+00 -0.00000000000E+00 -0.73387944486E+03  0.73387944486E+03  0.00000000000E+00 0. -1.
         23    2    1    2    0    0 -0.26827115732E+02  0.37194611107E+02 -0.11408264077E+03  0.15303924867E+03  0.91120960678E+02 0.  0.
         24    2    1    2    0    0 -0.16047519992E+03 -0.11693221545E+03 -0.30186969289E+03  0.37069624509E+03  0.82855065274E+02 0.  0.
        -13    1    4    4    0    0 -0.12030362301E+03 -0.91484296066E+02 -0.28036268151E+03  0.31850521396E+03  0.00000000000E+00 0.  1.
         14    1    4    4    0    0 -0.40171576911E+02 -0.25447919386E+02 -0.21507011383E+02  0.52191031137E+02  0.00000000000E+00 0. -1.
        -13    1    3    3    0    0 -0.11176355667E+01 -0.20558676988E+02  0.21767899267E+01  0.20703785237E+02  0.00000000000E+00 0. -1.
         13    1    3    3    0    0 -0.25709480165E+02  0.57753288096E+02 -0.11625943070E+03  0.13233546344E+03  0.00000000000E+00 0.  1.
         21    1    1    2  502  501  0.18730231565E+03  0.79737604344E+02 -0.22479815766E+03  0.30327290463E+03  0.00000000000E+00 0. -1.
<scales pt_clust_5="13000.00000" pt_clust_6="13000.00000" pt_clust_7="13000.00000" pt_clust_8="13000.00000" pt_clust_9="199.60793"></scales>
<clustering>
<clus scale="   82.855">  5  6 -1 -1</clus>
<clus scale="   91.121">  7  8 -1 -1</clus>
<clus scale="  102.011">  1  7  2 -1</clus>
<clus scale="  199.608">  1  9  2 -1</clus>
<clus scale="  216.121">  2  5  1 -1</clus>
</clustering>
</event>
<event>
 9    2  0.2984928E-005  0.1164747E+03  0.7546771E-02  0.1249973E+00
         -1   -1    0    0    0  501 -0.00000000000E+00  0.00000000000E+00  0.29444788196E+03  0.29444788196E+03  0.00000000000E+00 0.  1.
          2   -1    0    0  502    0  0.00000000000E+00 -0.00000000000E+00 -0.14271133059E+03  0.14271133059E+03  0.00000000000E+00 0. -1.
         23    2    1    2    0    0 -0.79818124139E+02 -0.39124545500E+02  0.15145970458E+03  0.19739552353E+03  0.90129282683E+02 0.  0.
         24    2    1    2    0    0 -0.30699341191E+02  0.59061802735E+02 -0.39080104486E+02  0.12076547902E+03  0.92877878232E+02 0.  0.
        -11    1    4    4    0    0 -0.45116489814E+02  0.50993629213E+02  0.10147884563E+02  0.68839141733E+02  0.00000000000E+00 0.  1.
         12    1    4    4    0    0  0.14417148623E+02  0.80681735226E+01 -0.49227989049E+02  0.51926337289E+02  0.00000000000E+00 0. -1.
        -13    1    3    3    0    0 -0.16851208554E+02  0.28732510052E+02  0.49694643566E+02  0.59825395634E+02  0.00000000000E+00 0. -1.
         13    1    3    3    0    0 -0.62966915586E+02 -0.67857055552E+02  0.10176506102E+03  0.13757012790E+03  0.00000000000E+00 0.  1.
         21    1    1    2  502  501  0.11051746533E+03 -0.19937257235E+02  0.39356951263E+02  0.11899820999E+03  0.00000000000E+00 0.  1.
<scales pt_clust_5="13000.00000" pt_clust_6="13000.00000" pt_clust_7="13000.00000" pt_clust_8="13000.00000" pt_clust_9="112.30140"></scales>
<clustering>
<clus scale="   90.129">  7  8 -1 -1</clus>
<clus scale="   92.878">  5  6 -1 -1</clus>
<clus scale="  112.301">  2  9  1 -1</clus>
<clus scale="  114.295">  1  7  2 -1</clus>
<clus scale="  112.301">  2  5  1 -1</clus>
</clustering>
</event>
<event>
 9    2  0.2984928E-005  0.1589618E+03  0.7546771E-02  0.1191509E+00
          2   -1    0    0  502    0  0.00000000000E+00  0.00000000000E+00  0.12319908654E+04  0.12319908654E+04  0.00000000000E+00 0. -1.
         -1   -1    0    0    0  501 -0.00000000000E+00 -0.00000000000E+00 -0.89475178766E+02  0.89475178766E+02  0.00000000000E+00 0.  1.
         23    2    1    2    0    0  0.52272466267E+01  0.12955114776E+03 -0.50787295875E+01  0.15781937467E+03  0.89835057366E+02 0.  0.
         24    2    1    2    0    0 -0.10150529273E+02 -0.15082940868E+03  0.10192155056E+04  0.10334232161E+04  0.79440248827E+02 0.  0.
        -11    1    4    4    0    0  0.32322472042E+02 -0.95141555463E+02  0.57259820167E+03  0.58134788065E+03  0.00000000000E+00 0.  1.
         12    1    4    4    0    0 -0.42473001315E+02 -0.55687853214E+02  0.44661730388E+03  0.45207533549E+03  0.00000000000E+00 0. -1.
        -11    1    3    3    0    0  0.21145504118E+02  0.10638532089E+03 -0.37633278606E+02  0.11480954884E+03  0.00000000000E+00 0.  1.
         11    1    3    3    0    0 -0.15918257491E+02  0.23165826874E+02  0.32554549018E+02  0.43009825832E+02  0.00000000000E+00 0. -1.
         21    1    1    2  502  501  0.49232826463E+01  0.21278260912E+02  0.12837891067E+03  0.13022345336E+03  0.00000000000E+00 0.  1.
<scales pt_clust_5="13000.00000" pt_clust_6="13000.00000" pt_clust_7="13000.00000" pt_clust_8="13000.00000" pt_clust_9="21.84040"></scales>
<clustering>
<clus scale="   21.840">  1  9  2 -1</clus>
<clus scale="   79.440">  5  6 -1 -1</clus>
<clus scale="   89.835">  7  8 -1 -1</clus>
<clus scale="  153.327">  1  5  2 -1</clus>
<clus scale="   21.840">  1  5  2 -1</clus>
</clustering>
</event>
<event>
 9    2  0.2984928E-005  0.9663641E+02  0.7546771E-02  0.1293877E+00
          2   -1    0    0  502    0  0.00000000000E+00  0.00000000000E+00  0.39288557089E+03  0.39288557089E+03  0.00000000000E+00 0. -1.
         -1   -1    0    0    0  501 -0.00000000000E+00 -0.00000000000E+00 -0.77708802095E+02  0.77708802095E+02  0.00000000000E+00 0.  1.
         23    2    1    2    0    0 -0.88697471546E+01  0.39690300971E+02 -0.23364347417E+02  0.10274308513E+03  0.91412561538E+02 0.  0.
         24    2    1    2    0    0 -0.57237673357E+01 -0.34543009593E+01  0.11068195736E+03  0.13666777928E+03  0.79893006580E+02 0.  0.
        -11    1    4    4    0    0 -0.22545070930E+02 -0.77979301966E+01  0.11605607994E+03  0.11848249503E+03  0.00000000000E+00 0.  1.
         12    1    4    4    0    0  0.16821303594E+02  0.43436292374E+01 -0.53741225803E+01  0.18185284245E+02  0.00000000000E+00 0. -1.
        -13    1    3    3    0    0 -0.57325551725E+01 -0.29670320880E+02 -0.11347371070E+02  0.32279296153E+02  0.00000000000E+00 0. -1.
         13    1    3    3    0    0 -0.31371919821E+01  0.69360621851E+02 -0.12016976347E+02  0.70463788982E+02  0.00000000000E+00 0.  1.
         21    1    1    2  502  501  0.14593514490E+02 -0.36236000012E+02  0.22785915885E+03  0.23118350857E+03  0.00000000000E+00 0. -1.
<scales pt_clust_5="13000.00000" pt_clust_6="13000.00000" pt_clust_7="13000.00000" pt_clust_8="13000.00000" pt_clust_9="39.06428"></scales>
<clustering>
<clus scale="   39.064">  1  9  2 -1</clus>
<clus scale="   79.893">  5  6 -1 -1</clus>
<clus scale="   85.821">  1  5  2 -1</clus>
<clus scale="   91.413">  7  8 -1 -1</clus>
<clus scale="   39.064">  1  5  2 -1</clus>
</clustering>
</event>
<event>
 9    2  0.2984928E-005  0.1589433E+03  0.7546771E-02  0.1192112E+00
         -1   -1    0    0    0  501 -0.00000000000E+00  0.00000000000E+00  0.16195053721E+03  0.16195053721E+03  0.00000000000E+00 0.  1.
          2   -1    0    0  502    0  0.00000000000E+00 -0.00000000000E+00 -0.70458389026E+03  0.70458389026E+03  0.00000000000E+00 0. -1.
         24    2    1    2    0    0  0.32450074533E+02 -0.13045317888E+03  0.84462580592E+02  0.17861423349E+03  0.81841784373E+02 0.  0.
         23    2    1    2    0    0 -0.78208195190E+02  0.79260501931E+02 -0.16448120179E+03  0.22023773129E+03  0.95141177092E+02 0.  0.
        -13    1    3    3    0    0  0.61090094094E+01 -0.37864416144E+02  0.71959737473E+02  0.81542858811E+02  0.00000000000E+00 0.  1.
         14    1    3    3    0    0  0.26341065124E+02 -0.92588762735E+02  0.12502843119E+02  0.97071374683E+02  0.00000000000E+00 0. -1.
        -13    1    4    4    0    0 -0.88195187909E+02  0.49353532559E+02 -0.76429264376E+02  0.12671067358E+03  0.00000000000E+00 0.  1.
         13    1    4    4    0    0  0.99869927185E+01  0.29906969372E+02 -0.88051937414E+02  0.93527057705E+02  0.00000000000E+00 0. -1.
         21    1    1    2  502  501  0.45758120657E+02  0.51192676948E+02 -0.46261473185E+03  0.46768246269E+03  0.00000000000E+00 0. -1.
<scales pt_clust_5="13000.00000" pt_clust_6="13000.00000" pt_clust_7="13000.00000" pt_clust_8="13000.00000" pt_clust_9="68.66219"></scales>
<clustering>
<clus scale="   68.662">  2  9  1 -1</clus>
<clus scale="   81.842">  5  6 -1 -1</clus>
<clus scale="   95.141">  7  8 -1 -1</clus>
<clus scale="  151.358">  1  5  2 -1</clus>
<clus scale="   68.662">  2  5  1 -1</clus>
</clustering>
</event>
<event>
 9    2  0.2984928E-005  0.4219463E+03  0.7546771E-02  0.1053072E+00
          2   -1    0    0  502    0  0.00000000000E+00  0.00000000000E+00  0.11489428558E+04  0.11489428558E+04  0.00000000000E+00 0. -1.
         -1   -1    0    0    0  501 -0.00000000000E+00 -0.00000000000E+00 -0.38317099064E+03  0.38317099064E+03  0.00000000000E+00 0.  1.
         23    2    1    2    0    0 -0.12622638692E+03 -0.21711770972E+03  0.70683666910E+02  0.27058974157E+03  0.71759506993E+02 0.  0.
         24    2    1    2    0    0  0.30003059393E+03 -0.19101452527E+03 -0.75566596324E+02  0.37231735949E+03  0.80031241018E+02 0.  0.
        -13    1    4    4    0    0  0.19661809043E+03 -0.80568458325E+02 -0.32109797837E+02  0.21489762464E+03  0.00000000000E+00 0.  1.
         14    1    4    4    0    0  0.10341250350E+03 -0.11044606695E+03 -0.43456798487E+02  0.15741973485E+03  0.00000000000E+00 0. -1.
        -11    1    3    3    0    0 -0.12353029396E+03 -0.17287120424E+03  0.38798630090E+02  0.21598500058E+03  0.00000000000E+00 0.  1.
         11    1    3    3    0    0 -0.26960929591E+01 -0.44246505483E+02  0.31885036820E+02  0.54604740982E+02  0.00000000000E+00 0. -1.
         21    1    1    2  502  501 -0.17380420702E+03  0.40813223499E+03  0.77065479454E+03  0.88920674534E+03  0.00000000000E+00 0. -1.
<scales pt_clust_5="13000.00000" pt_clust_6="13000.00000" pt_clust_7="13000.00000" pt_clust_8="13000.00000" pt_clust_9="414.28693"></scales>
<clustering>
<clus scale="   71.760">  7  8 -1 -1</clus>
<clus scale="   80.031">  5  6 -1 -1</clus>
<clus scale="  261.195">  2  7  1 -1</clus>
<clus scale="  414.287">  1  9  2 -1</clus>
<clus scale="  414.287">  1  5  2 -1</clus>
</clustering>
</event>
<event>
 9    2  0.6666286E-005  0.9518938E+02  0.7546771E-02  0.1297105E+00
         -1   -1    0    0    0  501 -0.00000000000E+00  0.00000000000E+00  0.38053450048E+03  0.38053450048E+03  0.00000000000E+00 0.  1.
          2   -1    0    0  502    0  0.00000000000E+00 -0.00000000000E+00 -0.47593147895E+03  0.47593147895E+03  0.00000000000E+00 0. -1.
         24    2    1    2    0    0 -0.96595647654E+02  0.20521031423E+02  0.32646416614E+03  0.35050198896E+03  0.80752465078E+02 0.  0.
         23    2    1    2    0    0  0.23649528078E+02 -0.39292050965E+01 -0.42057125405E+03  0.43114361303E+03  0.91814467776E+02 0.  0.
        -13    1    3    3    0    0 -0.31551801255E+02 -0.24694442315E+02  0.17551053076E+03  0.18002577052E+03  0.00000000000E+00 0.  1.
         14    1    3    3    0    0 -0.65043846399E+02  0.45215473738E+02  0.15095363538E+03  0.17047621844E+03  0.00000000000E+00 0. -1.
        -13    1    4    4    0    0  0.39498005488E+02  0.33101151099E+02 -0.18033201546E+03  0.18755109822E+03  0.00000000000E+00 0. -1.
         13    1    4    4    0    0 -0.15848477409E+02 -0.37030356196E+02 -0.24023923859E+03  0.24359251482E+03  0.00000000000E+00 0.  1.
         21    1    1    2  502  501  0.72946119576E+02 -0.16591826327E+02 -0.12898905529E+01  0.74820377436E+02  0.00000000000E+00 0. -1.
<scales pt_clust_5="13000.00000" pt_clust_6="13000.00000" pt_clust_7="13000.00000" pt_clust_8="13000.00000" pt_clust_9="74.80926"></scales>
<clustering>
<clus scale="   74.809">  1  9  2 -1</clus>
<clus scale="   80.752">  5  6 -1 -1</clus>
<clus scale="   84.570">  1  5  2 -1</clus>
<clus scale="   91.814">  7  8 -1 -1</clus>
<clus scale="   95.189">  2  5  1 -1</clus>
</clustering>
</event>
<event>
 9    2  0.2984928E-005  0.1157201E+03  0.7546771E-02  0.1253313E+00
          2   -1    0    0  502    0  0.00000000000E+00  0.00000000000E+00  0.56077940437E+03  0.56077940437E+03  0.00000000000E+00 0. -1.
         -1   -1    0    0    0  501 -0.00000000000E+00 -0.00000000000E+00 -0.82547918146E+02  0.82547918146E+02  0.00000000000E+00 0.  1.
         23    2    1    2    0    0  0.36896706858E+02  0.62897931776E+02 -0.28262354600E+02  0.11964050496E+03  0.90540449203E+02 0.  0.
         24    2    1    2    0    0 -0.12605563633E+02 -0.67389123766E+02  0.37535815955E+03  0.39024470520E+03  0.81835125480E+02 0.  0.
        -13    1    4    4    0    0 -0.27317887345E+02  0.90865649474E+01  0.10857300362E+03  0.11232510737E+03  0.00000000000E+00 0.  1.
         14    1    4    4    0    0  0.14712323712E+02 -0.76475688714E+02  0.26678515593E+03  0.27791959783E+03  0.00000000000E+00 0. -1.
        -13    1    3    3    0    0 -0.19189513782E+02  0.48531228153E+02 -0.32680038858E+02  0.61575177506E+02  0.00000000000E+00 0.  1.
         13    1    3    3    0    0  0.56086220639E+02  0.14366703624E+02  0.44176842578E+01  0.58065327458E+02  0.00000000000E+00 0. -1.
         21    1    1    2  502  501 -0.24291143225E+02  0.44911919904E+01  0.13113568128E+03  0.13344211235E+03  0.00000000000E+00 0. -1.
<scales pt_clust_5="13000.00000" pt_clust_6="13000.00000" pt_clust_7="13000.00000" pt_clust_8="13000.00000" pt_clust_9="24.70284"></scales>
<clustering>
<clus scale="   24.703">  1  9  2 -1</clus>
<clus scale="   81.835">  5  6 -1 -1</clus>
<clus scale="   90.540">  7  8 -1 -1</clus>
<clus scale="  109.044">  1  5  2 -1</clus>
<clus scale="   24.703">  1  5  2 -1</clus>
</clustering>
</event>
<event>
 9    2  0.2984928E-005  0.1010659E+03  0.7546771E-02  0.1280790E+00
         -1   -1    0    0    0  501 -0.00000000000E+00  0.00000000000E+00  0.56749570892E+02  0.56749570892E+02  0.00000000000E+00 0.  1.
          2   -1    0    0  502    0  0.00000000000E+00 -0.00000000000E+00 -0.42674868989E+03  0.42674868989E+03  0.00000000000E+00 0. -1.
         24    2    1    2    0    0  0.14951338849E+02 -0.32988860819E+02 -0.38254462350E+02  0.95901763056E+02  0.80136987690E+02 0.  0.
         23    2    1    2    0    0 -0.65473394217E+02 -0.73720299360E+01 -0.29246701252E+03  0.31193796939E+03  0.86181385233E+02 0.  0.
        -13    1    3    3    0    0  0.42381831758E+02 -0.38314332455E+02 -0.13816206548E+02  0.58780058677E+02  0.00000000000E+00 0.  1.
         14    1    3    3    0    0 -0.27430492909E+02  0.53254716365E+01 -0.24438255802E+02  0.37121704379E+02  0.00000000000E+00 0. -1.
        -13    1    4    4    0    0 -0.53276055177E+02  0.17932866436E+02 -0.27049567404E+03  0.27627492725E+03  0.00000000000E+00 0. -1.
         13    1    4    4    0    0 -0.12197339040E+02 -0.25304896372E+02 -0.21971338478E+02  0.35663042139E+02  0.00000000000E+00 0.  1.
         21    1    1    2  502  501  0.50522055368E+02  0.40360890755E+02 -0.39277644127E+02  0.75658528332E+02  0.00000000000E+00 0.  1.
<scales pt_clust_5="13000.00000" pt_clust_6="13000.00000" pt_clust_7="13000.00000" pt_clust_8="13000.00000" pt_clust_9="64.66436"></scales>
<clustering>
<clus scale="   64.664">  1  9  2 -1</clus>
<clus scale="   80.137">  5  6 -1 -1</clus>
<clus scale="   86.181">  7  8 -1 -1</clus>
<clus scale="   95.964">  1  5  2 -1</clus>
<clus scale="  101.066">  2  5  1 -1</clus>
</clustering>
</event>
<event>
 9    2  0.2984928E-005  0.9240831E+02  0.7546771E-02  0.1297385E+00
         -1   -1    0    0    0  501 -0.00000000000E+00  0.00000000000E+00  0.14794487699E+03  0.14794487699E+03  0.00000000000E+00 0.  1.
          2   -1    0    0  502    0  0.00000000000E+00 -0.00000000000E+00 -0.70115170063E+03  0.70115170063E+03  0.00000000000E+00 0. -1.
         24    2    1    2    0    0  0.12714522543E+01  0.54142037901E+00  0.12357036895E+03  0.15403292906E+03  0.91948884855E+02 0.  0.
         23    2    1    2    0    0  0.68362092133E+01  0.50400057062E+02 -0.49484557636E+03  0.50596081600E+03  0.92397529054E+02 0.  0.
        -13    1    3    3    0    0 -0.40687914919E+02  0.20420331196E+02  0.61932967322E+02  0.76864743465E+02  0.00000000000E+00 0.  1.
         14    1    3    3    0    0  0.41959367173E+02 -0.19878910817E+02  0.61637401626E+02  0.77168185595E+02  0.00000000000E+00 0. -1.
        -13    1    4    4    0    0 -0.12745529959E+02  0.72193575031E+02 -0.40106711463E+03  0.40771214263E+03  0.00000000000E+00 0.  1.
         13    1    4    4    0    0  0.19581739172E+02 -0.21793517970E+02 -0.93778461729E+02  0.98248673369E+02  0.00000000000E+00 0. -1.
         21    1    1    2  502  501 -0.81076614676E+01 -0.50941477441E+02 -0.18193161623E+03  0.18910283256E+03  0.00000000000E+00 0. -1.
<scales pt_clust_5="13000.00000" pt_clust_6="13000.00000" pt_clust_7="13000.00000" pt_clust_8="13000.00000" pt_clust_9="51.58264"></scales>
<clustering>
<clus scale="   51.583">  2  9  1 -1</clus>
<clus scale="   91.949">  5  6 -1 -1</clus>
<clus scale="   91.960">  1  5  2 -1</clus>
<clus scale="   92.398">  7  8 -1 -1</clus>
<clus scale="   51.583">  2  5  1 -1</clus>
</clustering>
</event>
<event>
 9    2  0.2984928E-005  0.9934414E+02  0.7546771E-02  0.1282598E+00
          2   -1    0    0  502    0  0.00000000000E+00  0.00000000000E+00  0.57268979010E+03  0.57268979010E+03  0.00000000000E+00 0. -1.
         -1   -1    0    0    0  501 -0.00000000000E+00 -0.00000000000E+00 -0.71722304734E+02  0.71722304734E+02  0.00000000000E+00 0.  1.
         24    2    1    2    0    0 -0.60063687734E+02  0.19440062038E+02 -0.17828936188E+02  0.10369305955E+03  0.80304526877E+02 0.  0.
         23    2    1    2    0    0  0.83299706113E+01 -0.48984993991E+02  0.30209368788E+03  0.31597617049E+03  0.78175610116E+02 0.  0.
        -13    1    3    3    0    0 -0.59422770441E+02  0.17799033607E+02 -0.44892896673E+02  0.76571818679E+02  0.00000000000E+00 0.  1.
         14    1    3    3    0    0 -0.64091729381E+00  0.16410284318E+01  0.27063960484E+02  0.27121240871E+02  0.00000000000E+00 0. -1.
        -13    1    4    4    0    0  0.40199708348E+02 -0.30075028531E+02  0.11877983091E+03  0.12895414736E+03  0.00000000000E+00 0. -1.
         13    1    4    4    0    0 -0.31869737737E+02 -0.18909965460E+02  0.18331385697E+03  0.18702202313E+03  0.00000000000E+00 0.  1.
         21    1    1    2  502  501  0.51733717123E+02  0.29544931953E+02  0.21670273368E+03  0.22474286480E+03  0.00000000000E+00 0. -1.
<scales pt_clust_5="13000.00000" pt_clust_6="13000.00000" pt_clust_7="13000.00000" pt_clust_8="13000.00000" pt_clust_9="59.57584"></scales>
<clustering>
<clus scale="   59.576">  1  9  2 -1</clus>
<clus scale="   78.176">  7  8 -1 -1</clus>
<clus scale="   80.305">  5  6 -1 -1</clus>
<clus scale="   97.631">  1  7  2 -1</clus>
<clus scale="   59.576">  1  5  2 -1</clus>
</clustering>
</event>
<event>
 9    2  0.2984928E-005  0.8909687E+02  0.7546771E-02  0.1309982E+00
          2   -1    0    0  502    0  0.00000000000E+00  0.00000000000E+00  0.61471600461E+03  0.61471600461E+03  0.00000000000E+00 0. -1.
         -1   -1    0    0    0  501 -0.00000000000E+00 -0.00000000000E+00 -0.31505114032E+02  0.31505114032E+02  0.00000000000E+00 0.  1.
         23    2    1    2    0    0  0.21580082864E+00  0.16173185300E+02  0.73669388082E+02  0.11631577773E+03  0.88546953177E+02 0.  0.
         24    2    1    2    0    0 -0.32159009792E+02  0.26388023474E+02  0.28533357822E+03  0.29946875874E+03  0.80844028287E+02 0.  0.
        -11    1    4    4    0    0  0.12317422318E+02  0.41432127031E+02  0.15595231009E+03  0.16183158859E+03  0.00000000000E+00 0.  1.
         12    1    4    4    0    0 -0.44476432109E+02 -0.15044103558E+02  0.12938126813E+03  0.13763717015E+03  0.00000000000E+00 0. -1.
        -13    1    3    3    0    0 -0.25863620046E+02  0.44370221928E+02  0.46368713619E+02  0.69193215263E+02  0.00000000000E+00 0. -1.
         13    1    3    3    0    0  0.26079420875E+02 -0.28197036628E+02  0.27300674463E+02  0.47122562472E+02  0.00000000000E+00 0.  1.
         21    1    1    2  502  501  0.31943208963E+02 -0.42561208774E+02  0.22420792427E+03  0.23043658216E+03  0.00000000000E+00 0.  1.
<scales pt_clust_5="13000.00000" pt_clust_6="13000.00000" pt_clust_7="13000.00000" pt_clust_8="13000.00000" pt_clust_9="53.21490"></scales>
<clustering>
<clus scale="   53.215">  1  9  2 -1</clus>
<clus scale="   80.844">  5  6 -1 -1</clus>
<clus scale="   81.446">  1  5  2 -1</clus>
<clus scale="   88.547">  7  8 -1 -1</clus>
<clus scale="   53.215">  1  5  2 -1</clus>
</clustering>
</event>
<event>
 9    2  0.2984928E-005  0.9441276E+02  0.7546771E-02  0.1299176E+00
         -1   -1    0    0    0  501 -0.00000000000E+00  0.00000000000E+00  0.11395690466E+03  0.11395690466E+03  0.00000000000E+00 0.  1.
          2   -1    0    0  502    0  0.00000000000E+00 -0.00000000000E+00 -0.31422521754E+03  0.31422521754E+03  0.00000000000E+00 0. -1.
         23    2    1    2    0    0  0.10653222640E+02  0.14057674693E+02  0.68158035011E+02  0.11545924798E+03  0.91510714326E+02 0.  0.
         24    2    1    2    0    0 -0.83659694431E+01 -0.56420847821E+02 -0.10494019575E+03  0.14382174367E+03  0.80118335935E+02 0.  0.
        -11    1    4    4    0    0  0.24189930373E+02 -0.43385078229E+02 -0.23094299542E+02  0.54779233435E+02  0.00000000000E+00 0.  1.
         12    1    4    4    0    0 -0.32555899816E+02 -0.13035769593E+02 -0.81845896212E+02  0.89042510233E+02  0.00000000000E+00 0. -1.
        -13    1    3    3    0    0 -0.33863255222E+02 -0.11628522635E+02  0.48828935710E+02  0.60549215977E+02  0.00000000000E+00 0. -1.
         13    1    3    3    0    0  0.44516477861E+02  0.25686197328E+02  0.19329099300E+02  0.54910031999E+02  0.00000000000E+00 0.  1.
         21    1    1    2  502  501 -0.22872531965E+01  0.42363173128E+02 -0.16348615214E+03  0.16890113056E+03  0.00000000000E+00 0. -1.
<scales pt_clust_5="13000.00000" pt_clust_6="13000.00000" pt_clust_7="13000.00000" pt_clust_8="13000.00000" pt_clust_9="42.42487"></scales>
<clustering>
<clus scale="   42.425">  2  9  1 -1</clus>
<clus scale="   80.118">  5  6 -1 -1</clus>
<clus scale="   83.418">  2  5  1 -1</clus>
<clus scale="   91.511">  7  8 -1 -1</clus>
<clus scale="   42.425">  2  5  1 -1</clus>
</clustering>
</event>
<event>
 9    2  0.2984928E-005  0.1270718E+03  0.7546771E-02  0.1234201E+00
         -1   -1    0    0    0  501 -0.00000000000E+00  0.00000000000E+00  0.58492529008E+03  0.58492529008E+03  0.00000000000E+00 0.  1.
          2   -1    0    0  502    0  0.00000000000E+00 -0.00000000000E+00 -0.96130946164E+02  0.96130946164E+02  0.00000000000E+00 0. -1.
         24    2    1    2    0    0 -0.84429067651E+02 -0.13563462358E+02  0.45591444715E+03  0.47083017451E+03  0.80689746102E+02 0.  0.
         23    2    1    2    0    0  0.12380868985E+03  0.15882342724E+02  0.57261681595E+02  0.16385146436E+03  0.89373159842E+02 0.  0.
        -11    1    3    3    0    0 -0.36341387897E+02 -0.45466873973E+02  0.26829548936E+03  0.27453670559E+03  0.00000000000E+00 0.  1.
         12    1    3    3    0    0 -0.48087679754E+02  0.31903411615E+02  0.18761895779E+03  0.19629346892E+03  0.00000000000E+00 0. -1.
        -13    1    4    4    0    0  0.91593718409E+02  0.90306515032E+01 -0.63107711775E+01  0.92253930819E+02  0.00000000000E+00 0. -1.
         13    1    4    4    0    0  0.32214971444E+02  0.68516912206E+01  0.63572452772E+02  0.71597533542E+02  0.00000000000E+00 0.  1.
         21    1    1    2  502  501 -0.39379622203E+02 -0.23188803657E+01 -0.24381784829E+02  0.46374597383E+02  0.00000000000E+00 0. -1.
<scales pt_clust_5="13000.00000" pt_clust_6="13000.00000" pt_clust_7="13000.00000" pt_clust_8="13000.00000" pt_clust_9="39.44784"></scales>
<clustering>
<clus scale="   39.448">  2  9  1 -1</clus>
<clus scale="   80.690">  5  6 -1 -1</clus>
<clus scale="   89.373">  7  8 -1 -1</clus>
<clus scale="  121.122">  1  5  2 -1</clus>
<clus scale="   39.448">  2  5  1 -1</clus>
</clustering>
</event>
<event>
 9    2  0.2984928E-005  0.1109998E+03  0.7546771E-02  0.1273682E+00
          2   -1    0    0  502    0  0.00000000000E+00  0.00000000000E+00  0.22372374593E+03  0.22372374593E+03  0.00000000000E+00 0. -1.
         -1   -1    0    0    0  501 -0.00000000000E+00 -0.00000000000E+00 -0.14323875710E+03  0.14323875710E+03  0.00000000000E+00 0.  1.
         23    2    1    2    0    0  0.96478910431E+01 -0.20521081818E+02 -0.99874721044E+02  0.14986520720E+03  0.10940943206E+03 0.  0.
         24    2    1    2    0    0  0.21402343112E+02  0.25181510181E+01  0.13994874258E+03  0.16304853233E+03  0.80837936449E+02 0.  0.
        -11    1    4    4    0    0 -0.21974322439E+02  0.30045834619E+01  0.10507246882E+03  0.10738771844E+03  0.00000000000E+00 0.  1.
         12    1    4    4    0    0  0.43376665552E+02 -0.48643244380E+00  0.34876273758E+02  0.55660813883E+02  0.00000000000E+00 0. -1.
        -13    1    3    3    0    0 -0.33673969919E+02 -0.72105765678E+00 -0.96390513658E+02  0.10210576525E+03  0.00000000000E+00 0.  1.
         13    1    3    3    0    0  0.43321860962E+02 -0.19800024161E+02 -0.34842073862E+01  0.47759441947E+02  0.00000000000E+00 0. -1.
         21    1    1    2  502  501 -0.31050234155E+02  0.18002930800E+02  0.40410967301E+02  0.54048763507E+02  0.00000000000E+00 0.  1.
<scales pt_clust_5="13000.00000" pt_clust_6="13000.00000" pt_clust_7="13000.00000" pt_clust_8="13000.00000" pt_clust_9="35.89182"></scales>
<clustering>
<clus scale="   35.892">  1  9  2 -1</clus>
<clus scale="   80.838">  5  6 -1 -1</clus>
<clus scale="   82.978">  1  5  2 -1</clus>
<clus scale="  109.409">  7  8 -1 -1</clus>
<clus scale="   35.892">  1  5  2 -1</clus>
</clustering>
</event>
<event>
 9    2  0.2984928E-005  0.1045944E+03  0.7546771E-02  0.1280735E+00
          4   -1    0    0  502    0  0.00000000000E+00  0.00000000000E+00  0.35439799440E+03  0.35439799440E+03  0.00000000000E+00 0. -1.
         -3   -1    0    0    0  501 -0.00000000000E+00 -0.00000000000E+00 -0.21017386317E+03  0.21017386317E+03  0.00000000000E+00 0.  1.
         23    2    1    2    0    0  0.19719773261E+02 -0.25176460434E+02 -0.15913555420E+03  0.18605441195E+03  0.90936219287E+02 0.  0.
         24    2    1    2    0    0 -0.35984233568E+02  0.37984178304E+02  0.33197486998E+03  0.34319890810E+03  0.69573797913E+02 0.  0.
        -13    1    4    4    0    0  0.20105703053E+02  0.87583660517E+01  0.57725548939E+02  0.61751010287E+02  0.00000000000E+00 0.  1.
         14    1    4    4    0    0 -0.56089936622E+02  0.29225812252E+02  0.27424932104E+03  0.28144789781E+03  0.00000000000E+00 0. -1.
        -13    1    3    3    0    0 -0.33606632550E+02  0.29227105985E+00 -0.34744445340E+02  0.48339090349E+02  0.00000000000E+00 0. -1.
         13    1    3    3    0    0  0.53326405811E+02 -0.25468731494E+02 -0.12439110886E+03  0.13771532160E+03  0.00000000000E+00 0.  1.
         21    1    1    2  502  501  0.16264460308E+02 -0.12807717870E+02 -0.28615184551E+02  0.35318537526E+02  0.00000000000E+00 0.  1.
<scales pt_clust_5="13000.00000" pt_clust_6="13000.00000" pt_clust_7="13000.00000" pt_clust_8="13000.00000" pt_clust_9="20.70194"></scales>
<clustering>
<clus scale="   20.702">  2  9  1 -1</clus>
<clus scale="   69.574">  5  6 -1 -1</clus>
<clus scale="   86.667">  1  5  2 -1</clus>
<clus scale="   90.936">  7  8 -1 -1</clus>
<clus scale="   86.667">  1  5  2 -1</clus>
</clustering>
</event>
<event>
 9    2  0.2984928E-005  0.1170758E+03  0.7546771E-02  0.1252459E+00
         -1   -1    0    0    0  501 -0.00000000000E+00  0.00000000000E+00  0.18097714917E+03  0.18097714917E+03  0.00000000000E+00 0.  1.
          2   -1    0    0  502    0  0.00000000000E+00 -0.00000000000E+00 -0.48402982187E+03  0.48402982187E+03  0.00000000000E+00 0. -1.
         24    2    1    2    0    0 -0.48586455524E+02 -0.54530685764E+02  0.14144142386E+03  0.17878163114E+03  0.81381545193E+02 0.  0.
         23    2    1    2    0    0 -0.27890545010E+02  0.32916204304E+02 -0.33697820524E+03  0.35252573516E+03  0.94120795449E+02 0.  0.
        -11    1    3    3    0    0 -0.62674495506E+02 -0.18685251535E+02  0.60270576703E+02  0.88936907007E+02  0.00000000000E+00 0.  1.
         12    1    3    3    0    0  0.14088039982E+02 -0.35845434230E+02  0.81170847160E+02  0.89844724132E+02  0.00000000000E+00 0. -1.
        -13    1    4    4    0    0 -0.55926559900E+02  0.35285511288E+02 -0.29260481950E+03  0.29998404592E+03  0.00000000000E+00 0. -1.
         13    1    4    4    0    0  0.28036014890E+02 -0.23693069844E+01 -0.44373385738E+02  0.52541689241E+02  0.00000000000E+00 0.  1.
         21    1    1    2  502  501  0.76477000534E+02  0.21614481460E+02 -0.10751589133E+03  0.13369960474E+03  0.00000000000E+00 0.  1.
<scales pt_clust_5="13000.00000" pt_clust_6="13000.00000" pt_clust_7="13000.00000" pt_clust_8="13000.00000" pt_clust_9="79.47275"></scales>
<clustering>
<clus scale="   79.473">  2  9  1 -1</clus>
<clus scale="   81.382">  5  6 -1 -1</clus>
<clus scale="   94.121">  7  8 -1 -1</clus>
<clus scale="  107.103">  1  5  2 -1</clus>
<clus scale="   79.473">  2  5  1 -1</clus>
</clustering>
</event>
<event>
 9    2  0.2984928E-005  0.9347534E+02  0.7546771E-02  0.1299910E+00
         -1   -1    0    0    0  501 -0.00000000000E+00  0.00000000000E+00  0.11523204261E+03  0.11523204261E+03  0.00000000000E+00 0.  1.
          2   -1    0    0  502    0  0.00000000000E+00 -0.00000000000E+00 -0.14458156936E+03  0.14458156936E+03  0.00000000000E+00 0. -1.
         23    2    1    2    0    0  0.33561550948E+01  0.41292358441E+02  0.39296176765E+02  0.10669751177E+03  0.90132385233E+02 0.  0.
         24    2    1    2    0    0 -0.20655662960E+02 -0.11996448074E+02 -0.80842435054E+02  0.11697355466E+03  0.81097114662E+02 0.  0.
        -11    1    4    4    0    0  0.21917659827E+02 -0.30304239438E+02 -0.28207263686E+02  0.46844214850E+02  0.00000000000E+00 0.  1.
         12    1    4    4    0    0 -0.42573322787E+02  0.18307791365E+02 -0.52635171368E+02  0.70129339814E+02  0.00000000000E+00 0. -1.
        -13    1    3    3    0    0 -0.34738302253E+02  0.47681236111E+02  0.14343632710E+02  0.60712352284E+02  0.00000000000E+00 0. -1.
         13    1    3    3    0    0  0.38094457348E+02 -0.63888776703E+01  0.24952544054E+02  0.45985159490E+02  0.00000000000E+00 0.  1.
         21    1    1    2  502  501  0.17299507865E+02 -0.29295910368E+02  0.12196731540E+02  0.36142545523E+02  0.00000000000E+00 0.  1.
<scales pt_clust_5="13000.00000" pt_clust_6="13000.00000" pt_clust_7="13000.00000" pt_clust_8="13000.00000" pt_clust_9="34.02239"></scales>
<clustering>
<clus scale="   34.022">  1  9  2 -1</clus>
<clus scale="   81.097">  5  6 -1 -1</clus>
<clus scale="   84.797">  2  5  1 -1</clus>
<clus scale="   90.132">  7  8 -1 -1</clus>
<clus scale="   84.797">  2  5  1 -1</clus>
</clustering>
</event>
<event>
 9    2  0.2984928E-005  0.3629134E+03  0.7546771E-02  0.1057586E+00
         -1   -1    0    0    0  501 -0.00000000000E+00  0.00000000000E+00  0.43486823857E+03  0.43486823857E+03  0.00000000000E+00 0.  1.
          2   -1    0    0  502    0  0.00000000000E+00 -0.00000000000E+00 -0.36789449007E+03  0.36789449007E+03  0.00000000000E+00 0. -1.
         23    2    1    2    0    0 -0.31664826137E+03  0.14635048450E+03  0.61742650836E+02  0.36488636535E+03  0.87437514507E+02 0.  0.
         24    2    1    2    0    0  0.34951492317E+03 -0.85961387305E+02 -0.24429167530E+00  0.36890506196E+03  0.80875481046E+02 0.  0.
        -13    1    4    4    0    0  0.90650895934E+02  0.65707881836E+01  0.20656909951E+02  0.93206588393E+02  0.00000000000E+00 0.  1.
         14    1    4    4    0    0  0.25886402723E+03 -0.92532175489E+02 -0.20901201626E+02  0.27569847357E+03  0.00000000000E+00 0. -1.
        -11    1    3    3    0    0 -0.23330605514E+03  0.10728335379E+03  0.84016162325E+02  0.27018539727E+03  0.00000000000E+00 0.  1.
         11    1    3    3    0    0 -0.83342206236E+02  0.39067130714E+02 -0.22273511490E+02  0.94700968086E+02  0.00000000000E+00 0. -1.
         21    1    1    2  502  501 -0.32866661796E+02 -0.60389097197E+02  0.54753893375E+01  0.68971301323E+02  0.00000000000E+00 0. -1.
<scales pt_clust_5="13000.00000" pt_clust_6="13000.00000" pt_clust_7="13000.00000" pt_clust_8="13000.00000" pt_clust_9="68.75362"></scales>
<clustering>
<clus scale="   68.754">  2  9  1 -1</clus>
<clus scale="   80.875">  5  6 -1 -1</clus>
<clus scale="   87.438">  7  8 -1 -1</clus>
<clus scale="  361.389">  2  5  1 -1</clus>
<clus scale="   68.754">  2  5  1 -1</clus>
</clustering>
</event>
<event>
 9    2  0.2984928E-005  0.1399329E+03  0.7546771E-02  0.1215433E+00
          2   -1    0    0  502    0  0.00000000000E+00  0.00000000000E+00  0.12011777114E+04  0.12011777114E+04  0.00000000000E+00 0. -1.
         -1   -1    0    0    0  501 -0.00000000000E+00 -0.00000000000E+00 -0.28138129806E+02  0.28138129806E+02  0.00000000000E+00 0.  1.
         23    2    1    2    0    0  0.77670817851E+02  0.60904270585E+02  0.23033642481E+03  0.26654489055E+03  0.90825238575E+02 0.  0.
         24    2    1    2    0    0 -0.91388781669E+02 -0.96325167081E+02  0.80410166810E+03  0.81905875526E+03  0.81531004559E+02 0.  0.
        -13    1    4    4    0    0 -0.28029292281E+02 -0.87452422828E+02  0.47248341077E+03  0.48132540026E+03  0.00000000000E+00 0.  1.
         14    1    4    4    0    0 -0.63359489388E+02 -0.88727442526E+01  0.33161825733E+03  0.33773335501E+03  0.00000000000E+00 0. -1.
        -13    1    3    3    0    0  0.54387401174E+02  0.25866153489E+02  0.41646371023E+02  0.73222042597E+02  0.00000000000E+00 0.  1.
         13    1    3    3    0    0  0.23283416678E+02  0.35038117096E+02  0.18869005379E+03  0.19332284795E+03  0.00000000000E+00 0. -1.
         21    1    1    2  502  501  0.13717963817E+02  0.35420896496E+02  0.13860148872E+03  0.14371219543E+03  0.00000000000E+00 0. -1.
<scales pt_clust_5="13000.00000" pt_clust_6="13000.00000" pt_clust_7="13000.00000" pt_clust_8="13000.00000" pt_clust_9="37.98450"></scales>
<clustering>
<clus scale="   37.985">  1  9  2 -1</clus>
<clus scale="   81.531">  5  6 -1 -1</clus>
<clus scale="   90.825">  7  8 -1 -1</clus>
<clus scale="  134.087">  1  5  2 -1</clus>
<clus scale="   37.985">  1  5  2 -1</clus>
</clustering>
</event>
<event>
 9    2  0.2984928E-005  0.1001807E+03  0.7546771E-02  0.1284109E+00
         -1   -1    0    0    0  501 -0.00000000000E+00  0.00000000000E+00  0.64789391883E+02  0.64789391883E+02  0.00000000000E+00 0.  1.
          2   -1    0    0  502    0  0.00000000000E+00 -0.00000000000E+00 -0.38499714321E+03  0.38499714321E+03  0.00000000000E+00 0. -1.
         23    2    1    2    0    0  0.23339780730E+02  0.44029219545E+02  0.19122131893E+01  0.10228817859E+03  0.89307879728E+02 0.  0.
         24    2    1    2    0    0 -0.33055951363E+02 -0.15046761383E+02 -0.16272354661E+03  0.18519738641E+03  0.80622691360E+02 0.  0.
        -11    1    4    4    0    0 -0.14261100768E+02  0.26672744875E+02 -0.22500427535E+02  0.37697261884E+02  0.00000000000E+00 0.  1.
         12    1    4    4    0    0 -0.18794850595E+02 -0.41719506258E+02 -0.14022311908E+03  0.14750012453E+03  0.00000000000E+00 0. -1.
        -13    1    3    3    0    0  0.41798443874E+02  0.30871644158E+02 -0.32346922785E+02  0.61208592019E+02  0.00000000000E+00 0.  1.
         13    1    3    3    0    0 -0.18458663143E+02  0.13157575388E+02  0.34259135974E+02  0.41079586571E+02  0.00000000000E+00 0. -1.
         21    1    1    2  502  501  0.97161706327E+01 -0.28982458162E+02 -0.15939641791E+03  0.16230097010E+03  0.00000000000E+00 0. -1.
<scales pt_clust_5="13000.00000" pt_clust_6="13000.00000" pt_clust_7="13000.00000" pt_clust_8="13000.00000" pt_clust_9="30.56774"></scales>
<clustering>
<clus scale="   30.568">  2  9  1 -1</clus>
<clus scale="   80.623">  5  6 -1 -1</clus>
<clus scale="   89.308">  7  8 -1 -1</clus>
<clus scale="   92.522">  2  5  1 -1</clus>
<clus scale="   30.568">  2  5  1 -1</clus>
</clustering>
</event>
<event>
 9    2  0.2984928E-005  0.8883162E+02  0.7546771E-02  0.1308611E+00
         -1   -1    0    0    0  501 -0.00000000000E+00  0.00000000000E+00  0.25073704691E+03  0.25073704691E+03  0.00000000000E+00 0.  1.
          2   -1    0    0  502    0  0.00000000000E+00 -0.00000000000E+00 -0.43647456152E+02  0.43647456152E+02  0.00000000000E+00 0. -1.
         23    2    1    2    0    0 -0.25927938746E+02  0.13792070415E+01  0.13411170932E+03  0.16220679760E+03  0.87469619824E+02 0.  0.
         24    2    1    2    0    0  0.45046028487E+00  0.27633161904E+01  0.64516003176E+02  0.10501402031E+03  0.82811780349E+02 0.  0.
        -11    1    4    4    0    0  0.25108002410E+01 -0.27551321026E+02 -0.59306734235E+01  0.28294032858E+02  0.00000000000E+00 0.  1.
         12    1    4    4    0    0 -0.20603399562E+01  0.30314637217E+02  0.70446676599E+02  0.76719987449E+02  0.00000000000E+00 0. -1.
        -11    1    3    3    0    0 -0.47739023166E+02  0.16355470395E+02  0.12401339614E+03  0.13388740854E+03  0.00000000000E+00 0.  1.
         11    1    3    3    0    0  0.21811084420E+02 -0.14976263354E+02  0.10098313183E+02  0.28319389061E+02  0.00000000000E+00 0. -1.
         21    1    1    2  502  501  0.25477478461E+02 -0.41425232318E+01  0.84618782664E+01  0.27163685156E+02  0.00000000000E+00 0. -1.
<scales pt_clust_5="13000.00000" pt_clust_6="13000.00000" pt_clust_7="13000.00000" pt_clust_8="13000.00000" pt_clust_9="25.81206"></scales>
<clustering>
<clus scale="   25.812">  2  9  1 -1</clus>
<clus scale="   82.812">  5  6 -1 -1</clus>
<clus scale="   84.249">  2  5  1 -1</clus>
<clus scale="   87.470">  7  8 -1 -1</clus>
<clus scale="   25.812">  2  5  1 -1</clus>
</clustering>
</event>
<event>
 9    2  0.2984928E-005  0.8142744E+02  0.7546771E-02  0.1328856E+00
          2   -1    0    0  502    0  0.00000000000E+00  0.00000000000E+00  0.80754508227E+03  0.80754508227E+03  0.00000000000E+00 0. -1.
         -1   -1    0    0    0  501 -0.00000000000E+00 -0.00000000000E+00 -0.16296303590E+02  0.16296303590E+02  0.00000000000E+00 0.  1.
         23    2    1    2    0    0 -0.12120060151E+02 -0.19564558584E+02  0.10895308078E+03  0.13247807305E+03  0.71763488040E+02 0.  0.
         24    2    1    2    0    0  0.17712180918E+00  0.40601328137E+02  0.54234163503E+03  0.54933402301E+03  0.77362268113E+02 0.  0.
        -11    1    4    4    0    0 -0.10557513481E+02  0.61866488199E+02  0.35799940485E+03  0.36345907242E+03  0.00000000000E+00 0.  1.
         12    1    4    4    0    0  0.10734635290E+02 -0.21265160062E+02  0.18434223019E+03  0.18587495059E+03  0.00000000000E+00 0. -1.
        -11    1    3    3    0    0 -0.32419324209E+02  0.11671414461E+02  0.32189843198E+02  0.47153160051E+02  0.00000000000E+00 0.  1.
         11    1    3    3    0    0  0.20299264058E+02 -0.31235973045E+02  0.76763237582E+02  0.85324912994E+02  0.00000000000E+00 0. -1.
         21    1    1    2  502  501  0.11942938342E+02 -0.21036769554E+02  0.13995406287E+03  0.14202928980E+03  0.00000000000E+00 0. -1.
<scales pt_clust_5="13000.00000" pt_clust_6="13000.00000" pt_clust_7="13000.00000" pt_clust_8="13000.00000" pt_clust_9="24.19048"></scales>
<clustering>
<clus scale="   24.190">  1  9  2 -1</clus>
<clus scale="   71.763">  7  8 -1 -1</clus>
<clus scale="   76.128">  2  7  1 -1</clus>
<clus scale="   77.362">  5  6 -1 -1</clus>
<clus scale="   24.190">  1  5  2 -1</clus>
</clustering>
</event>
<event>
 9    2  0.2984928E-005  0.1105443E+03  0.7546771E-02  0.1263983E+00
          2   -1    0    0  502    0  0.00000000000E+00  0.00000000000E+00  0.12007588621E+04  0.12007588621E+04  0.00000000000E+00 0. -1.
         -1   -1    0    0    0  501 -0.00000000000E+00 -0.00000000000E+00 -0.71430775742E+02  0.71430775742E+02  0.00000000000E+00 0.  1.
         23    2    1    2    0    0  0.39951315193E+02  0.46564226224E+02 -0.14399152585E+02  0.11101104563E+03  0.91388084061E+02 0.  0.
         24    2    1    2    0    0 -0.18322016070E+02 -0.89230423046E+02  0.10388865264E+04  0.10459405519E+04  0.80054098299E+02 0.  0.
        -13    1    4    4    0    0 -0.56440085328E+01 -0.51354805940E+02  0.21628374414E+03  0.22236867788E+03  0.00000000000E+00 0.  1.
         14    1    4    4    0    0 -0.12678007537E+02 -0.37875617106E+02  0.82260278231E+03  0.82357187404E+03  0.00000000000E+00 0. -1.
        -11    1    3    3    0    0  0.88819372848E+01  0.21145750690E+02 -0.51483236206E+02  0.56360936760E+02  0.00000000000E+00 0.  1.
         11    1    3    3    0    0  0.31069377908E+02  0.25418475533E+02  0.37084083621E+02  0.54650108875E+02  0.00000000000E+00 0. -1.
         21    1    1    2  502  501 -0.21629299123E+02  0.42666196822E+02  0.10484071250E+03  0.11523804029E+03  0.00000000000E+00 0. -1.
<scales pt_clust_5="13000.00000" pt_clust_6="13000.00000" pt_clust_7="13000.00000" pt_clust_8="13000.00000" pt_clust_9="47.83546"></scales>
<clustering>
<clus scale="   47.835">  1  9  2 -1</clus>
<clus scale="   80.054">  5  6 -1 -1</clus>
<clus scale="   91.388">  7  8 -1 -1</clus>
<clus scale="  101.375">  1  5  2 -1</clus>
<clus scale="   47.835">  1  5  2 -1</clus>
</clustering>
</event>
<event>
 9    2  0.2984928E-005  0.1070122E+03  0.7546771E-02  0.1270357E+00
          2   -1    0    0  502    0  0.00000000000E+00  0.00000000000E+00  0.31058281042E+03  0.31058281042E+03  0.00000000000E+00 0. -1.
         -1   -1    0    0    0  501 -0.00000000000E+00 -0.00000000000E+00 -0.11875191215E+03  0.11875191215E+03  0.00000000000E+00 0.  1.
         23    2    1    2    0    0  0.52639114215E+02  0.28070147960E+02 -0.78929736681E+02  0.13393840172E+03  0.90281684581E+02 0.  0.
         24    2    1    2    0    0 -0.32835898365E+02 -0.17023191103E+02  0.24792337629E+03  0.26321335958E+03  0.80294999161E+02 0.  0.
        -13    1    4    4    0    0  0.93351543375E+01 -0.25583953485E+02  0.27775606315E+02  0.38899461289E+02  0.00000000000E+00 0.  1.
         14    1    4    4    0    0 -0.42171052703E+02  0.85607623820E+01  0.22014776998E+03  0.22431389829E+03  0.00000000000E+00 0. -1.
        -13    1    3    3    0    0  0.38260517544E+01 -0.30768331613E+02 -0.15839324696E+02  0.34816850936E+02  0.00000000000E+00 0.  1.
         13    1    3    3    0    0  0.48813062461E+02  0.58838479573E+02 -0.63090411985E+02  0.99121550783E+02  0.00000000000E+00 0. -1.
         21    1    1    2  502  501 -0.19803215850E+02 -0.11046956857E+02  0.22837258648E+02  0.32182961274E+02  0.00000000000E+00 0. -1.
<scales pt_clust_5="13000.00000" pt_clust_6="13000.00000" pt_clust_7="13000.00000" pt_clust_8="13000.00000" pt_clust_9="22.67604"></scales>
<clustering>
<clus scale="   22.676">  1  9  2 -1</clus>
<clus scale="   80.295">  5  6 -1 -1</clus>
<clus scale="   90.282">  7  8 -1 -1</clus>
<clus scale="   98.733">  1  5  2 -1</clus>
<clus scale="   22.676">  1  5  2 -1</clus>
</clustering>
</event>
<event>
 9    2  0.3579314E-005  0.1047639E+03  0.7546771E-02  0.1274133E+00
          2   -1    0    0  502    0  0.00000000000E+00  0.00000000000E+00  0.45089170747E+03  0.45089170747E+03  0.00000000000E+00 0. -1.
         -1   -1    0    0    0  501 -0.00000000000E+00 -0.00000000000E+00 -0.23911777434E+03  0.23911777434E+03  0.00000000000E+00 0.  1.
         23    2    1    2    0    0 -0.31866158915E+02 -0.38068535266E+02 -0.21853914273E+03  0.24250597704E+03  0.92655957890E+02 0.  0.
         24    2    1    2    0    0  0.35822130172E+01  0.30299116977E+02  0.36423603698E+03  0.37520882638E+03  0.84752014840E+02 0.  0.
        -13    1    4    4    0    0 -0.26631923264E+02  0.27452129848E+01  0.38370828530E+02  0.46787990052E+02  0.00000000000E+00 0.  1.
         14    1    4    4    0    0  0.30214136281E+02  0.27553903992E+02  0.32586520845E+03  0.32842083633E+03  0.00000000000E+00 0. -1.
        -13    1    3    3    0    0 -0.44210569825E+02 -0.54986120317E+02 -0.10153425745E+03  0.12364163274E+03  0.00000000000E+00 0.  1.
         13    1    3    3    0    0  0.12344410910E+02  0.16917585051E+02 -0.11700488529E+03  0.11886434430E+03  0.00000000000E+00 0. -1.
         21    1    1    2  502  501  0.28283945898E+02  0.77694182893E+01  0.66077038885E+02  0.72294678393E+02  0.00000000000E+00 0. -1.
<scales pt_clust_5="13000.00000" pt_clust_6="13000.00000" pt_clust_7="13000.00000" pt_clust_8="13000.00000" pt_clust_9="29.33165"></scales>
<clustering>
<clus scale="   29.332">  1  9  2 -1</clus>
<clus scale="   84.752">  5  6 -1 -1</clus>
<clus scale="   92.656">  7  8 -1 -1</clus>
<clus scale="   97.843">  1  5  2 -1</clus>
<clus scale="   29.332">  1  5  2 -1</clus>
</clustering>
</event>
<event>
 9    2  0.2984928E-005  0.9152159E+02  0.7546771E-02  0.1304220E+00
          2   -1    0    0  502    0  0.00000000000E+00  0.00000000000E+00  0.20594010706E+03  0.20594010706E+03  0.00000000000E+00 0. -1.
         -1   -1    0    0    0  501 -0.00000000000E+00 -0.00000000000E+00 -0.13506737249E+03  0.13506737249E+03  0.00000000000E+00 0.  1.
         23    2    1    2    0    0 -0.12655039775E+02 -0.40187417828E+00 -0.92778870410E+02  0.13066828390E+03  0.91137095017E+02 0.  0.
         24    2    1    2    0    0 -0.22368769099E+02  0.22341058136E+02  0.94008209722E+02  0.12935649698E+03  0.83042610184E+02 0.  0.
        -13    1    4    4    0    0 -0.27799793149E+02  0.51262739136E+02  0.52437914876E+02  0.78424688966E+02  0.00000000000E+00 0.  1.
         14    1    4    4    0    0  0.54310240500E+01 -0.28921680999E+02  0.41570294846E+02  0.50931808015E+02  0.00000000000E+00 0. -1.
        -11    1    3    3    0    0 -0.28803968459E+02  0.38835186421E+02 -0.59963111019E+02  0.77028663408E+02  0.00000000000E+00 0.  1.
         11    1    3    3    0    0  0.16148928684E+02 -0.39237060599E+02 -0.32815759391E+02  0.53639620492E+02  0.00000000000E+00 0. -1.
         21    1    1    2  502  501  0.35023808873E+02 -0.21939183958E+02  0.69643395258E+02  0.80982698669E+02  0.00000000000E+00 0. -1.
<scales pt_clust_5="13000.00000" pt_clust_6="13000.00000" pt_clust_7="13000.00000" pt_clust_8="13000.00000" pt_clust_9="41.32790"></scales>
<clustering>
<clus scale="   41.328">  1  9  2 -1</clus>
<clus scale="   83.043">  5  6 -1 -1</clus>
<clus scale="   83.464">  1  5  2 -1</clus>
<clus scale="   91.137">  7  8 -1 -1</clus>
<clus scale="   41.328">  1  5  2 -1</clus>
</clustering>
</event>
<event>
 9    2  0.2984928E-005  0.1503539E+03  0.7546771E-02  0.1227415E+00
         -1   -1    0    0    0  501 -0.00000000000E+00  0.00000000000E+00  0.11572542670E+03  0.11572542670E+03  0.00000000000E+00 0.  1.
          2   -1    0    0  502    0  0.00000000000E+00 -0.00000000000E+00 -0.29650898550E+03  0.29650898550E+03  0.00000000000E+00 0. -1.
         23    2    1    2    0    0  0.73795120132E+01 -0.11064008546E+03  0.25405486024E+01  0.15910996536E+03  0.11407822308E+03 0.  0.
         24    2    1    2    0    0 -0.15166362367E+01  0.26326310587E+02 -0.12413957006E+03  0.14994501378E+03  0.79859247979E+02 0.  0.
        -11    1    4    4    0    0 -0.11866357409E+02  0.47978307501E+02 -0.43602082696E+02  0.65908042333E+02  0.00000000000E+00 0.  1.
         12    1    4    4    0    0  0.10349721173E+02 -0.21651996914E+02 -0.80537487362E+02  0.84036971443E+02  0.00000000000E+00 0. -1.
        -13    1    3    3    0    0  0.56323793857E+02 -0.28482767953E+02 -0.40938634460E+01  0.63248695976E+02  0.00000000000E+00 0.  1.
         13    1    3    3    0    0 -0.48944281844E+02 -0.82157317503E+02  0.66344120484E+01  0.95861269383E+02  0.00000000000E+00 0. -1.
         21    1    1    2  502  501 -0.58628757765E+01  0.84313774869E+02 -0.59184537344E+02  0.10317943306E+03  0.00000000000E+00 0.  1.
<scales pt_clust_5="13000.00000" pt_clust_6="13000.00000" pt_clust_7="13000.00000" pt_clust_8="13000.00000" pt_clust_9="97.94109"></scales>
<clustering>
<clus scale="   79.859">  5  6 -1 -1</clus>
<clus scale="   84.100">  2  5  1 -1</clus>
<clus scale="   97.941">  2  9  1 -1</clus>
<clus scale="  114.078">  7  8 -1 -1</clus>
<clus scale="   84.100">  2  5  1 -1</clus>
</clustering>
</event>
<event>
 9    2  0.2984928E-005  0.1596771E+03  0.7546771E-02  0.1190560E+00
          2   -1    0    0  502    0  0.00000000000E+00  0.00000000000E+00  0.93490655201E+03  0.93490655201E+03  0.00000000000E+00 0. -1.
         -1   -1    0    0    0  501 -0.00000000000E+00 -0.00000000000E+00 -0.25569607533E+03  0.25569607533E+03  0.00000000000E+00 0.  1.
         23    2    1    2    0    0  0.87087482425E+02  0.10053011045E+03 -0.21683435013E+03  0.27026645673E+03  0.91303283268E+02 0.  0.
         24    2    1    2    0    0 -0.66995056988E+02 -0.38115898964E+02  0.77087449512E+03  0.77903206136E+03  0.81867612519E+02 0.  0.
        -11    1    4    4    0    0 -0.80438783338E+02 -0.20066142099E+02  0.46514629018E+03  0.47247658058E+03  0.00000000000E+00 0.  1.
         12    1    4    4    0    0  0.13443726350E+02 -0.18049756865E+02  0.30572820494E+03  0.30655548078E+03  0.00000000000E+00 0. -1.
        -11    1    3    3    0    0 -0.72106400626E+01  0.25142113028E+02 -0.52737768714E+01  0.26682052022E+02  0.00000000000E+00 0. -1.
         11    1    3    3    0    0  0.94298122488E+02  0.75387997423E+02 -0.21156057326E+03  0.24358440471E+03  0.00000000000E+00 0.  1.
         21    1    1    2  502  501 -0.20092425437E+02 -0.62414211487E+02  0.12517033169E+03  0.14130410925E+03  0.00000000000E+00 0. -1.
<scales pt_clust_5="13000.00000" pt_clust_6="13000.00000" pt_clust_7="13000.00000" pt_clust_8="13000.00000" pt_clust_9="65.56859"></scales>
<clustering>
<clus scale="   65.569">  1  9  2 -1</clus>
<clus scale="   81.868">  5  6 -1 -1</clus>
<clus scale="   91.303">  7  8 -1 -1</clus>
<clus scale="  154.476">  1  5  2 -1</clus>
<clus scale="   65.569">  1  5  2 -1</clus>
</clustering>
</event>
<event>
 9    2  0.2984928E-005  0.1547112E+03  0.7546771E-02  0.1196459E+00
         -1   -1    0    0    0  501 -0.00000000000E+00  0.00000000000E+00  0.41465951558E+03  0.41465951558E+03  0.00000000000E+00 0.  1.
          2   -1    0    0  502    0  0.00000000000E+00 -0.00000000000E+00 -0.90004753760E+02  0.90004753760E+02  0.00000000000E+00 0. -1.
         23    2    1    2    0    0  0.60796969624E+02 -0.95633400303E+02  0.17862655693E+03  0.23011054669E+03  0.90561570700E+02 0.  0.
         24    2    1    2    0    0 -0.62201164973E+02  0.12680936691E+03  0.16991202394E+03  0.23525551059E+03  0.80780312733E+02 0.  0.
        -11    1    4    4    0    0 -0.77047085851E+02  0.11125883086E+03  0.16463427821E+03  0.21311786984E+03  0.00000000000E+00 0.  1.
         12    1    4    4    0    0  0.14845920877E+02  0.15550536051E+02  0.52777457248E+01  0.22137640753E+02  0.00000000000E+00 0. -1.
        -13    1    3    3    0    0  0.28585042001E+00 -0.80613585260E+02  0.81036402017E+02  0.11430455061E+03  0.00000000000E+00 0.  1.
         13    1    3    3    0    0  0.60511119204E+02 -0.15019815043E+02  0.97590154913E+02  0.11580599608E+03  0.00000000000E+00 0. -1.
         21    1    1    2  502  501  0.14041953494E+01 -0.31175966609E+02 -0.23883819047E+02  0.39298212057E+02  0.00000000000E+00 0.  1.
<scales pt_clust_5="13000.00000" pt_clust_6="13000.00000" pt_clust_7="13000.00000" pt_clust_8="13000.00000" pt_clust_9="31.20757"></scales>
<clustering>
<clus scale="   31.208">  2  9  1 -1</clus>
<clus scale="   80.780">  5  6 -1 -1</clus>
<clus scale="   90.562">  7  8 -1 -1</clus>
<clus scale="  149.197">  2  5  1 -1</clus>
<clus scale="   31.208">  2  5  1 -1</clus>
</clustering>
</event>
<event>
 9    2  0.2984928E-005  0.9360140E+02  0.7546771E-02  0.1299713E+00
         -3   -1    0    0    0  501 -0.00000000000E+00  0.00000000000E+00  0.66680727961E+03  0.66680727961E+03  0.00000000000E+00 0.  1.
          4   -1    0    0  502    0  0.00000000000E+00 -0.00000000000E+00 -0.26671059989E+02  0.26671059989E+02  0.00000000000E+00 0. -1.
         23    2    1    2    0    0  0.41946683032E+02  0.41078373837E+01  0.41350399524E+03  0.42535391881E+03  0.90354876023E+02 0.  0.
         24    2    1    2    0    0  0.11999181136E+02  0.19564440100E+02  0.13566107552E+03  0.15974415087E+03  0.81163530374E+02 0.  0.
        -13    1    4    4    0    0  0.14584718487E+01 -0.30336418433E+02  0.72203877177E+02  0.78331509005E+02  0.00000000000E+00 0.  1.
         14    1    4    4    0    0  0.10540709288E+02  0.49900858533E+02  0.63457198342E+02  0.81412641868E+02  0.00000000000E+00 0. -1.
        -11    1    3    3    0    0 -0.28535319375E+02  0.11208167050E+01  0.99091749218E+02  0.10312465973E+03  0.00000000000E+00 0.  1.
         11    1    3    3    0    0  0.70482002407E+02  0.29870206786E+01  0.31441224602E+03  0.32222925908E+03  0.00000000000E+00 0. -1.
         21    1    1    2  502  501 -0.53945864168E+02 -0.23672277483E+02  0.90971148858E+02  0.10838026991E+03  0.00000000000E+00 0. -1.
<scales pt_clust_5="13000.00000" pt_clust_6="13000.00000" pt_clust_7="13000.00000" pt_clust_8="13000.00000" pt_clust_9="58.91123"></scales>
<clustering>
<clus scale="   58.911">  2  9  1 -1</clus>
<clus scale="   81.164">  5  6 -1 -1</clus>
<clus scale="   84.763">  2  5  1 -1</clus>
<clus scale="   90.355">  7  8 -1 -1</clus>
<clus scale="   58.911">  2  5  1 -1</clus>
</clustering>
</event>
<event>
 9    2  0.2984928E-005  0.1062576E+03  0.7546771E-02  0.1274697E+00
         -1   -1    0    0    0  501 -0.00000000000E+00  0.00000000000E+00  0.22788076669E+03  0.22788076669E+03  0.00000000000E+00 0.  1.
          2   -1    0    0  502    0  0.00000000000E+00 -0.00000000000E+00 -0.98470168546E+02  0.98470168546E+02  0.00000000000E+00 0. -1.
         24    2    1    2    0    0 -0.46043179351E+02 -0.24747343885E+02  0.14847316636E+03  0.17487205305E+03  0.76181023985E+02 0.  0.
         23    2    1    2    0    0  0.36791556073E+02  0.46075428567E+02  0.14821529577E+02  0.11038616005E+03  0.92135025235E+02 0.  0.
        -11    1    3    3    0    0 -0.66004372802E+02 -0.97203673648E+01  0.11702553315E+03  0.13470723135E+03  0.00000000000E+00 0.  1.
         12    1    3    3    0    0  0.19961193451E+02 -0.15026976521E+02  0.31447633213E+02  0.40164821698E+02  0.00000000000E+00 0. -1.
        -13    1    4    4    0    0 -0.25922251527E+02  0.36351524791E+02 -0.21292893492E+01  0.44698214192E+02  0.00000000000E+00 0.  1.
         13    1    4    4    0    0  0.62713807600E+02  0.97239037759E+01  0.16950818926E+02  0.65687945855E+02  0.00000000000E+00 0. -1.
         21    1    1    2  502  501  0.92516232783E+01 -0.21328084682E+02 -0.33884097793E+02  0.41092722138E+02  0.00000000000E+00 0. -1.
<scales pt_clust_5="13000.00000" pt_clust_6="13000.00000" pt_clust_7="13000.00000" pt_clust_8="13000.00000" pt_clust_9="23.24822"></scales>
<clustering>
<clus scale="   23.248">  2  9  1 -1</clus>
<clus scale="   76.181">  5  6 -1 -1</clus>
<clus scale="   92.135">  7  8 -1 -1</clus>
<clus scale="   92.765">  1  5  2 -1</clus>
<clus scale="   23.248">  2  5  1 -1</clus>
</clustering>
</event>
<event>
 9    2  0.2984928E-005  0.2177128E+03  0.7546771E-02  0.1135640E+00
          2   -1    0    0  502    0  0.00000000000E+00  0.00000000000E+00  0.59880054216E+03  0.59880054216E+03  0.00000000000E+00 0. -1.
         -1   -1    0    0    0  501 -0.00000000000E+00 -0.00000000000E+00 -0.73202119500E+03  0.73202119500E+03  0.00000000000E+00 0.  1.
         24    2    1    2    0    0 -0.13447362193E+03  0.10606696380E+03 -0.37908334917E+03  0.42591650316E+03  0.91473090252E+02 0.  0.
         23    2    1    2    0    0  0.31952768040E+03 -0.59305280321E+02 -0.21889414123E+03  0.40248053550E+03  0.91983050475E+02 0.  0.
        -13    1    3    3    0    0 -0.11741239642E+03  0.11438187057E+03 -0.37039091043E+03  0.40504112097E+03  0.00000000000E+00 0.  1.
         14    1    3    3    0    0 -0.17061225510E+02 -0.83149067653E+01 -0.86924387462E+01  0.20875382194E+02  0.00000000000E+00 0. -1.
        -13    1    4    4    0    0  0.19707122925E+03 -0.81533128713E+02 -0.13599087533E+03  0.25293919951E+03  0.00000000000E+00 0. -1.
         13    1    4    4    0    0  0.12245645114E+03  0.22227848392E+02 -0.82903265902E+02  0.14954133598E+03  0.00000000000E+00 0.  1.
         21    1    1    2  502  501 -0.18505405847E+03 -0.46761683482E+02  0.46475683756E+03  0.50242469850E+03  0.00000000000E+00 0. -1.
<scales pt_clust_5="13000.00000" pt_clust_6="13000.00000" pt_clust_7="13000.00000" pt_clust_8="13000.00000" pt_clust_9="190.87079"></scales>
<clustering>
<clus scale="   91.473">  5  6 -1 -1</clus>
<clus scale="   91.983">  7  8 -1 -1</clus>
<clus scale="  190.871">  1  9  2 -1</clus>
<clus scale="  217.498">  2  5  1 -1</clus>
<clus scale="  190.871">  1  5  2 -1</clus>
</clustering>
</event>
<event>
 9    2  0.2984928E-005  0.1003874E+03  0.7546771E-02  0.1286229E+00
         -1   -1    0    0    0  501 -0.00000000000E+00  0.00000000000E+00  0.27013956558E+03  0.27013956558E+03  0.00000000000E+00 0.  1.
          2   -1    0    0  502    0  0.00000000000E+00 -0.00000000000E+00 -0.19253079689E+03  0.19253079689E+03  0.00000000000E+00 0. -1.
         23    2    1    2    0    0 -0.18570717965E+02  0.46417601996E+02  0.19760382948E+03  0.22331378146E+03  0.91226674961E+02 0.  0.
         24    2    1    2    0    0  0.18257986082E+02 -0.17905593940E+02  0.29605207996E+02  0.87063203534E+02  0.77778973502E+02 0.  0.
        -13    1    4    4    0    0 -0.28685532722E+02  0.57672852842E+01  0.11907529997E+02  0.31589723609E+02  0.00000000000E+00 0.  1.
         14    1    4    4    0    0  0.46943518803E+02 -0.23672879224E+02  0.17697677999E+02  0.55473479925E+02  0.00000000000E+00 0. -1.
        -11    1    3    3    0    0 -0.39707410553E+02 -0.52272958543E+01  0.42129151301E+02  0.58128035096E+02  0.00000000000E+00 0. -1.
         11    1    3    3    0    0  0.21136692587E+02  0.51644897851E+02  0.15547467818E+03  0.16518574636E+03  0.00000000000E+00 0.  1.
         21    1    1    2  502  501  0.31273188356E+00 -0.28512008057E+02 -0.14960026878E+03  0.15229337748E+03  0.00000000000E+00 0. -1.
<scales pt_clust_5="13000.00000" pt_clust_6="13000.00000" pt_clust_7="13000.00000" pt_clust_8="13000.00000" pt_clust_9="28.51372"></scales>
<clustering>
<clus scale="   28.514">  2  9  1 -1</clus>
<clus scale="   77.779">  5  6 -1 -1</clus>
<clus scale="   88.345">  2  5  1 -1</clus>
<clus scale="   91.227">  7  8 -1 -1</clus>
<clus scale="   28.514">  2  5  1 -1</clus>
</clustering>
</event>
<event>
 9    2  0.2984928E-005  0.1991305E+03  0.7546771E-02  0.1153819E+00
         -1   -1    0    0    0  501 -0.00000000000E+00  0.00000000000E+00  0.20039438485E+03  0.20039438485E+03  0.00000000000E+00 0.  1.
          2   -1    0    0  502    0  0.00000000000E+00 -0.00000000000E+00 -0.81079013642E+03  0.81079013642E+03  0.00000000000E+00 0. -1.
         24    2    1    2    0    0 -0.98161886328E+02  0.14734870344E+03  0.12686936429E+03  0.23210521532E+03  0.80184780679E+02 0.  0.
         23    2    1    2    0    0  0.39923787175E+02 -0.89050821111E+02 -0.30195286051E+03  0.33603632955E+03  0.11054830296E+03 0.  0.
        -11    1    3    3    0    0 -0.88936532251E+02  0.15705573598E+03  0.12201009325E+03  0.21785929824E+03  0.00000000000E+00 0.  1.
         12    1    3    3    0    0 -0.92253540773E+01 -0.97070325425E+01  0.48592710439E+01  0.14245917089E+02  0.00000000000E+00 0. -1.
        -13    1    4    4    0    0 -0.44529957560E+01  0.23346138630E+02 -0.78276635976E+02  0.81805275501E+02  0.00000000000E+00 0.  1.
         13    1    4    4    0    0  0.44376782931E+02 -0.11239695974E+03 -0.22367622454E+03  0.25423105405E+03  0.00000000000E+00 0. -1.
         21    1    1    2  502  501  0.58238099153E+02 -0.58297882326E+02 -0.43531225535E+03  0.44304297640E+03  0.00000000000E+00 0. -1.
<scales pt_clust_5="13000.00000" pt_clust_6="13000.00000" pt_clust_7="13000.00000" pt_clust_8="13000.00000" pt_clust_9="82.40339"></scales>
<clustering>
<clus scale="   80.185">  5  6 -1 -1</clus>
<clus scale="   82.403">  2  9  1 -1</clus>
<clus scale="  110.548">  7  8 -1 -1</clus>
<clus scale="  184.015">  1  5  2 -1</clus>
<clus scale="   82.403">  2  5  1 -1</clus>
</clustering>
</event>
<event>
 9    2  0.2984928E-005  0.1035520E+03  0.7546771E-02  0.1274679E+00
          2   -1    0    0  502    0  0.00000000000E+00  0.00000000000E+00  0.35013747682E+03  0.35013747682E+03  0.00000000000E+00 0. -1.
         -1   -1    0    0    0  501 -0.00000000000E+00 -0.00000000000E+00 -0.53689384300E+02  0.53689384300E+02  0.00000000000E+00 0.  1.
         24    2    1    2    0    0 -0.47717759554E+02 -0.33294688394E+00  0.48372994955E+02  0.10578010127E+03  0.81070264298E+02 0.  0.
         23    2    1    2    0    0  0.82202416303E+02 -0.12817198386E+02  0.13950080298E+03  0.18337115077E+03  0.85105740609E+02 0.  0.
        -11    1    3    3    0    0 -0.56166967747E+02  0.21566292819E+02  0.10281542208E+02  0.61037229312E+02  0.00000000000E+00 0.  1.
         12    1    3    3    0    0  0.84492081934E+01 -0.21899239703E+02  0.38091452747E+02  0.44742871958E+02  0.00000000000E+00 0. -1.
        -13    1    4    4    0    0  0.92586552654E+01 -0.39629263616E+02  0.39405042647E+02  0.56647670897E+02  0.00000000000E+00 0.  1.
         13    1    4    4    0    0  0.72943761038E+02  0.26812065230E+02  0.10009576033E+03  0.12672347988E+03  0.00000000000E+00 0. -1.
         21    1    1    2  502  501 -0.34484656749E+02  0.13150145270E+02  0.10857429459E+03  0.11467560907E+03  0.00000000000E+00 0.  1.
<scales pt_clust_5="13000.00000" pt_clust_6="13000.00000" pt_clust_7="13000.00000" pt_clust_8="13000.00000" pt_clust_9="36.90688"></scales>
<clustering>
<clus scale="   36.907">  1  9  2 -1</clus>
<clus scale="   81.070">  5  6 -1 -1</clus>
<clus scale="   85.106">  7  8 -1 -1</clus>
<clus scale="  100.262">  2  5  1 -1</clus>
<clus scale="   36.907">  1  5  2 -1</clus>
</clustering>
</event>
<event>
 9    2  0.2984928E-005  0.9796635E+02  0.7546771E-02  0.1290074E+00
         -1   -1    0    0    0  501 -0.00000000000E+00  0.00000000000E+00  0.27982915320E+03  0.27982915320E+03  0.00000000000E+00 0.  1.
          2   -1    0    0  502    0  0.00000000000E+00 -0.00000000000E+00 -0.28594101073E+03  0.28594101073E+03  0.00000000000E+00 0. -1.
         23    2    1    2    0    0  0.35908496086E+02  0.14261955611E+02  0.25392807304E+03  0.27247905158E+03  0.90953525496E+02 0.  0.
         24    2    1    2    0    0  0.10387402221E+02 -0.25616107431E+02 -0.13692761540E+03  0.16127267004E+03  0.80595404081E+02 0.  0.
        -13    1    4    4    0    0  0.35859297731E+02 -0.10031693061E+02 -0.23618603452E+02  0.44094926335E+02  0.00000000000E+00 0.  1.
         14    1    4    4    0    0 -0.25471895510E+02 -0.15584414371E+02 -0.11330901194E+03  0.11717774370E+03  0.00000000000E+00 0. -1.
        -11    1    3    3    0    0 -0.16774770526E+02  0.22059077169E+02  0.24625543010E+02  0.37073078915E+02  0.00000000000E+00 0. -1.
         11    1    3    3    0    0  0.52683266612E+02 -0.77971215574E+01  0.22930253003E+03  0.23540597266E+03  0.00000000000E+00 0.  1.
         21    1    1    2  502  501 -0.46295898307E+02  0.11354151820E+02 -0.12311231518E+03  0.13201844232E+03  0.00000000000E+00 0. -1.
<scales pt_clust_5="13000.00000" pt_clust_6="13000.00000" pt_clust_7="13000.00000" pt_clust_8="13000.00000" pt_clust_9="47.66788"></scales>
<clustering>
<clus scale="   47.668">  2  9  1 -1</clus>
<clus scale="   80.595">  5  6 -1 -1</clus>
<clus scale="   88.433">  2  5  1 -1</clus>
<clus scale="   90.954">  7  8 -1 -1</clus>
<clus scale="   47.668">  2  5  1 -1</clus>
</clustering>
</event>
<event>
 9    2  0.2984928E-005  0.1006247E+03  0.7546771E-02  0.1284756E+00
          2   -1    0    0  502    0  0.00000000000E+00  0.00000000000E+00  0.32253539993E+03  0.32253539993E+03  0.00000000000E+00 0. -1.
         -1   -1    0    0    0  501 -0.00000000000E+00 -0.00000000000E+00 -0.11987355756E+03  0.11987355756E+03  0.00000000000E+00 0.  1.
         24    2    1    2    0    0 -0.34114497932E+02  0.69356253026E+02 -0.43496355304E+02  0.11995714364E+03  0.80769391379E+02 0.  0.
         23    2    1    2    0    0  0.40793581564E+02  0.55887139610E+01  0.22118836696E+03  0.24317476369E+03  0.92273083830E+02 0.  0.
        -11    1    3    3    0    0  0.11511731222E+01  0.57711618983E+02 -0.56339809368E+02  0.80660586936E+02  0.00000000000E+00 0.  1.
         12    1    3    3    0    0 -0.35265671054E+02  0.11644634043E+02  0.12843454064E+02  0.39296556709E+02  0.00000000000E+00 0. -1.
        -11    1    4    4    0    0  0.35815737861E+02  0.45201111698E+02  0.16035914691E+03  0.17041409441E+03  0.00000000000E+00 0. -1.
         11    1    4    4    0    0  0.49778437027E+01 -0.39612397737E+02  0.60829220049E+02  0.72760669281E+02  0.00000000000E+00 0.  1.
         21    1    1    2  502  501 -0.66790836321E+01 -0.74944966987E+02  0.24969830718E+02  0.79277050153E+02  0.00000000000E+00 0. -1.
<scales pt_clust_5="13000.00000" pt_clust_6="13000.00000" pt_clust_7="13000.00000" pt_clust_8="13000.00000" pt_clust_9="75.24200"></scales>
<clustering>
<clus scale="   75.242">  2  9  1 -1</clus>
<clus scale="   80.769">  5  6 -1 -1</clus>
<clus scale="   90.193">  2  5  1 -1</clus>
<clus scale="   92.273">  7  8 -1 -1</clus>
<clus scale="  100.625">  1  5  2 -1</clus>
</clustering>
</event>
<event>
 9    2  0.2984928E-005  0.9600253E+02  0.7546771E-02  0.1296431E+00
          2   -1    0    0  502    0  0.00000000000E+00  0.00000000000E+00  0.94939332164E+02  0.94939332164E+02  0.00000000000E+00 0. -1.
         -1   -1    0    0    0  501 -0.00000000000E+00 -0.00000000000E+00 -0.24349696390E+03  0.24349696390E+03  0.00000000000E+00 0.  1.
         24    2    1    2    0    0 -0.20928576581E+02  0.11374894339E+02 -0.18995770321E+03  0.20741535891E+03  0.79811080446E+02 0.  0.
         23    2    1    2    0    0  0.13489005145E+02 -0.33622322695E+02  0.26097122501E+02  0.10301244667E+03  0.92833671274E+02 0.  0.
        -13    1    3    3    0    0 -0.40794089007E+02  0.15998415543E+02 -0.17895257018E+03  0.18423932635E+03  0.00000000000E+00 0.  1.
         14    1    3    3    0    0  0.19865512425E+02 -0.46235212046E+01 -0.11005133031E+02  0.23176032561E+02  0.00000000000E+00 0. -1.
        -13    1    4    4    0    0  0.51729056100E+02 -0.19831245818E+02  0.28479701382E+02  0.62291788757E+02  0.00000000000E+00 0. -1.
         13    1    4    4    0    0 -0.38240050955E+02 -0.13791076877E+02 -0.23825788807E+01  0.40720657910E+02  0.00000000000E+00 0.  1.
         21    1    1    2  502  501  0.74395714367E+01  0.22247428356E+02  0.15302948981E+02  0.28008490483E+02  0.00000000000E+00 0.  1.
<scales pt_clust_5="13000.00000" pt_clust_6="13000.00000" pt_clust_7="13000.00000" pt_clust_8="13000.00000" pt_clust_9="23.45837"></scales>
<clustering>
<clus scale="   23.458">  1  9  2 -1</clus>
<clus scale="   79.811">  5  6 -1 -1</clus>
<clus scale="   83.476">  2  5  1 -1</clus>
<clus scale="   92.834">  7  8 -1 -1</clus>
<clus scale="   23.458">  1  5  2 -1</clus>
</clustering>
</event>
<event>
 9    2  0.2984928E-005  0.2221766E+03  0.7546771E-02  0.1133153E+00
          2   -1    0    0  502    0  0.00000000000E+00  0.00000000000E+00  0.10381125971E+03  0.10381125971E+03  0.00000000000E+00 0. -1.
         -1   -1    0    0    0  501 -0.00000000000E+00 -0.00000000000E+00 -0.86026786180E+03  0.86026786180E+03  0.00000000000E+00 0.  1.
         23    2    1    2    0    0 -0.14926209073E+03  0.13078669676E+03 -0.64330389592E+03  0.67947130919E+03  0.91962088571E+02 0.  0.
         24    2    1    2    0    0  0.17516640633E+03 -0.12977348722E+03 -0.11406724895E+03  0.25866756273E+03  0.79831966257E+02 0.  0.
        -11    1    4    4    0    0  0.69653379770E+02 -0.68993443769E+02 -0.92921496413E+02  0.13507809997E+03  0.00000000000E+00 0.  1.
         12    1    4    4    0    0  0.10551302656E+03 -0.60780043455E+02 -0.21145752535E+02  0.12358946276E+03  0.00000000000E+00 0. -1.
        -13    1    3    3    0    0 -0.11710926186E+03  0.46574045541E+02 -0.42487734702E+03  0.44317545165E+03  0.00000000000E+00 0. -1.
         13    1    3    3    0    0 -0.32152828864E+02  0.84212651219E+02 -0.21842654890E+03  0.23629585755E+03  0.00000000000E+00 0.  1.
         21    1    1    2  502  501 -0.25904315597E+02 -0.10132095360E+01  0.91454277901E+00  0.25940249586E+02  0.00000000000E+00 0. -1.
<scales pt_clust_5="13000.00000" pt_clust_6="13000.00000" pt_clust_7="13000.00000" pt_clust_8="13000.00000" pt_clust_9="25.92412"></scales>
<clustering>
<clus scale="   25.924">  1  9  2 -1</clus>
<clus scale="   79.832">  5  6 -1 -1</clus>
<clus scale="   91.962">  7  8 -1 -1</clus>
<clus scale="  217.436">  1  5  2 -1</clus>
<clus scale="   25.924">  1  5  2 -1</clus>
</clustering>
</event>
<event>
 9    2  0.2984928E-005  0.1764493E+03  0.7546771E-02  0.1172113E+00
         -1   -1    0    0    0  501 -0.00000000000E+00  0.00000000000E+00  0.14706946293E+03  0.14706946293E+03  0.00000000000E+00 0.  1.
          2   -1    0    0  502    0  0.00000000000E+00 -0.00000000000E+00 -0.46692238898E+03  0.46692238898E+03  0.00000000000E+00 0. -1.
         23    2    1    2    0    0 -0.57511169305E+02  0.92515051618E+02  0.55676073217E+02  0.15128674909E+03  0.89001606457E+02 0.  0.
         24    2    1    2    0    0  0.35512716240E+02 -0.15947532553E+03 -0.33424198365E+03  0.38102139650E+03  0.82256115213E+02 0.  0.
        -11    1    4    4    0    0  0.28078577027E+02 -0.77122273160E+02 -0.83865814549E+02  0.11734447731E+03  0.00000000000E+00 0.  1.
         12    1    4    4    0    0  0.74341392128E+01 -0.82353052370E+02 -0.25037616910E+03  0.26367691919E+03  0.00000000000E+00 0. -1.
        -13    1    3    3    0    0 -0.35134944414E+02  0.10639701045E+03  0.55299978903E+02  0.12495149386E+03  0.00000000000E+00 0.  1.
         13    1    3    3    0    0 -0.22376224891E+02 -0.13881958830E+02  0.37609431400E+00  0.26335255234E+02  0.00000000000E+00 0. -1.
         21    1    1    2  502  501  0.21998453065E+02  0.66960273912E+02 -0.41287015614E+02  0.81683706318E+02  0.00000000000E+00 0.  1.
<scales pt_clust_5="13000.00000" pt_clust_6="13000.00000" pt_clust_7="13000.00000" pt_clust_8="13000.00000" pt_clust_9="70.48128"></scales>
<clustering>
<clus scale="   70.481">  1  9  2 -1</clus>
<clus scale="   82.256">  5  6 -1 -1</clus>
<clus scale="   89.002">  7  8 -1 -1</clus>
<clus scale="  173.145">  2  5  1 -1</clus>
<clus scale="  173.145">  2  5  1 -1</clus>
</clustering>
</event>
<event>
 9    2  0.3235104E-005  0.1948674E+03  0.7546771E-02  0.1154712E+00
         -1   -1    0    0    0  501 -0.00000000000E+00  0.00000000000E+00  0.63944508897E+03  0.63944508897E+03  0.00000000000E+00 0.  1.
          2   -1    0    0  502    0  0.00000000000E+00 -0.00000000000E+00 -0.58860493380E+03  0.58860493380E+03  0.00000000000E+00 0. -1.
         24    2    1    2    0    0  0.60154404562E+02 -0.16267911417E+03  0.60620202576E+03  0.63615381551E+03  0.84425910615E+02 0.  0.
         23    2    1    2    0    0 -0.67614157650E+02  0.13454176855E+03 -0.48294973408E+03  0.51385214505E+03  0.90168838960E+02 0.  0.
        -11    1    3    3    0    0  0.62082227062E+02 -0.14342371086E+03  0.59164509131E+03  0.61193829577E+03  0.00000000000E+00 0.  1.
         12    1    3    3    0    0 -0.19278225000E+01 -0.19255403303E+02  0.14556934445E+02  0.24215519742E+02  0.00000000000E+00 0. -1.
        -13    1    4    4    0    0 -0.55352327497E+02  0.29796406384E+02 -0.11467515169E+03  0.13077498388E+03  0.00000000000E+00 0.  1.
         13    1    4    4    0    0 -0.12261830153E+02  0.10474536217E+03 -0.36827458239E+03  0.38307716117E+03  0.00000000000E+00 0. -1.
         21    1    1    2  502  501  0.74597530880E+01  0.28137345613E+02 -0.72412136505E+02  0.78044062218E+02  0.00000000000E+00 0. -1.
<scales pt_clust_5="13000.00000" pt_clust_6="13000.00000" pt_clust_7="13000.00000" pt_clust_8="13000.00000" pt_clust_9="29.10942"></scales>
<clustering>
<clus scale="   29.109">  2  9  1 -1</clus>
<clus scale="   84.426">  5  6 -1 -1</clus>
<clus scale="   90.169">  7  8 -1 -1</clus>
<clus scale="  192.277">  1  5  2 -1</clus>
<clus scale="   29.109">  2  5  1 -1</clus>
</clustering>
</event>
<event>
 9    2  0.2984928E-005  0.9817752E+02  0.7546771E-02  0.1290043E+00
          2   -1    0    0  502    0  0.00000000000E+00  0.00000000000E+00  0.18378600778E+03  0.18378600778E+03  0.00000000000E+00 0. -1.
         -1   -1    0    0    0  501 -0.00000000000E+00 -0.00000000000E+00 -0.94467281418E+02  0.94467281418E+02  0.00000000000E+00 0.  1.
         23    2    1    2    0    0  0.36891467851E+02  0.14847876685E+02 -0.44073317074E+02  0.10918697603E+03  0.91640049184E+02 0.  0.
         24    2    1    2    0    0 -0.18187309694E+02 -0.61638503238E+01  0.10018540044E+03  0.12997745305E+03  0.80549689975E+02 0.  0.
        -11    1    4    4    0    0  0.31738138143E+02 -0.79514691691E+01  0.36111500146E+02  0.48729618483E+02  0.00000000000E+00 0.  1.
         12    1    4    4    0    0 -0.49925447837E+02  0.17876188453E+01  0.64073900295E+02  0.81247834567E+02  0.00000000000E+00 0. -1.
        -11    1    3    3    0    0  0.36352191548E+02 -0.32008497186E+02 -0.38744467490E+02  0.62025474473E+02  0.00000000000E+00 0.  1.
         11    1    3    3    0    0  0.53927630282E+00  0.46856373871E+02 -0.53288495838E+01  0.47161501558E+02  0.00000000000E+00 0. -1.
         21    1    1    2  502  501 -0.18704158157E+02 -0.86840263616E+01  0.33206642992E+02  0.39088860114E+02  0.00000000000E+00 0. -1.
<scales pt_clust_5="13000.00000" pt_clust_6="13000.00000" pt_clust_7="13000.00000" pt_clust_8="13000.00000" pt_clust_9="20.62178"></scales>
<clustering>
<clus scale="   20.622">  1  9  2 -1</clus>
<clus scale="   80.550">  5  6 -1 -1</clus>
<clus scale="   87.916">  1  5  2 -1</clus>
<clus scale="   91.640">  7  8 -1 -1</clus>
<clus scale="   20.622">  1  5  2 -1</clus>
</clustering>
</event>
<event>
 9    2  0.2984928E-005  0.1013284E+03  0.7546771E-02  0.1286872E+00
         -1   -1    0    0    0  501 -0.00000000000E+00  0.00000000000E+00  0.11599581924E+03  0.11599581924E+03  0.00000000000E+00 0.  1.
          2   -1    0    0  502    0  0.00000000000E+00 -0.00000000000E+00 -0.19603880482E+03  0.19603880482E+03  0.00000000000E+00 0. -1.
         24    2    1    2    0    0 -0.54150571390E+02 -0.19138923732E+02  0.45014004203E+02  0.10421014219E+03  0.74396978280E+02 0.  0.
         23    2    1    2    0    0 -0.16057104296E+02  0.45549147099E+01 -0.73770946269E+02  0.11966514145E+03  0.92730877917E+02 0.  0.
        -11    1    3    3    0    0 -0.70702287678E+01  0.19334262206E+02  0.37721638540E+02  0.42973524919E+02  0.00000000000E+00 0.  1.
         12    1    3    3    0    0 -0.47080342622E+02 -0.38473185939E+02  0.72923656634E+01  0.61236617270E+02  0.00000000000E+00 0. -1.
        -13    1    4    4    0    0 -0.46009878309E+02 -0.12796931708E+02 -0.70146764572E+02  0.84860113970E+02  0.00000000000E+00 0.  1.
         13    1    4    4    0    0  0.29952774012E+02  0.17351846418E+02 -0.36241816964E+01  0.34805027483E+02  0.00000000000E+00 0. -1.
         21    1    1    2  502  501  0.70207675687E+02  0.14584009023E+02 -0.51286043516E+02  0.88159340424E+02  0.00000000000E+00 0. -1.
<scales pt_clust_5="13000.00000" pt_clust_6="13000.00000" pt_clust_7="13000.00000" pt_clust_8="13000.00000" pt_clust_9="71.70642"></scales>
<clustering>
<clus scale="   71.706">  2  9  1 -1</clus>
<clus scale="   74.397">  5  6 -1 -1</clus>
<clus scale="   84.873">  1  5  2 -1</clus>
<clus scale="   92.731">  7  8 -1 -1</clus>
<clus scale="   71.706">  2  5  1 -1</clus>
</clustering>
</event>
<event>
 9    2  0.2984928E-005  0.1885266E+03  0.7546771E-02  0.1161065E+00
          2   -1    0    0  502    0  0.00000000000E+00  0.00000000000E+00  0.50210321514E+02  0.50210321514E+02  0.00000000000E+00 0. -1.
         -1   -1    0    0    0  501 -0.00000000000E+00 -0.00000000000E+00 -0.12592417072E+04  0.12592417072E+04  0.00000000000E+00 0.  1.
         23    2    1    2    0    0 -0.79012566450E+02  0.13932852463E+03 -0.84770171393E+03  0.86749803312E+03  0.91100045209E+02 0.  0.
         24    2    1    2    0    0  0.98048354914E+02 -0.14748212004E+03 -0.37134003719E+03  0.41895291357E+03  0.79143318931E+02 0.  0.
        -13    1    4    4    0    0  0.98378314383E+02 -0.13711378679E+03 -0.37207192308E+03  0.40855354510E+03  0.00000000000E+00 0.  1.
         14    1    4    4    0    0 -0.32995946975E+00 -0.10368333245E+02  0.73188588781E+00  0.10399368466E+02  0.00000000000E+00 0. -1.
        -13    1    3    3    0    0 -0.15906765469E+02  0.11144483754E+03 -0.59453570802E+03  0.60509973155E+03  0.00000000000E+00 0.  1.
         13    1    3    3    0    0 -0.63105800981E+02  0.27883687094E+02 -0.25316600591E+03  0.26239830158E+03  0.00000000000E+00 0. -1.
         21    1    1    2  502  501 -0.19035788464E+02  0.81535954087E+01  0.10010365401E+02  0.23001082061E+02  0.00000000000E+00 0. -1.
<scales pt_clust_5="13000.00000" pt_clust_6="13000.00000" pt_clust_7="13000.00000" pt_clust_8="13000.00000" pt_clust_9="20.70851"></scales>
<clustering>
<clus scale="   20.709">  1  9  2 -1</clus>
<clus scale="   79.143">  5  6 -1 -1</clus>
<clus scale="   91.100">  7  8 -1 -1</clus>
<clus scale="  183.048">  1  5  2 -1</clus>
<clus scale="   20.709">  1  5  2 -1</clus>
</clustering>
</event>
<event>
 9    2  0.2984928E-005  0.1413370E+03  0.7546771E-02  0.1213136E+00
         -1   -1    0    0    0  501 -0.00000000000E+00  0.00000000000E+00  0.15189131353E+03  0.15189131353E+03  0.00000000000E+00 0.  1.
          2   -1    0    0  502    0  0.00000000000E+00 -0.00000000000E+00 -0.44455019554E+03  0.44455019554E+03  0.00000000000E+00 0. -1.
         23    2    1    2    0    0  0.10533080188E+03 -0.36350371433E+02  0.93236218760E+02  0.17143303244E+03  0.90996509801E+02 0.  0.
         24    2    1    2    0    0 -0.87476870530E+02 -0.98490098367E+01 -0.32245266468E+03  0.34452190388E+03  0.83489013779E+02 0.  0.
        -13    1    4    4    0    0 -0.27791524300E+02  0.34303106606E+02 -0.15868759954E+03  0.16471437762E+03  0.00000000000E+00 0.  1.
         14    1    4    4    0    0 -0.59685346230E+02 -0.44152116443E+02 -0.16376506514E+03  0.17980752626E+03  0.00000000000E+00 0. -1.
        -13    1    3    3    0    0  0.74840218241E+02 -0.61313386890E+02  0.89589843748E+02  0.13185874935E+03  0.00000000000E+00 0.  1.
         13    1    3    3    0    0  0.30490583638E+02  0.24963015457E+02  0.36463750115E+01  0.39574283089E+02  0.00000000000E+00 0. -1.
         21    1    1    2  502  501 -0.17853931349E+02  0.46199381270E+02 -0.63442436094E+02  0.80486572743E+02  0.00000000000E+00 0.  1.
<scales pt_clust_5="13000.00000" pt_clust_6="13000.00000" pt_clust_7="13000.00000" pt_clust_8="13000.00000" pt_clust_9="49.52924"></scales>
<clustering>
<clus scale="   49.529">  2  9  1 -1</clus>
<clus scale="   83.489">  5  6 -1 -1</clus>
<clus scale="   90.997">  7  8 -1 -1</clus>
<clus scale="  136.624">  2  5  1 -1</clus>
<clus scale="   49.529">  2  5  1 -1</clus>
</clustering>
</event>
<event>
 9    2  0.2984928E-005  0.1082998E+03  0.7546771E-02  0.1274293E+00
         -1   -1    0    0    0  501 -0.00000000000E+00  0.00000000000E+00  0.86335754518E+02  0.86335754518E+02  0.00000000000E+00 0.  1.
          2   -1    0    0  502    0  0.00000000000E+00 -0.00000000000E+00 -0.30924446716E+03  0.30924446716E+03  0.00000000000E+00 0. -1.
         23    2    1    2    0    0 -0.17754898171E+02 -0.39324428913E+02  0.33531505036E+02  0.11378875599E+03  0.99809178142E+02 0.  0.
         24    2    1    2    0    0 -0.94943694859E+01  0.42487268562E+02 -0.20497548388E+03  0.22347212956E+03  0.77650065376E+02 0.  0.
        -13    1    4    4    0    0  0.30309934777E+02  0.73999765484E+01 -0.11360995093E+03  0.11781626691E+03  0.00000000000E+00 0.  1.
         14    1    4    4    0    0 -0.39804304263E+02  0.35087292013E+02 -0.91365532956E+02  0.10565586264E+03  0.00000000000E+00 0. -1.
        -11    1    3    3    0    0 -0.66629810393E+00  0.24401625976E+02  0.40662489172E+02  0.47427010543E+02  0.00000000000E+00 0.  1.
         11    1    3    3    0    0 -0.17088600067E+02 -0.63726054889E+02 -0.71309841353E+01  0.66361745447E+02  0.00000000000E+00 0. -1.
         21    1    1    2  502  501  0.27249267657E+02 -0.31628396490E+01 -0.51464733798E+02  0.58319336136E+02  0.00000000000E+00 0.  1.
<scales pt_clust_5="13000.00000" pt_clust_6="13000.00000" pt_clust_7="13000.00000" pt_clust_8="13000.00000" pt_clust_9="27.43221"></scales>
<clustering>
<clus scale="   27.432">  2  9  1 -1</clus>
<clus scale="   77.650">  5  6 -1 -1</clus>
<clus scale="   88.298">  2  5  1 -1</clus>
<clus scale="   99.809">  7  8 -1 -1</clus>
<clus scale="   27.432">  2  5  1 -1</clus>
</clustering>
</event>
<event>
 9    2  0.2984928E-005  0.1090275E+03  0.7546771E-02  0.1267621E+00
          2   -1    0    0  502    0  0.00000000000E+00  0.00000000000E+00  0.11205572151E+04  0.11205572151E+04  0.00000000000E+00 0. -1.
         -1   -1    0    0    0  501 -0.00000000000E+00 -0.00000000000E+00 -0.25382647052E+02  0.25382647052E+02  0.00000000000E+00 0.  1.
         23    2    1    2    0    0  0.51430994154E+02 -0.39052707699E+02  0.12873170086E+03  0.17036532590E+03  0.91006770753E+02 0.  0.
         24    2    1    2    0    0 -0.20000963960E+02  0.29527869080E+02  0.85775268634E+03  0.86203104343E+03  0.78012276691E+02 0.  0.
        -11    1    4    4    0    0 -0.24328928231E+02  0.28764051670E+01  0.76820999789E+02  0.80632725764E+02  0.00000000000E+00 0.  1.
         12    1    4    4    0    0  0.43279642710E+01  0.26651463913E+02  0.78093168655E+03  0.78139831767E+03  0.00000000000E+00 0. -1.
        -13    1    3    3    0    0  0.37144917534E+02  0.14869813880E+02  0.13303038729E+02  0.42164287055E+02  0.00000000000E+00 0.  1.
         13    1    3    3    0    0  0.14286076620E+02 -0.53922521579E+02  0.11542866213E+03  0.12820103884E+03  0.00000000000E+00 0. -1.
         21    1    1    2  502  501 -0.31430030194E+02  0.95248386194E+01  0.10869018083E+03  0.11354349280E+03  0.00000000000E+00 0. -1.
<scales pt_clust_5="13000.00000" pt_clust_6="13000.00000" pt_clust_7="13000.00000" pt_clust_8="13000.00000" pt_clust_9="32.84158"></scales>
<clustering>
<clus scale="   32.842">  1  9  2 -1</clus>
<clus scale="   78.012">  5  6 -1 -1</clus>
<clus scale="   91.007">  7  8 -1 -1</clus>
<clus scale="   98.441">  1  5  2 -1</clus>
<clus scale="   32.842">  1  5  2 -1</clus>
</clustering>
</event>
<event>
 9    2  0.2984928E-005  0.1050603E+03  0.7546771E-02  0.1273829E+00
          4   -1    0    0  502    0  0.00000000000E+00  0.00000000000E+00  0.14845035685E+03  0.14845035685E+03  0.00000000000E+00 0. -1.
         -3   -1    0    0    0  501 -0.00000000000E+00 -0.00000000000E+00 -0.18693716159E+03  0.18693716159E+03  0.00000000000E+00 0.  1.
         23    2    1    2    0    0 -0.66568174549E+02 -0.33913774847E+01 -0.12205600349E+03  0.16539465955E+03  0.89525985708E+02 0.  0.
         24    2    1    2    0    0  0.29472420363E+02 -0.74756661711E+00  0.86366474709E+01  0.86278385363E+02  0.80623729034E+02 0.  0.
        -11    1    4    4    0    0  0.26952500654E+02  0.25530363310E+02 -0.24071966382E+02  0.44245862041E+02  0.00000000000E+00 0.  1.
         12    1    4    4    0    0  0.25199197093E+01 -0.26277929927E+02  0.32708613853E+02  0.42032523322E+02  0.00000000000E+00 0. -1.
        -11    1    3    3    0    0  0.10014577660E+02 -0.28922310280E+02 -0.28455183491E+02  0.41791018953E+02  0.00000000000E+00 0.  1.
         11    1    3    3    0    0 -0.76582752208E+02  0.25530932795E+02 -0.93600819997E+02  0.12360364060E+03  0.00000000000E+00 0. -1.
         21    1    1    2  502  501  0.37095754185E+02  0.41389441018E+01  0.74932551280E+02  0.83714473529E+02  0.00000000000E+00 0.  1.
<scales pt_clust_5="13000.00000" pt_clust_6="13000.00000" pt_clust_7="13000.00000" pt_clust_8="13000.00000" pt_clust_9="37.32594"></scales>
<clustering>
<clus scale="   37.326">  1  9  2 -1</clus>
<clus scale="   80.624">  5  6 -1 -1</clus>
<clus scale="   89.526">  7  8 -1 -1</clus>
<clus scale="   97.586">  1  5  2 -1</clus>
<clus scale="   37.326">  1  5  2 -1</clus>
</clustering>
</event>
<event>
 9    2  0.2984928E-005  0.1557651E+03  0.7546771E-02  0.1195784E+00
          2   -1    0    0  502    0  0.00000000000E+00  0.00000000000E+00  0.13856271223E+03  0.13856271223E+03  0.00000000000E+00 0. -1.
         -1   -1    0    0    0  501 -0.00000000000E+00 -0.00000000000E+00 -0.22506490532E+03  0.22506490532E+03  0.00000000000E+00 0.  1.
         23    2    1    2    0    0  0.11857080613E+03  0.11324794717E+02 -0.96934783164E+02  0.17965730201E+03  0.93236832497E+02 0.  0.
         24    2    1    2    0    0 -0.13339925498E+03 -0.31275480035E+02  0.79998937339E+01  0.15899371147E+03  0.80258863095E+02 0.  0.
        -13    1    4    4    0    0 -0.58728303135E+02 -0.50604932049E+01 -0.35376620289E+02  0.68746835881E+02  0.00000000000E+00 0.  1.
         14    1    4    4    0    0 -0.74670951846E+02 -0.26214986830E+02  0.43376514023E+02  0.90246875586E+02  0.00000000000E+00 0. -1.
        -11    1    3    3    0    0  0.10727584253E+03 -0.22251776989E+02 -0.93559164680E+02  0.14407138948E+03  0.00000000000E+00 0.  1.
         11    1    3    3    0    0  0.11294963602E+02  0.33576571707E+02 -0.33756184843E+01  0.35585912528E+02  0.00000000000E+00 0. -1.
         21    1    1    2  502  501  0.14828448848E+02  0.19950685317E+02  0.24326963453E+01  0.24976604080E+02  0.00000000000E+00 0. -1.
<scales pt_clust_5="13000.00000" pt_clust_6="13000.00000" pt_clust_7="13000.00000" pt_clust_8="13000.00000" pt_clust_9="24.85785"></scales>
<clustering>
<clus scale="   24.858">  1  9  2 -1</clus>
<clus scale="   80.259">  5  6 -1 -1</clus>
<clus scale="   93.237">  7  8 -1 -1</clus>
<clus scale="  148.362">  1  5  2 -1</clus>
<clus scale="   24.858">  1  5  2 -1</clus>
</clustering>
</event>
<event>
 9    2  0.2984928E-005  0.1454008E+03  0.7546771E-02  0.1225733E+00
         -1   -1    0    0    0  501 -0.00000000000E+00  0.00000000000E+00  0.36178611353E+02  0.36178611353E+02  0.00000000000E+00 0.  1.
          2   -1    0    0  502    0  0.00000000000E+00 -0.00000000000E+00 -0.93731863252E+03  0.93731863252E+03  0.00000000000E+00 0. -1.
         24    2    1    2    0    0 -0.32448190395E+01 -0.93612742931E+02 -0.28290057822E+03  0.31203437005E+03  0.92513979725E+02 0.  0.
         23    2    1    2    0    0 -0.61847337453E+01 -0.35212947388E+02 -0.36087254687E+03  0.37349986553E+03  0.89414494733E+02 0.  0.
        -13    1    3    3    0    0  0.23980441107E+02  0.85261463155E+01 -0.66293135725E+02  0.71010820098E+02  0.00000000000E+00 0.  1.
         14    1    3    3    0    0 -0.27225260147E+02 -0.10213888925E+03 -0.21660744250E+03  0.24102354995E+03  0.00000000000E+00 0. -1.
        -11    1    4    4    0    0 -0.15469632046E+02  0.23749007569E+02 -0.55168979294E+02  0.62023714437E+02  0.00000000000E+00 0.  1.
         11    1    4    4    0    0  0.92848983011E+01 -0.58961954958E+02 -0.30570356758E+03  0.31147615109E+03  0.00000000000E+00 0. -1.
         21    1    1    2  502  501  0.94295527848E+01  0.12882569032E+03 -0.25736689607E+03  0.28796300829E+03  0.00000000000E+00 0.  1.
<scales pt_clust_5="13000.00000" pt_clust_6="13000.00000" pt_clust_7="13000.00000" pt_clust_8="13000.00000" pt_clust_9="112.17200"></scales>
<clustering>
<clus scale="   89.414">  7  8 -1 -1</clus>
<clus scale="   92.514">  5  6 -1 -1</clus>
<clus scale="   96.297">  2  7  1 -1</clus>
<clus scale="  112.172">  2  9  1 -1</clus>
<clus scale="   96.297">  2  5  1 -1</clus>
</clustering>
</event>
<event>
 9    2  0.2984928E-005  0.1651523E+03  0.7546771E-02  0.1184480E+00
          2   -1    0    0  502    0  0.00000000000E+00  0.00000000000E+00  0.43286831938E+03  0.43286831938E+03  0.00000000000E+00 0. -1.
         -1   -1    0    0    0  501 -0.00000000000E+00 -0.00000000000E+00 -0.23549527256E+03  0.23549527256E+03  0.00000000000E+00 0.  1.
         24    2    1    2    0    0 -0.13373665287E+03  0.37787833609E+02 -0.18214108993E+03  0.24295867755E+03  0.80871068166E+02 0.  0.
         23    2    1    2    0    0  0.11165906645E+03 -0.59265669120E+02  0.34832342507E+03  0.38156911012E+03  0.91025329948E+02 0.  0.
        -13    1    3    3    0    0 -0.86667774415E+02  0.24951499231E+02 -0.17037326211E+03  0.19277170144E+03  0.00000000000E+00 0.  1.
         14    1    3    3    0    0 -0.47068878456E+02  0.12836334377E+02 -0.11767827826E+02  0.50186976111E+02  0.00000000000E+00 0. -1.
        -13    1    4    4    0    0  0.78338360236E+02 -0.77779059948E+02  0.20019095914E+03  0.22861080677E+03  0.00000000000E+00 0.  1.
         13    1    4    4    0    0  0.33320706219E+02  0.18513390828E+02  0.14813246593E+03  0.15295830336E+03  0.00000000000E+00 0. -1.
         21    1    1    2  502  501  0.22077586416E+02  0.21477835512E+02  0.31190711690E+02  0.43835804269E+02  0.00000000000E+00 0. -1.
<scales pt_clust_5="13000.00000" pt_clust_6="13000.00000" pt_clust_7="13000.00000" pt_clust_8="13000.00000" pt_clust_9="30.80125"></scales>
<clustering>
<clus scale="   30.801">  1  9  2 -1</clus>
<clus scale="   80.871">  5  6 -1 -1</clus>
<clus scale="   91.025">  7  8 -1 -1</clus>
<clus scale="  159.780">  2  5  1 -1</clus>
<clus scale="   30.801">  1  5  2 -1</clus>
</clustering>
</event>
<event>
 9    2  0.2984928E-005  0.1783230E+03  0.7546771E-02  0.1170622E+00
         -1   -1    0    0    0  501 -0.00000000000E+00  0.00000000000E+00  0.87478993691E+02  0.87478993691E+02  0.00000000000E+00 0.  1.
          2   -1    0    0  502    0  0.00000000000E+00 -0.00000000000E+00 -0.62980372804E+03  0.62980372804E+03  0.00000000000E+00 0. -1.
         24    2    1    2    0    0  0.42673479110E+02  0.14419381951E+03 -0.50565224853E+02  0.17829573888E+03  0.81361201639E+02 0.  0.
         23    2    1    2    0    0 -0.20653254159E+02 -0.16529892100E+03 -0.43243254980E+03  0.47227863433E+03  0.91098343167E+02 0.  0.
        -11    1    3    3    0    0  0.37226953582E+02  0.89960142296E+02  0.87366265936E+01  0.97749690124E+02  0.00000000000E+00 0.  1.
         12    1    3    3    0    0  0.54465255274E+01  0.54233677215E+02 -0.59301851446E+02  0.80546048752E+02  0.00000000000E+00 0. -1.
        -11    1    4    4    0    0 -0.60078198755E+01 -0.12468367581E+03 -0.39781260642E+03  0.41693762452E+03  0.00000000000E+00 0. -1.
         11    1    4    4    0    0 -0.14645434284E+02 -0.40615245193E+02 -0.34619943379E+02  0.55341009812E+02  0.00000000000E+00 0.  1.
         21    1    1    2  502  501 -0.22020224950E+02  0.21105101493E+02 -0.59326959698E+02  0.66708348524E+02  0.00000000000E+00 0. -1.
<scales pt_clust_5="13000.00000" pt_clust_6="13000.00000" pt_clust_7="13000.00000" pt_clust_8="13000.00000" pt_clust_9="30.50108"></scales>
<clustering>
<clus scale="   30.501">  2  9  1 -1</clus>
<clus scale="   81.361">  5  6 -1 -1</clus>
<clus scale="   91.098">  7  8 -1 -1</clus>
<clus scale="  173.551">  1  5  2 -1</clus>
<clus scale="   30.501">  2  5  1 -1</clus>
</clustering>
</event>
<event>
 9    2  0.2984928E-005  0.2742017E+03  0.7546771E-02  0.1099223E+00
         -1   -1    0    0    0  501 -0.00000000000E+00  0.00000000000E+00  0.36009336691E+03  0.36009336691E+03  0.00000000000E+00 0.  1.
          2   -1    0    0  502    0  0.00000000000E+00 -0.00000000000E+00 -0.51404316648E+03  0.51404316648E+03  0.00000000000E+00 0. -1.
         23    2    1    2    0    0 -0.23799621143E+03 -0.36256491693E+02  0.14931356863E+03  0.29655782039E+03  0.87722683572E+02 0.  0.
         24    2    1    2    0    0  0.31619224507E+03 -0.48841221336E+01 -0.77773908667E+02  0.33539558779E+03  0.80249790952E+02 0.  0.
        -13    1    4    4    0    0  0.94123584486E+02  0.24938946003E+02  0.24560148239E+01  0.97402423959E+02  0.00000000000E+00 0.  1.
         14    1    4    4    0    0  0.22206866058E+03 -0.29823068137E+02 -0.80229923491E+02  0.23799316383E+03  0.00000000000E+00 0. -1.
        -11    1    3    3    0    0 -0.13969794929E+03 -0.16517617534E+02  0.35896629000E+02  0.14517891272E+03  0.00000000000E+00 0. -1.
         11    1    3    3    0    0 -0.98298262138E+02 -0.19738874160E+02  0.11341693963E+03  0.15137890767E+03  0.00000000000E+00 0.  1.
         21    1    1    2  502  501 -0.78196033635E+02  0.41140613827E+02 -0.22548945953E+03  0.24218312522E+03  0.00000000000E+00 0. -1.
<scales pt_clust_5="13000.00000" pt_clust_6="13000.00000" pt_clust_7="13000.00000" pt_clust_8="13000.00000" pt_clust_9="88.35819"></scales>
<clustering>
<clus scale="   80.250">  5  6 -1 -1</clus>
<clus scale="   87.723">  7  8 -1 -1</clus>
<clus scale="   88.358">  2  9  1 -1</clus>
<clus scale="  271.903">  2  5  1 -1</clus>
<clus scale="   88.358">  2  5  1 -1</clus>
</clustering>
</event>
<event>
 9    2  0.2984928E-005  0.9216777E+02  0.7546771E-02  0.1299658E+00
          2   -1    0    0  502    0  0.00000000000E+00  0.00000000000E+00  0.12544911630E+04  0.12544911630E+04  0.00000000000E+00 0. -1.
         -1   -1    0    0    0  501 -0.00000000000E+00 -0.00000000000E+00 -0.15432882374E+02  0.15432882374E+02  0.00000000000E+00 0.  1.
         23    2    1    2    0    0 -0.12051821387E+02  0.17024395484E+02  0.20237253976E+03  0.22174182173E+03  0.88202688236E+02 0.  0.
         24    2    1    2    0    0  0.60264172155E+02 -0.44553794176E+01  0.75199473615E+03  0.75916426729E+03  0.84750697259E+02 0.  0.
        -11    1    4    4    0    0  0.91509291578E+01 -0.23942839383E+02  0.63188505143E+02  0.68189341135E+02  0.00000000000E+00 0.  1.
         12    1    4    4    0    0  0.51113242997E+02  0.19487459965E+02  0.68880623101E+03  0.69097492616E+03  0.00000000000E+00 0. -1.
        -11    1    3    3    0    0  0.30237162324E+02  0.19238015666E+02  0.38981279014E+02  0.52952123147E+02  0.00000000000E+00 0. -1.
         11    1    3    3    0    0 -0.42288983711E+02 -0.22136201819E+01  0.16339126075E+03  0.16878969858E+03  0.00000000000E+00 0.  1.
         21    1    1    2  502  501 -0.48212350768E+02 -0.12569016066E+02  0.28469100474E+03  0.28901795639E+03  0.00000000000E+00 0.  1.
<scales pt_clust_5="13000.00000" pt_clust_6="13000.00000" pt_clust_7="13000.00000" pt_clust_8="13000.00000" pt_clust_9="49.82380"></scales>
<clustering>
<clus scale="   49.824">  1  9  2 -1</clus>
<clus scale="   84.751">  5  6 -1 -1</clus>
<clus scale="   88.203">  7  8 -1 -1</clus>
<clus scale="   88.870">  1  5  2 -1</clus>
<clus scale="   49.824">  1  5  2 -1</clus>
</clustering>
</event>
<event>
 9    2  0.2984928E-005  0.9571831E+02  0.7546771E-02  0.1296477E+00
          2   -1    0    0  502    0  0.00000000000E+00  0.00000000000E+00  0.24080112103E+03  0.24080112103E+03  0.00000000000E+00 0. -1.
         -1   -1    0    0    0  501 -0.00000000000E+00 -0.00000000000E+00 -0.61384603890E+02  0.61384603890E+02  0.00000000000E+00 0.  1.
         24    2    1    2    0    0 -0.19028582320E+02  0.17440124839E+02  0.10237708092E+02  0.84433265933E+02  0.79736571469E+02 0.  0.
         23    2    1    2    0    0  0.37463070498E+02  0.38682231394E+01  0.91101968728E+02  0.13474722396E+03  0.91862946048E+02 0.  0.
        -13    1    3    3    0    0  0.30350948607E+02  0.17776790740E+01 -0.41090552172E+01  0.30679383289E+02  0.00000000000E+00 0.  1.
         14    1    3    3    0    0 -0.49379530927E+02  0.15662445765E+02  0.14346763309E+02  0.53753882644E+02  0.00000000000E+00 0. -1.
        -11    1    4    4    0    0  0.61833755904E+02  0.21493606448E+02  0.78298720541E+02  0.10205918933E+03  0.00000000000E+00 0.  1.
         11    1    4    4    0    0 -0.24370685406E+02 -0.17625383309E+02  0.12803248187E+02  0.32688034632E+02  0.00000000000E+00 0. -1.
         21    1    1    2  502  501 -0.18434488179E+02 -0.21308347979E+02  0.78076840318E+02  0.83005235028E+02  0.00000000000E+00 0. -1.
<scales pt_clust_5="13000.00000" pt_clust_6="13000.00000" pt_clust_7="13000.00000" pt_clust_8="13000.00000" pt_clust_9="28.17581"></scales>
<clustering>
<clus scale="   28.176">  1  9  2 -1</clus>
<clus scale="   79.737">  5  6 -1 -1</clus>
<clus scale="   84.149">  2  5  1 -1</clus>
<clus scale="   91.863">  7  8 -1 -1</clus>
<clus scale="   28.176">  1  5  2 -1</clus>
</clustering>
</event>
<event>
 9    2  0.2984928E-005  0.1167856E+03  0.7546771E-02  0.1252635E+00
          2   -1    0    0  502    0  0.00000000000E+00  0.00000000000E+00  0.33508462615E+03  0.33508462615E+03  0.00000000000E+00 0. -1.
         -1   -1    0    0    0  501 -0.00000000000E+00 -0.00000000000E+00 -0.13649226966E+03  0.13649226966E+03  0.00000000000E+00 0.  1.
         23    2    1    2    0    0  0.24445403318E+02 -0.71453573809E+02 -0.87509179702E+02  0.14717487988E+03  0.91101030626E+02 0.  0.
         24    2    1    2    0    0  0.10985124931E+02  0.66135808411E+02  0.14087348175E+03  0.17481996903E+03  0.78880070911E+02 0.  0.
        -13    1    4    4    0    0 -0.73953930078E+01  0.20724583678E+02 -0.35722445603E+01  0.22292625183E+02  0.00000000000E+00 0.  1.
         14    1    4    4    0    0  0.18380517938E+02  0.45411224733E+02  0.14444572631E+03  0.15252734384E+03  0.00000000000E+00 0. -1.
        -13    1    3    3    0    0  0.57835369792E+02 -0.56905773388E+02 -0.67960644412E+02  0.10583877471E+03  0.00000000000E+00 0.  1.
         13    1    3    3    0    0 -0.33389966473E+02 -0.14547800422E+02 -0.19548535290E+02  0.41336105165E+02  0.00000000000E+00 0. -1.
         21    1    1    2  502  501 -0.35430528249E+02  0.53177653987E+01  0.14522805445E+03  0.14958204691E+03  0.00000000000E+00 0. -1.
<scales pt_clust_5="13000.00000" pt_clust_6="13000.00000" pt_clust_7="13000.00000" pt_clust_8="13000.00000" pt_clust_9="35.82738"></scales>
<clustering>
<clus scale="   35.827">  1  9  2 -1</clus>
<clus scale="   78.880">  5  6 -1 -1</clus>
<clus scale="   91.101">  7  8 -1 -1</clus>
<clus scale="  107.525">  1  5  2 -1</clus>
<clus scale="   35.827">  1  5  2 -1</clus>
</clustering>
</event>
<event>
 9    2  0.2984928E-005  0.9362167E+02  0.7546771E-02  0.1294473E+00
         -1   -1    0    0    0  501 -0.00000000000E+00  0.00000000000E+00  0.12338670870E+03  0.12338670870E+03  0.00000000000E+00 0.  1.
          2   -1    0    0  502    0  0.00000000000E+00 -0.00000000000E+00 -0.24950930112E+03  0.24950930112E+03  0.00000000000E+00 0. -1.
         23    2    1    2    0    0 -0.54502834564E+01  0.75029684419E+01  0.77976280270E+02  0.12181232282E+03  0.93123260148E+02 0.  0.
         24    2    1    2    0    0  0.27368406566E+02  0.17114255563E+02 -0.93431436418E+02  0.13561207451E+03  0.92840045348E+02 0.  0.
        -11    1    4    4    0    0  0.52040686536E+02  0.11188118665E+02 -0.18261580108E+02  0.56275148711E+02  0.00000000000E+00 0.  1.
         12    1    4    4    0    0 -0.24672279970E+02  0.59261368978E+01 -0.75169856310E+02  0.79336925798E+02  0.00000000000E+00 0. -1.
        -13    1    3    3    0    0 -0.37240344899E+02  0.34901659427E+02  0.49466129964E+02  0.71076487902E+02  0.00000000000E+00 0.  1.
         13    1    3    3    0    0  0.31790061442E+02 -0.27398690985E+02  0.28510150306E+02  0.50735834917E+02  0.00000000000E+00 0. -1.
         21    1    1    2  502  501 -0.21918123109E+02 -0.24617224005E+02 -0.11066743627E+03  0.11547161248E+03  0.00000000000E+00 0. -1.
<scales pt_clust_5="13000.00000" pt_clust_6="13000.00000" pt_clust_7="13000.00000" pt_clust_8="13000.00000" pt_clust_9="32.96076"></scales>
<clustering>
<clus scale="   32.961">  2  9  1 -1</clus>
<clus scale="   92.840">  5  6 -1 -1</clus>
<clus scale="   93.123">  7  8 -1 -1</clus>
<clus scale="   93.340">  2  5  1 -1</clus>
<clus scale="   32.961">  2  5  1 -1</clus>
</clustering>
</event>
<event>
 9    2  0.2984928E-005  0.9590086E+02  0.7546771E-02  0.1295436E+00
          2   -1    0    0  502    0  0.00000000000E+00  0.00000000000E+00  0.16706740842E+03  0.16706740842E+03  0.00000000000E+00 0. -1.
         -1   -1    0    0    0  501 -0.00000000000E+00 -0.00000000000E+00 -0.26867340253E+03  0.26867340253E+03  0.00000000000E+00 0.  1.
         23    2    1    2    0    0 -0.31434207362E+02 -0.36499757930E+01 -0.23989528520E+03  0.25856159127E+03  0.91120342990E+02 0.  0.
         24    2    1    2    0    0  0.13168011793E+02 -0.84616767209E+01  0.76866191493E+02  0.11196309291E+03  0.79889462831E+02 0.  0.
        -11    1    4    4    0    0  0.42108852029E+02 -0.15345765411E+02  0.67025858546E+02  0.80629483746E+02  0.00000000000E+00 0.  1.
         12    1    4    4    0    0 -0.28940840235E+02  0.68840886904E+01  0.98403329464E+01  0.31333609162E+02  0.00000000000E+00 0. -1.
        -13    1    3    3    0    0 -0.54920793160E+02  0.24095777596E+02 -0.15586631777E+03  0.16700661375E+03  0.00000000000E+00 0. -1.
         13    1    3    3    0    0  0.23486585798E+02 -0.27745753389E+02 -0.84028967425E+02  0.91554977527E+02  0.00000000000E+00 0.  1.
         21    1    1    2  502  501  0.18266195569E+02  0.12111652514E+02  0.61423099597E+02  0.65216126773E+02  0.00000000000E+00 0. -1.
<scales pt_clust_5="13000.00000" pt_clust_6="13000.00000" pt_clust_7="13000.00000" pt_clust_8="13000.00000" pt_clust_9="21.91680"></scales>
<clustering>
<clus scale="   21.917">  1  9  2 -1</clus>
<clus scale="   79.889">  5  6 -1 -1</clus>
<clus scale="   85.302">  1  5  2 -1</clus>
<clus scale="   91.120">  7  8 -1 -1</clus>
<clus scale="   21.917">  1  5  2 -1</clus>
</clustering>
</event>
<event>
 9    2  0.2984928E-005  0.1563961E+03  0.7546771E-02  0.1195635E+00
          2   -1    0    0  502    0  0.00000000000E+00  0.00000000000E+00  0.28488997012E+03  0.28488997012E+03  0.00000000000E+00 0. -1.
         -1   -1    0    0    0  501 -0.00000000000E+00 -0.00000000000E+00 -0.16145978127E+03  0.16145978127E+03  0.00000000000E+00 0.  1.
         23    2    1    2    0    0 -0.26513204689E+02 -0.11306604827E+03 -0.66397519670E+02  0.17355877631E+03  0.11057638501E+03 0.  0.
         24    2    1    2    0    0  0.53664120784E+02  0.85810383952E+02  0.91888394256E+02  0.16756667770E+03  0.96911581470E+02 0.  0.
        -13    1    4    4    0    0 -0.22694656776E+02  0.23350499525E+02 -0.27456619472E+00  0.32563302364E+02  0.00000000000E+00 0.  1.
         14    1    4    4    0    0  0.76358777560E+02  0.62459884427E+02  0.92162960451E+02  0.13500337534E+03  0.00000000000E+00 0. -1.
        -11    1    3    3    0    0 -0.70110763029E+02 -0.70159651765E+02 -0.41220655098E+02  0.10741060578E+03  0.00000000000E+00 0.  1.
         11    1    3    3    0    0  0.43597558340E+02 -0.42906396501E+02 -0.25176864572E+02  0.66148170524E+02  0.00000000000E+00 0. -1.
         21    1    1    2  502  501 -0.27150916095E+02  0.27255664313E+02  0.97939314259E+02  0.10522429738E+03  0.00000000000E+00 0.  1.
<scales pt_clust_5="13000.00000" pt_clust_6="13000.00000" pt_clust_7="13000.00000" pt_clust_8="13000.00000" pt_clust_9="38.47133"></scales>
<clustering>
<clus scale="   38.471">  1  9  2 -1</clus>
<clus scale="   96.912">  5  6 -1 -1</clus>
<clus scale="  110.576">  7  8 -1 -1</clus>
<clus scale="  147.053">  1  5  2 -1</clus>
<clus scale="   38.471">  1  5  2 -1</clus>
</clustering>
</event>
<event>
 9    2  0.2984928E-005  0.1067460E+03  0.7546771E-02  0.1273227E+00
         -1   -1    0    0    0  501 -0.00000000000E+00  0.00000000000E+00  0.58289177884E+03  0.58289177884E+03  0.00000000000E+00 0.  1.
          2   -1    0    0  502    0  0.00000000000E+00 -0.00000000000E+00 -0.27252634889E+02  0.27252634889E+02  0.00000000000E+00 0. -1.
         23    2    1    2    0    0  0.14234912216E+02 -0.46390331817E+02  0.38256348925E+03  0.39646797820E+03  0.92072465058E+02 0.  0.
         24    2    1    2    0    0 -0.28935860255E+02  0.61931123801E+02  0.13283719949E+03  0.16810487239E+03  0.77076445493E+02 0.  0.
        -13    1    4    4    0    0 -0.35233612347E+02 -0.47045820724E+01  0.54499179418E+02  0.65066897027E+02  0.00000000000E+00 0.  1.
         14    1    4    4    0    0  0.62977520917E+01  0.66635705873E+02  0.78338020073E+02  0.10303797537E+03  0.00000000000E+00 0. -1.
        -11    1    3    3    0    0  0.12014194092E+02 -0.67825434777E+02  0.35425967790E+03  0.36089409783E+03  0.00000000000E+00 0.  1.
         11    1    3    3    0    0  0.22207181245E+01  0.21435102959E+02  0.28303811344E+02  0.35573880368E+02  0.00000000000E+00 0. -1.
         21    1    1    2  502  501  0.14700948039E+02 -0.15540791984E+02  0.40238455217E+02  0.45571563139E+02  0.00000000000E+00 0. -1.
<scales pt_clust_5="13000.00000" pt_clust_6="13000.00000" pt_clust_7="13000.00000" pt_clust_8="13000.00000" pt_clust_9="21.39238"></scales>
<clustering>
<clus scale="   21.392">  2  9  1 -1</clus>
<clus scale="   77.076">  5  6 -1 -1</clus>
<clus scale="   92.072">  7  8 -1 -1</clus>
<clus scale="   94.118">  2  5  1 -1</clus>
<clus scale="   21.392">  2  5  1 -1</clus>
</clustering>
</event>
<event>
 9    2  0.2984928E-005  0.1177769E+03  0.7546771E-02  0.1250421E+00
          4   -1    0    0  502    0  0.00000000000E+00  0.00000000000E+00  0.34024182416E+03  0.34024182416E+03  0.00000000000E+00 0. -1.
         -3   -1    0    0    0  501 -0.00000000000E+00 -0.00000000000E+00 -0.48405901495E+02  0.48405901495E+02  0.00000000000E+00 0.  1.
         23    2    1    2    0    0  0.40596387710E+02  0.58979525617E+02  0.91370017385E+02  0.14758516292E+03  0.91138625730E+02 0.  0.
         24    2    1    2    0    0 -0.28855718141E+02 -0.75307339680E+02  0.17115484456E+03  0.20551570472E+03  0.80242608338E+02 0.  0.
        -13    1    4    4    0    0 -0.56409253423E+02 -0.59232792140E+02  0.11982975391E+03  0.14508513865E+03  0.00000000000E+00 0.  1.
         14    1    4    4    0    0  0.27553535283E+02 -0.16074547540E+02  0.51325090646E+02  0.60430566066E+02  0.00000000000E+00 0. -1.
        -13    1    3    3    0    0 -0.93005245523E+01  0.57636636756E+02  0.22586831628E+02  0.62599094375E+02  0.00000000000E+00 0.  1.
         13    1    3    3    0    0  0.49896912262E+02  0.13428888603E+01  0.68783185757E+02  0.84986068545E+02  0.00000000000E+00 0. -1.
         21    1    1    2  502  501 -0.11740669569E+02  0.16327814063E+02  0.29311060725E+02  0.35546858017E+02  0.00000000000E+00 0. -1.
<scales pt_clust_5="13000.00000" pt_clust_6="13000.00000" pt_clust_7="13000.00000" pt_clust_8="13000.00000" pt_clust_9="20.11071"></scales>
<clustering>
<clus scale="   20.111">  1  9  2 -1</clus>
<clus scale="   80.243">  5  6 -1 -1</clus>
<clus scale="   91.139">  7  8 -1 -1</clus>
<clus scale="  109.563">  1  5  2 -1</clus>
<clus scale="   20.111">  1  5  2 -1</clus>
</clustering>
</event>
<event>
 9    2  0.2984928E-005  0.1381056E+03  0.7546771E-02  0.1218686E+00
          2   -1    0    0  502    0  0.00000000000E+00  0.00000000000E+00  0.12633414209E+03  0.12633414209E+03  0.00000000000E+00 0. -1.
         -1   -1    0    0    0  501 -0.00000000000E+00 -0.00000000000E+00 -0.27790358000E+03  0.27790358000E+03  0.00000000000E+00 0.  1.
         23    2    1    2    0    0 -0.93653848635E+02 -0.35952432464E+02 -0.17061469853E+03  0.21741495854E+03  0.89979264705E+02 0.  0.
         24    2    1    2    0    0  0.12104118587E+03  0.11055092118E+02 -0.23213395632E+01  0.14408548005E+03  0.77343734109E+02 0.  0.
        -11    1    4    4    0    0  0.35766048002E+02 -0.21253774348E+02 -0.27020948278E+02  0.49609119722E+02  0.00000000000E+00 0.  1.
         12    1    4    4    0    0  0.85275137863E+02  0.32308866465E+02  0.24699608715E+02  0.94476360327E+02  0.00000000000E+00 0. -1.
        -11    1    3    3    0    0 -0.22267116436E+02 -0.58513514541E+01 -0.12584999940E+03  0.12793859909E+03  0.00000000000E+00 0.  1.
         11    1    3    3    0    0 -0.71386732199E+02 -0.30101081010E+02 -0.44764699137E+02  0.89476359452E+02  0.00000000000E+00 0. -1.
         21    1    1    2  502  501 -0.27387337231E+02  0.24897340346E+02  0.21366600187E+02  0.42737283494E+02  0.00000000000E+00 0.  1.
<scales pt_clust_5="13000.00000" pt_clust_6="13000.00000" pt_clust_7="13000.00000" pt_clust_8="13000.00000" pt_clust_9="37.01275"></scales>
<clustering>
<clus scale="   37.013">  1  9  2 -1</clus>
<clus scale="   77.344">  5  6 -1 -1</clus>
<clus scale="   89.979">  7  8 -1 -1</clus>
<clus scale="  130.226">  1  5  2 -1</clus>
<clus scale="   37.013">  1  5  2 -1</clus>
</clustering>
</event>
<event>
 9    2  0.2984928E-005  0.2533218E+03  0.7546771E-02  0.1111732E+00
          2   -1    0    0  502    0  0.00000000000E+00  0.00000000000E+00  0.10138095418E+04  0.10138095418E+04  0.00000000000E+00 0. -1.
         -1   -1    0    0    0  501 -0.00000000000E+00 -0.00000000000E+00 -0.22772377343E+03  0.22772377343E+03  0.00000000000E+00 0.  1.
         24    2    1    2    0    0 -0.22817608049E+03  0.57645806052E+02 -0.13039232025E+03  0.28135211395E+03  0.82276923736E+02 0.  0.
         23    2    1    2    0    0  0.23296966487E+03 -0.79962321127E+02  0.86006833956E+03  0.89932838636E+03  0.91679661050E+02 0.  0.
        -11    1    3    3    0    0 -0.18732435257E+03  0.74598661192E+02 -0.12387724571E+03  0.23664518867E+03  0.00000000000E+00 0.  1.
         12    1    3    3    0    0 -0.40851727915E+02 -0.16952855140E+02 -0.65150745438E+01  0.44706925273E+02  0.00000000000E+00 0. -1.
        -13    1    4    4    0    0  0.71457070738E+02 -0.45477156482E+02  0.43768237496E+03  0.44580281075E+03  0.00000000000E+00 0. -1.
         13    1    4    4    0    0  0.16151259413E+03 -0.34485164645E+02  0.42238596460E+03  0.45352557561E+03  0.00000000000E+00 0.  1.
         21    1    1    2  502  501 -0.47935843778E+01  0.22316515075E+02  0.56409749095E+02  0.60852814966E+02  0.00000000000E+00 0.  1.
<scales pt_clust_5="13000.00000" pt_clust_6="13000.00000" pt_clust_7="13000.00000" pt_clust_8="13000.00000" pt_clust_9="22.82554"></scales>
<clustering>
<clus scale="   22.826">  1  9  2 -1</clus>
<clus scale="   82.277">  5  6 -1 -1</clus>
<clus scale="   91.680">  7  8 -1 -1</clus>
<clus scale="  250.073">  2  5  1 -1</clus>
<clus scale="   22.826">  1  5  2 -1</clus>
</clustering>
</event>
<event>
 9    2  0.2984928E-005  0.1034643E+03  0.7546771E-02  0.1278375E+00
         -1   -1    0    0    0  501 -0.00000000000E+00  0.00000000000E+00  0.67172214884E+02  0.67172214884E+02  0.00000000000E+00 0.  1.
          2   -1    0    0  502    0  0.00000000000E+00 -0.00000000000E+00 -0.35069351115E+03  0.35069351115E+03  0.00000000000E+00 0. -1.
         24    2    1    2    0    0  0.22296474213E+02  0.49602106377E+02  0.10290326444E+02  0.97138093926E+02  0.79827418559E+02 0.  0.
         23    2    1    2    0    0 -0.13584453781E+01 -0.21771240183E+02 -0.21882289805E+03  0.23804591109E+03  0.91140346732E+02 0.  0.
        -11    1    3    3    0    0  0.23049533713E+02  0.31086109938E+02  0.44045098046E+02  0.58631031863E+02  0.00000000000E+00 0.  1.
         12    1    3    3    0    0 -0.75305950002E+00  0.18515996439E+02 -0.33754771602E+02  0.38507062062E+02  0.00000000000E+00 0. -1.
        -11    1    4    4    0    0 -0.40720014389E+02  0.10253991180E+02 -0.11638576687E+03  0.12372918264E+03  0.00000000000E+00 0.  1.
         11    1    4    4    0    0  0.39361569011E+02 -0.32025231362E+02 -0.10243713118E+03  0.11431672845E+03  0.00000000000E+00 0. -1.
         21    1    1    2  502  501 -0.20938028834E+02 -0.27830866194E+02 -0.74988724653E+02  0.82681721014E+02  0.00000000000E+00 0. -1.
<scales pt_clust_5="13000.00000" pt_clust_6="13000.00000" pt_clust_7="13000.00000" pt_clust_8="13000.00000" pt_clust_9="34.82755"></scales>
<clustering>
<clus scale="   34.828">  2  9  1 -1</clus>
<clus scale="   79.827">  5  6 -1 -1</clus>
<clus scale="   91.140">  7  8 -1 -1</clus>
<clus scale="   93.652">  1  5  2 -1</clus>
<clus scale="   34.828">  2  5  1 -1</clus>
</clustering>
</event>
<event>
 9    2  0.2984928E-005  0.1408491E+03  0.7546771E-02  0.1234545E+00
          2   -1    0    0  502    0  0.00000000000E+00  0.00000000000E+00  0.17558219036E+03  0.17558219036E+03  0.00000000000E+00 0. -1.
         -1   -1    0    0    0  501 -0.00000000000E+00 -0.00000000000E+00 -0.16658751273E+03  0.16658751273E+03  0.00000000000E+00 0.  1.
         24    2    1    2    0    0  0.34752777175E+02  0.16284863785E+02 -0.11838622718E+02  0.89105926120E+02  0.79540937711E+02 0.  0.
         23    2    1    2    0    0 -0.14041113105E+02 -0.11730879489E+03  0.90039577298E+01  0.14926232693E+03  0.90772599236E+02 0.  0.
        -13    1    3    3    0    0  0.33070569703E+02  0.37552665875E+02 -0.32289895819E+02  0.59552520239E+02  0.00000000000E+00 0.  1.
         14    1    3    3    0    0  0.16822074723E+01 -0.21267802090E+02  0.20451273101E+02  0.29553405881E+02  0.00000000000E+00 0. -1.
        -13    1    4    4    0    0 -0.44341585592E+02 -0.42249287643E+02 -0.18158045361E+02  0.63881868558E+02  0.00000000000E+00 0. -1.
         13    1    4    4    0    0  0.30300472487E+02 -0.75059507242E+02  0.27162003091E+02  0.85380458375E+02  0.00000000000E+00 0.  1.
         21    1    1    2  502  501 -0.20711664070E+02  0.10102393110E+03  0.11829342618E+02  0.10380145004E+03  0.00000000000E+00 0. -1.
<scales pt_clust_5="13000.00000" pt_clust_6="13000.00000" pt_clust_7="13000.00000" pt_clust_8="13000.00000" pt_clust_9="107.69773"></scales>
<clustering>
<clus scale="   79.541">  5  6 -1 -1</clus>
<clus scale="   88.316">  2  5  1 -1</clus>
<clus scale="   90.773">  7  8 -1 -1</clus>
<clus scale="  107.698">  1  9  2 -1</clus>
<clus scale="  107.698">  1  5  2 -1</clus>
</clustering>
</event>
<event>
 9    2  0.2984928E-005  0.1242279E+03  0.7546771E-02  0.1239877E+00
         -1   -1    0    0    0  501 -0.00000000000E+00  0.00000000000E+00  0.41034347332E+03  0.41034347332E+03  0.00000000000E+00 0.  1.
          2   -1    0    0  502    0  0.00000000000E+00 -0.00000000000E+00 -0.69019496875E+02  0.69019496875E+02  0.00000000000E+00 0. -1.
         23    2    1    2    0    0  0.69071797565E+02 -0.35962893503E+02  0.29446550634E+03  0.31874256969E+03  0.93928953881E+02 0.  0.
         24    2    1    2    0    0 -0.89423527090E+02  0.27983133565E+02  0.56515319931E+02  0.13672219529E+03  0.81971667898E+02 0.  0.
        -13    1    4    4    0    0 -0.10189200337E+03  0.31567011182E+02  0.61139782629E+02  0.12294929673E+03  0.00000000000E+00 0.  1.
         14    1    4    4    0    0  0.12468476284E+02 -0.35838776173E+01 -0.46244626974E+01  0.13772898565E+02  0.00000000000E+00 0. -1.
        -13    1    3    3    0    0 -0.16730854771E+02 -0.28398866062E+02  0.53429805426E+02  0.62778668374E+02  0.00000000000E+00 0.  1.
         13    1    3    3    0    0  0.85802652336E+02 -0.75640274410E+01  0.24103570092E+03  0.25596390131E+03  0.00000000000E+00 0. -1.
         21    1    1    2  502  501  0.20351729525E+02  0.79797599379E+01 -0.96568498354E+01  0.23898205206E+02  0.00000000000E+00 0. -1.
<scales pt_clust_5="13000.00000" pt_clust_6="13000.00000" pt_clust_7="13000.00000" pt_clust_8="13000.00000" pt_clust_9="21.86023"></scales>
<clustering>
<clus scale="   21.860">  2  9  1 -1</clus>
<clus scale="   81.972">  5  6 -1 -1</clus>
<clus scale="   93.929">  7  8 -1 -1</clus>
<clus scale="  115.453">  2  5  1 -1</clus>
<clus scale="   21.860">  2  5  1 -1</clus>
</clustering>
</event>
<event>
 9    2  0.2984928E-005  0.1910473E+03  0.7546771E-02  0.1158237E+00
         -1   -1    0    0    0  501 -0.00000000000E+00  0.00000000000E+00  0.56862271741E+03  0.56862271741E+03  0.00000000000E+00 0.  1.
          2   -1    0    0  502    0  0.00000000000E+00 -0.00000000000E+00 -0.78305740145E+02  0.78305740145E+02  0.00000000000E+00 0. -1.
         23    2    1    2    0    0 -0.17331337921E+03  0.41979382420E+02  0.26613155721E+03  0.33210088863E+03  0.87551119489E+02 0.  0.
         24    2    1    2    0    0  0.14887960205E+03 -0.65051688777E+02  0.21235148349E+03  0.27919916956E+03  0.80387596206E+02 0.  0.
        -13    1    4    4    0    0  0.10022865432E+03 -0.32429322068E+02  0.73366182720E+02  0.12837461137E+03  0.00000000000E+00 0.  1.
         14    1    4    4    0    0  0.48650947735E+02 -0.32622366708E+02  0.13898530077E+03  0.15082455820E+03  0.00000000000E+00 0. -1.
        -13    1    3    3    0    0 -0.73798099225E+02  0.41767227622E+02  0.18570218352E+03  0.20414691209E+03  0.00000000000E+00 0.  1.
         13    1    3    3    0    0 -0.99515279981E+02  0.21215479828E+00  0.80429373695E+02  0.12795397654E+03  0.00000000000E+00 0. -1.
         21    1    1    2  502  501  0.24433777152E+02  0.23072306357E+02  0.11833936560E+02  0.35628399361E+02  0.00000000000E+00 0.  1.
<scales pt_clust_5="13000.00000" pt_clust_6="13000.00000" pt_clust_7="13000.00000" pt_clust_8="13000.00000" pt_clust_9="33.60567"></scales>
<clustering>
<clus scale="   33.606">  2  9  1 -1</clus>
<clus scale="   80.388">  5  6 -1 -1</clus>
<clus scale="   87.551">  7  8 -1 -1</clus>
<clus scale="  187.872">  2  5  1 -1</clus>
<clus scale="   33.606">  2  5  1 -1</clus>
</clustering>
</event>
<event>
 9    2  0.2984928E-005  0.1035792E+03  0.7546771E-02  0.1283116E+00
          2   -1    0    0  502    0  0.00000000000E+00  0.00000000000E+00  0.15160385617E+03  0.15160385617E+03  0.00000000000E+00 0. -1.
         -1   -1    0    0    0  501 -0.00000000000E+00 -0.00000000000E+00 -0.26177139782E+03  0.26177139782E+03  0.00000000000E+00 0.  1.
         23    2    1    2    0    0 -0.23180861813E+02 -0.17742447245E+02 -0.22731199559E+03  0.25017116397E+03  0.10031311556E+03 0.  0.
         24    2    1    2    0    0 -0.10787490614E+01 -0.31913852762E+01  0.79369572720E+02  0.11366929704E+03  0.81300869475E+02 0.  0.
        -13    1    4    4    0    0 -0.39202871477E+02 -0.14163287144E+02  0.39532039757E+02  0.57447767599E+02  0.00000000000E+00 0.  1.
         14    1    4    4    0    0  0.38124122416E+02  0.10971901868E+02  0.39837532963E+02  0.56221529445E+02  0.00000000000E+00 0. -1.
        -13    1    3    3    0    0 -0.23651350877E+02  0.36159400088E+02 -0.14872373000E+03  0.15487296884E+03  0.00000000000E+00 0.  1.
         13    1    3    3    0    0  0.47048906459E+00 -0.53901847333E+02 -0.78588265591E+02  0.95298195127E+02  0.00000000000E+00 0. -1.
         21    1    1    2  502  501  0.24259610874E+02  0.20933832521E+02  0.37774881225E+02  0.49534792978E+02  0.00000000000E+00 0.  1.
<scales pt_clust_5="13000.00000" pt_clust_6="13000.00000" pt_clust_7="13000.00000" pt_clust_8="13000.00000" pt_clust_9="32.04300"></scales>
<clustering>
<clus scale="   32.043">  1  9  2 -1</clus>
<clus scale="   81.301">  5  6 -1 -1</clus>
<clus scale="   85.298">  1  5  2 -1</clus>
<clus scale="  100.313">  7  8 -1 -1</clus>
<clus scale="   32.043">  1  5  2 -1</clus>
</clustering>
</event>
<event>
 9    2  0.2984928E-005  0.1305495E+03  0.7546771E-02  0.1227343E+00
          2   -1    0    0  502    0  0.00000000000E+00  0.00000000000E+00  0.60674795348E+03  0.60674795348E+03  0.00000000000E+00 0. -1.
         -1   -1    0    0    0  501 -0.00000000000E+00 -0.00000000000E+00 -0.14420084333E+03  0.14420084333E+03  0.00000000000E+00 0.  1.
         23    2    1    2    0    0  0.65193457436E+02 -0.50551858870E+02 -0.96045657325E+02  0.15186010510E+03  0.83851332139E+02 0.  0.
         24    2    1    2    0    0 -0.97758631620E+02  0.27350798507E+02  0.53928659925E+03  0.55468702616E+03  0.80887852197E+02 0.  0.
        -11    1    4    4    0    0 -0.32814880742E+01  0.23799263210E+02  0.41081939871E+02  0.47590953729E+02  0.00000000000E+00 0.  1.
         12    1    4    4    0    0 -0.94477143545E+02  0.35515352976E+01  0.49820465938E+03  0.50709607244E+03  0.00000000000E+00 0. -1.
        -11    1    3    3    0    0  0.22437272041E+02  0.10622712820E+02 -0.67554910268E+02  0.71971793820E+02  0.00000000000E+00 0. -1.
         11    1    3    3    0    0  0.42756185395E+02 -0.61174571690E+02 -0.28490747057E+02  0.79888311278E+02  0.00000000000E+00 0.  1.
         21    1    1    2  502  501  0.32565174183E+02  0.23201060363E+02  0.19306168227E+02  0.44401665545E+02  0.00000000000E+00 0. -1.
<scales pt_clust_5="13000.00000" pt_clust_6="13000.00000" pt_clust_7="13000.00000" pt_clust_8="13000.00000" pt_clust_9="39.98474"></scales>
<clustering>
<clus scale="   39.985">  2  9  1 -1</clus>
<clus scale="   80.888">  5  6 -1 -1</clus>
<clus scale="   83.851">  7  8 -1 -1</clus>
<clus scale="  128.666">  1  5  2 -1</clus>
<clus scale="  128.666">  1  5  2 -1</clus>
</clustering>
</event>
<event>
 9    2  0.2984928E-005  0.1793118E+03  0.7546771E-02  0.1169732E+00
         -1   -1    0    0    0  501 -0.00000000000E+00  0.00000000000E+00  0.38810257554E+02  0.38810257554E+02  0.00000000000E+00 0.  1.
          2   -1    0    0  502    0  0.00000000000E+00 -0.00000000000E+00 -0.12157156514E+04  0.12157156514E+04  0.00000000000E+00 0. -1.
         23    2    1    2    0    0  0.61814940048E+02 -0.13483756317E+03 -0.28191584574E+03  0.33139410206E+03  0.91341401058E+02 0.  0.
         24    2    1    2    0    0 -0.41388269856E+02  0.16545265892E+03 -0.72137947792E+03  0.74566352969E+03  0.80858995288E+02 0.  0.
        -11    1    4    4    0    0  0.20130158945E+02  0.13555145306E+02 -0.11467799448E+03  0.11721777886E+03  0.00000000000E+00 0.  1.
         12    1    4    4    0    0 -0.61518428801E+02  0.15189751361E+03 -0.60670148345E+03  0.62844575083E+03  0.00000000000E+00 0. -1.
        -13    1    3    3    0    0 -0.17907506304E+02 -0.26840055451E+02 -0.22596375665E+02  0.39391160834E+02  0.00000000000E+00 0. -1.
         13    1    3    3    0    0  0.79722446352E+02 -0.10799750772E+03 -0.25931947007E+03  0.29200294122E+03  0.00000000000E+00 0.  1.
         21    1    1    2  502  501 -0.20426670193E+02 -0.30615095750E+02 -0.17361007021E+03  0.17746827722E+03  0.00000000000E+00 0.  1.
<scales pt_clust_5="13000.00000" pt_clust_6="13000.00000" pt_clust_7="13000.00000" pt_clust_8="13000.00000" pt_clust_9="36.80398"></scales>
<clustering>
<clus scale="   36.804">  2  9  1 -1</clus>
<clus scale="   80.859">  5  6 -1 -1</clus>
<clus scale="   91.341">  7  8 -1 -1</clus>
<clus scale="  174.206">  2  5  1 -1</clus>
<clus scale="   36.804">  2  5  1 -1</clus>
</clustering>
</event>
<event>
 9    2  0.2984928E-005  0.1517466E+03  0.7546771E-02  0.1199947E+00
         -1   -1    0    0    0  501 -0.00000000000E+00  0.00000000000E+00  0.38279211017E+02  0.38279211017E+02  0.00000000000E+00 0.  1.
          2   -1    0    0  502    0  0.00000000000E+00 -0.00000000000E+00 -0.10418928486E+04  0.10418928486E+04  0.00000000000E+00 0. -1.
         23    2    1    2    0    0 -0.10958208210E+00 -0.12679662636E+03 -0.16292238718E+03  0.22507708885E+03  0.89658213320E+02 0.  0.
         24    2    1    2    0    0 -0.92945401762E+01  0.10617263055E+03 -0.71245136722E+03  0.72486726881E+03  0.80539374132E+02 0.  0.
        -11    1    4    4    0    0 -0.34956144130E+02  0.44268440914E+02 -0.19183280345E+03  0.19995362301E+03  0.00000000000E+00 0.  1.
         12    1    4    4    0    0  0.25661603954E+02  0.61904189639E+02 -0.52061856377E+03  0.52491364580E+03  0.00000000000E+00 0. -1.
        -11    1    3    3    0    0  0.13003752880E+02 -0.90778255569E+02 -0.47133536804E+02  0.10310848445E+03  0.00000000000E+00 0.  1.
         11    1    3    3    0    0 -0.13113334962E+02 -0.36018370790E+02 -0.11578885038E+03  0.12196860441E+03  0.00000000000E+00 0. -1.
         21    1    1    2  502  501  0.94041222582E+01  0.20623995805E+02 -0.12823988320E+03  0.13022770197E+03  0.00000000000E+00 0. -1.
<scales pt_clust_5="13000.00000" pt_clust_6="13000.00000" pt_clust_7="13000.00000" pt_clust_8="13000.00000" pt_clust_9="22.66686"></scales>
<clustering>
<clus scale="   22.667">  2  9  1 -1</clus>
<clus scale="   80.539">  5  6 -1 -1</clus>
<clus scale="   89.658">  7  8 -1 -1</clus>
<clus scale="  146.544">  2  5  1 -1</clus>
<clus scale="   22.667">  2  5  1 -1</clus>
</clustering>
</event>
<event>
 9    2  0.3049421E-005  0.9516270E+02  0.7546771E-02  0.1296160E+00
         -1   -1    0    0    0  501 -0.00000000000E+00  0.00000000000E+00  0.25200768877E+03  0.25200768877E+03  0.00000000000E+00 0.  1.
          2   -1    0    0  502    0  0.00000000000E+00 -0.00000000000E+00 -0.15074889201E+03  0.15074889201E+03  0.00000000000E+00 0. -1.
         24    2    1    2    0    0 -0.25127099043E+02  0.21391831868E+02  0.21976473477E+03  0.23620437732E+03  0.80043660838E+02 0.  0.
         23    2    1    2    0    0  0.23771207909E+01 -0.18621825075E+02 -0.10711700081E+03  0.14096036221E+03  0.89684718752E+02 0.  0.
        -13    1    3    3    0    0 -0.46118083342E+02  0.27950716627E+02  0.92650993724E+02  0.10720227054E+03  0.00000000000E+00 0.  1.
         14    1    3    3    0    0  0.20990984299E+02 -0.65588847586E+01  0.12711374105E+03  0.12900210678E+03  0.00000000000E+00 0. -1.
        -11    1    4    4    0    0 -0.14476786325E+02  0.26633263251E+02 -0.90298606800E+01  0.31629834612E+02  0.00000000000E+00 0.  1.
         11    1    4    4    0    0  0.16853907116E+02 -0.45255088326E+02 -0.98087140133E+02  0.10933052759E+03  0.00000000000E+00 0. -1.
         21    1    1    2  502  501  0.22749978253E+02 -0.27700067933E+01 -0.11388937202E+02  0.25591841253E+02  0.00000000000E+00 0.  1.
<scales pt_clust_5="13000.00000" pt_clust_6="13000.00000" pt_clust_7="13000.00000" pt_clust_8="13000.00000" pt_clust_9="22.91799"></scales>
<clustering>
<clus scale="   22.918">  2  9  1 -1</clus>
<clus scale="   80.044">  5  6 -1 -1</clus>
<clus scale="   86.137">  1  5  2 -1</clus>
<clus scale="   89.685">  7  8 -1 -1</clus>
<clus scale="   22.918">  2  5  1 -1</clus>
</clustering>
</event>
<event>
 9    2  0.2984928E-005  0.9273640E+02  0.7546771E-02  0.1304750E+00
         -1   -1    0    0    0  501 -0.00000000000E+00  0.00000000000E+00  0.96031307748E+02  0.96031307748E+02  0.00000000000E+00 0.  1.
          2   -1    0    0  502    0  0.00000000000E+00 -0.00000000000E+00 -0.36298121393E+03  0.36298121393E+03  0.00000000000E+00 0. -1.
         23    2    1    2    0    0 -0.11452285082E+02  0.49552207793E+01  0.57599398848E+02  0.10924244775E+03  0.91981044768E+02 0.  0.
         24    2    1    2    0    0 -0.12391875025E+02 -0.41310427932E+01 -0.31353225603E+03  0.32349083099E+03  0.78569829343E+02 0.  0.
        -11    1    4    4    0    0 -0.18726585721E+02 -0.10551742725E+02 -0.18612684845E+02  0.28433366393E+02  0.00000000000E+00 0.  1.
         12    1    4    4    0    0  0.63347106964E+01  0.64206999315E+01 -0.29491957118E+03  0.29505746460E+03  0.00000000000E+00 0. -1.
        -11    1    3    3    0    0 -0.47168100282E+02  0.16783655867E+02  0.50199889667E+02  0.70898164370E+02  0.00000000000E+00 0.  1.
         11    1    3    3    0    0  0.35715815199E+02 -0.11828435087E+02  0.73995091814E+01  0.38344283382E+02  0.00000000000E+00 0. -1.
         21    1    1    2  502  501  0.23844160107E+02 -0.82417798607E+00 -0.11017049003E+02  0.26279242936E+02  0.00000000000E+00 0. -1.
<scales pt_clust_5="13000.00000" pt_clust_6="13000.00000" pt_clust_7="13000.00000" pt_clust_8="13000.00000" pt_clust_9="23.85840"></scales>
<clustering>
<clus scale="   23.858">  1  9  2 -1</clus>
<clus scale="   78.570">  5  6 -1 -1</clus>
<clus scale="   79.453">  2  5  1 -1</clus>
<clus scale="   91.981">  7  8 -1 -1</clus>
<clus scale="   79.453">  2  5  1 -1</clus>
</clustering>
</event>
<event>
 9    2  0.2984928E-005  0.1129684E+03  0.7546771E-02  0.1259897E+00
         -1   -1    0    0    0  501 -0.00000000000E+00  0.00000000000E+00  0.43709281828E+02  0.43709281828E+02  0.00000000000E+00 0.  1.
          2   -1    0    0  502    0  0.00000000000E+00 -0.00000000000E+00 -0.70111119883E+03  0.70111119883E+03  0.00000000000E+00 0. -1.
         23    2    1    2    0    0  0.64130906430E+02 -0.15992709633E+02 -0.59817471929E+02  0.12883967976E+03  0.93021466407E+02 0.  0.
         24    2    1    2    0    0 -0.61614002758E+02 -0.27230729598E+02 -0.38644353338E+03  0.40044638347E+03  0.80504059373E+02 0.  0.
        -13    1    4    4    0    0 -0.55880495235E+02  0.13907384197E+02 -0.15598972040E+03  0.16627939726E+03  0.00000000000E+00 0.  1.
         14    1    4    4    0    0 -0.57335075236E+01 -0.41138113795E+02 -0.23045381298E+03  0.23416698621E+03  0.00000000000E+00 0. -1.
        -13    1    3    3    0    0  0.52512389558E+02 -0.53428635435E+02 -0.39344499217E+02  0.84617727221E+02  0.00000000000E+00 0. -1.
         13    1    3    3    0    0  0.11618516872E+02  0.37435925801E+02 -0.20472972712E+02  0.44221952542E+02  0.00000000000E+00 0.  1.
         21    1    1    2  502  501 -0.25169036718E+01  0.43223439231E+02 -0.21114091169E+03  0.21553441742E+03  0.00000000000E+00 0.  1.
<scales pt_clust_5="13000.00000" pt_clust_6="13000.00000" pt_clust_7="13000.00000" pt_clust_8="13000.00000" pt_clust_9="43.29666"></scales>
<clustering>
<clus scale="   43.297">  2  9  1 -1</clus>
<clus scale="   80.504">  5  6 -1 -1</clus>
<clus scale="   93.021">  7  8 -1 -1</clus>
<clus scale="  102.907">  2  5  1 -1</clus>
<clus scale="   43.297">  2  5  1 -1</clus>
</clustering>
</event>
<event>
 9    2  0.2984928E-005  0.1526195E+03  0.7546771E-02  0.1197926E+00
          2   -1    0    0  502    0  0.00000000000E+00  0.00000000000E+00  0.63924312551E+03  0.63924312551E+03  0.00000000000E+00 0. -1.
         -1   -1    0    0    0  501 -0.00000000000E+00 -0.00000000000E+00 -0.18585815220E+03  0.18585815220E+03  0.00000000000E+00 0.  1.
         23    2    1    2    0    0  0.51413406036E+02 -0.11638274570E+03 -0.13723449776E+03  0.20624828880E+03  0.86699293194E+02 0.  0.
         24    2    1    2    0    0 -0.69963920522E+02  0.78938883316E+02  0.51770628310E+03  0.53481432281E+03  0.82947373981E+02 0.  0.
        -11    1    4    4    0    0 -0.59426531387E+02  0.87248043602E+02  0.32657886148E+03  0.34321638439E+03  0.00000000000E+00 0.  1.
         12    1    4    4    0    0 -0.10537389134E+02 -0.83091602862E+01  0.19112742162E+03  0.19159793843E+03  0.00000000000E+00 0. -1.
        -13    1    3    3    0    0  0.56461467547E+02 -0.69711636522E+02 -0.39893101180E+02  0.98178760971E+02  0.00000000000E+00 0. -1.
         13    1    3    3    0    0 -0.50480615111E+01 -0.46671109183E+02 -0.97341396580E+02  0.10806952783E+03  0.00000000000E+00 0.  1.
         21    1    1    2  502  501  0.18550514485E+02  0.37443862389E+02  0.72913187968E+02  0.84038666089E+02  0.00000000000E+00 0.  1.
<scales pt_clust_5="13000.00000" pt_clust_6="13000.00000" pt_clust_7="13000.00000" pt_clust_8="13000.00000" pt_clust_9="41.78713"></scales>
<clustering>
<clus scale="   41.787">  1  9  2 -1</clus>
<clus scale="   82.947">  5  6 -1 -1</clus>
<clus scale="   86.699">  7  8 -1 -1</clus>
<clus scale="  150.520">  1  5  2 -1</clus>
<clus scale="   41.787">  1  5  2 -1</clus>
</clustering>
</event>
<event>
 9    2  0.2984928E-005  0.1056675E+03  0.7546771E-02  0.1274165E+00
          2   -1    0    0  502    0  0.00000000000E+00  0.00000000000E+00  0.36603560934E+03  0.36603560934E+03  0.00000000000E+00 0. -1.
         -1   -1    0    0    0  501 -0.00000000000E+00 -0.00000000000E+00 -0.80188946589E+02  0.80188946589E+02  0.00000000000E+00 0.  1.
         24    2    1    2    0    0 -0.23696091176E+02  0.57944165674E+02 -0.19478717610E+02  0.10362376105E+03  0.80246073685E+02 0.  0.
         23    2    1    2    0    0  0.37559381777E+02 -0.33793588782E+02  0.29447111383E+03  0.31271340134E+03  0.92323998474E+02 0.  0.
        -13    1    3    3    0    0 -0.29640083654E+02  0.38875448451E+02 -0.48192268149E+02  0.68646411127E+02  0.00000000000E+00 0.  1.
         14    1    3    3    0    0  0.59439924783E+01  0.19068717224E+02  0.28713550539E+02  0.34977349924E+02  0.00000000000E+00 0. -1.
        -13    1    4    4    0    0  0.62397482740E+02 -0.15934067433E+02  0.12617836925E+03  0.14166270231E+03  0.00000000000E+00 0.  1.
         13    1    4    4    0    0 -0.24838100963E+02 -0.17859521348E+02  0.16829274458E+03  0.17105069903E+03  0.00000000000E+00 0. -1.
         21    1    1    2  502  501 -0.13863290601E+02 -0.24150576893E+02  0.10854266529E+02  0.29887393537E+02  0.00000000000E+00 0.  1.
<scales pt_clust_5="13000.00000" pt_clust_6="13000.00000" pt_clust_7="13000.00000" pt_clust_8="13000.00000" pt_clust_9="27.84674"></scales>
<clustering>
<clus scale="   27.847">  2  9  1 -1</clus>
<clus scale="   80.246">  5  6 -1 -1</clus>
<clus scale="   92.324">  7  8 -1 -1</clus>
<clus scale="   95.296">  2  5  1 -1</clus>
<clus scale="  105.667">  1  5  2 -1</clus>
</clustering>
</event>
<event>
 9    2  0.2984928E-005  0.9856604E+02  0.7546771E-02  0.1290502E+00
          2   -1    0    0  502    0  0.00000000000E+00  0.00000000000E+00  0.23898468285E+03  0.23898468285E+03  0.00000000000E+00 0. -1.
         -1   -1    0    0    0  501 -0.00000000000E+00 -0.00000000000E+00 -0.69510210436E+02  0.69510210436E+02  0.00000000000E+00 0.  1.
         23    2    1    2    0    0  0.22126070994E+01 -0.25607041326E+02 -0.51604814287E+01  0.97175292260E+02  0.93572381938E+02 0.  0.
         24    2    1    2    0    0 -0.14199664812E+02  0.44878598427E+02  0.11818091784E+03  0.15047438226E+03  0.80374693140E+02 0.  0.
        -13    1    4    4    0    0 -0.31007607375E+02  0.78724918234E+01  0.10170470914E+03  0.10661752063E+03  0.00000000000E+00 0.  1.
         14    1    4    4    0    0  0.16807942563E+02  0.37006106604E+02  0.16476208694E+02  0.43856861631E+02  0.00000000000E+00 0. -1.
        -13    1    3    3    0    0  0.46728675830E+02 -0.23554757961E+02 -0.13853535660E+00  0.52329866801E+02  0.00000000000E+00 0.  1.
         13    1    3    3    0    0 -0.44516068730E+02 -0.20522833651E+01 -0.50219460721E+01  0.44845425459E+02  0.00000000000E+00 0. -1.
         21    1    1    2  502  501  0.11987057713E+02 -0.19271557102E+02  0.56454036001E+02  0.60845218765E+02  0.00000000000E+00 0.  1.
<scales pt_clust_5="13000.00000" pt_clust_6="13000.00000" pt_clust_7="13000.00000" pt_clust_8="13000.00000" pt_clust_9="22.69543"></scales>
<clustering>
<clus scale="   22.695">  1  9  2 -1</clus>
<clus scale="   80.375">  5  6 -1 -1</clus>
<clus scale="   86.137">  1  5  2 -1</clus>
<clus scale="   93.572">  7  8 -1 -1</clus>
<clus scale="   22.695">  1  5  2 -1</clus>
</clustering>
</event>
<event>
 9    2  0.2984928E-005  0.8452485E+02  0.7546771E-02  0.1316803E+00
         -1   -1    0    0    0  501 -0.00000000000E+00  0.00000000000E+00  0.12001376681E+03  0.12001376681E+03  0.00000000000E+00 0.  1.
          2   -1    0    0  502    0  0.00000000000E+00 -0.00000000000E+00 -0.51806261635E+03  0.51806261635E+03  0.00000000000E+00 0. -1.
         23    2    1    2    0    0  0.26819395750E+02 -0.10661641120E+01  0.97690168204E+02  0.12931933294E+03  0.80372285113E+02 0.  0.
         24    2    1    2    0    0 -0.87975080552E+01 -0.20353757249E+02 -0.41630978640E+03  0.42453944956E+03  0.80176270808E+02 0.  0.
        -11    1    4    4    0    0  0.87125186213E+01 -0.34267233683E+02 -0.79739761645E+02  0.87227179664E+02  0.00000000000E+00 0.  1.
         12    1    4    4    0    0 -0.17510026676E+02  0.13913476434E+02 -0.33657002475E+03  0.33731226990E+03  0.00000000000E+00 0. -1.
        -13    1    3    3    0    0  0.85699542416E+01  0.22783051852E+02 -0.27401531478E+01  0.24495305809E+02  0.00000000000E+00 0. -1.
         13    1    3    3    0    0  0.18249441508E+02 -0.23849215964E+02  0.10043032135E+03  0.10482402713E+03  0.00000000000E+00 0.  1.
         21    1    1    2  502  501 -0.18021887694E+02  0.21419921361E+02 -0.79429231347E+02  0.84217600652E+02  0.00000000000E+00 0.  1.
<scales pt_clust_5="13000.00000" pt_clust_6="13000.00000" pt_clust_7="13000.00000" pt_clust_8="13000.00000" pt_clust_9="27.99288"></scales>
<clustering>
<clus scale="   27.993">  2  9  1 -1</clus>
<clus scale="   80.176">  5  6 -1 -1</clus>
<clus scale="   80.372">  7  8 -1 -1</clus>
<clus scale="   84.338">  2  5  1 -1</clus>
<clus scale="   27.993">  2  5  1 -1</clus>
</clustering>
</event>
<event>
 9    2  0.2984928E-005  0.2441221E+03  0.7546771E-02  0.1117764E+00
          2   -1    0    0  502    0  0.00000000000E+00  0.00000000000E+00  0.18480827198E+03  0.18480827198E+03  0.00000000000E+00 0. -1.
         -1   -1    0    0    0  501 -0.00000000000E+00 -0.00000000000E+00 -0.12006683442E+04  0.12006683442E+04  0.00000000000E+00 0.  1.
         24    2    1    2    0    0 -0.17035279517E+03  0.14650359547E+03 -0.10622030306E+04  0.10886617527E+04  0.80160808548E+02 0.  0.
         23    2    1    2    0    0  0.17366586701E+03 -0.17267251881E+03  0.58070724878E+02  0.26794741640E+03  0.91912875896E+02 0.  0.
        -13    1    3    3    0    0 -0.69014209842E+02  0.12088891839E+02 -0.33039374691E+03  0.33774121818E+03  0.00000000000E+00 0.  1.
         14    1    3    3    0    0 -0.10133858533E+03  0.13441470363E+03 -0.73180928374E+03  0.75092053454E+03  0.00000000000E+00 0. -1.
        -11    1    4    4    0    0  0.48975115458E+02 -0.14297464913E+01  0.30613665115E+01  0.49091527518E+02  0.00000000000E+00 0. -1.
         11    1    4    4    0    0  0.12469075155E+03 -0.17124277232E+03  0.55009358367E+02  0.21885588888E+03  0.00000000000E+00 0.  1.
         21    1    1    2  502  501 -0.33130718359E+01  0.26168923337E+02 -0.11727766453E+02  0.28867447056E+02  0.00000000000E+00 0.  1.
<scales pt_clust_5="13000.00000" pt_clust_6="13000.00000" pt_clust_7="13000.00000" pt_clust_8="13000.00000" pt_clust_9="26.37781"></scales>
<clustering>
<clus scale="   26.378">  1  9  2 -1</clus>
<clus scale="   80.161">  5  6 -1 -1</clus>
<clus scale="   91.913">  7  8 -1 -1</clus>
<clus scale="  239.944">  2  5  1 -1</clus>
<clus scale="   26.378">  1  5  2 -1</clus>
</clustering>
</event>
<event>
 9    2  0.2984928E-005  0.1091818E+03  0.7546771E-02  0.1265236E+00
         -1   -1    0    0    0  501 -0.00000000000E+00  0.00000000000E+00  0.13505633261E+02  0.13505633261E+02  0.00000000000E+00 0.  1.
          2   -1    0    0  502    0  0.00000000000E+00 -0.00000000000E+00 -0.11536319230E+04  0.11536319230E+04  0.00000000000E+00 0. -1.
         23    2    1    2    0    0  0.32241044466E+02 -0.48376767599E+02 -0.36792733829E+03  0.38352449455E+03  0.91327515374E+02 0.  0.
         24    2    1    2    0    0 -0.11956235770E+02  0.64419343390E+02 -0.57261095978E+03  0.58235649879E+03  0.83444454856E+02 0.  0.
        -11    1    4    4    0    0 -0.46431656812E+02  0.44951262417E+02 -0.29970754231E+03  0.30659603009E+03  0.00000000000E+00 0.  1.
         12    1    4    4    0    0  0.34475421043E+02  0.19468080973E+02 -0.27290341747E+03  0.27576046871E+03  0.00000000000E+00 0. -1.
        -13    1    3    3    0    0  0.14772343586E+01  0.25410206003E+02 -0.13168886301E+03  0.13412612508E+03  0.00000000000E+00 0. -1.
         13    1    3    3    0    0  0.30763810107E+02 -0.73786973602E+02 -0.23623847529E+03  0.24939836946E+03  0.00000000000E+00 0.  1.
         21    1    1    2  502  501 -0.20284808696E+02 -0.16042575791E+02 -0.19958799161E+03  0.20125656287E+03  0.00000000000E+00 0. -1.
<scales pt_clust_5="13000.00000" pt_clust_6="13000.00000" pt_clust_7="13000.00000" pt_clust_8="13000.00000" pt_clust_9="25.86190"></scales>
<clustering>
<clus scale="   25.862">  2  9  1 -1</clus>
<clus scale="   83.444">  5  6 -1 -1</clus>
<clus scale="   91.328">  7  8 -1 -1</clus>
<clus scale="  102.679">  2  5  1 -1</clus>
<clus scale="   25.862">  2  5  1 -1</clus>
</clustering>
</event>
<event>
 9    2  0.2984928E-005  0.1641463E+03  0.7546771E-02  0.1185656E+00
         -1   -1    0    0    0  501 -0.00000000000E+00  0.00000000000E+00  0.25767443426E+03  0.25767443426E+03  0.00000000000E+00 0.  1.
          2   -1    0    0  502    0  0.00000000000E+00 -0.00000000000E+00 -0.16558199478E+03  0.16558199478E+03  0.00000000000E+00 0. -1.
         23    2    1    2    0    0 -0.11669640708E+03 -0.87217356039E+02  0.14371681137E+03  0.22411835766E+03  0.91376133373E+02 0.  0.
         24    2    1    2    0    0  0.10035485779E+03  0.64573252902E+02 -0.43223900339E+01  0.14420830598E+03  0.80848933118E+02 0.  0.
        -13    1    4    4    0    0  0.36335440924E+02  0.43176426351E+02  0.34693953041E+02  0.66243025574E+02  0.00000000000E+00 0.  1.
         14    1    4    4    0    0  0.64019416863E+02  0.21396826551E+02 -0.39016343075E+02  0.77965280407E+02  0.00000000000E+00 0. -1.
        -13    1    3    3    0    0 -0.12747072366E+03 -0.67542869151E+02  0.14065096450E+03  0.20147833228E+03  0.00000000000E+00 0.  1.
         13    1    3    3    0    0  0.10774316582E+02 -0.19674486888E+02  0.30658468682E+01  0.22640025378E+02  0.00000000000E+00 0. -1.
         21    1    1    2  502  501  0.16341549293E+02  0.22644103138E+02 -0.47301981856E+02  0.54929765408E+02  0.00000000000E+00 0. -1.
<scales pt_clust_5="13000.00000" pt_clust_6="13000.00000" pt_clust_7="13000.00000" pt_clust_8="13000.00000" pt_clust_9="27.92493"></scales>
<clustering>
<clus scale="   27.925">  2  9  1 -1</clus>
<clus scale="   80.849">  5  6 -1 -1</clus>
<clus scale="   91.376">  7  8 -1 -1</clus>
<clus scale="  158.527">  2  5  1 -1</clus>
<clus scale="   27.925">  2  5  1 -1</clus>
</clustering>
</event>
<event>
 9    2  0.2984928E-005  0.2186573E+03  0.7546771E-02  0.1135600E+00
          2   -1    0    0  502    0  0.00000000000E+00  0.00000000000E+00  0.64202569825E+03  0.64202569825E+03  0.00000000000E+00 0. -1.
         -1   -1    0    0    0  501 -0.00000000000E+00 -0.00000000000E+00 -0.25761291099E+03  0.25761291099E+03  0.00000000000E+00 0.  1.
         23    2    1    2    0    0  0.18715543418E+03 -0.72867714562E+02 -0.18271694276E+03  0.28600856136E+03  0.89880785668E+02 0.  0.
         24    2    1    2    0    0 -0.17683578792E+03  0.49853163178E+02  0.54252686541E+03  0.57839560987E+03  0.80310946029E+02 0.  0.
        -13    1    4    4    0    0 -0.15899113935E+03  0.69721090314E+02  0.46094330255E+03  0.49255247536E+03  0.00000000000E+00 0.  1.
         14    1    4    4    0    0 -0.17844648571E+02 -0.19867927136E+02  0.81583562868E+02  0.85843134505E+02  0.00000000000E+00 0. -1.
        -11    1    3    3    0    0  0.10960199760E+03 -0.47316765783E+02 -0.16294214941E+03  0.20199410451E+03  0.00000000000E+00 0.  1.
         11    1    3    3    0    0  0.77553436576E+02 -0.25550948780E+02 -0.19774793355E+02  0.84014456854E+02  0.00000000000E+00 0. -1.
         21    1    1    2  502  501 -0.10319646257E+02  0.23014551384E+02  0.24602864615E+02  0.35234438005E+02  0.00000000000E+00 0. -1.
<scales pt_clust_5="13000.00000" pt_clust_6="13000.00000" pt_clust_7="13000.00000" pt_clust_8="13000.00000" pt_clust_9="25.22231"></scales>
<clustering>
<clus scale="   25.222">  1  9  2 -1</clus>
<clus scale="   80.311">  5  6 -1 -1</clus>
<clus scale="   89.881">  7  8 -1 -1</clus>
<clus scale="  214.901">  1  5  2 -1</clus>
<clus scale="   25.222">  1  5  2 -1</clus>
</clustering>
</event>
<event>
 9    2  0.2984928E-005  0.1034492E+03  0.7546771E-02  0.1277902E+00
          2   -1    0    0  502    0  0.00000000000E+00  0.00000000000E+00  0.39089548217E+03  0.39089548217E+03  0.00000000000E+00 0. -1.
         -1   -1    0    0    0  501 -0.00000000000E+00 -0.00000000000E+00 -0.78427789163E+02  0.78427789163E+02  0.00000000000E+00 0.  1.
         23    2    1    2    0    0 -0.44733438026E+02  0.56775164104E+01 -0.20890944845E+02  0.10507499212E+03  0.92579737100E+02 0.  0.
         24    2    1    2    0    0  0.55209547281E+02  0.33940183884E+02  0.25693521760E+03  0.27753120936E+03  0.82509611152E+02 0.  0.
        -13    1    4    4    0    0  0.77234599383E+02  0.27198045843E+02  0.20101365227E+03  0.21705161929E+03  0.00000000000E+00 0.  1.
         14    1    4    4    0    0 -0.22025052102E+02  0.67421380406E+01  0.55921565340E+02  0.60479590074E+02  0.00000000000E+00 0. -1.
        -13    1    3    3    0    0  0.11820338712E+02  0.17008867794E+02  0.24207080854E+02  0.31859139260E+02  0.00000000000E+00 0.  1.
         13    1    3    3    0    0 -0.56553776738E+02 -0.11331351384E+02 -0.45098025699E+02  0.73215852856E+02  0.00000000000E+00 0. -1.
         21    1    1    2  502  501 -0.10476109255E+02 -0.39617700294E+02  0.76423420249E+02  0.86717069855E+02  0.00000000000E+00 0. -1.
<scales pt_clust_5="13000.00000" pt_clust_6="13000.00000" pt_clust_7="13000.00000" pt_clust_8="13000.00000" pt_clust_9="40.97940"></scales>
<clustering>
<clus scale="   40.979">  1  9  2 -1</clus>
<clus scale="   82.510">  5  6 -1 -1</clus>
<clus scale="   92.580">  7  8 -1 -1</clus>
<clus scale="   94.544">  1  5  2 -1</clus>
<clus scale="   40.979">  1  5  2 -1</clus>
</clustering>
</event>
<event>
 9    2  0.2984928E-005  0.1988922E+03  0.7546771E-02  0.1151986E+00
         -1   -1    0    0    0  501 -0.00000000000E+00  0.00000000000E+00  0.14561382194E+03  0.14561382194E+03  0.00000000000E+00 0.  1.
          2   -1    0    0  502    0  0.00000000000E+00 -0.00000000000E+00 -0.10414920410E+04  0.10414920410E+04  0.00000000000E+00 0. -1.
         24    2    1    2    0    0  0.10221135157E+03 -0.13450382551E+03  0.33850233184E+02  0.18838627395E+03  0.76191275484E+02 0.  0.
         23    2    1    2    0    0 -0.17718557562E+03  0.15470263217E+03 -0.47795809787E+03  0.54032502188E+03  0.90440883169E+02 0.  0.
        -13    1    3    3    0    0  0.67693573417E+02 -0.58574449173E+02  0.51297688635E+02  0.10317382826E+03  0.00000000000E+00 0.  1.
         14    1    3    3    0    0  0.34517778151E+02 -0.75929376332E+02 -0.17447455451E+02  0.85212445689E+02  0.00000000000E+00 0. -1.
        -13    1    4    4    0    0 -0.36900267739E+02  0.84757766404E+02 -0.21756318709E+03  0.23638792081E+03  0.00000000000E+00 0.  1.
         13    1    4    4    0    0 -0.14028530788E+03  0.69944865762E+02 -0.26039491078E+03  0.30393710108E+03  0.00000000000E+00 0. -1.
         21    1    1    2  502  501  0.74974224050E+02 -0.20198806660E+02 -0.45177035435E+03  0.45839456708E+03  0.00000000000E+00 0. -1.
<scales pt_clust_5="13000.00000" pt_clust_6="13000.00000" pt_clust_7="13000.00000" pt_clust_8="13000.00000" pt_clust_9="77.64745"></scales>
<clustering>
<clus scale="   76.191">  5  6 -1 -1</clus>
<clus scale="   77.647">  2  9  1 -1</clus>
<clus scale="   90.441">  7  8 -1 -1</clus>
<clus scale="  192.831">  1  5  2 -1</clus>
<clus scale="   77.647">  2  5  1 -1</clus>
</clustering>
</event>
<event>
 9    2  0.2984928E-005  0.1156232E+03  0.7546771E-02  0.1255136E+00
         -1   -1    0    0    0  501 -0.00000000000E+00  0.00000000000E+00  0.40463532172E+03  0.40463532172E+03  0.00000000000E+00 0.  1.
          2   -1    0    0  502    0  0.00000000000E+00 -0.00000000000E+00 -0.93938207500E+02  0.93938207500E+02  0.00000000000E+00 0. -1.
         23    2    1    2    0    0  0.46171059454E+02 -0.58889262351E+02  0.31013320127E+03  0.33251233465E+03  0.93713063193E+02 0.  0.
         24    2    1    2    0    0  0.17769955128E+02  0.49423050675E+02 -0.19606116064E+02  0.98349359715E+02  0.80807100715E+02 0.  0.
        -13    1    4    4    0    0  0.45010864967E+02  0.18369915911E+02  0.71425180422E+01  0.49137026158E+02  0.00000000000E+00 0.  1.
         14    1    4    4    0    0 -0.27240909840E+02  0.31053134764E+02 -0.26748634107E+02  0.49212333557E+02  0.00000000000E+00 0. -1.
        -11    1    3    3    0    0  0.43791050297E+02 -0.11538436968E+02  0.47476580571E+02  0.65611106655E+02  0.00000000000E+00 0. -1.
         11    1    3    3    0    0  0.23800091571E+01 -0.47350825383E+02  0.26265662070E+03  0.26690122800E+03  0.00000000000E+00 0.  1.
         21    1    1    2  502  501 -0.63941014582E+02  0.94662116763E+01  0.20170029016E+02  0.67711834858E+02  0.00000000000E+00 0.  1.
<scales pt_clust_5="13000.00000" pt_clust_6="13000.00000" pt_clust_7="13000.00000" pt_clust_8="13000.00000" pt_clust_9="64.63793"></scales>
<clustering>
<clus scale="   64.638">  2  9  1 -1</clus>
<clus scale="   80.807">  5  6 -1 -1</clus>
<clus scale="   93.713">  7  8 -1 -1</clus>
<clus scale="  105.434">  2  5  1 -1</clus>
<clus scale="   64.638">  2  5  1 -1</clus>
</clustering>
</event>
<event>
 9    2  0.2984928E-005  0.1134082E+03  0.7546771E-02  0.1258341E+00
          2   -1    0    0  502    0  0.00000000000E+00  0.00000000000E+00  0.37923993942E+03  0.37923993942E+03  0.00000000000E+00 0. -1.
         -1   -1    0    0    0  501 -0.00000000000E+00 -0.00000000000E+00 -0.23903980330E+03  0.23903980330E+03  0.00000000000E+00 0.  1.
         23    2    1    2    0    0 -0.43660489741E+01  0.67152481928E+02 -0.21437783292E+03  0.24291269874E+03  0.92304960591E+02 0.  0.
         24    2    1    2    0    0 -0.67811336225E+01 -0.37525785902E+02  0.28576860704E+03  0.29962584585E+03  0.81595234844E+02 0.  0.
        -13    1    4    4    0    0  0.19120881388E+02 -0.41554499757E+02  0.79677269397E+02  0.91874108506E+02  0.00000000000E+00 0.  1.
         14    1    4    4    0    0 -0.25902015011E+02  0.40287138552E+01  0.20609133764E+03  0.20775173734E+03  0.00000000000E+00 0. -1.
        -11    1    3    3    0    0 -0.40971797261E+01  0.36851039453E+02 -0.20884279943E+03  0.21210870058E+03  0.00000000000E+00 0.  1.
         11    1    3    3    0    0 -0.26886924801E+00  0.30301442474E+02 -0.55350334914E+01  0.30803998157E+02  0.00000000000E+00 0. -1.
         21    1    1    2  502  501  0.11147182597E+02 -0.29626696026E+02  0.68809361993E+02  0.75741198136E+02  0.00000000000E+00 0. -1.
<scales pt_clust_5="13000.00000" pt_clust_6="13000.00000" pt_clust_7="13000.00000" pt_clust_8="13000.00000" pt_clust_9="31.65440"></scales>
<clustering>
<clus scale="   31.654">  1  9  2 -1</clus>
<clus scale="   81.595">  5  6 -1 -1</clus>
<clus scale="   92.305">  7  8 -1 -1</clus>
<clus scale="  104.876">  1  5  2 -1</clus>
<clus scale="   31.654">  1  5  2 -1</clus>
</clustering>
</event>
<event>
 9    2  0.2984928E-005  0.1043549E+03  0.7546771E-02  0.1276895E+00
         -1   -1    0    0    0  501 -0.00000000000E+00  0.00000000000E+00  0.37024269588E+03  0.37024269588E+03  0.00000000000E+00 0.  1.
          2   -1    0    0  502    0  0.00000000000E+00 -0.00000000000E+00 -0.93986398068E+02  0.93986398068E+02  0.00000000000E+00 0. -1.
         23    2    1    2    0    0 -0.27096478432E+02  0.51475090191E+02  0.20895081708E+03  0.23558630220E+03  0.91959544226E+02 0.  0.
         24    2    1    2    0    0  0.29622587774E+02 -0.28838858757E+02  0.13218043534E+03  0.15988568349E+03  0.79891093490E+02 0.  0.
        -11    1    4    4    0    0  0.34298471349E+02  0.18306477361E+02  0.82691822913E+02  0.91375323949E+02  0.00000000000E+00 0.  1.
         12    1    4    4    0    0 -0.46758835750E+01 -0.47145336119E+02  0.49488612423E+02  0.68510359541E+02  0.00000000000E+00 0. -1.
        -13    1    3    3    0    0 -0.49589690149E+02  0.54926466955E+02  0.19576780422E+03  0.20928709303E+03  0.00000000000E+00 0.  1.
         13    1    3    3    0    0  0.22493211717E+02 -0.34513767636E+01  0.13183012858E+02  0.26299209169E+02  0.00000000000E+00 0. -1.
         21    1    1    2  502  501 -0.25261093414E+01 -0.22636231434E+02 -0.64874954598E+02  0.68757108258E+02  0.00000000000E+00 0. -1.
<scales pt_clust_5="13000.00000" pt_clust_6="13000.00000" pt_clust_7="13000.00000" pt_clust_8="13000.00000" pt_clust_9="22.77675"></scales>
<clustering>
<clus scale="   22.777">  2  9  1 -1</clus>
<clus scale="   79.891">  5  6 -1 -1</clus>
<clus scale="   91.960">  7  8 -1 -1</clus>
<clus scale="   93.893">  2  5  1 -1</clus>
<clus scale="   22.777">  2  5  1 -1</clus>
</clustering>
</event>
<event>
 9    2  0.2984928E-005  0.1217140E+03  0.7546771E-02  0.1243377E+00
          2   -1    0    0  502    0  0.00000000000E+00  0.00000000000E+00  0.27069270061E+03  0.27069270061E+03  0.00000000000E+00 0. -1.
         -1   -1    0    0    0  501 -0.00000000000E+00 -0.00000000000E+00 -0.51161517203E+03  0.51161517203E+03  0.00000000000E+00 0.  1.
         24    2    1    2    0    0  0.78691349251E+02 -0.30961932457E+02 -0.43946428282E+03  0.45482252873E+03  0.81140045975E+02 0.  0.
         23    2    1    2    0    0 -0.58152360592E+02  0.59594660805E+01 -0.16876410954E+02  0.10965058106E+03  0.91220745454E+02 0.  0.
        -11    1    3    3    0    0  0.86387923022E+02 -0.20396867522E+02 -0.42897728407E+03  0.43806439675E+03  0.00000000000E+00 0.  1.
         12    1    3    3    0    0 -0.76965737712E+01 -0.10565064935E+02 -0.10486998748E+02  0.16758131986E+02  0.00000000000E+00 0. -1.
        -13    1    4    4    0    0 -0.60098471339E+02 -0.30164324945E+02 -0.26402341687E+02  0.72241237553E+02  0.00000000000E+00 0. -1.
         13    1    4    4    0    0  0.19461107465E+01  0.36123791026E+02  0.95259307330E+01  0.37409343504E+02  0.00000000000E+00 0.  1.
         21    1    1    2  502  501 -0.20538988659E+02  0.25002466377E+02  0.21541822236E+03  0.21783476285E+03  0.00000000000E+00 0. -1.
<scales pt_clust_5="13000.00000" pt_clust_6="13000.00000" pt_clust_7="13000.00000" pt_clust_8="13000.00000" pt_clust_9="32.35697"></scales>
<clustering>
<clus scale="   32.357">  1  9  2 -1</clus>
<clus scale="   81.140">  5  6 -1 -1</clus>
<clus scale="   91.221">  7  8 -1 -1</clus>
<clus scale="  114.354">  2  5  1 -1</clus>
<clus scale="   32.357">  1  5  2 -1</clus>
</clustering>
</event>
<event>
 9    2  0.2984928E-005  0.1666277E+03  0.7546771E-02  0.1205747E+00
          2   -1    0    0  502    0  0.00000000000E+00  0.00000000000E+00  0.65902818956E+03  0.65902818956E+03  0.00000000000E+00 0. -1.
         -1   -1    0    0    0  501 -0.00000000000E+00 -0.00000000000E+00 -0.80614851594E+02  0.80614851594E+02  0.00000000000E+00 0.  1.
         24    2    1    2    0    0 -0.21425930106E+02 -0.52304414430E+02  0.16403206100E+02  0.99011608575E+02  0.79620419570E+02 0.  0.
         23    2    1    2    0    0  0.50852855775E+02 -0.10181650670E+03  0.25745577784E+03  0.29803464795E+03  0.97921192063E+02 0.  0.
        -13    1    3    3    0    0 -0.26647136466E+02 -0.68854381697E+02 -0.18118630652E+01  0.73853088009E+02  0.00000000000E+00 0.  1.
         14    1    3    3    0    0  0.52212063600E+01  0.16549967267E+02  0.18215069165E+02  0.25158520566E+02  0.00000000000E+00 0. -1.
        -11    1    4    4    0    0  0.80048853978E+02 -0.66390761583E+02  0.17080556388E+03  0.19997523072E+03  0.00000000000E+00 0.  1.
         11    1    4    4    0    0 -0.29195998204E+02 -0.35425745120E+02  0.86650213959E+02  0.98059417230E+02  0.00000000000E+00 0. -1.
         21    1    1    2  502  501 -0.29426925668E+02  0.15412092113E+03  0.30455435403E+03  0.34259678464E+03  0.00000000000E+00 0. -1.
<scales pt_clust_5="13000.00000" pt_clust_6="13000.00000" pt_clust_7="13000.00000" pt_clust_8="13000.00000" pt_clust_9="134.81923"></scales>
<clustering>
<clus scale="   79.620">  5  6 -1 -1</clus>
<clus scale="   97.643">  2  5  1 -1</clus>
<clus scale="   97.921">  7  8 -1 -1</clus>
<clus scale="  134.819">  2  9  1 -1</clus>
<clus scale="  166.628">  1  5  2 -1</clus>
</clustering>
</event>
<event>
 9    2  0.2984928E-005  0.9218546E+02  0.7546771E-02  0.1305831E+00
         -1   -1    0    0    0  501 -0.00000000000E+00  0.00000000000E+00  0.41901578096E+03  0.41901578096E+03  0.00000000000E+00 0.  1.
          2   -1    0    0  502    0  0.00000000000E+00 -0.00000000000E+00 -0.25884611975E+02  0.25884611975E+02  0.00000000000E+00 0. -1.
         23    2    1    2    0    0  0.54487707534E+01  0.16347343419E+02  0.21637722648E+03  0.23573128937E+03  0.91941350360E+02 0.  0.
         24    2    1    2    0    0  0.14551841062E+02  0.74264764980E+01  0.12384330105E+03  0.14781150448E+03  0.79020054493E+02 0.  0.
        -13    1    4    4    0    0  0.29576556098E+02 -0.17400550747E+02  0.11080624465E+03  0.11599817107E+03  0.00000000000E+00 0.  1.
         14    1    4    4    0    0 -0.15024715036E+02  0.24827027245E+02  0.13037056397E+02  0.31813333419E+02  0.00000000000E+00 0. -1.
        -13    1    3    3    0    0  0.32177628078E+02  0.43895221993E+02  0.11209559387E+03  0.12460984081E+03  0.00000000000E+00 0. -1.
         13    1    3    3    0    0 -0.26728857325E+02 -0.27547878575E+02  0.10428163262E+03  0.11112144856E+03  0.00000000000E+00 0.  1.
         21    1    1    2  502  501 -0.20000611815E+02 -0.23773819917E+02  0.52910641458E+02  0.61357599089E+02  0.00000000000E+00 0.  1.
<scales pt_clust_5="13000.00000" pt_clust_6="13000.00000" pt_clust_7="13000.00000" pt_clust_8="13000.00000" pt_clust_9="31.06797"></scales>
<clustering>
<clus scale="   31.068">  2  9  1 -1</clus>
<clus scale="   79.020">  5  6 -1 -1</clus>
<clus scale="   79.304">  2  5  1 -1</clus>
<clus scale="   91.941">  7  8 -1 -1</clus>
<clus scale="   31.068">  2  5  1 -1</clus>
</clustering>
</event>
<event>
 9    2  0.2984928E-005  0.1296267E+03  0.7546771E-02  0.1231152E+00
         -1   -1    0    0    0  501 -0.00000000000E+00  0.00000000000E+00  0.31356269107E+02  0.31356269107E+02  0.00000000000E+00 0.  1.
          2   -1    0    0  502    0  0.00000000000E+00 -0.00000000000E+00 -0.66456547891E+03  0.66456547891E+03  0.00000000000E+00 0. -1.
         24    2    1    2    0    0  0.63133207026E+02  0.49486554431E+02 -0.15410061495E+03  0.19090911723E+03  0.79149040501E+02 0.  0.
         23    2    1    2    0    0 -0.71021597757E+02 -0.68560035363E+02 -0.44769805872E+03  0.46742744537E+03  0.91160951659E+02 0.  0.
        -13    1    3    3    0    0  0.26268166142E+02  0.14674530247E+02 -0.15235907213E+01  0.30127723431E+02  0.00000000000E+00 0.  1.
         14    1    3    3    0    0  0.36865040883E+02  0.34812024184E+02 -0.15257702423E+03  0.16078139379E+03  0.00000000000E+00 0. -1.
        -11    1    4    4    0    0 -0.11857111259E+02 -0.57598119034E+02 -0.11322824261E+03  0.12758828053E+03  0.00000000000E+00 0. -1.
         11    1    4    4    0    0 -0.59164486499E+02 -0.10961916329E+02 -0.33446981611E+03  0.33983916484E+03  0.00000000000E+00 0.  1.
         21    1    1    2  502  501  0.78883907317E+01  0.19073480932E+02 -0.31410536132E+02  0.37585185423E+02  0.00000000000E+00 0.  1.
<scales pt_clust_5="13000.00000" pt_clust_6="13000.00000" pt_clust_7="13000.00000" pt_clust_8="13000.00000" pt_clust_9="20.64036"></scales>
<clustering>
<clus scale="   20.640">  1  9  2 -1</clus>
<clus scale="   79.149">  5  6 -1 -1</clus>
<clus scale="   91.161">  7  8 -1 -1</clus>
<clus scale="  121.480">  1  5  2 -1</clus>
<clus scale="  129.627">  2  5  1 -1</clus>
</clustering>
</event>
<event>
 9    2  0.2984928E-005  0.1104097E+03  0.7546771E-02  0.1265080E+00
         -1   -1    0    0    0  501 -0.00000000000E+00  0.00000000000E+00  0.17438879351E+03  0.17438879351E+03  0.00000000000E+00 0.  1.
          2   -1    0    0  502    0  0.00000000000E+00 -0.00000000000E+00 -0.38240842999E+03  0.38240842999E+03  0.00000000000E+00 0. -1.
         23    2    1    2    0    0  0.67376681489E+01 -0.53847828755E+02  0.13326396226E+03  0.17220725488E+03  0.94610095452E+02 0.  0.
         24    2    1    2    0    0  0.25648360735E+02  0.88608597794E+02 -0.19402440473E+03  0.22985653282E+03  0.81726580994E+02 0.  0.
        -13    1    4    4    0    0 -0.29775091024E+02  0.25402154660E+02 -0.58967847384E+02  0.70774518945E+02  0.00000000000E+00 0.  1.
         14    1    4    4    0    0  0.55423451758E+02  0.63206443134E+02 -0.13505655734E+03  0.15908201388E+03  0.00000000000E+00 0. -1.
        -13    1    3    3    0    0  0.38149249295E+02 -0.15653601245E+02  0.11015910389E+03  0.11762409882E+03  0.00000000000E+00 0.  1.
         13    1    3    3    0    0 -0.31411581146E+02 -0.38194227509E+02  0.23104858377E+02  0.54583156062E+02  0.00000000000E+00 0. -1.
         21    1    1    2  502  501 -0.32386028884E+02 -0.34760769040E+02 -0.14725919402E+03  0.15473343580E+03  0.00000000000E+00 0.  1.
<scales pt_clust_5="13000.00000" pt_clust_6="13000.00000" pt_clust_7="13000.00000" pt_clust_8="13000.00000" pt_clust_9="47.50964"></scales>
<clustering>
<clus scale="   47.510">  2  9  1 -1</clus>
<clus scale="   81.727">  5  6 -1 -1</clus>
<clus scale="   94.610">  7  8 -1 -1</clus>
<clus scale="   99.592">  2  5  1 -1</clus>
<clus scale="   47.510">  2  5  1 -1</clus>
</clustering>
</event>
<event>
 9    2  0.2984928E-005  0.1179797E+03  0.7546771E-02  0.1249004E+00
          2   -1    0    0  502    0  0.00000000000E+00  0.00000000000E+00  0.12184878704E+04  0.12184878704E+04  0.00000000000E+00 0. -1.
         -1   -1    0    0    0  501 -0.00000000000E+00 -0.00000000000E+00 -0.35158183097E+02  0.35158183097E+02  0.00000000000E+00 0.  1.
         23    2    1    2    0    0  0.65576713907E+02  0.43197129407E+02  0.82219353176E+02  0.14524844927E+03  0.90392436536E+02 0.  0.
         24    2    1    2    0    0 -0.41857494353E+02 -0.32934180200E+02  0.95236828901E+03  0.95742699289E+03  0.82609798082E+02 0.  0.
        -13    1    4    4    0    0 -0.15761168084E+02 -0.21241100769E+02  0.73855706358E+02  0.78449118178E+02  0.00000000000E+00 0.  1.
         14    1    4    4    0    0 -0.26096326269E+02 -0.11693079431E+02  0.87851258265E+03  0.87897787471E+03  0.00000000000E+00 0. -1.
        -11    1    3    3    0    0  0.33192050574E+02 -0.57662629395E+01  0.79657263793E+02  0.86488390461E+02  0.00000000000E+00 0. -1.
         11    1    3    3    0    0  0.32384663333E+02  0.48963392346E+02  0.25620893835E+01  0.58760058809E+02  0.00000000000E+00 0.  1.
         21    1    1    2  502  501 -0.23719219554E+02 -0.10262949206E+02  0.14874204513E+03  0.15097061135E+03  0.00000000000E+00 0. -1.
<scales pt_clust_5="13000.00000" pt_clust_6="13000.00000" pt_clust_7="13000.00000" pt_clust_8="13000.00000" pt_clust_9="25.84433"></scales>
<clustering>
<clus scale="   25.844">  1  9  2 -1</clus>
<clus scale="   82.610">  5  6 -1 -1</clus>
<clus scale="   90.392">  7  8 -1 -1</clus>
<clus scale="  112.128">  1  5  2 -1</clus>
<clus scale="   25.844">  1  5  2 -1</clus>
</clustering>
</event>
<event>
 9    2  0.2984928E-005  0.9378788E+02  0.7546771E-02  0.1300854E+00
          2   -1    0    0  502    0  0.00000000000E+00  0.00000000000E+00  0.20343367698E+03  0.20343367698E+03  0.00000000000E+00 0. -1.
         -1   -1    0    0    0  501 -0.00000000000E+00 -0.00000000000E+00 -0.28091626394E+03  0.28091626394E+03  0.00000000000E+00 0.  1.
         23    2    1    2    0    0  0.99791373073E+01  0.66436021877E+02 -0.23183457989E+03  0.25764384971E+03  0.90109670265E+02 0.  0.
         24    2    1    2    0    0 -0.73290577727E+01 -0.23273918969E+02  0.16312570670E+03  0.18258162971E+03  0.78298562754E+02 0.  0.
        -13    1    4    4    0    0 -0.39552087634E+02 -0.62629861264E+01  0.11783156097E+03  0.12445026875E+03  0.00000000000E+00 0.  1.
         14    1    4    4    0    0  0.32223029861E+02 -0.17010932843E+02  0.45294145727E+02  0.58131360957E+02  0.00000000000E+00 0. -1.
        -13    1    3    3    0    0  0.50226949373E+02  0.36002011252E+02 -0.12118378609E+03  0.13603088351E+03  0.00000000000E+00 0.  1.
         13    1    3    3    0    0 -0.40247812066E+02  0.30434010624E+02 -0.11065079381E+03  0.12161296620E+03  0.00000000000E+00 0. -1.
         21    1    1    2  502  501 -0.26500795346E+01 -0.43162102907E+02 -0.87737137695E+01  0.44124461495E+02  0.00000000000E+00 0. -1.
<scales pt_clust_5="13000.00000" pt_clust_6="13000.00000" pt_clust_7="13000.00000" pt_clust_8="13000.00000" pt_clust_9="43.24338"></scales>
<clustering>
<clus scale="   43.243">  2  9  1 -1</clus>
<clus scale="   78.299">  5  6 -1 -1</clus>
<clus scale="   82.505">  1  5  2 -1</clus>
<clus scale="   90.110">  7  8 -1 -1</clus>
<clus scale="   82.505">  1  5  2 -1</clus>
</clustering>
</event>
<event>
 9    2  0.2984928E-005  0.1216632E+03  0.7546771E-02  0.1242637E+00
          2   -1    0    0  502    0  0.00000000000E+00  0.00000000000E+00  0.71124851112E+03  0.71124851112E+03  0.00000000000E+00 0. -1.
         -1   -1    0    0    0  501 -0.00000000000E+00 -0.00000000000E+00 -0.34371290423E+02  0.34371290423E+02  0.00000000000E+00 0.  1.
         23    2    1    2    0    0  0.56299953754E+02 -0.42629073234E+02  0.10650937028E+03  0.15577489075E+03  0.89076640889E+02 0.  0.
         24    2    1    2    0    0 -0.80488188849E+02  0.32496761821E+02  0.51496777549E+03  0.52855133239E+03  0.81488116379E+02 0.  0.
        -11    1    4    4    0    0 -0.26600354773E+02  0.21879978886E+02  0.52222551953E+02  0.62558031319E+02  0.00000000000E+00 0.  1.
         12    1    4    4    0    0 -0.53887834076E+02  0.10616782936E+02  0.46274522354E+03  0.46599330108E+03  0.00000000000E+00 0. -1.
        -13    1    3    3    0    0  0.56871490354E+02 -0.65619668754E+02  0.65541360500E+02  0.10879327773E+03  0.00000000000E+00 0.  1.
         13    1    3    3    0    0 -0.57153659942E+00  0.22990595520E+02  0.40968009783E+02  0.46981613021E+02  0.00000000000E+00 0. -1.
         21    1    1    2  502  501  0.24188235095E+02  0.10132311412E+02  0.55400074929E+02  0.61293578405E+02  0.00000000000E+00 0.  1.
<scales pt_clust_5="13000.00000" pt_clust_6="13000.00000" pt_clust_7="13000.00000" pt_clust_8="13000.00000" pt_clust_9="26.22469"></scales>
<clustering>
<clus scale="   26.225">  2  9  1 -1</clus>
<clus scale="   81.488">  5  6 -1 -1</clus>
<clus scale="   89.077">  7  8 -1 -1</clus>
<clus scale="  116.222">  1  5  2 -1</clus>
<clus scale="  116.222">  1  5  2 -1</clus>
</clustering>
</event>
<event>
 9    2  0.2984928E-005  0.1006225E+03  0.7546771E-02  0.1285622E+00
          2   -1    0    0  502    0  0.00000000000E+00  0.00000000000E+00  0.82273429490E+03  0.82273429490E+03  0.00000000000E+00 0. -1.
         -1   -1    0    0    0  501 -0.00000000000E+00 -0.00000000000E+00 -0.80646252580E+02  0.80646252580E+02  0.00000000000E+00 0.  1.
         23    2    1    2    0    0  0.36866501443E+02 -0.19815966702E+02 -0.43583332221E+02  0.10970239598E+03  0.91560348254E+02 0.  0.
         24    2    1    2    0    0 -0.43754801223E+02  0.82696263827E+00  0.69613049866E+03  0.70188708765E+03  0.78311213375E+02 0.  0.
        -11    1    4    4    0    0 -0.23564062286E+02  0.29790159550E+02  0.15425457839E+03  0.15886218428E+03  0.00000000000E+00 0.  1.
         12    1    4    4    0    0 -0.20190738937E+02 -0.28963196912E+02  0.54187592027E+03  0.54302490337E+03  0.00000000000E+00 0. -1.
        -13    1    3    3    0    0  0.30250213581E+02  0.17313494877E+02  0.16656972041E+02  0.38630133887E+02  0.00000000000E+00 0. -1.
         13    1    3    3    0    0  0.66162878626E+01 -0.37129461579E+02 -0.60240304262E+02  0.71072262098E+02  0.00000000000E+00 0.  1.
         21    1    1    2  502  501  0.68882997802E+01  0.18989004063E+02  0.89540875878E+02  0.91791063847E+02  0.00000000000E+00 0. -1.
<scales pt_clust_5="13000.00000" pt_clust_6="13000.00000" pt_clust_7="13000.00000" pt_clust_8="13000.00000" pt_clust_9="20.19978"></scales>
<clustering>
<clus scale="   20.200">  1  9  2 -1</clus>
<clus scale="   78.311">  5  6 -1 -1</clus>
<clus scale="   88.737">  1  5  2 -1</clus>
<clus scale="   91.560">  7  8 -1 -1</clus>
<clus scale="   20.200">  1  5  2 -1</clus>
</clustering>
</event>
<event>
 9    2  0.2984928E-005  0.2109956E+03  0.7546771E-02  0.1141263E+00
         -3   -1    0    0    0  501 -0.00000000000E+00  0.00000000000E+00  0.41454983705E+03  0.41454983705E+03  0.00000000000E+00 0.  1.
          4   -1    0    0  502    0  0.00000000000E+00 -0.00000000000E+00 -0.20206729840E+03  0.20206729840E+03  0.00000000000E+00 0. -1.
         24    2    1    2    0    0 -0.75515826849E+02  0.15278653271E+03  0.19408833603E+03  0.27519868772E+03  0.94961417742E+02 0.  0.
         23    2    1    2    0    0  0.66987222776E+02 -0.22481736233E+03  0.59560678204E+02  0.25801667188E+03  0.89414731216E+02 0.  0.
        -13    1    3    3    0    0 -0.80275185258E+02  0.62566410451E+02  0.78739138787E+02  0.12867988600E+03  0.00000000000E+00 0.  1.
         14    1    3    3    0    0  0.47593584089E+01  0.90220122255E+02  0.11534919724E+03  0.14651880172E+03  0.00000000000E+00 0. -1.
        -13    1    4    4    0    0  0.83804820320E+02 -0.15703269527E+03  0.61011188424E+02  0.18816184630E+03  0.00000000000E+00 0.  1.
         13    1    4    4    0    0 -0.16817597544E+02 -0.67784667064E+02 -0.14505102201E+01  0.69854825574E+02  0.00000000000E+00 0. -1.
         21    1    1    2  502  501  0.85286040733E+01  0.72030829623E+02 -0.41166475590E+02  0.83401775857E+02  0.00000000000E+00 0. -1.
<scales pt_clust_5="13000.00000" pt_clust_6="13000.00000" pt_clust_7="13000.00000" pt_clust_8="13000.00000" pt_clust_9="72.53397"></scales>
<clustering>
<clus scale="   72.534">  2  9  1 -1</clus>
<clus scale="   89.415">  7  8 -1 -1</clus>
<clus scale="   94.961">  5  6 -1 -1</clus>
<clus scale="  208.558">  2  7  1 -1</clus>
<clus scale="   72.534">  2  5  1 -1</clus>
</clustering>
</event>
<event>
 9    2  0.2984928E-005  0.1020403E+03  0.7546771E-02  0.1276521E+00
          2   -1    0    0  502    0  0.00000000000E+00  0.00000000000E+00  0.74876537746E+03  0.74876537746E+03  0.00000000000E+00 0. -1.
         -1   -1    0    0    0  501 -0.00000000000E+00 -0.00000000000E+00 -0.11910498999E+03  0.11910498999E+03  0.00000000000E+00 0.  1.
         23    2    1    2    0    0 -0.83057284643E+01  0.51049868373E+02 -0.72633865704E+02  0.12677970185E+03  0.90124026589E+02 0.  0.
         24    2    1    2    0    0  0.83701600954E+02  0.18372317653E+02  0.23149369187E+03  0.25926378172E+03  0.79277229242E+02 0.  0.
        -13    1    4    4    0    0  0.45619111721E+02  0.37929811713E+02  0.67929335744E+02  0.90189625930E+02  0.00000000000E+00 0.  1.
         14    1    4    4    0    0  0.38082489234E+02 -0.19557494061E+02  0.16356435612E+03  0.16907415578E+03  0.00000000000E+00 0. -1.
        -13    1    3    3    0    0  0.17348177358E+01  0.75037212550E+02 -0.65987790744E+02  0.99939888869E+02  0.00000000000E+00 0.  1.
         13    1    3    3    0    0 -0.10040546200E+02 -0.23987344177E+02 -0.66460749597E+01  0.26839812984E+02  0.00000000000E+00 0. -1.
         21    1    1    2  502  501 -0.75395872490E+02 -0.69422186026E+02  0.47080056131E+03  0.48182688388E+03  0.00000000000E+00 0. -1.
<scales pt_clust_5="13000.00000" pt_clust_6="13000.00000" pt_clust_7="13000.00000" pt_clust_8="13000.00000" pt_clust_9="102.48891"></scales>
<clustering>
<clus scale="   79.277">  5  6 -1 -1</clus>
<clus scale="   90.124">  7  8 -1 -1</clus>
<clus scale="  102.489">  1  9  2 -1</clus>
<clus scale="  102.489">  1  5  2 -1</clus>
<clus scale="  102.040">  1  5  2 -1</clus>
</clustering>
</event>
<event>
 9    2  0.2984928E-005  0.2162661E+03  0.7546771E-02  0.1145906E+00
          2   -1    0    0  502    0  0.00000000000E+00  0.00000000000E+00  0.99222261921E+03  0.99222261921E+03  0.00000000000E+00 0. -1.
         -1   -1    0    0    0  501 -0.00000000000E+00 -0.00000000000E+00 -0.12112265934E+03  0.12112265934E+03  0.00000000000E+00 0.  1.
         23    2    1    2    0    0 -0.10656395598E+03 -0.10084521937E+03  0.56163813636E+02  0.18215422622E+03  0.92196275316E+02 0.  0.
         24    2    1    2    0    0  0.22646222114E+03 -0.49643214590E+02  0.56965711190E+03  0.61944729950E+03  0.73865725241E+02 0.  0.
        -13    1    4    4    0    0  0.10576332670E+03  0.66992922364E+01  0.19693144299E+03  0.22363531705E+03  0.00000000000E+00 0.  1.
         14    1    4    4    0    0  0.12069889444E+03 -0.56342506827E+02  0.37272566890E+03  0.39581198245E+03  0.00000000000E+00 0. -1.
        -13    1    3    3    0    0 -0.64669657063E+02 -0.10496706685E+03  0.64648787807E+02  0.13921104637E+03  0.00000000000E+00 0. -1.
         13    1    3    3    0    0 -0.41894298922E+02  0.41218474743E+01 -0.84849741704E+01  0.42943179848E+02  0.00000000000E+00 0.  1.
         21    1    1    2  502  501 -0.11989826515E+03  0.15048843396E+03  0.24527903433E+03  0.31174375282E+03  0.00000000000E+00 0.  1.
<scales pt_clust_5="13000.00000" pt_clust_6="13000.00000" pt_clust_7="13000.00000" pt_clust_8="13000.00000" pt_clust_9="203.26060"></scales>
<clustering>
<clus scale="   73.866">  5  6 -1 -1</clus>
<clus scale="   92.196">  7  8 -1 -1</clus>
<clus scale="  173.280">  2  7  1 -1</clus>
<clus scale="  203.261">  2  9  1 -1</clus>
<clus scale="  216.266">  1  5  2 -1</clus>
</clustering>
</event>
<event>
 9    2  0.2984928E-005  0.1112272E+03  0.7546771E-02  0.1263409E+00
          2   -1    0    0  502    0  0.00000000000E+00  0.00000000000E+00  0.15474200970E+04  0.15474200970E+04  0.00000000000E+00 0. -1.
         -1   -1    0    0    0  501 -0.00000000000E+00 -0.00000000000E+00 -0.15925751210E+02  0.15925751210E+02  0.00000000000E+00 0.  1.
         23    2    1    2    0    0  0.14525393133E+01 -0.61925140850E+02  0.22982384298E+03  0.25488219223E+03  0.91154265811E+02 0.  0.
         24    2    1    2    0    0  0.16773639413E+02  0.72502274347E+02  0.11865769020E+04  0.11914567916E+04  0.77888428740E+02 0.  0.
        -13    1    4    4    0    0  0.23135977762E+01  0.51837291889E+02  0.29537491336E+03  0.29989797766E+03  0.00000000000E+00 0.  1.
         14    1    4    4    0    0  0.14460041637E+02  0.20664982458E+02  0.89120198860E+03  0.89155881398E+03  0.00000000000E+00 0. -1.
        -13    1    3    3    0    0  0.34436635566E+02 -0.28124772767E+02  0.18319934723E+03  0.18851760008E+03  0.00000000000E+00 0.  1.
         13    1    3    3    0    0 -0.32984096253E+02 -0.33800368083E+02  0.46624495742E+02  0.66364592151E+02  0.00000000000E+00 0. -1.
         21    1    1    2  502  501 -0.18226178726E+02 -0.10577133497E+02  0.11509360089E+03  0.11700686437E+03  0.00000000000E+00 0. -1.
<scales pt_clust_5="13000.00000" pt_clust_6="13000.00000" pt_clust_7="13000.00000" pt_clust_8="13000.00000" pt_clust_9="21.07295"></scales>
<clustering>
<clus scale="   21.073">  1  9  2 -1</clus>
<clus scale="   77.888">  5  6 -1 -1</clus>
<clus scale="   91.154">  7  8 -1 -1</clus>
<clus scale="  100.643">  1  5  2 -1</clus>
<clus scale="   21.073">  1  5  2 -1</clus>
</clustering>
</event>
<event>
 9    2  0.2984928E-005  0.9836693E+02  0.7546771E-02  0.1288793E+00
          2   -1    0    0  502    0  0.00000000000E+00  0.00000000000E+00  0.85467489335E+03  0.85467489335E+03  0.00000000000E+00 0. -1.
         -1   -1    0    0    0  501 -0.00000000000E+00 -0.00000000000E+00 -0.16398366835E+02  0.16398366835E+02  0.00000000000E+00 0.  1.
         23    2    1    2    0    0 -0.25390027701E+02 -0.32534625495E+02  0.19901565596E+03  0.22272536342E+03  0.91083482740E+02 0.  0.
         24    2    1    2    0    0  0.43661127240E+01  0.30036808095E+02  0.50165843362E+03  0.50912622194E+03  0.81406713864E+02 0.  0.
        -13    1    4    4    0    0  0.13522249204E+02  0.51526820566E+02  0.21437924790E+03  0.22089890536E+03  0.00000000000E+00 0.  1.
         14    1    4    4    0    0 -0.91561364800E+01 -0.21490012470E+02  0.28727918572E+03  0.28822731657E+03  0.00000000000E+00 0. -1.
        -11    1    3    3    0    0  0.30612597433E+02  0.13367809615E+01  0.95117445908E+02  0.99931209444E+02  0.00000000000E+00 0.  1.
         11    1    3    3    0    0 -0.56002625134E+02 -0.33871406456E+02  0.10389821005E+03  0.12279415397E+03  0.00000000000E+00 0. -1.
         21    1    1    2  502  501  0.21023914977E+02  0.24978173996E+01  0.13760243693E+03  0.13922167483E+03  0.00000000000E+00 0.  1.
<scales pt_clust_5="13000.00000" pt_clust_6="13000.00000" pt_clust_7="13000.00000" pt_clust_8="13000.00000" pt_clust_9="21.17178"></scales>
<clustering>
<clus scale="   21.172">  1  9  2 -1</clus>
<clus scale="   81.407">  5  6 -1 -1</clus>
<clus scale="   89.481">  1  5  2 -1</clus>
<clus scale="   91.083">  7  8 -1 -1</clus>
<clus scale="   21.172">  1  5  2 -1</clus>
</clustering>
</event>
<event>
 9    2  0.2984928E-005  0.9548600E+02  0.7546771E-02  0.1293816E+00
         -1   -1    0    0    0  501 -0.00000000000E+00  0.00000000000E+00  0.16978224623E+03  0.16978224623E+03  0.00000000000E+00 0.  1.
          2   -1    0    0  502    0  0.00000000000E+00 -0.00000000000E+00 -0.13268663126E+03  0.13268663126E+03  0.00000000000E+00 0. -1.
         23    2    1    2    0    0 -0.12270940994E+02 -0.22096782961E+02  0.96434932175E+02  0.13415365770E+03  0.89770061379E+02 0.  0.
         24    2    1    2    0    0 -0.22585167943E-02  0.56005406895E+02 -0.13845079400E+01  0.10005698864E+03  0.82902825682E+02 0.  0.
        -13    1    4    4    0    0 -0.17660630200E+02  0.61562700093E+02  0.24210380181E+02  0.68469017886E+02  0.00000000000E+00 0.  1.
         14    1    4    4    0    0  0.17658371683E+02 -0.55572931978E+01 -0.25594888120E+02  0.31587970750E+02  0.00000000000E+00 0. -1.
        -13    1    3    3    0    0 -0.24165188607E+02  0.18321472158E+02  0.85365193774E+02  0.90591660712E+02  0.00000000000E+00 0.  1.
         13    1    3    3    0    0  0.11894247613E+02 -0.40418255119E+02  0.11069738401E+02  0.43561996986E+02  0.00000000000E+00 0. -1.
         21    1    1    2  502  501  0.12273199511E+02 -0.33908623934E+02 -0.57954809264E+02  0.68258231153E+02  0.00000000000E+00 0. -1.
<scales pt_clust_5="13000.00000" pt_clust_6="13000.00000" pt_clust_7="13000.00000" pt_clust_8="13000.00000" pt_clust_9="36.06142"></scales>
<clustering>
<clus scale="   36.061">  2  9  1 -1</clus>
<clus scale="   82.903">  5  6 -1 -1</clus>
<clus scale="   89.061">  2  5  1 -1</clus>
<clus scale="   89.770">  7  8 -1 -1</clus>
<clus scale="   36.061">  2  5  1 -1</clus>
</clustering>
</event>
<event>
 9    2  0.2984928E-005  0.1421001E+03  0.7546771E-02  0.1213483E+00
         -1   -1    0    0    0  501 -0.00000000000E+00  0.00000000000E+00  0.22339321769E+03  0.22339321769E+03  0.00000000000E+00 0.  1.
          2   -1    0    0  502    0  0.00000000000E+00 -0.00000000000E+00 -0.73131106243E+03  0.73131106243E+03  0.00000000000E+00 0. -1.
         24    2    1    2    0    0  0.85376467400E+02  0.66570475527E+02  0.18806185336E+03  0.23032558965E+03  0.77212998641E+02 0.  0.
         23    2    1    2    0    0 -0.12035036146E+03 -0.49681782885E+02 -0.60275156830E+03  0.62338420849E+03  0.91356057553E+02 0.  0.
        -11    1    3    3    0    0  0.55699005461E+02  0.61153248707E+02  0.18148884283E+03  0.19944999150E+03  0.00000000000E+00 0.  1.
         12    1    3    3    0    0  0.29677461940E+02  0.54172268199E+01  0.65730105302E+01  0.30875598148E+02  0.00000000000E+00 0. -1.
        -13    1    4    4    0    0 -0.85203316510E+02 -0.37405377912E+01 -0.48207155186E+03  0.48955753276E+03  0.00000000000E+00 0.  1.
         13    1    4    4    0    0 -0.35147044948E+02 -0.45941245094E+02 -0.12068001644E+03  0.13382667573E+03  0.00000000000E+00 0. -1.
         21    1    1    2  502  501  0.34973894058E+02 -0.16888692642E+02 -0.93228129793E+02  0.10099448197E+03  0.00000000000E+00 0.  1.
<scales pt_clust_5="13000.00000" pt_clust_6="13000.00000" pt_clust_7="13000.00000" pt_clust_8="13000.00000" pt_clust_9="38.83814"></scales>
<clustering>
<clus scale="   38.838">  2  9  1 -1</clus>
<clus scale="   77.213">  5  6 -1 -1</clus>
<clus scale="   91.356">  7  8 -1 -1</clus>
<clus scale="  133.448">  1  5  2 -1</clus>
<clus scale="   38.838">  2  5  1 -1</clus>
</clustering>
</event>
<event>
 9    2  0.2984928E-005  0.1077118E+03  0.7546771E-02  0.1267563E+00
          4   -1    0    0  502    0  0.00000000000E+00  0.00000000000E+00  0.82200335612E+03  0.82200335612E+03  0.00000000000E+00 0. -1.
         -3   -1    0    0    0  501 -0.00000000000E+00 -0.00000000000E+00 -0.25023141895E+02  0.25023141895E+02  0.00000000000E+00 0.  1.
         23    2    1    2    0    0 -0.67771019693E+02  0.42641240095E+02  0.19679379599E+03  0.23033065706E+03  0.88956320597E+02 0.  0.
         24    2    1    2    0    0  0.31857075985E+02 -0.79123715246E+01  0.31654937131E+03  0.32869257699E+03  0.82206002090E+02 0.  0.
        -13    1    4    4    0    0  0.14098042695E+02  0.37318406499E+02  0.14715159549E+03  0.15246314416E+03  0.00000000000E+00 0.  1.
         14    1    4    4    0    0  0.17759033290E+02 -0.45230778024E+02  0.16939777582E+03  0.17622943283E+03  0.00000000000E+00 0. -1.
        -13    1    3    3    0    0 -0.56344965737E+02  0.11062698246E+02  0.18660072528E+03  0.19523567587E+03  0.00000000000E+00 0. -1.
         13    1    3    3    0    0 -0.11426053956E+02  0.31578541849E+02  0.10193070709E+02  0.35094981191E+02  0.00000000000E+00 0.  1.
         21    1    1    2  502  501  0.35913943708E+02 -0.34728868570E+02  0.28363704693E+03  0.28800326396E+03  0.00000000000E+00 0. -1.
<scales pt_clust_5="13000.00000" pt_clust_6="13000.00000" pt_clust_7="13000.00000" pt_clust_8="13000.00000" pt_clust_9="49.95904"></scales>
<clustering>
<clus scale="   49.959">  1  9  2 -1</clus>
<clus scale="   82.206">  5  6 -1 -1</clus>
<clus scale="   88.956">  7  8 -1 -1</clus>
<clus scale="  102.208">  1  5  2 -1</clus>
<clus scale="   49.959">  1  5  2 -1</clus>
</clustering>
</event>
<event>
 9    2  0.2984928E-005  0.9752217E+02  0.7546771E-02  0.1291364E+00
          2   -1    0    0  502    0  0.00000000000E+00  0.00000000000E+00  0.13337020199E+03  0.13337020199E+03  0.00000000000E+00 0. -1.
         -1   -1    0    0    0  501 -0.00000000000E+00 -0.00000000000E+00 -0.80274388988E+02  0.80274388988E+02  0.00000000000E+00 0.  1.
         24    2    1    2    0    0  0.10057396392E+02  0.42406263132E+02  0.15067374504E+02  0.92592102919E+02  0.80292150137E+02 0.  0.
         23    2    1    2    0    0 -0.11434800768E+02 -0.21958207369E+02  0.30285913464E+02  0.99144340685E+02  0.91101296347E+02 0.  0.
        -13    1    3    3    0    0 -0.26925839071E+02  0.13176337306E+02 -0.18041224939E+02  0.34987175819E+02  0.00000000000E+00 0.  1.
         14    1    3    3    0    0  0.36983235463E+02  0.29229925827E+02  0.33108599443E+02  0.57604927100E+02  0.00000000000E+00 0. -1.
        -13    1    4    4    0    0 -0.32401491514E+02  0.23807747459E+02  0.27528718425E+02  0.48728798769E+02  0.00000000000E+00 0.  1.
         13    1    4    4    0    0  0.20966690746E+02 -0.45765954828E+02  0.27571950394E+01  0.50415541916E+02  0.00000000000E+00 0. -1.
         21    1    1    2  502  501  0.13774043761E+01 -0.20448055763E+02  0.77425250293E+01  0.21908147369E+02  0.00000000000E+00 0.  1.
<scales pt_clust_5="13000.00000" pt_clust_6="13000.00000" pt_clust_7="13000.00000" pt_clust_8="13000.00000" pt_clust_9="20.49440"></scales>
<clustering>
<clus scale="   20.494">  1  9  2 -1</clus>
<clus scale="   80.292">  5  6 -1 -1</clus>
<clus scale="   87.510">  2  5  1 -1</clus>
<clus scale="   91.101">  7  8 -1 -1</clus>
<clus scale="   20.494">  1  5  2 -1</clus>
</clustering>
</event>
<event>
 9    2  0.2984928E-005  0.1241870E+03  0.7546771E-02  0.1246814E+00
          4   -1    0    0  502    0  0.00000000000E+00  0.00000000000E+00  0.83182833676E+02  0.83182833676E+02  0.00000000000E+00 0. -1.
         -3   -1    0    0    0  501 -0.00000000000E+00 -0.00000000000E+00 -0.55006685961E+03  0.55006685961E+03  0.00000000000E+00 0.  1.
         24    2    1    2    0    0  0.59802910670E+02  0.56410727313E+02 -0.43731865601E+03  0.45513550262E+03  0.95614646191E+02 0.  0.
         23    2    1    2    0    0 -0.68079783322E+02 -0.30451208124E+02 -0.76804077198E+02  0.12358072643E+03  0.61734890431E+02 0.  0.
        -13    1    3    3    0    0  0.80219473032E+02  0.21974633533E+02 -0.33727016848E+03  0.34737474709E+03  0.00000000000E+00 0.  1.
         14    1    3    3    0    0 -0.20416562362E+02  0.34436093780E+02 -0.10004848753E+03  0.10776075552E+03  0.00000000000E+00 0. -1.
        -11    1    4    4    0    0 -0.35929588754E+02 -0.48177802350E+02 -0.48103147676E+02  0.76980184487E+02  0.00000000000E+00 0. -1.
         11    1    4    4    0    0 -0.32150194568E+02  0.17726594226E+02 -0.28700929522E+02  0.46600541939E+02  0.00000000000E+00 0.  1.
         21    1    1    2  502  501  0.82768726517E+01 -0.25959519189E+02  0.47238707274E+02  0.54533464243E+02  0.00000000000E+00 0. -1.
<scales pt_clust_5="13000.00000" pt_clust_6="13000.00000" pt_clust_7="13000.00000" pt_clust_8="13000.00000" pt_clust_9="27.24708"></scales>
<clustering>
<clus scale="   27.247">  1  9  2 -1</clus>
<clus scale="   61.735">  7  8 -1 -1</clus>
<clus scale="   95.615">  5  6 -1 -1</clus>
<clus scale="  100.456">  1  7  2 -1</clus>
<clus scale="   27.247">  1  5  2 -1</clus>
</clustering>
</event>
<event>
 9    2  0.2984928E-005  0.1617259E+03  0.7546771E-02  0.1188436E+00
          2   -1    0    0  502    0  0.00000000000E+00  0.00000000000E+00  0.55248498724E+03  0.55248498724E+03  0.00000000000E+00 0. -1.
         -1   -1    0    0    0  501 -0.00000000000E+00 -0.00000000000E+00 -0.81382264319E+02  0.81382264319E+02  0.00000000000E+00 0.  1.
         24    2    1    2    0    0  0.10663675045E+03  0.25973853778E+02  0.94909268647E+02  0.16879629588E+03  0.86246058470E+02 0.  0.
         23    2    1    2    0    0 -0.17600477077E+03 -0.32632430185E+02  0.29085204524E+03  0.35489194235E+03  0.96492609506E+02 0.  0.
        -13    1    3    3    0    0  0.85810632964E+02  0.43828531390E+02  0.10215029621E+03  0.14042466987E+03  0.00000000000E+00 0.  1.
         14    1    3    3    0    0  0.20826117486E+02 -0.17854677612E+02 -0.72410275628E+01  0.28371626008E+02  0.00000000000E+00 0. -1.
        -13    1    4    4    0    0 -0.27490821533E+02 -0.13573212520E+02  0.34859713931E+01  0.30856593513E+02  0.00000000000E+00 0.  1.
         13    1    4    4    0    0 -0.14851394924E+03 -0.19059217665E+02  0.28736607385E+03  0.32403534883E+03  0.00000000000E+00 0. -1.
         21    1    1    2  502  501  0.69368020320E+02  0.66585764069E+01  0.85341409038E+02  0.11017901333E+03  0.00000000000E+00 0. -1.
<scales pt_clust_5="13000.00000" pt_clust_6="13000.00000" pt_clust_7="13000.00000" pt_clust_8="13000.00000" pt_clust_9="69.68686"></scales>
<clustering>
<clus scale="   69.687">  1  9  2 -1</clus>
<clus scale="   86.246">  5  6 -1 -1</clus>
<clus scale="   96.493">  7  8 -1 -1</clus>
<clus scale="  155.829">  2  5  1 -1</clus>
<clus scale="   69.687">  1  5  2 -1</clus>
</clustering>
</event>
<event>
 9    2  0.2984928E-005  0.1048835E+03  0.7546771E-02  0.1272789E+00
         -1   -1    0    0    0  501 -0.00000000000E+00  0.00000000000E+00  0.16063725454E+02  0.16063725454E+02  0.00000000000E+00 0.  1.
          2   -1    0    0  502    0  0.00000000000E+00 -0.00000000000E+00 -0.12405987993E+04  0.12405987993E+04  0.00000000000E+00 0. -1.
         23    2    1    2    0    0  0.27517182230E+02 -0.60537696463E+02 -0.28442998971E+03  0.30608459154E+03  0.91462287960E+02 0.  0.
         24    2    1    2    0    0 -0.90873416827E+01  0.31581840135E+02 -0.79131724080E+03  0.79788240950E+03  0.96712829550E+02 0.  0.
        -13    1    4    4    0    0 -0.50990127248E+01  0.52374510844E+02 -0.22123460886E+03  0.22740677535E+03  0.00000000000E+00 0.  1.
         14    1    4    4    0    0 -0.39883289579E+01 -0.20792670709E+02 -0.57008263194E+03  0.57047563415E+03  0.00000000000E+00 0. -1.
        -13    1    3    3    0    0 -0.34541979429E+01 -0.76588205770E+02 -0.17072221049E+03  0.18714635423E+03  0.00000000000E+00 0.  1.
         13    1    3    3    0    0  0.30971380173E+02  0.16050509307E+02 -0.11370777922E+03  0.11893823731E+03  0.00000000000E+00 0. -1.
         21    1    1    2  502  501 -0.18429840547E+02  0.28955856328E+02 -0.14878784337E+03  0.15269552375E+03  0.00000000000E+00 0. -1.
<scales pt_clust_5="13000.00000" pt_clust_6="13000.00000" pt_clust_7="13000.00000" pt_clust_8="13000.00000" pt_clust_9="34.32347"></scales>
<clustering>
<clus scale="   34.323">  1  9  2 -1</clus>
<clus scale="   91.462">  7  8 -1 -1</clus>
<clus scale="   96.713">  5  6 -1 -1</clus>
<clus scale="  100.063">  1  7  2 -1</clus>
<clus scale="  104.884">  2  5  1 -1</clus>
</clustering>
</event>
<event>
 9    2  0.2984928E-005  0.1106797E+03  0.7546771E-02  0.1263311E+00
          2   -1    0    0  502    0  0.00000000000E+00  0.00000000000E+00  0.36605158991E+03  0.36605158991E+03  0.00000000000E+00 0. -1.
         -1   -1    0    0    0  501 -0.00000000000E+00 -0.00000000000E+00 -0.88226893684E+02  0.88226893684E+02  0.00000000000E+00 0.  1.
         23    2    1    2    0    0 -0.34178467510E+02  0.38916496921E+02 -0.42305971776E+01  0.10525248490E+03  0.91528827435E+02 0.  0.
         24    2    1    2    0    0  0.16949928826E+02  0.62721353008E+02  0.14730951275E+03  0.17936899033E+03  0.79068792419E+02 0.  0.
        -13    1    4    4    0    0  0.22036421038E+02  0.56326549292E+02  0.41750352953E+02  0.73494054039E+02  0.00000000000E+00 0.  1.
         14    1    4    4    0    0 -0.50864922115E+01  0.63948037162E+01  0.10555915979E+03  0.10587493629E+03  0.00000000000E+00 0. -1.
        -11    1    3    3    0    0 -0.47771205407E+02  0.61928912347E+02 -0.61644886816E+01  0.78455587253E+02  0.00000000000E+00 0.  1.
         11    1    3    3    0    0  0.13592737897E+02 -0.23012415426E+02  0.19338915040E+01  0.26796897649E+02  0.00000000000E+00 0. -1.
         21    1    1    2  502  501  0.17228538684E+02 -0.10163784993E+03  0.13474578066E+03  0.16965700837E+03  0.00000000000E+00 0. -1.
<scales pt_clust_5="13000.00000" pt_clust_6="13000.00000" pt_clust_7="13000.00000" pt_clust_8="13000.00000" pt_clust_9="62.22917"></scales>
<clustering>
<clus scale="   79.069">  5  6 -1 -1</clus>
<clus scale="   91.529">  7  8 -1 -1</clus>
<clus scale="  102.338">  1  5  2 -1</clus>
<clus scale="   62.229">  1  9  2 -1</clus>
<clus scale="  102.338">  1  5  2 -1</clus>
</clustering>
</event>
<event>
 9    2  0.2984928E-005  0.1168664E+03  0.7546771E-02  0.1250185E+00
         -1   -1    0    0    0  501 -0.00000000000E+00  0.00000000000E+00  0.97373842158E+02  0.97373842158E+02  0.00000000000E+00 0.  1.
          2   -1    0    0  502    0  0.00000000000E+00 -0.00000000000E+00 -0.72524671983E+03  0.72524671983E+03  0.00000000000E+00 0. -1.
         23    2    1    2    0    0  0.49327921224E+02  0.57429590885E+02  0.17530526300E+02  0.12022485253E+03  0.91734912063E+02 0.  0.
         24    2    1    2    0    0  0.53913826416E+02 -0.10255503119E+03 -0.21320470813E+03  0.25575169404E+03  0.80798801582E+02 0.  0.
        -11    1    4    4    0    0  0.52682216234E+01 -0.91102907195E+02 -0.13997643671E+03  0.16709547179E+03  0.00000000000E+00 0.  1.
         12    1    4    4    0    0  0.48645604793E+02 -0.11452123996E+02 -0.73228271423E+02  0.88656222259E+02  0.00000000000E+00 0. -1.
        -13    1    3    3    0    0  0.69449999846E+02  0.65295035548E+02  0.22743655560E+02  0.98000091909E+02  0.00000000000E+00 0. -1.
         13    1    3    3    0    0 -0.20122078622E+02 -0.78654446634E+01 -0.52131292598E+01  0.22224760618E+02  0.00000000000E+00 0.  1.
         21    1    1    2  502  501 -0.10324174764E+03  0.45125440306E+02 -0.43219869585E+03  0.44664401542E+03  0.00000000000E+00 0. -1.
<scales pt_clust_5="13000.00000" pt_clust_6="13000.00000" pt_clust_7="13000.00000" pt_clust_8="13000.00000" pt_clust_9="112.67282"></scales>
<clustering>
<clus scale="   80.799">  5  6 -1 -1</clus>
<clus scale="   91.735">  7  8 -1 -1</clus>
<clus scale="  112.673">  2  9  1 -1</clus>
<clus scale="  112.673">  2  5  1 -1</clus>
<clus scale="  112.673">  2  5  1 -1</clus>
</clustering>
</event>
<event>
 9    2  0.2984928E-005  0.1274765E+03  0.7546771E-02  0.1234320E+00
         -1   -1    0    0    0  501 -0.00000000000E+00  0.00000000000E+00  0.29765238425E+02  0.29765238425E+02  0.00000000000E+00 0.  1.
          2   -1    0    0  502    0  0.00000000000E+00 -0.00000000000E+00 -0.89538264411E+03  0.89538264411E+03  0.00000000000E+00 0. -1.
         24    2    1    2    0    0  0.54330391120E+02  0.63715792580E+02 -0.18528583980E+03  0.21875605362E+03  0.80696189138E+02 0.  0.
         23    2    1    2    0    0 -0.95075925402E+02 -0.43885255593E+02 -0.43027588727E+03  0.45226333549E+03  0.91866415064E+02 0.  0.
        -11    1    3    3    0    0 -0.10263510544E-01  0.61636082130E+02 -0.10589211047E+03  0.12252406207E+03  0.00000000000E+00 0.  1.
         12    1    3    3    0    0  0.54340654630E+02  0.20797104502E+01 -0.79393729334E+02  0.96231991556E+02  0.00000000000E+00 0. -1.
        -13    1    4    4    0    0 -0.18063273990E+02 -0.47697216904E+02 -0.90830570200E+02  0.10417052774E+03  0.00000000000E+00 0.  1.
         13    1    4    4    0    0 -0.77012651412E+02  0.38119613112E+01 -0.33944531707E+03  0.34809280775E+03  0.00000000000E+00 0. -1.
         21    1    1    2  502  501  0.40745534282E+02 -0.19830536988E+02 -0.25005567862E+03  0.25412849342E+03  0.00000000000E+00 0.  1.
<scales pt_clust_5="13000.00000" pt_clust_6="13000.00000" pt_clust_7="13000.00000" pt_clust_8="13000.00000" pt_clust_9="45.31499"></scales>
<clustering>
<clus scale="   45.315">  2  9  1 -1</clus>
<clus scale="   80.696">  5  6 -1 -1</clus>
<clus scale="   91.866">  7  8 -1 -1</clus>
<clus scale="  119.677">  1  5  2 -1</clus>
<clus scale="   45.315">  2  5  1 -1</clus>
</clustering>
</event>
<event>
 9    2  0.2984928E-005  0.2208290E+03  0.7546771E-02  0.1146188E+00
          2   -1    0    0  502    0  0.00000000000E+00  0.00000000000E+00  0.93372232403E+03  0.93372232403E+03  0.00000000000E+00 0. -1.
         -1   -1    0    0    0  501 -0.00000000000E+00 -0.00000000000E+00 -0.40539775231E+03  0.40539775231E+03  0.00000000000E+00 0.  1.
         24    2    1    2    0    0 -0.13529193282E+03 -0.35969260404E+02 -0.22079424894E+03  0.27365398059E+03  0.80862265272E+02 0.  0.
         23    2    1    2    0    0  0.11828282626E+03 -0.16914488856E+03 -0.58434939094E+02  0.23209691064E+03  0.88620051398E+02 0.  0.
        -11    1    3    3    0    0 -0.12750258908E+03 -0.53142097768E+02 -0.16743617077E+03  0.21706188993E+03  0.00000000000E+00 0.  1.
         12    1    3    3    0    0 -0.77893437428E+01  0.17172837365E+02 -0.53358078166E+02  0.56592090654E+02  0.00000000000E+00 0. -1.
        -11    1    4    4    0    0  0.52034898272E+02 -0.24397727027E+02 -0.43760732063E+02  0.72234904256E+02  0.00000000000E+00 0. -1.
         11    1    4    4    0    0  0.66247927985E+02 -0.14474716153E+03 -0.14674207031E+02  0.15986200638E+03  0.00000000000E+00 0.  1.
         21    1    1    2  502  501  0.17009106567E+02  0.20511414896E+03  0.80755375975E+03  0.83336918512E+03  0.00000000000E+00 0. -1.
<scales pt_clust_5="13000.00000" pt_clust_6="13000.00000" pt_clust_7="13000.00000" pt_clust_8="13000.00000" pt_clust_9="202.26697"></scales>
<clustering>
<clus scale="   80.862">  5  6 -1 -1</clus>
<clus scale="   88.620">  7  8 -1 -1</clus>
<clus scale="  161.668">  2  5  1 -1</clus>
<clus scale="  202.267">  1  9  2 -1</clus>
<clus scale="  202.267">  1  5  2 -1</clus>
</clustering>
</event>
<event>
 9    2  0.2984928E-005  0.1134235E+03  0.7546771E-02  0.1263094E+00
         -1   -1    0    0    0  501 -0.00000000000E+00  0.00000000000E+00  0.33207851857E+03  0.33207851857E+03  0.00000000000E+00 0.  1.
          2   -1    0    0  502    0  0.00000000000E+00 -0.00000000000E+00 -0.40824835622E+02  0.40824835622E+02  0.00000000000E+00 0. -1.
         24    2    1    2    0    0 -0.10974872447E+02 -0.66285122636E+02  0.13236398036E+03  0.16300751143E+03  0.67357703198E+02 0.  0.
         23    2    1    2    0    0  0.32592566975E+02  0.61918931097E+02  0.12796763348E+03  0.17191475926E+03  0.91009558749E+02 0.  0.
        -11    1    3    3    0    0 -0.78537389843E+01 -0.25762307550E+02  0.11618003595E+03  0.11926096788E+03  0.00000000000E+00 0.  1.
         12    1    3    3    0    0 -0.31211334624E+01 -0.40522815086E+02  0.16183944410E+02  0.43746543558E+02  0.00000000000E+00 0. -1.
        -13    1    4    4    0    0 -0.24417485202E+02 -0.34141416534E+01  0.47990675096E+02  0.53953450705E+02  0.00000000000E+00 0.  1.
         13    1    4    4    0    0  0.57010052177E+02  0.65333072750E+02  0.79976958381E+02  0.11796130856E+03  0.00000000000E+00 0. -1.
         21    1    1    2  502  501 -0.21617694528E+02  0.43661915396E+01  0.30922069112E+02  0.37981083495E+02  0.00000000000E+00 0. -1.
<scales pt_clust_5="13000.00000" pt_clust_6="13000.00000" pt_clust_7="13000.00000" pt_clust_8="13000.00000" pt_clust_9="22.05421"></scales>
<clustering>
<clus scale="   22.054">  1  9  2 -1</clus>
<clus scale="   67.358">  5  6 -1 -1</clus>
<clus scale="   91.010">  7  8 -1 -1</clus>
<clus scale="   95.495">  1  5  2 -1</clus>
<clus scale="  113.424">  2  5  1 -1</clus>
</clustering>
</event>
<event>
 9    2  0.2984928E-005  0.9625637E+02  0.7546771E-02  0.1294263E+00
         -1   -1    0    0    0  501 -0.00000000000E+00  0.00000000000E+00  0.10519732451E+03  0.10519732451E+03  0.00000000000E+00 0.  1.
          2   -1    0    0  502    0  0.00000000000E+00 -0.00000000000E+00 -0.20402530944E+03  0.20402530944E+03  0.00000000000E+00 0. -1.
         23    2    1    2    0    0  0.11849293205E+02 -0.29945902714E+02  0.56530698497E+02  0.11149800313E+03  0.90547898877E+02 0.  0.
         24    2    1    2    0    0  0.12498856418E+02  0.39673174184E+02 -0.89851094789E+02  0.12716475291E+03  0.79796447204E+02 0.  0.
        -13    1    4    4    0    0  0.14073621873E+02 -0.22854522834E+02 -0.20493371352E+02  0.33769428718E+02  0.00000000000E+00 0.  1.
         14    1    4    4    0    0 -0.15747654548E+01  0.62527697018E+02 -0.69357723437E+02  0.93395324193E+02  0.00000000000E+00 0. -1.
        -11    1    3    3    0    0  0.76586912855E+00 -0.61145726629E+02  0.46749769290E+02  0.76973549802E+02  0.00000000000E+00 0.  1.
         11    1    3    3    0    0  0.11083424077E+02  0.31199823915E+02  0.97809292072E+01  0.34524453330E+02  0.00000000000E+00 0. -1.
         21    1    1    2  502  501 -0.24348149624E+02 -0.97272714703E+01 -0.65507588642E+02  0.70559877906E+02  0.00000000000E+00 0. -1.
<scales pt_clust_5="13000.00000" pt_clust_6="13000.00000" pt_clust_7="13000.00000" pt_clust_8="13000.00000" pt_clust_9="26.21931"></scales>
<clustering>
<clus scale="   26.219">  2  9  1 -1</clus>
<clus scale="   79.796">  5  6 -1 -1</clus>
<clus scale="   86.220">  2  5  1 -1</clus>
<clus scale="   90.548">  7  8 -1 -1</clus>
<clus scale="   26.219">  2  5  1 -1</clus>
</clustering>
</event>
<event>
 9    2  0.2984928E-005  0.1089890E+03  0.7546771E-02  0.1266220E+00
          2   -1    0    0  502    0  0.00000000000E+00  0.00000000000E+00  0.69203850950E+03  0.69203850950E+03  0.00000000000E+00 0. -1.
         -1   -1    0    0    0  501 -0.00000000000E+00 -0.00000000000E+00 -0.42778183237E+02  0.42778183237E+02  0.00000000000E+00 0.  1.
         23    2    1    2    0    0 -0.71201010328E+02 -0.14927127918E+02  0.71234580410E+02  0.13567146703E+03  0.89665927200E+02 0.  0.
         24    2    1    2    0    0  0.38781889416E+02 -0.27208957343E+02  0.24840090551E+03  0.26526053835E+03  0.80098570769E+02 0.  0.
        -13    1    4    4    0    0  0.13240320130E+02 -0.46691539349E+02  0.78061078336E+02  0.91918104173E+02  0.00000000000E+00 0.  1.
         14    1    4    4    0    0  0.25541569286E+02  0.19482582006E+02  0.17033982718E+03  0.17334243418E+03  0.00000000000E+00 0. -1.
        -11    1    3    3    0    0 -0.11926976361E+02  0.32142860187E+02  0.42748820990E+02  0.54798521168E+02  0.00000000000E+00 0. -1.
         11    1    3    3    0    0 -0.59274033967E+02 -0.47069988105E+02  0.28485759419E+02  0.80872945863E+02  0.00000000000E+00 0.  1.
         21    1    1    2  502  501  0.32419120912E+02  0.42136085260E+02  0.32962484034E+03  0.33388468735E+03  0.00000000000E+00 0. -1.
<scales pt_clust_5="13000.00000" pt_clust_6="13000.00000" pt_clust_7="13000.00000" pt_clust_8="13000.00000" pt_clust_9="53.16436"></scales>
<clustering>
<clus scale="   53.164">  1  9  2 -1</clus>
<clus scale="   80.099">  5  6 -1 -1</clus>
<clus scale="   89.666">  7  8 -1 -1</clus>
<clus scale="  101.264">  1  5  2 -1</clus>
<clus scale="   53.164">  1  5  2 -1</clus>
</clustering>
</event>
<event>
 9    2  0.2984928E-005  0.2415341E+03  0.7546771E-02  0.1119232E+00
         -1   -1    0    0    0  501 -0.00000000000E+00  0.00000000000E+00  0.20290433060E+03  0.20290433060E+03  0.00000000000E+00 0.  1.
          2   -1    0    0  502    0  0.00000000000E+00 -0.00000000000E+00 -0.61456963785E+03  0.61456963785E+03  0.00000000000E+00 0. -1.
         23    2    1    2    0    0 -0.29102617336E+02  0.22652200426E+03  0.86476159142E+02  0.25945381281E+03  0.87629755986E+02 0.  0.
         24    2    1    2    0    0  0.27266973190E+02 -0.20390845512E+03 -0.48223478416E+03  0.53031158777E+03  0.79736109588E+02 0.  0.
        -13    1    4    4    0    0  0.38236324391E+02 -0.79324222624E+02 -0.13442938110E+03  0.16070347631E+03  0.00000000000E+00 0.  1.
         14    1    4    4    0    0 -0.10969351201E+02 -0.12458423249E+03 -0.34780540307E+03  0.36960811146E+03  0.00000000000E+00 0. -1.
        -13    1    3    3    0    0 -0.20526591416E+02  0.49155894644E+01  0.16852325290E+02  0.27009347319E+02  0.00000000000E+00 0.  1.
         13    1    3    3    0    0 -0.85760259197E+01  0.22160641479E+03  0.69623833852E+02  0.23244446549E+03  0.00000000000E+00 0. -1.
         21    1    1    2  502  501  0.18356441456E+01 -0.22613549140E+02 -0.15906682226E+02  0.27708567873E+02  0.00000000000E+00 0.  1.
<scales pt_clust_5="13000.00000" pt_clust_6="13000.00000" pt_clust_7="13000.00000" pt_clust_8="13000.00000" pt_clust_9="22.68793"></scales>
<clustering>
<clus scale="   22.688">  2  9  1 -1</clus>
<clus scale="   79.736">  5  6 -1 -1</clus>
<clus scale="   87.630">  7  8 -1 -1</clus>
<clus scale="  238.784">  2  5  1 -1</clus>
<clus scale="   22.688">  2  5  1 -1</clus>
</clustering>
</event>
<event>
 9    2  0.2984928E-005  0.1025434E+03  0.7546771E-02  0.1281120E+00
         -1   -1    0    0    0  501 -0.00000000000E+00  0.00000000000E+00  0.22609417772E+02  0.22609417772E+02  0.00000000000E+00 0.  1.
          2   -1    0    0  502    0  0.00000000000E+00 -0.00000000000E+00 -0.84783726602E+03  0.84783726602E+03  0.00000000000E+00 0. -1.
         24    2    1    2    0    0 -0.72857543049E+02  0.16331063648E+02 -0.35411728649E+03  0.37016688967E+03  0.77778842873E+02 0.  0.
         23    2    1    2    0    0  0.79940360865E+01 -0.37188326050E+02 -0.31357837603E+03  0.32864445548E+03  0.90713306615E+02 0.  0.
        -13    1    3    3    0    0 -0.21788907535E+02  0.93925452541E+00 -0.14051992392E+02  0.25944116497E+02  0.00000000000E+00 0.  1.
         14    1    3    3    0    0 -0.51068635513E+02  0.15391809123E+02 -0.34006529409E+03  0.34422277317E+03  0.00000000000E+00 0. -1.
        -13    1    4    4    0    0  0.32011920658E+02 -0.58209317190E+02 -0.20895268406E+03  0.21925855023E+03  0.00000000000E+00 0. -1.
         13    1    4    4    0    0 -0.24017884572E+02  0.21020991140E+02 -0.10462569197E+03  0.10938590526E+03  0.00000000000E+00 0.  1.
         21    1    1    2  502  501  0.64863506962E+02  0.20857262402E+02 -0.15753218573E+03  0.17163533864E+03  0.00000000000E+00 0. -1.
<scales pt_clust_5="13000.00000" pt_clust_6="13000.00000" pt_clust_7="13000.00000" pt_clust_8="13000.00000" pt_clust_9="68.13443"></scales>
<clustering>
<clus scale="   68.134">  1  9  2 -1</clus>
<clus scale="   77.779">  5  6 -1 -1</clus>
<clus scale="   90.713">  7  8 -1 -1</clus>
<clus scale="   91.301">  1  5  2 -1</clus>
<clus scale="  102.543">  2  5  1 -1</clus>
</clustering>
</event>
<event>
 9    2  0.2984928E-005  0.2424480E+03  0.7546771E-02  0.1118832E+00
         -1   -1    0    0    0  501 -0.00000000000E+00  0.00000000000E+00  0.55595151690E+03  0.55595151690E+03  0.00000000000E+00 0.  1.
          2   -1    0    0  502    0  0.00000000000E+00 -0.00000000000E+00 -0.12734434987E+03  0.12734434987E+03  0.00000000000E+00 0. -1.
         23    2    1    2    0    0 -0.23859401130E+03  0.15757210589E+02  0.26657883111E+03  0.36976775501E+03  0.92133205362E+02 0.  0.
         24    2    1    2    0    0  0.21583460033E+03  0.33681908808E+01  0.11446413578E+03  0.25743778368E+03  0.81094110006E+02 0.  0.
        -13    1    4    4    0    0  0.73839333099E+02 -0.40036510984E+00  0.84590426503E+02  0.11228511772E+03  0.00000000000E+00 0.  1.
         14    1    4    4    0    0  0.14199526724E+03  0.37685559907E+01  0.29873709272E+02  0.14515266597E+03  0.00000000000E+00 0. -1.
        -13    1    3    3    0    0 -0.78340148135E+02  0.11023456680E+02  0.31345916010E+02  0.85095604219E+02  0.00000000000E+00 0. -1.
         13    1    3    3    0    0 -0.16025386317E+03  0.47337539084E+01  0.23523291510E+03  0.28467215079E+03  0.00000000000E+00 0.  1.
         21    1    1    2  502  501  0.22759410969E+02 -0.19125401470E+02  0.47564200147E+02  0.56090328085E+02  0.00000000000E+00 0.  1.
<scales pt_clust_5="13000.00000" pt_clust_6="13000.00000" pt_clust_7="13000.00000" pt_clust_8="13000.00000" pt_clust_9="29.72830"></scales>
<clustering>
<clus scale="   29.728">  1  9  2 -1</clus>
<clus scale="   81.094">  5  6 -1 -1</clus>
<clus scale="   92.133">  7  8 -1 -1</clus>
<clus scale="  238.472">  2  5  1 -1</clus>
<clus scale="  238.472">  2  5  1 -1</clus>
</clustering>
</event>
<event>
 9    2  0.2984928E-005  0.1057097E+03  0.7546771E-02  0.1273904E+00
         -3   -1    0    0    0  501 -0.00000000000E+00  0.00000000000E+00  0.11050670250E+03  0.11050670250E+03  0.00000000000E+00 0.  1.
          4   -1    0    0  502    0  0.00000000000E+00 -0.00000000000E+00 -0.20902147137E+03  0.20902147137E+03  0.00000000000E+00 0. -1.
         24    2    1    2    0    0 -0.40040985126E+02 -0.34395070494E+02  0.60371623521E+02  0.11425187584E+03  0.81378478983E+02 0.  0.
         23    2    1    2    0    0  0.13673321976E+02  0.38205878922E+02 -0.13873167803E+03  0.17186988500E+03  0.92984568411E+02 0.  0.
        -11    1    3    3    0    0  0.19144487128E+02 -0.69687679033E+01  0.41684103636E+02  0.46396547386E+02  0.00000000000E+00 0.  1.
         12    1    3    3    0    0 -0.59185472254E+02 -0.27426302591E+02  0.18687519885E+02  0.67855328451E+02  0.00000000000E+00 0. -1.
        -13    1    4    4    0    0  0.52046036991E+02  0.87561878721E+01 -0.79020831099E+02  0.95025010077E+02  0.00000000000E+00 0.  1.
         13    1    4    4    0    0 -0.38372715016E+02  0.29449691049E+02 -0.59710846929E+02  0.76844874921E+02  0.00000000000E+00 0. -1.
         21    1    1    2  502  501  0.26367663150E+02 -0.38108084277E+01 -0.20154714359E+02  0.33406413034E+02  0.00000000000E+00 0.  1.
<scales pt_clust_5="13000.00000" pt_clust_6="13000.00000" pt_clust_7="13000.00000" pt_clust_8="13000.00000" pt_clust_9="26.64162"></scales>
<clustering>
<clus scale="   26.642">  2  9  1 -1</clus>
<clus scale="   81.378">  5  6 -1 -1</clus>
<clus scale="   92.985">  7  8 -1 -1</clus>
<clus scale="   95.660">  1  5  2 -1</clus>
<clus scale="   26.642">  2  5  1 -1</clus>
</clustering>
</event>
<event>
 9    2  0.2984928E-005  0.1263300E+03  0.7546771E-02  0.1235347E+00
          2   -1    0    0  502    0  0.00000000000E+00  0.00000000000E+00  0.32775881591E+03  0.32775881591E+03  0.00000000000E+00 0. -1.
         -1   -1    0    0    0  501 -0.00000000000E+00 -0.00000000000E+00 -0.15236363165E+03  0.15236363165E+03  0.00000000000E+00 0.  1.
         24    2    1    2    0    0  0.56396987528E+02  0.54203669063E+00 -0.79250249399E+02  0.12838444309E+03  0.83791701214E+02 0.  0.
         23    2    1    2    0    0 -0.76943294681E+02  0.50700598018E+02  0.26525231521E+03  0.29551999769E+03  0.92100255555E+02 0.  0.
        -11    1    3    3    0    0  0.32478049672E+02 -0.19070055128E+02 -0.88432718348E+02  0.96118865929E+02  0.00000000000E+00 0.  1.
         12    1    3    3    0    0  0.23918937856E+02  0.19612091819E+02  0.91824689492E+01  0.32265577163E+02  0.00000000000E+00 0. -1.
        -11    1    4    4    0    0 -0.37379760864E+02  0.64431758075E+01  0.19403717881E+02  0.42605930390E+02  0.00000000000E+00 0.  1.
         11    1    4    4    0    0 -0.39563533817E+02  0.44257422210E+02  0.24584859733E+03  0.25291406730E+03  0.00000000000E+00 0. -1.
         21    1    1    2  502  501  0.20546307153E+02 -0.51242634708E+02 -0.10606881547E+02  0.56218006774E+02  0.00000000000E+00 0. -1.
<scales pt_clust_5="13000.00000" pt_clust_6="13000.00000" pt_clust_7="13000.00000" pt_clust_8="13000.00000" pt_clust_9="55.20832"></scales>
<clustering>
<clus scale="   55.208">  2  9  1 -1</clus>
<clus scale="   83.792">  5  6 -1 -1</clus>
<clus scale="   92.100">  7  8 -1 -1</clus>
<clus scale="  120.407">  2  5  1 -1</clus>
<clus scale="  126.330">  1  5  2 -1</clus>
</clustering>
</event>
<event>
 9    2  0.2984928E-005  0.1186834E+03  0.7546771E-02  0.1246450E+00
         -1   -1    0    0    0  501 -0.00000000000E+00  0.00000000000E+00  0.47085818608E+03  0.47085818608E+03  0.00000000000E+00 0.  1.
          2   -1    0    0  502    0  0.00000000000E+00 -0.00000000000E+00 -0.61366750220E+02  0.61366750220E+02  0.00000000000E+00 0. -1.
         23    2    1    2    0    0  0.39229571703E+01 -0.10218545068E+03  0.33125449216E+03  0.35663614654E+03  0.83681219614E+02 0.  0.
         24    2    1    2    0    0  0.85657522231E+01  0.80189664690E+02  0.24252156249E+02  0.11597218352E+03  0.79734721632E+02 0.  0.
        -11    1    4    4    0    0  0.24473309489E+02  0.17448758718E+02  0.39342790138E+02  0.49510172631E+02  0.00000000000E+00 0.  1.
         12    1    4    4    0    0 -0.15907557266E+02  0.62740905972E+02 -0.15090633889E+02  0.66462010890E+02  0.00000000000E+00 0. -1.
        -11    1    3    3    0    0 -0.38781914630E+02 -0.63915235735E+02  0.18363774512E+03  0.19827257928E+03  0.00000000000E+00 0. -1.
         11    1    3    3    0    0  0.42704871801E+02 -0.38270214948E+02  0.14761674705E+03  0.15836356726E+03  0.00000000000E+00 0.  1.
         21    1    1    2  502  501 -0.12488709393E+02  0.21995785993E+02  0.53984787442E+02  0.59616606234E+02  0.00000000000E+00 0.  1.
<scales pt_clust_5="13000.00000" pt_clust_6="13000.00000" pt_clust_7="13000.00000" pt_clust_8="13000.00000" pt_clust_9="25.29392"></scales>
<clustering>
<clus scale="   25.294">  1  9  2 -1</clus>
<clus scale="   79.735">  5  6 -1 -1</clus>
<clus scale="   83.681">  7  8 -1 -1</clus>
<clus scale="  115.935">  2  5  1 -1</clus>
<clus scale="  115.935">  2  5  1 -1</clus>
</clustering>
</event>
<event>
 9    2  0.2984928E-005  0.1164347E+03  0.7546771E-02  0.1252990E+00
          2   -1    0    0  502    0  0.00000000000E+00  0.00000000000E+00  0.77696790287E+03  0.77696790287E+03  0.00000000000E+00 0. -1.
         -1   -1    0    0    0  501 -0.00000000000E+00 -0.00000000000E+00 -0.26181254675E+02  0.26181254675E+02  0.00000000000E+00 0.  1.
         24    2    1    2    0    0  0.24952348681E+02 -0.65407916944E+02  0.14526371484E+03  0.17910365715E+03  0.77947147815E+02 0.  0.
         23    2    1    2    0    0 -0.46309392615E+02  0.76635900946E+02  0.51750497821E+03  0.53278022014E+03  0.89586490886E+02 0.  0.
        -11    1    3    3    0    0 -0.22053841869E+02 -0.37575330929E+02  0.34403259735E+02  0.55514518065E+02  0.00000000000E+00 0.  1.
         12    1    3    3    0    0  0.47006190550E+02 -0.27832586015E+02  0.11086045510E+03  0.12358913908E+03  0.00000000000E+00 0. -1.
        -13    1    4    4    0    0 -0.46977138192E+02 -0.28615118504E+01  0.20266748116E+03  0.20806044238E+03  0.00000000000E+00 0. -1.
         13    1    4    4    0    0  0.66774557687E+00  0.79497412796E+02  0.31483749705E+03  0.32471977777E+03  0.00000000000E+00 0.  1.
         21    1    1    2  502  501  0.21357043934E+02 -0.11227984002E+02  0.88017955155E+02  0.91265280255E+02  0.00000000000E+00 0.  1.
<scales pt_clust_5="13000.00000" pt_clust_6="13000.00000" pt_clust_7="13000.00000" pt_clust_8="13000.00000" pt_clust_9="24.12863"></scales>
<clustering>
<clus scale="   24.129">  1  9  2 -1</clus>
<clus scale="   77.947">  5  6 -1 -1</clus>
<clus scale="   89.586">  7  8 -1 -1</clus>
<clus scale="  107.736">  2  5  1 -1</clus>
<clus scale="   24.129">  1  5  2 -1</clus>
</clustering>
</event>
<event>
 9    2  0.2984928E-005  0.2183437E+03  0.7546771E-02  0.1135623E+00
         -1   -1    0    0    0  501 -0.00000000000E+00  0.00000000000E+00  0.28339889428E+03  0.28339889428E+03  0.00000000000E+00 0.  1.
          2   -1    0    0  502    0  0.00000000000E+00 -0.00000000000E+00 -0.32926704758E+03  0.32926704758E+03  0.00000000000E+00 0. -1.
         23    2    1    2    0    0  0.16061680287E+03 -0.11024249529E+03  0.56043652794E+02  0.22156556287E+03  0.89438484453E+02 0.  0.
         24    2    1    2    0    0 -0.17891936764E+03  0.98285964150E+02  0.59522526052E+02  0.22819247216E+03  0.82804603592E+02 0.  0.
        -13    1    4    4    0    0 -0.63251330885E+02  0.64919423724E+02  0.58361770365E+02  0.10780240570E+03  0.00000000000E+00 0.  1.
         14    1    4    4    0    0 -0.11566803676E+03  0.33366540426E+02  0.11607556874E+01  0.12039006646E+03  0.00000000000E+00 0. -1.
        -11    1    3    3    0    0  0.12731087114E+03 -0.38746000668E+02  0.18998733154E+02  0.13442567589E+03  0.00000000000E+00 0.  1.
         11    1    3    3    0    0  0.33305931728E+02 -0.71496494622E+02  0.37044919640E+02  0.87139886978E+02  0.00000000000E+00 0. -1.
         21    1    1    2  502  501  0.18302564777E+02  0.11956531140E+02 -0.16143433214E+03  0.16290790683E+03  0.00000000000E+00 0. -1.
<scales pt_clust_5="13000.00000" pt_clust_6="13000.00000" pt_clust_7="13000.00000" pt_clust_8="13000.00000" pt_clust_9="21.86190"></scales>
<clustering>
<clus scale="   21.862">  2  9  1 -1</clus>
<clus scale="   82.805">  5  6 -1 -1</clus>
<clus scale="   89.438">  7  8 -1 -1</clus>
<clus scale="  215.711">  2  5  1 -1</clus>
<clus scale="   21.862">  2  5  1 -1</clus>
</clustering>
</event>
<event>
 9    2  0.2984928E-005  0.1041238E+03  0.7546771E-02  0.1278930E+00
          2   -1    0    0  502    0  0.00000000000E+00  0.00000000000E+00  0.11475683190E+03  0.11475683190E+03  0.00000000000E+00 0. -1.
         -1   -1    0    0    0  501 -0.00000000000E+00 -0.00000000000E+00 -0.43305978597E+03  0.43305978597E+03  0.00000000000E+00 0.  1.
         24    2    1    2    0    0  0.13029320850E+02  0.39632307986E+02 -0.36514190803E+03  0.37608071189E+03  0.79797279484E+02 0.  0.
         23    2    1    2    0    0 -0.32799291814E+02 -0.54183920291E+02 -0.54716311387E+01  0.11395183824E+03  0.94569508449E+02 0.  0.
        -13    1    3    3    0    0  0.19691546746E+02  0.62814455412E+02 -0.25936159987E+03  0.26758522439E+03  0.00000000000E+00 0.  1.
         14    1    3    3    0    0 -0.66622258955E+01 -0.23182147426E+02 -0.10578030816E+03  0.10849548750E+03  0.00000000000E+00 0. -1.
        -11    1    4    4    0    0  0.87325234023E+01 -0.66515917540E+02  0.10246423394E+02  0.67864670069E+02  0.00000000000E+00 0. -1.
         11    1    4    4    0    0 -0.41531815216E+02  0.12331997250E+02 -0.15718054533E+02  0.46087168166E+02  0.00000000000E+00 0.  1.
         21    1    1    2  502  501  0.19769970964E+02  0.14551612305E+02  0.52310585096E+02  0.57784067750E+02  0.00000000000E+00 0. -1.
<scales pt_clust_5="13000.00000" pt_clust_6="13000.00000" pt_clust_7="13000.00000" pt_clust_8="13000.00000" pt_clust_9="24.54794"></scales>
<clustering>
<clus scale="   24.548">  1  9  2 -1</clus>
<clus scale="   79.797">  5  6 -1 -1</clus>
<clus scale="   90.917">  2  5  1 -1</clus>
<clus scale="   94.570">  7  8 -1 -1</clus>
<clus scale="   24.548">  1  5  2 -1</clus>
</clustering>
</event>
<event>
 9    2  0.2984928E-005  0.9971598E+02  0.7546771E-02  0.1284031E+00
         -1   -1    0    0    0  501 -0.00000000000E+00  0.00000000000E+00  0.51393173178E+02  0.51393173178E+02  0.00000000000E+00 0.  1.
          2   -1    0    0  502    0  0.00000000000E+00 -0.00000000000E+00 -0.49590587471E+03  0.49590587471E+03  0.00000000000E+00 0. -1.
         23    2    1    2    0    0 -0.36629617080E+02 -0.37390088537E+01 -0.40250835172E+02  0.11104014291E+03  0.96716464834E+02 0.  0.
         24    2    1    2    0    0 -0.93276381665E+00  0.27282180592E+02 -0.36478559334E+03  0.37689907407E+03  0.90770014328E+02 0.  0.
        -13    1    4    4    0    0  0.15972973104E+02 -0.30574129467E+02 -0.13603919098E+03  0.14034448598E+03  0.00000000000E+00 0.  1.
         14    1    4    4    0    0 -0.16905736920E+02  0.57856310059E+02 -0.22874640237E+03  0.23655458810E+03  0.00000000000E+00 0. -1.
        -13    1    3    3    0    0  0.74383068583E+01 -0.43462687804E+02 -0.15229084022E+02  0.46650387353E+02  0.00000000000E+00 0.  1.
         13    1    3    3    0    0 -0.44067923938E+02  0.39723678950E+02 -0.25021751150E+02  0.64389755553E+02  0.00000000000E+00 0. -1.
         21    1    1    2  502  501  0.37562380896E+02 -0.23543171738E+02 -0.39476273016E+02  0.59359830907E+02  0.00000000000E+00 0.  1.
<scales pt_clust_5="13000.00000" pt_clust_6="13000.00000" pt_clust_7="13000.00000" pt_clust_8="13000.00000" pt_clust_9="44.33073"></scales>
<clustering>
<clus scale="   44.331">  1  9  2 -1</clus>
<clus scale="   90.770">  5  6 -1 -1</clus>
<clus scale="   93.960">  2  5  1 -1</clus>
<clus scale="   96.716">  7  8 -1 -1</clus>
<clus scale="   93.960">  2  5  1 -1</clus>
</clustering>
</event>
<event>
 9    2  0.2984928E-005  0.9475039E+02  0.7546771E-02  0.1300534E+00
         -1   -1    0    0    0  501 -0.00000000000E+00  0.00000000000E+00  0.57401378757E+02  0.57401378757E+02  0.00000000000E+00 0.  1.
          2   -1    0    0  502    0  0.00000000000E+00 -0.00000000000E+00 -0.38838225604E+03  0.38838225604E+03  0.00000000000E+00 0. -1.
         23    2    1    2    0    0 -0.18320918974E+02  0.17174111359E+02  0.34452317144E+01  0.93970242646E+02  0.90487185327E+02 0.  0.
         24    2    1    2    0    0  0.33849198599E+02 -0.30915237930E+02 -0.26127517767E+03  0.27578047309E+03  0.75423011654E+02 0.  0.
        -13    1    4    4    0    0  0.17774460053E+02 -0.25212145372E+02 -0.27326022022E+02  0.41210377140E+02  0.00000000000E+00 0.  1.
         14    1    4    4    0    0  0.16074738545E+02 -0.57030925581E+01 -0.23394915565E+03  0.23457009595E+03  0.00000000000E+00 0. -1.
        -13    1    3    3    0    0  0.20751766917E+02  0.34696508935E+02  0.23416114979E+02  0.46720423833E+02  0.00000000000E+00 0.  1.
         13    1    3    3    0    0 -0.39072685891E+02 -0.17522397576E+02 -0.19970883264E+02  0.47249818814E+02  0.00000000000E+00 0. -1.
         21    1    1    2  502  501 -0.15528279624E+02  0.13741126571E+02 -0.73150931327E+02  0.76032919065E+02  0.00000000000E+00 0.  1.
<scales pt_clust_5="13000.00000" pt_clust_6="13000.00000" pt_clust_7="13000.00000" pt_clust_8="13000.00000" pt_clust_9="20.73514"></scales>
<clustering>
<clus scale="   20.735">  2  9  1 -1</clus>
<clus scale="   75.423">  5  6 -1 -1</clus>
<clus scale="   80.488">  2  5  1 -1</clus>
<clus scale="   90.487">  7  8 -1 -1</clus>
<clus scale="   20.735">  2  5  1 -1</clus>
</clustering>
</event>
<event>
 9    2  0.2984928E-005  0.9640218E+02  0.7546771E-02  0.1292477E+00
          2   -1    0    0  502    0  0.00000000000E+00  0.00000000000E+00  0.36710471402E+02  0.36710471402E+02  0.00000000000E+00 0. -1.
         -1   -1    0    0    0  501 -0.00000000000E+00 -0.00000000000E+00 -0.41078652639E+03  0.41078652639E+03  0.00000000000E+00 0.  1.
         24    2    1    2    0    0  0.23178934982E+02 -0.41511035600E+01 -0.26641221289E+03  0.28032096194E+03  0.83963562572E+02 0.  0.
         23    2    1    2    0    0 -0.47025185618E+02 -0.15518191799E+01 -0.87917854069E+02  0.13569475505E+03  0.92031197212E+02 0.  0.
        -13    1    3    3    0    0  0.38560235685E+02  0.27453357171E+02 -0.10577413037E+03  0.11588246308E+03  0.00000000000E+00 0.  1.
         14    1    3    3    0    0 -0.15381300703E+02 -0.31604460731E+02 -0.16063808252E+03  0.16443849886E+03  0.00000000000E+00 0. -1.
        -13    1    4    4    0    0 -0.13158167241E+02 -0.35805672873E+02 -0.77546584792E+02  0.86421388486E+02  0.00000000000E+00 0.  1.
         13    1    4    4    0    0 -0.33867018377E+02  0.34253853693E+02 -0.10371269277E+02  0.49273366568E+02  0.00000000000E+00 0. -1.
         21    1    1    2  502  501  0.23846250636E+02  0.57029227400E+01 -0.19745988029E+02  0.31481280794E+02  0.00000000000E+00 0. -1.
<scales pt_clust_5="13000.00000" pt_clust_6="13000.00000" pt_clust_7="13000.00000" pt_clust_8="13000.00000" pt_clust_9="24.51871"></scales>
<clustering>
<clus scale="   24.519">  1  9  2 -1</clus>
<clus scale="   83.964">  5  6 -1 -1</clus>
<clus scale="   88.733">  2  5  1 -1</clus>
<clus scale="   92.031">  7  8 -1 -1</clus>
<clus scale="   24.519">  1  5  2 -1</clus>
</clustering>
</event>
<event>
 9    2  0.2984928E-005  0.9234535E+02  0.7546771E-02  0.1303756E+00
          2   -1    0    0  502    0  0.00000000000E+00  0.00000000000E+00  0.17204484889E+03  0.17204484889E+03  0.00000000000E+00 0. -1.
         -1   -1    0    0    0  501 -0.00000000000E+00 -0.00000000000E+00 -0.81145151475E+02  0.81145151475E+02  0.00000000000E+00 0.  1.
         23    2    1    2    0    0 -0.14527802709E+02  0.25379779927E+01 -0.26527466276E+02  0.96733738267E+02  0.91848850119E+02 0.  0.
         24    2    1    2    0    0 -0.56938370918E+01 -0.23256088404E+01  0.82198922233E+02  0.11583620778E+03  0.81385109070E+02 0.  0.
        -13    1    4    4    0    0  0.27713993170E+02 -0.11905999409E+02  0.74308932937E+02  0.80197479721E+02  0.00000000000E+00 0.  1.
         14    1    4    4    0    0 -0.33407830262E+02  0.95803905685E+01  0.78899892964E+01  0.35638728055E+02  0.00000000000E+00 0. -1.
        -11    1    3    3    0    0 -0.20749049010E+02 -0.26415514686E+02  0.21807227340E+02  0.40048191160E+02  0.00000000000E+00 0. -1.
         11    1    3    3    0    0  0.62212463007E+01  0.28953492678E+02 -0.48334693616E+02  0.56685547107E+02  0.00000000000E+00 0.  1.
         21    1    1    2  502  501  0.20221639801E+02 -0.21236915224E+00  0.35228241462E+02  0.40620054325E+02  0.00000000000E+00 0. -1.
<scales pt_clust_5="13000.00000" pt_clust_6="13000.00000" pt_clust_7="13000.00000" pt_clust_8="13000.00000" pt_clust_9="20.22275"></scales>
<clustering>
<clus scale="   20.223">  1  9  2 -1</clus>
<clus scale="   81.385">  5  6 -1 -1</clus>
<clus scale="   81.945">  1  5  2 -1</clus>
<clus scale="   91.849">  7  8 -1 -1</clus>
<clus scale="   20.223">  1  5  2 -1</clus>
</clustering>
</event>
<event>
 9    2  0.2984928E-005  0.9936698E+02  0.7546771E-02  0.1288164E+00
          2   -1    0    0  502    0  0.00000000000E+00  0.00000000000E+00  0.62664809032E+02  0.62664809032E+02  0.00000000000E+00 0. -1.
         -1   -1    0    0    0  501 -0.00000000000E+00 -0.00000000000E+00 -0.31160942163E+03  0.31160942163E+03  0.00000000000E+00 0.  1.
         24    2    1    2    0    0 -0.31811552721E+02  0.17069556539E+02 -0.21718434188E+03  0.23389806846E+03  0.78967863230E+02 0.  0.
         23    2    1    2    0    0  0.32063208218E+02 -0.40264999814E+02 -0.44257046565E+02  0.11402732303E+03  0.91620001607E+02 0.  0.
        -13    1    3    3    0    0 -0.49345401987E+01  0.35038268487E+02 -0.18473014233E+03  0.18808842450E+03  0.00000000000E+00 0.  1.
         14    1    3    3    0    0 -0.26877012522E+02 -0.17968711948E+02 -0.32454199555E+02  0.45809643962E+02  0.00000000000E+00 0. -1.
        -13    1    4    4    0    0  0.54868358932E+02 -0.88685461599E+01 -0.55464727051E+00  0.55583230893E+02  0.00000000000E+00 0. -1.
         13    1    4    4    0    0 -0.22805150713E+02 -0.31396453655E+02 -0.43702399295E+02  0.58444092133E+02  0.00000000000E+00 0.  1.
         21    1    1    2  502  501 -0.25165549792E+00  0.23195443275E+02  0.12496775851E+02  0.26348839175E+02  0.00000000000E+00 0.  1.
<scales pt_clust_5="13000.00000" pt_clust_6="13000.00000" pt_clust_7="13000.00000" pt_clust_8="13000.00000" pt_clust_9="23.19681"></scales>
<clustering>
<clus scale="   23.197">  1  9  2 -1</clus>
<clus scale="   78.968">  5  6 -1 -1</clus>
<clus scale="   87.838">  2  5  1 -1</clus>
<clus scale="   91.620">  7  8 -1 -1</clus>
<clus scale="   23.197">  1  5  2 -1</clus>
</clustering>
</event>
<event>
 9    2  0.2984928E-005  0.9343968E+02  0.7546771E-02  0.1303718E+00
          2   -1    0    0  502    0  0.00000000000E+00  0.00000000000E+00  0.24413930564E+03  0.24413930564E+03  0.00000000000E+00 0. -1.
         -1   -1    0    0    0  501 -0.00000000000E+00 -0.00000000000E+00 -0.47068878836E+02  0.47068878836E+02  0.00000000000E+00 0.  1.
         23    2    1    2    0    0 -0.15656333384E+01 -0.11942050195E+02  0.39157965634E+02  0.99101568574E+02  0.90236970531E+02 0.  0.
         24    2    1    2    0    0 -0.16457344271E+02  0.24397141740E+02  0.14663453048E+03  0.16746622735E+03  0.75347110552E+02 0.  0.
        -11    1    4    4    0    0 -0.41469574584E+02 -0.41315211791E+01  0.91439722823E+02  0.10048889488E+03  0.00000000000E+00 0.  1.
         12    1    4    4    0    0  0.25012230313E+02  0.28528662919E+02  0.55194807661E+02  0.66977332478E+02  0.00000000000E+00 0. -1.
        -11    1    3    3    0    0 -0.10768330073E+02  0.30225165387E+02  0.45294512843E+02  0.55507751251E+02  0.00000000000E+00 0. -1.
         11    1    3    3    0    0  0.92026967346E+01 -0.42167215582E+02 -0.61365472094E+01  0.43593817323E+02  0.00000000000E+00 0.  1.
         21    1    1    2  502  501  0.18022977609E+02 -0.12455091545E+02  0.11277930690E+02  0.24640388551E+02  0.00000000000E+00 0.  1.
<scales pt_clust_5="13000.00000" pt_clust_6="13000.00000" pt_clust_7="13000.00000" pt_clust_8="13000.00000" pt_clust_9="21.90792"></scales>
<clustering>
<clus scale="   21.908">  2  9  1 -1</clus>
<clus scale="   75.347">  5  6 -1 -1</clus>
<clus scale="   79.155">  1  5  2 -1</clus>
<clus scale="   90.237">  7  8 -1 -1</clus>
<clus scale="   79.155">  1  5  2 -1</clus>
</clustering>
</event>
<event>
 9    2  0.2984928E-005  0.1135281E+03  0.7546771E-02  0.1258046E+00
         -1   -1    0    0    0  501 -0.00000000000E+00  0.00000000000E+00  0.23332251988E+03  0.23332251988E+03  0.00000000000E+00 0.  1.
          2   -1    0    0  502    0  0.00000000000E+00 -0.00000000000E+00 -0.30118543657E+03  0.30118543657E+03  0.00000000000E+00 0. -1.
         24    2    1    2    0    0 -0.49982659126E+02  0.49394338082E+02  0.18572265973E+03  0.21401438544E+03  0.79819696762E+02 0.  0.
         23    2    1    2    0    0  0.57253254111E+02 -0.21786212869E+02 -0.59812603262E+02  0.12462873176E+03  0.90565993026E+02 0.  0.
        -13    1    3    3    0    0 -0.63373177084E+02  0.21830475817E+02  0.82268696962E+02  0.10611723587E+03  0.00000000000E+00 0.  1.
         14    1    3    3    0    0  0.13390517958E+02  0.27563862265E+02  0.10345396277E+03  0.10789714958E+03  0.00000000000E+00 0. -1.
        -11    1    4    4    0    0 -0.21684203147E+02 -0.11182303397E+02  0.10031772192E+01  0.24418332046E+02  0.00000000000E+00 0.  1.
         11    1    4    4    0    0  0.78937457258E+02 -0.10603909472E+02 -0.60815780481E+02  0.10021039971E+03  0.00000000000E+00 0. -1.
         21    1    1    2  502  501 -0.72705949852E+01 -0.27608125213E+02 -0.19377297315E+03  0.19586483925E+03  0.00000000000E+00 0.  1.
<scales pt_clust_5="13000.00000" pt_clust_6="13000.00000" pt_clust_7="13000.00000" pt_clust_8="13000.00000" pt_clust_9="28.54943"></scales>
<clustering>
<clus scale="   28.549">  2  9  1 -1</clus>
<clus scale="   79.820">  5  6 -1 -1</clus>
<clus scale="   90.566">  7  8 -1 -1</clus>
<clus scale="  105.155">  1  5  2 -1</clus>
<clus scale="   28.549">  2  5  1 -1</clus>
</clustering>
</event>
<event>
 9    2  0.2984928E-005  0.1616310E+03  0.7546771E-02  0.1203497E+00
         -1   -1    0    0    0  501 -0.00000000000E+00  0.00000000000E+00  0.99334832206E+02  0.99334832206E+02  0.00000000000E+00 0.  1.
          2   -1    0    0  502    0  0.00000000000E+00 -0.00000000000E+00 -0.61466406050E+03  0.61466406050E+03  0.00000000000E+00 0. -1.
         23    2    1    2    0    0  0.59169386035E+01 -0.23913555109E+02 -0.52039417946E+01  0.11241570746E+03  0.10955976448E+03 0.  0.
         24    2    1    2    0    0 -0.11940319067E+03 -0.59389556346E+02 -0.16160277976E+03  0.22570225265E+03  0.83915475810E+02 0.  0.
        -11    1    4    4    0    0 -0.11431553475E+03 -0.31985113475E+02 -0.90308973480E+02  0.14915361095E+03  0.00000000000E+00 0.  1.
         12    1    4    4    0    0 -0.50876559172E+01 -0.27404442871E+02 -0.71293806278E+02  0.76548641695E+02  0.00000000000E+00 0. -1.
        -13    1    3    3    0    0  0.20161230923E+01 -0.67999481375E+02 -0.37945122112E+01  0.68135105067E+02  0.00000000000E+00 0.  1.
         13    1    3    3    0    0  0.39008155112E+01  0.44085926266E+02 -0.14094295834E+01  0.44280602391E+02  0.00000000000E+00 0. -1.
         21    1    1    2  502  501  0.11348625206E+03  0.83303111456E+02 -0.34852250674E+03  0.37588093260E+03  0.00000000000E+00 0.  1.
<scales pt_clust_5="13000.00000" pt_clust_6="13000.00000" pt_clust_7="13000.00000" pt_clust_8="13000.00000" pt_clust_9="138.14041"></scales>
<clustering>
<clus scale="   83.915">  5  6 -1 -1</clus>
<clus scale="  109.560">  7  8 -1 -1</clus>
<clus scale="  112.295">  1  7  2 -1</clus>
<clus scale="  138.140">  2  9  1 -1</clus>
<clus scale="  138.140">  2  5  1 -1</clus>
</clustering>
</event>
<event>
 9    2  0.2984928E-005  0.1297952E+03  0.7546771E-02  0.1229162E+00
          2   -1    0    0  502    0  0.00000000000E+00  0.00000000000E+00  0.11518604671E+04  0.11518604671E+04  0.00000000000E+00 0. -1.
         -1   -1    0    0    0  501 -0.00000000000E+00 -0.00000000000E+00 -0.16759433191E+03  0.16759433191E+03  0.00000000000E+00 0.  1.
         24    2    1    2    0    0 -0.47046711422E+02  0.90024921880E+02 -0.11870456712E+03  0.17737840308E+03  0.83990737643E+02 0.  0.
         23    2    1    2    0    0 -0.57937510187E+02 -0.63372920690E+02  0.22045655719E+03  0.25294016773E+03  0.89469283436E+02 0.  0.
        -11    1    3    3    0    0 -0.23386852717E+02  0.62089468302E+02 -0.12375966753E+03  0.14042258459E+03  0.00000000000E+00 0.  1.
         12    1    3    3    0    0 -0.23659858705E+02  0.27935453578E+02  0.50551004131E+01  0.36955818496E+02  0.00000000000E+00 0. -1.
        -13    1    4    4    0    0 -0.72293462090E+02 -0.30517295906E+02  0.19115622129E+03  0.20663579300E+03  0.00000000000E+00 0.  1.
         13    1    4    4    0    0  0.14355951904E+02 -0.32855624784E+02  0.29300335895E+02  0.46304374724E+02  0.00000000000E+00 0. -1.
         21    1    1    2  502  501  0.10498422161E+03 -0.26652001190E+02  0.88251414515E+03  0.88913622822E+03  0.00000000000E+00 0. -1.
<scales pt_clust_5="13000.00000" pt_clust_6="13000.00000" pt_clust_7="13000.00000" pt_clust_8="13000.00000" pt_clust_9="108.31443"></scales>
<clustering>
<clus scale="   83.991">  5  6 -1 -1</clus>
<clus scale="   89.469">  7  8 -1 -1</clus>
<clus scale="  108.314">  1  9  2 -1</clus>
<clus scale="  126.081">  2  5  1 -1</clus>
<clus scale="  108.314">  1  5  2 -1</clus>
</clustering>
</event>
<event>
 9    2  0.2984928E-005  0.1004109E+03  0.7546771E-02  0.1279588E+00
         -1   -1    0    0    0  501 -0.00000000000E+00  0.00000000000E+00  0.24155973266E+03  0.24155973266E+03  0.00000000000E+00 0.  1.
          2   -1    0    0  502    0  0.00000000000E+00 -0.00000000000E+00 -0.96378656267E+02  0.96378656267E+02  0.00000000000E+00 0. -1.
         23    2    1    2    0    0  0.47233845238E+02 -0.31153324386E+02  0.19052428099E+03  0.21606293256E+03  0.84747409520E+02 0.  0.
         24    2    1    2    0    0 -0.30873112223E+02  0.18406822453E+02 -0.36305776901E+02  0.99251973098E+02  0.85093387265E+02 0.  0.
        -11    1    4    4    0    0  0.19325635366E+02 -0.59963081845E+01  0.13598709738E+02  0.24379516006E+02  0.00000000000E+00 0.  1.
         12    1    4    4    0    0 -0.50198747589E+02  0.24403130637E+02 -0.49904486639E+02  0.74872457092E+02  0.00000000000E+00 0. -1.
        -11    1    3    3    0    0 -0.17671024354E+01  0.24301690936E+02  0.25842118913E+02  0.35517741247E+02  0.00000000000E+00 0. -1.
         11    1    3    3    0    0  0.49000947673E+02 -0.55455015322E+02  0.16468216208E+03  0.18054519131E+03  0.00000000000E+00 0.  1.
         21    1    1    2  502  501 -0.16360733015E+02  0.12746501934E+02 -0.90374276940E+01  0.22623483279E+02  0.00000000000E+00 0.  1.
<scales pt_clust_5="13000.00000" pt_clust_6="13000.00000" pt_clust_7="13000.00000" pt_clust_8="13000.00000" pt_clust_9="20.73998"></scales>
<clustering>
<clus scale="   20.740">  2  9  1 -1</clus>
<clus scale="   84.747">  7  8 -1 -1</clus>
<clus scale="   85.093">  5  6 -1 -1</clus>
<clus scale="  100.118">  1  7  2 -1</clus>
<clus scale="   20.740">  2  5  1 -1</clus>
</clustering>
</event>
<event>
 9    2  0.2984928E-005  0.9506274E+02  0.7546771E-02  0.1297268E+00
         -1   -1    0    0    0  501 -0.00000000000E+00  0.00000000000E+00  0.17204911709E+02  0.17204911709E+02  0.00000000000E+00 0.  1.
          2   -1    0    0  502    0  0.00000000000E+00 -0.00000000000E+00 -0.81408787992E+03  0.81408787992E+03  0.00000000000E+00 0. -1.
         24    2    1    2    0    0 -0.29371040200E+02 -0.52404410310E+01 -0.15605214785E+03  0.17800601573E+03  0.80272962853E+02 0.  0.
         23    2    1    2    0    0  0.11242768302E+02  0.27351257461E+02 -0.43200720428E+03  0.44251480176E+03  0.91184615504E+02 0.  0.
        -13    1    3    3    0    0  0.90655900293E+01  0.22660563768E+02 -0.13807968445E+02  0.28041862731E+02  0.00000000000E+00 0.  1.
         14    1    3    3    0    0 -0.38436630230E+02 -0.27901004799E+02 -0.14224417940E+03  0.14996415300E+03  0.00000000000E+00 0. -1.
        -13    1    4    4    0    0  0.49835131400E+02  0.73790796216E+01 -0.18613102427E+03  0.19282828977E+03  0.00000000000E+00 0.  1.
         13    1    4    4    0    0 -0.38592363098E+02  0.19972177840E+02 -0.24587618000E+03  0.24968651199E+03  0.00000000000E+00 0. -1.
         21    1    1    2  502  501  0.18128271898E+02 -0.22110816430E+02 -0.20882361609E+03  0.21077197413E+03  0.00000000000E+00 0. -1.
<scales pt_clust_5="13000.00000" pt_clust_6="13000.00000" pt_clust_7="13000.00000" pt_clust_8="13000.00000" pt_clust_9="28.59235"></scales>
<clustering>
<clus scale="   28.592">  2  9  1 -1</clus>
<clus scale="   80.273">  5  6 -1 -1</clus>
<clus scale="   84.652">  1  5  2 -1</clus>
<clus scale="   91.185">  7  8 -1 -1</clus>
<clus scale="   28.592">  2  5  1 -1</clus>
</clustering>
</event>
<event>
 9    2  0.2984928E-005  0.9802909E+02  0.7546771E-02  0.1286628E+00
          2   -1    0    0  502    0  0.00000000000E+00  0.00000000000E+00  0.22802065141E+03  0.22802065141E+03  0.00000000000E+00 0. -1.
         -1   -1    0    0    0  501 -0.00000000000E+00 -0.00000000000E+00 -0.13796190275E+03  0.13796190275E+03  0.00000000000E+00 0.  1.
         23    2    1    2    0    0  0.19555079270E+02 -0.42967232363E+02 -0.10149103126E+03  0.14116420115E+03  0.86013476133E+02 0.  0.
         24    2    1    2    0    0  0.12612769905E+01  0.49922415663E+02  0.15921568330E+03  0.18573908655E+03  0.81581468842E+02 0.  0.
        -13    1    4    4    0    0  0.48156056748E+01 -0.22543516844E+02  0.35934386068E+02  0.42692860197E+02  0.00000000000E+00 0.  1.
         14    1    4    4    0    0 -0.35543286843E+01  0.72465932508E+02  0.12328129724E+03  0.14304622636E+03  0.00000000000E+00 0. -1.
        -13    1    3    3    0    0  0.29645712893E+02 -0.66010686170E+02 -0.81836385148E+02  0.10924043627E+03  0.00000000000E+00 0. -1.
         13    1    3    3    0    0 -0.10090633623E+02  0.23043453807E+02 -0.19654646112E+02  0.31923764879E+02  0.00000000000E+00 0.  1.
         21    1    1    2  502  501 -0.20816356261E+02 -0.69551833007E+01  0.32334096618E+02  0.39079266457E+02  0.00000000000E+00 0. -1.
<scales pt_clust_5="13000.00000" pt_clust_6="13000.00000" pt_clust_7="13000.00000" pt_clust_8="13000.00000" pt_clust_9="21.94756"></scales>
<clustering>
<clus scale="   21.948">  1  9  2 -1</clus>
<clus scale="   81.581">  5  6 -1 -1</clus>
<clus scale="   86.013">  7  8 -1 -1</clus>
<clus scale="   94.164">  1  5  2 -1</clus>
<clus scale="   21.948">  1  5  2 -1</clus>
</clustering>
</event>
<event>
 9    2  0.2984928E-005  0.1404639E+03  0.7546771E-02  0.1215374E+00
         -1   -1    0    0    0  501 -0.00000000000E+00  0.00000000000E+00  0.34588367177E+03  0.34588367177E+03  0.00000000000E+00 0.  1.
          2   -1    0    0  502    0  0.00000000000E+00 -0.00000000000E+00 -0.31268367236E+03  0.31268367236E+03  0.00000000000E+00 0. -1.
         23    2    1    2    0    0  0.79760904212E+02 -0.72181987062E+02  0.31173525698E+03  0.34203981211E+03  0.90776216772E+02 0.  0.
         24    2    1    2    0    0 -0.61557897217E+02  0.81489313327E+02 -0.25273142134E+03  0.28360620535E+03  0.78290647485E+02 0.  0.
        -13    1    4    4    0    0 -0.29884069212E+02 -0.42286385201E+00 -0.12548765598E+03  0.12899762870E+03  0.00000000000E+00 0.  1.
         14    1    4    4    0    0 -0.31673828005E+02  0.81912177179E+02 -0.12724376536E+03  0.15460857665E+03  0.00000000000E+00 0. -1.
        -11    1    3    3    0    0  0.88918557644E+01 -0.42879547729E+02  0.21066694581E+03  0.21517035755E+03  0.00000000000E+00 0.  1.
         11    1    3    3    0    0  0.70869048447E+02 -0.29302439333E+02  0.10106831117E+03  0.12686945457E+03  0.00000000000E+00 0. -1.
         21    1    1    2  502  501 -0.18203006995E+02 -0.93073262648E+01 -0.25803836223E+02  0.32921326669E+02  0.00000000000E+00 0. -1.
<scales pt_clust_5="13000.00000" pt_clust_6="13000.00000" pt_clust_7="13000.00000" pt_clust_8="13000.00000" pt_clust_9="20.44446"></scales>
<clustering>
<clus scale="   20.444">  2  9  1 -1</clus>
<clus scale="   78.291">  5  6 -1 -1</clus>
<clus scale="   90.776">  7  8 -1 -1</clus>
<clus scale="  132.737">  2  5  1 -1</clus>
<clus scale="   20.444">  2  5  1 -1</clus>
</clustering>
</event>
<event>
 9    2  0.2984928E-005  0.1124956E+03  0.7546771E-02  0.1266045E+00
          2   -1    0    0  502    0  0.00000000000E+00  0.00000000000E+00  0.67013265341E+03  0.67013265341E+03  0.00000000000E+00 0. -1.
         -1   -1    0    0    0  501 -0.00000000000E+00 -0.00000000000E+00 -0.46508104506E+02  0.46508104506E+02  0.00000000000E+00 0.  1.
         23    2    1    2    0    0  0.17544287196E+02 -0.45912427530E+02  0.43780273092E+02  0.12187290657E+03  0.10256968378E+03 0.  0.
         24    2    1    2    0    0 -0.32879770820E+02  0.16392728657E+02  0.50827386791E+03  0.51584438863E+03  0.80020669810E+02 0.  0.
        -11    1    4    4    0    0  0.23757598547E+02 -0.36496855452E+01  0.85185159928E+02  0.88511327893E+02  0.00000000000E+00 0.  1.
         12    1    4    4    0    0 -0.56637369367E+02  0.20042414202E+02  0.42308870799E+03  0.42733306074E+03  0.00000000000E+00 0. -1.
        -11    1    3    3    0    0 -0.22409937922E+02 -0.15646509596E+02  0.62620698226E+02  0.68325474213E+02  0.00000000000E+00 0. -1.
         11    1    3    3    0    0  0.39954225118E+02 -0.30265917934E+02 -0.18840425133E+02  0.53547432360E+02  0.00000000000E+00 0.  1.
         21    1    1    2  502  501  0.15335483624E+02  0.29519698873E+02  0.71570407894E+02  0.78923462706E+02  0.00000000000E+00 0.  1.
<scales pt_clust_5="13000.00000" pt_clust_6="13000.00000" pt_clust_7="13000.00000" pt_clust_8="13000.00000" pt_clust_9="33.26544"></scales>
<clustering>
<clus scale="   33.265">  1  9  2 -1</clus>
<clus scale="   80.021">  5  6 -1 -1</clus>
<clus scale="   92.401">  1  5  2 -1</clus>
<clus scale="  102.570">  7  8 -1 -1</clus>
<clus scale="   33.265">  1  5  2 -1</clus>
</clustering>
</event>
<event>
 9    2  0.2984928E-005  0.1075078E+03  0.7546771E-02  0.1270428E+00
          2   -1    0    0  502    0  0.00000000000E+00  0.00000000000E+00  0.84056606378E+02  0.84056606378E+02  0.00000000000E+00 0. -1.
         -1   -1    0    0    0  501 -0.00000000000E+00 -0.00000000000E+00 -0.21923013748E+03  0.21923013748E+03  0.00000000000E+00 0.  1.
         23    2    1    2    0    0 -0.48807517647E+02  0.36703624782E+02 -0.15439946701E+03  0.18968658701E+03  0.91719550955E+02 0.  0.
         24    2    1    2    0    0  0.30275413721E+02 -0.26014039933E+02  0.23109723645E+02  0.91856424253E+02  0.79436845355E+02 0.  0.
        -11    1    4    4    0    0 -0.27041361829E+02 -0.13178962327E+02  0.59480075588E+01  0.30664296690E+02  0.00000000000E+00 0.  1.
         12    1    4    4    0    0  0.57316775550E+02 -0.12835077606E+02  0.17161716087E+02  0.61192127563E+02  0.00000000000E+00 0. -1.
        -11    1    3    3    0    0 -0.19183204759E+02 -0.27581448493E+02 -0.81130171416E+02  0.87811368055E+02  0.00000000000E+00 0. -1.
         11    1    3    3    0    0 -0.29624312888E+02  0.64285073275E+02 -0.73269295594E+02  0.10187521895E+03  0.00000000000E+00 0.  1.
         21    1    1    2  502  501  0.18532103926E+02 -0.10689584849E+02 -0.38837877424E+01  0.21743732600E+02  0.00000000000E+00 0. -1.
<scales pt_clust_5="13000.00000" pt_clust_6="13000.00000" pt_clust_7="13000.00000" pt_clust_8="13000.00000" pt_clust_9="21.39407"></scales>
<clustering>
<clus scale="   21.394">  1  9  2 -1</clus>
<clus scale="   79.437">  5  6 -1 -1</clus>
<clus scale="   91.720">  7  8 -1 -1</clus>
<clus scale="   97.240">  1  5  2 -1</clus>
<clus scale="   21.394">  1  5  2 -1</clus>
</clustering>
</event>
<event>
 9    2  0.2984928E-005  0.2507370E+03  0.7546771E-02  0.1152524E+00
         -1   -1    0    0    0  501 -0.00000000000E+00  0.00000000000E+00  0.31515577100E+02  0.31515577100E+02  0.00000000000E+00 0.  1.
          2   -1    0    0  502    0  0.00000000000E+00 -0.00000000000E+00 -0.28613830303E+04  0.28613830303E+04  0.00000000000E+00 0. -1.
         24    2    1    2    0    0  0.25884151346E+02 -0.42642716826E+02 -0.25609511870E+03  0.27315812329E+03  0.80884237686E+02 0.  0.
         23    2    1    2    0    0  0.11555530823E+03 -0.17036208553E+03 -0.97348092268E+03  0.99915146487E+03  0.90897048816E+02 0.  0.
        -13    1    3    3    0    0  0.58753829848E+01 -0.64673707345E+02 -0.16474151453E+03  0.17707900823E+03  0.00000000000E+00 0.  1.
         14    1    3    3    0    0  0.20008768362E+02  0.22030990520E+02 -0.91353604168E+02  0.96079115052E+02  0.00000000000E+00 0. -1.
        -11    1    4    4    0    0  0.10486662926E+03 -0.79461818053E+02 -0.50834238682E+03  0.52509348949E+03  0.00000000000E+00 0.  1.
         11    1    4    4    0    0  0.10688678973E+02 -0.90900267478E+02 -0.46513853586E+03  0.47405797539E+03  0.00000000000E+00 0. -1.
         21    1    1    2  502  501 -0.14143945957E+03  0.21300480236E+03 -0.16002914118E+04  0.16205890193E+04  0.00000000000E+00 0. -1.
<scales pt_clust_5="13000.00000" pt_clust_6="13000.00000" pt_clust_7="13000.00000" pt_clust_8="13000.00000" pt_clust_9="233.68093"></scales>
<clustering>
<clus scale="   80.884">  5  6 -1 -1</clus>
<clus scale="   90.897">  7  8 -1 -1</clus>
<clus scale="   95.030">  1  5  2 -1</clus>
<clus scale="  233.681">  2  9  1 -1</clus>
<clus scale="  233.681">  2  5  1 -1</clus>
</clustering>
</event>
<event>
 9    2  0.2984928E-005  0.9382648E+02  0.7546771E-02  0.1300820E+00
         -1   -1    0    0    0  501 -0.00000000000E+00  0.00000000000E+00  0.40708063654E+02  0.40708063654E+02  0.00000000000E+00 0.  1.
          2   -1    0    0  502    0  0.00000000000E+00 -0.00000000000E+00 -0.26452608139E+03  0.26452608139E+03  0.00000000000E+00 0. -1.
         23    2    1    2    0    0 -0.41956934891E+01  0.92576906808E+01 -0.75740362107E+02  0.12009218851E+03  0.92640286096E+02 0.  0.
         24    2    1    2    0    0  0.26440703537E+02  0.17456074391E+01 -0.10362731533E+03  0.13423276489E+03  0.81102754197E+02 0.  0.
        -13    1    4    4    0    0 -0.10854715324E+01  0.20048444400E+02  0.49968751577E+01  0.20690266617E+02  0.00000000000E+00 0.  1.
         14    1    4    4    0    0  0.27526175069E+02 -0.18302836961E+02 -0.10862419049E+03  0.11354249827E+03  0.00000000000E+00 0. -1.
        -13    1    3    3    0    0  0.28635644544E+02 -0.29015202407E+02 -0.21709010557E+02  0.46186180276E+02  0.00000000000E+00 0. -1.
         13    1    3    3    0    0 -0.32831338033E+02  0.38272893088E+02 -0.54031351550E+02  0.73906008232E+02  0.00000000000E+00 0.  1.
         21    1    1    2  502  501 -0.22245010048E+02 -0.11003298120E+02 -0.44450340294E+02  0.50909191644E+02  0.00000000000E+00 0.  1.
<scales pt_clust_5="13000.00000" pt_clust_6="13000.00000" pt_clust_7="13000.00000" pt_clust_8="13000.00000" pt_clust_9="24.81760"></scales>
<clustering>
<clus scale="   24.818">  2  9  1 -1</clus>
<clus scale="   81.103">  5  6 -1 -1</clus>
<clus scale="   82.455">  2  5  1 -1</clus>
<clus scale="   92.640">  7  8 -1 -1</clus>
<clus scale="   24.818">  2  5  1 -1</clus>
</clustering>
</event>
<event>
 9    2  0.2984928E-005  0.1383414E+03  0.7546771E-02  0.1218016E+00
         -1   -1    0    0    0  501 -0.00000000000E+00  0.00000000000E+00  0.10699796606E+03  0.10699796606E+03  0.00000000000E+00 0.  1.
          2   -1    0    0  502    0  0.00000000000E+00 -0.00000000000E+00 -0.57676851376E+03  0.57676851376E+03  0.00000000000E+00 0. -1.
         24    2    1    2    0    0 -0.70473755804E+01 -0.78449309369E+02  0.26741274513E+02  0.11570889493E+03  0.80433158344E+02 0.  0.
         23    2    1    2    0    0 -0.50514091821E+02  0.96744695991E+02 -0.48643340534E+03  0.50682345888E+03  0.91330996719E+02 0.  0.
        -11    1    3    3    0    0  0.96309280782E+01 -0.90892376035E+02  0.18093120038E+02  0.93174780867E+02  0.00000000000E+00 0.  1.
         12    1    3    3    0    0 -0.16678303659E+02  0.12443066665E+02  0.86481544746E+01  0.22534114067E+02  0.00000000000E+00 0. -1.
        -13    1    4    4    0    0 -0.45415051157E+02  0.12876753474E+02 -0.90485590117E+02  0.10205870698E+03  0.00000000000E+00 0.  1.
         13    1    4    4    0    0 -0.50990406642E+01  0.83867942517E+02 -0.39594781522E+03  0.40476475190E+03  0.00000000000E+00 0. -1.
         21    1    1    2  502  501  0.57561467401E+02 -0.18295386622E+02 -0.10078416868E+02  0.61234126005E+02  0.00000000000E+00 0.  1.
<scales pt_clust_5="13000.00000" pt_clust_6="13000.00000" pt_clust_7="13000.00000" pt_clust_8="13000.00000" pt_clust_9="60.39904"></scales>
<clustering>
<clus scale="   60.399">  1  9  2 -1</clus>
<clus scale="   80.433">  5  6 -1 -1</clus>
<clus scale="   91.331">  7  8 -1 -1</clus>
<clus scale="  131.402">  1  5  2 -1</clus>
<clus scale="  138.341">  2  5  1 -1</clus>
</clustering>
</event>
<event>
 9    2  0.2984928E-005  0.1006399E+03  0.7546771E-02  0.1283643E+00
          2   -1    0    0  502    0  0.00000000000E+00  0.00000000000E+00  0.70826386433E+03  0.70826386433E+03  0.00000000000E+00 0. -1.
         -1   -1    0    0    0  501 -0.00000000000E+00 -0.00000000000E+00 -0.38728381405E+02  0.38728381405E+02  0.00000000000E+00 0.  1.
         23    2    1    2    0    0  0.12625479736E+02 -0.43299047138E+02  0.49196971296E+02  0.11324514859E+03  0.91487220267E+02 0.  0.
         24    2    1    2    0    0 -0.26090393918E+02  0.13279108054E+02  0.53940072605E+03  0.54637761855E+03  0.81965330604E+02 0.  0.
        -13    1    4    4    0    0  0.19946659567E+02 -0.94346905596E+01  0.54952471983E+02  0.59217031257E+02  0.00000000000E+00 0.  1.
         14    1    4    4    0    0 -0.46037053485E+02  0.22713798614E+02  0.48444825407E+03  0.48716058729E+03  0.00000000000E+00 0. -1.
        -11    1    3    3    0    0  0.28570091979E+01  0.26097611912E+02  0.31420295529E+02  0.40944875384E+02  0.00000000000E+00 0. -1.
         11    1    3    3    0    0  0.97684705377E+01 -0.69396659050E+02  0.17776675767E+02  0.72300273204E+02  0.00000000000E+00 0.  1.
         21    1    1    2  502  501  0.13464914183E+02  0.30019939084E+02  0.80937785580E+02  0.87369478602E+02  0.00000000000E+00 0. -1.
<scales pt_clust_5="13000.00000" pt_clust_6="13000.00000" pt_clust_7="13000.00000" pt_clust_8="13000.00000" pt_clust_9="32.90138"></scales>
<clustering>
<clus scale="   32.901">  1  9  2 -1</clus>
<clus scale="   81.965">  5  6 -1 -1</clus>
<clus scale="   91.487">  7  8 -1 -1</clus>
<clus scale="   92.069">  1  5  2 -1</clus>
<clus scale="   32.901">  1  5  2 -1</clus>
</clustering>
</event>
<event>
 9    2  0.2984928E-005  0.1303985E+03  0.7546771E-02  0.1244624E+00
          2   -1    0    0  502    0  0.00000000000E+00  0.00000000000E+00  0.68207421661E+02  0.68207421661E+02  0.00000000000E+00 0. -1.
         -1   -1    0    0    0  501 -0.00000000000E+00 -0.00000000000E+00 -0.75855366763E+03  0.75855366763E+03  0.00000000000E+00 0.  1.
         24    2    1    2    0    0 -0.40416529810E+02  0.83643291291E+01 -0.46252079449E+03  0.47132673386E+03  0.80746187751E+02 0.  0.
         23    2    1    2    0    0 -0.96180644638E+01 -0.85386531923E+02 -0.23048849431E+03  0.26354870832E+03  0.94602371287E+02 0.  0.
        -11    1    3    3    0    0 -0.46141959188E+02 -0.26882579257E+02 -0.31845270642E+03  0.32289917884E+03  0.00000000000E+00 0.  1.
         12    1    3    3    0    0  0.57254293788E+01  0.35246908386E+02 -0.14406808806E+03  0.14842755503E+03  0.00000000000E+00 0. -1.
        -11    1    4    4    0    0  0.32413150032E+02 -0.25621865350E+02 -0.32684444490E+02  0.52681734886E+02  0.00000000000E+00 0. -1.
         11    1    4    4    0    0 -0.42031214495E+02 -0.59764666573E+02 -0.19780404982E+03  0.21086697344E+03  0.00000000000E+00 0.  1.
         21    1    1    2  502  501  0.50034594273E+02  0.77022202794E+02  0.26630428235E+01  0.91885647108E+02  0.00000000000E+00 0. -1.
<scales pt_clust_5="13000.00000" pt_clust_6="13000.00000" pt_clust_7="13000.00000" pt_clust_8="13000.00000" pt_clust_9="89.74494"></scales>
<clustering>
<clus scale="   80.746">  5  6 -1 -1</clus>
<clus scale="   90.683">  2  5  1 -1</clus>
<clus scale="   89.745">  1  9  2 -1</clus>
<clus scale="   94.602">  7  8 -1 -1</clus>
<clus scale="   89.745">  1  5  2 -1</clus>
</clustering>
</event>
<event>
 9    2  0.2984928E-005  0.3520968E+03  0.7546771E-02  0.1061958E+00
          2   -1    0    0  502    0  0.00000000000E+00  0.00000000000E+00  0.81862652881E+03  0.81862652881E+03  0.00000000000E+00 0. -1.
         -1   -1    0    0    0  501 -0.00000000000E+00 -0.00000000000E+00 -0.29870086571E+03  0.29870086571E+03  0.00000000000E+00 0.  1.
         23    2    1    2    0    0 -0.19419555879E+03 -0.27337453849E+03 -0.12131662216E+03  0.36827022628E+03  0.91976537247E+02 0.  0.
         24    2    1    2    0    0  0.19129524750E+03  0.29457035959E+03  0.59342823573E+03  0.69667532053E+03  0.99165834935E+02 0.  0.
        -13    1    4    4    0    0  0.53721998040E+02  0.96501558205E+02  0.28152315055E+03  0.30241343903E+03  0.00000000000E+00 0.  1.
         14    1    4    4    0    0  0.13757324946E+03  0.19806880138E+03  0.31190508517E+03  0.39426188150E+03  0.00000000000E+00 0. -1.
        -11    1    3    3    0    0 -0.20022946672E+03 -0.23657473412E+03 -0.11420947312E+03  0.33030780783E+03  0.00000000000E+00 0.  1.
         11    1    3    3    0    0  0.60339079304E+01 -0.36799804371E+02 -0.71071490354E+01  0.37962418443E+02  0.00000000000E+00 0. -1.
         21    1    1    2  502  501  0.29003112939E+01 -0.21195821100E+02  0.47814049532E+02  0.52381847718E+02  0.00000000000E+00 0. -1.
<scales pt_clust_5="13000.00000" pt_clust_6="13000.00000" pt_clust_7="13000.00000" pt_clust_8="13000.00000" pt_clust_9="21.39333"></scales>
<clustering>
<clus scale="   21.393">  1  9  2 -1</clus>
<clus scale="   91.977">  7  8 -1 -1</clus>
<clus scale="   99.166">  5  6 -1 -1</clus>
<clus scale="  350.140">  2  7  1 -1</clus>
<clus scale="   21.393">  1  5  2 -1</clus>
</clustering>
</event>
<event>
 9    2  0.2984928E-005  0.1461901E+03  0.7546771E-02  0.1208211E+00
         -1   -1    0    0    0  501 -0.00000000000E+00  0.00000000000E+00  0.37209258676E+02  0.37209258676E+02  0.00000000000E+00 0.  1.
          2   -1    0    0  502    0  0.00000000000E+00 -0.00000000000E+00 -0.12500473741E+04  0.12500473741E+04  0.00000000000E+00 0. -1.
         23    2    1    2    0    0  0.10352924591E+03 -0.29508514730E+02 -0.15929267927E+03  0.21446385144E+03  0.95034355408E+02 0.  0.
         24    2    1    2    0    0 -0.13063804445E+03 -0.90067132288E+01 -0.74613019390E+03  0.76179046476E+03  0.80417823922E+02 0.  0.
        -11    1    4    4    0    0 -0.56986239933E+02  0.23001256622E+02 -0.18492264928E+03  0.19486630177E+03  0.00000000000E+00 0.  1.
         12    1    4    4    0    0 -0.73651804516E+02 -0.32007969851E+02 -0.56120754462E+03  0.56692416299E+03  0.00000000000E+00 0. -1.
        -13    1    3    3    0    0  0.13381174011E+02 -0.48068239988E+02 -0.72102861787E+02  0.87683716797E+02  0.00000000000E+00 0. -1.
         13    1    3    3    0    0  0.90148071901E+02  0.18559725258E+02 -0.87189817480E+02  0.12678013465E+03  0.00000000000E+00 0.  1.
         21    1    1    2  502  501  0.27108798536E+02  0.38515227958E+02 -0.30741524222E+03  0.31100231654E+03  0.00000000000E+00 0. -1.
<scales pt_clust_5="13000.00000" pt_clust_6="13000.00000" pt_clust_7="13000.00000" pt_clust_8="13000.00000" pt_clust_9="47.09894"></scales>
<clustering>
<clus scale="   47.099">  2  9  1 -1</clus>
<clus scale="   80.418">  5  6 -1 -1</clus>
<clus scale="   95.034">  7  8 -1 -1</clus>
<clus scale="  137.139">  2  5  1 -1</clus>
<clus scale="   47.099">  2  5  1 -1</clus>
</clustering>
</event>
<event>
 9    2  0.2984928E-005  0.1353858E+03  0.7546771E-02  0.1224769E+00
          2   -1    0    0  502    0  0.00000000000E+00  0.00000000000E+00  0.39093152909E+03  0.39093152909E+03  0.00000000000E+00 0. -1.
         -1   -1    0    0    0  501 -0.00000000000E+00 -0.00000000000E+00 -0.19058530339E+03  0.19058530339E+03  0.00000000000E+00 0.  1.
         23    2    1    2    0    0 -0.86606475202E+01  0.85915517409E+02 -0.82657628312E+02  0.14999098082E+03  0.90600926384E+02 0.  0.
         24    2    1    2    0    0 -0.80482908686E+02  0.42608709575E+02  0.24034146451E+03  0.26939895687E+03  0.80738947701E+02 0.  0.
        -11    1    4    4    0    0 -0.64658970091E+02  0.12567160672E+00  0.80496783636E+02  0.10324984447E+03  0.00000000000E+00 0.  1.
         12    1    4    4    0    0 -0.15823938595E+02  0.42483037968E+02  0.15984468088E+03  0.16614911240E+03  0.00000000000E+00 0. -1.
        -11    1    3    3    0    0  0.15109795283E+02  0.84394053141E+02 -0.27709875593E+02  0.90102715411E+02  0.00000000000E+00 0.  1.
         11    1    3    3    0    0 -0.23770442803E+02  0.15214642672E+01 -0.54947752719E+02  0.59888265407E+02  0.00000000000E+00 0. -1.
         21    1    1    2  502  501  0.89143556207E+02 -0.12852422698E+03  0.42662389501E+02  0.16212689479E+03  0.00000000000E+00 0.  1.
<scales pt_clust_5="13000.00000" pt_clust_6="13000.00000" pt_clust_7="13000.00000" pt_clust_8="13000.00000" pt_clust_9="100.60210"></scales>
<clustering>
<clus scale="   80.739">  5  6 -1 -1</clus>
<clus scale="   90.601">  7  8 -1 -1</clus>
<clus scale="  121.704">  1  5  2 -1</clus>
<clus scale="  100.602">  1  9  2 -1</clus>
<clus scale="  121.704">  1  5  2 -1</clus>
</clustering>
</event>
<event>
 9    2  0.2984928E-005  0.9255414E+02  0.7546771E-02  0.1302368E+00
          2   -1    0    0  502    0  0.00000000000E+00  0.00000000000E+00  0.51996334589E+03  0.51996334589E+03  0.00000000000E+00 0. -1.
         -1   -1    0    0    0  501 -0.00000000000E+00 -0.00000000000E+00 -0.36123537232E+02  0.36123537232E+02  0.00000000000E+00 0.  1.
         24    2    1    2    0    0 -0.46802833503E+01  0.32193217010E+02  0.58392926931E+02  0.10486396509E+03  0.80798570441E+02 0.  0.
         23    2    1    2    0    0  0.12194114742E+02  0.83260400282E+01  0.17492536977E+03  0.19733456499E+03  0.90133379923E+02 0.  0.
        -11    1    3    3    0    0  0.25939308920E+02 -0.15601215516E+02  0.22335925724E+02  0.37618336629E+02  0.00000000000E+00 0.  1.
         12    1    3    3    0    0 -0.30619592270E+02  0.47794432526E+02  0.36057001207E+02  0.67245628462E+02  0.00000000000E+00 0. -1.
        -13    1    4    4    0    0  0.11208992727E+02 -0.40030424024E+02  0.63903658136E+02  0.76234860062E+02  0.00000000000E+00 0. -1.
         13    1    4    4    0    0  0.98512201424E+00  0.48356464053E+02  0.11102171163E+03  0.12109970493E+03  0.00000000000E+00 0.  1.
         21    1    1    2  502  501 -0.75138313913E+01 -0.40519257038E+02  0.25052151196E+03  0.25388835303E+03  0.00000000000E+00 0. -1.
<scales pt_clust_5="13000.00000" pt_clust_6="13000.00000" pt_clust_7="13000.00000" pt_clust_8="13000.00000" pt_clust_9="41.21005"></scales>
<clustering>
<clus scale="   41.210">  1  9  2 -1</clus>
<clus scale="   80.799">  5  6 -1 -1</clus>
<clus scale="   83.490">  2  5  1 -1</clus>
<clus scale="   90.133">  7  8 -1 -1</clus>
<clus scale="   41.210">  1  5  2 -1</clus>
</clustering>
</event>
<event>
 9    2  0.2984928E-005  0.2051931E+03  0.7546771E-02  0.1146270E+00
          2   -1    0    0  502    0  0.00000000000E+00  0.00000000000E+00  0.90104480965E+03  0.90104480965E+03  0.00000000000E+00 0. -1.
         -1   -1    0    0    0  501 -0.00000000000E+00 -0.00000000000E+00 -0.87835180934E+02  0.87835180934E+02  0.00000000000E+00 0.  1.
         23    2    1    2    0    0  0.20019014067E+03  0.87439372630E+02  0.16070147666E+03  0.28610158415E+03  0.91145024787E+02 0.  0.
         24    2    1    2    0    0 -0.13025768065E+03 -0.39950101301E+02  0.29086583438E+03  0.33138784949E+03  0.81559176185E+02 0.  0.
        -11    1    4    4    0    0 -0.34343266419E+02  0.22280224478E+02  0.48931214559E+02  0.63797587018E+02  0.00000000000E+00 0.  1.
         12    1    4    4    0    0 -0.95914414235E+02 -0.62230325779E+02  0.24193461982E+03  0.26759026247E+03  0.00000000000E+00 0. -1.
        -13    1    3    3    0    0  0.55038516854E+02  0.30947173488E+02  0.11851292215E+01  0.63153546343E+02  0.00000000000E+00 0. -1.
         13    1    3    3    0    0  0.14515162381E+03  0.56492199142E+02  0.15951634744E+03  0.22294803780E+03  0.00000000000E+00 0.  1.
         21    1    1    2  502  501 -0.69932460011E+02 -0.47489271329E+02  0.36164231768E+03  0.37139055695E+03  0.00000000000E+00 0. -1.
<scales pt_clust_5="13000.00000" pt_clust_6="13000.00000" pt_clust_7="13000.00000" pt_clust_8="13000.00000" pt_clust_9="84.53271"></scales>
<clustering>
<clus scale="   81.559">  5  6 -1 -1</clus>
<clus scale="   84.533">  1  9  2 -1</clus>
<clus scale="   91.145">  7  8 -1 -1</clus>
<clus scale="  201.119">  1  5  2 -1</clus>
<clus scale="   84.533">  1  5  2 -1</clus>
</clustering>
</event>
<event>
 9    2  0.2984928E-005  0.1379451E+03  0.7546771E-02  0.1218597E+00
         -1   -1    0    0    0  501 -0.00000000000E+00  0.00000000000E+00  0.17146219990E+03  0.17146219990E+03  0.00000000000E+00 0.  1.
          2   -1    0    0  502    0  0.00000000000E+00 -0.00000000000E+00 -0.18254258046E+03  0.18254258046E+03  0.00000000000E+00 0. -1.
         23    2    1    2    0    0 -0.87256591778E+02  0.41403831537E+02  0.77708803987E+02  0.15372443994E+03  0.90909598747E+02 0.  0.
         24    2    1    2    0    0  0.10974419282E+03 -0.61097968907E+02 -0.66658641283E+02  0.16308743528E+03  0.79858546358E+02 0.  0.
        -13    1    4    4    0    0  0.44404018642E+02 -0.32681164300E+02  0.12552624817E+02  0.56545059567E+02  0.00000000000E+00 0.  1.
         14    1    4    4    0    0  0.65340174182E+02 -0.28416804607E+02 -0.79211266100E+02  0.10654237572E+03  0.00000000000E+00 0. -1.
        -11    1    3    3    0    0 -0.90674534815E+02  0.12838872609E+00  0.46758512109E+02  0.10202081259E+03  0.00000000000E+00 0.  1.
         11    1    3    3    0    0  0.34179430369E+01  0.41275442811E+02  0.30950291878E+02  0.51703627350E+02  0.00000000000E+00 0. -1.
         21    1    1    2  502  501 -0.22487601046E+02  0.19694137370E+02 -0.22130543258E+02  0.37192905136E+02  0.00000000000E+00 0. -1.
<scales pt_clust_5="13000.00000" pt_clust_6="13000.00000" pt_clust_7="13000.00000" pt_clust_8="13000.00000" pt_clust_9="29.89233"></scales>
<clustering>
<clus scale="   29.892">  2  9  1 -1</clus>
<clus scale="   79.859">  5  6 -1 -1</clus>
<clus scale="   90.910">  7  8 -1 -1</clus>
<clus scale="  130.926">  2  5  1 -1</clus>
<clus scale="   29.892">  2  5  1 -1</clus>
</clustering>
</event>
<event>
 9    2  0.2984928E-005  0.1640861E+03  0.7546771E-02  0.1185951E+00
         -1   -1    0    0    0  501 -0.00000000000E+00  0.00000000000E+00  0.65028871619E+02  0.65028871619E+02  0.00000000000E+00 0.  1.
          2   -1    0    0  502    0  0.00000000000E+00 -0.00000000000E+00 -0.83765368972E+03  0.83765368972E+03  0.00000000000E+00 0. -1.
         24    2    1    2    0    0  0.16474412525E+03  0.30027028861E+02 -0.13743748747E+03  0.23071258790E+03  0.79353550571E+02 0.  0.
         23    2    1    2    0    0 -0.12940910617E+03  0.69760765214E+01 -0.55173343423E+03  0.57408051432E+03  0.91450927133E+02 0.  0.
        -11    1    3    3    0    0  0.14853247611E+03  0.23535870653E+01 -0.13086776139E+03  0.19797425793E+03  0.00000000000E+00 0.  1.
         12    1    3    3    0    0  0.16211649138E+02  0.27673441795E+02 -0.65697260783E+01  0.32738329972E+02  0.00000000000E+00 0. -1.
        -13    1    4    4    0    0 -0.90563157290E+02 -0.12031582960E+02 -0.49156352344E+03  0.49998114167E+03  0.00000000000E+00 0. -1.
         13    1    4    4    0    0 -0.38845948878E+02  0.19007659481E+02 -0.60169910791E+02  0.74099372655E+02  0.00000000000E+00 0.  1.
         21    1    1    2  502  501 -0.35335019081E+02 -0.37003105382E+02 -0.83453896405E+02  0.97889459118E+02  0.00000000000E+00 0. -1.
<scales pt_clust_5="13000.00000" pt_clust_6="13000.00000" pt_clust_7="13000.00000" pt_clust_8="13000.00000" pt_clust_9="51.16438"></scales>
<clustering>
<clus scale="   51.164">  1  9  2 -1</clus>
<clus scale="   79.354">  5  6 -1 -1</clus>
<clus scale="   91.451">  7  8 -1 -1</clus>
<clus scale="  157.664">  1  5  2 -1</clus>
<clus scale="  164.086">  2  5  1 -1</clus>
</clustering>
</event>
<event>
 9    2  0.2984928E-005  0.9809498E+02  0.7546771E-02  0.1289396E+00
         -1   -1    0    0    0  501 -0.00000000000E+00  0.00000000000E+00  0.84967234617E+02  0.84967234617E+02  0.00000000000E+00 0.  1.
          2   -1    0    0  502    0  0.00000000000E+00 -0.00000000000E+00 -0.21404617692E+03  0.21404617692E+03  0.00000000000E+00 0. -1.
         23    2    1    2    0    0  0.21240625485E+02  0.43550816483E+02  0.16849162249E+02  0.10442376142E+03  0.90953778885E+02 0.  0.
         24    2    1    2    0    0 -0.20024931455E+02  0.20572740059E+00 -0.82653980790E+02  0.11764988288E+03  0.81294367563E+02 0.  0.
        -11    1    4    4    0    0 -0.26208675272E+02  0.32792221312E+02 -0.71023365487E+02  0.82501775031E+02  0.00000000000E+00 0.  1.
         12    1    4    4    0    0  0.61837438171E+01 -0.32586493911E+02 -0.11630615303E+02  0.35148107848E+02  0.00000000000E+00 0. -1.
        -11    1    3    3    0    0 -0.93675965056E+01 -0.18871401615E+02  0.26910517656E+02  0.34176858014E+02  0.00000000000E+00 0.  1.
         11    1    3    3    0    0  0.30608221990E+02  0.62422218097E+02 -0.10061355408E+02  0.70246903407E+02  0.00000000000E+00 0. -1.
         21    1    1    2  502  501 -0.12156940302E+01 -0.43756543883E+02 -0.63274123757E+02  0.76939767233E+02  0.00000000000E+00 0. -1.
<scales pt_clust_5="13000.00000" pt_clust_6="13000.00000" pt_clust_7="13000.00000" pt_clust_8="13000.00000" pt_clust_9="43.77343"></scales>
<clustering>
<clus scale="   43.773">  2  9  1 -1</clus>
<clus scale="   81.294">  5  6 -1 -1</clus>
<clus scale="   89.212">  2  5  1 -1</clus>
<clus scale="   90.954">  7  8 -1 -1</clus>
<clus scale="   43.773">  2  5  1 -1</clus>
</clustering>
</event>
<event>
 9    2  0.2984928E-005  0.9380807E+02  0.7546771E-02  0.1301866E+00
         -1   -1    0    0    0  501 -0.00000000000E+00  0.00000000000E+00  0.10472181379E+03  0.10472181379E+03  0.00000000000E+00 0.  1.
          2   -1    0    0  502    0  0.00000000000E+00 -0.00000000000E+00 -0.21246601010E+03  0.21246601010E+03  0.00000000000E+00 0. -1.
         24    2    1    2    0    0 -0.24178310090E+02 -0.16918234894E+02  0.52989367215E+02  0.99074132041E+02  0.78338963812E+02 0.  0.
         23    2    1    2    0    0 -0.16941057204E+02 -0.96146498597E+01 -0.77429372592E+02  0.12149907305E+03  0.91582073029E+02 0.  0.
        -11    1    3    3    0    0  0.48669128414E+01 -0.37306657906E+02  0.51207332173E+02  0.63542619028E+02  0.00000000000E+00 0.  1.
         12    1    3    3    0    0 -0.29045222932E+02  0.20388423012E+02  0.17820350422E+01  0.35531513013E+02  0.00000000000E+00 0. -1.
        -11    1    4    4    0    0 -0.24750053821E+02  0.30009982839E+02 -0.70503538068E+02  0.80522749048E+02  0.00000000000E+00 0. -1.
         11    1    4    4    0    0  0.78089966171E+01 -0.39624632699E+02 -0.69258345240E+01  0.40976324000E+02  0.00000000000E+00 0.  1.
         21    1    1    2  502  501  0.41119367295E+02  0.26532884754E+02 -0.83304190928E+02  0.96614618802E+02  0.00000000000E+00 0. -1.
<scales pt_clust_5="13000.00000" pt_clust_6="13000.00000" pt_clust_7="13000.00000" pt_clust_8="13000.00000" pt_clust_9="48.93666"></scales>
<clustering>
<clus scale="   48.937">  2  9  1 -1</clus>
<clus scale="   78.339">  5  6 -1 -1</clus>
<clus scale="   80.930">  1  5  2 -1</clus>
<clus scale="   91.582">  7  8 -1 -1</clus>
<clus scale="   48.937">  2  5  1 -1</clus>
</clustering>
</event>
<event>
 9    2  0.2984928E-005  0.2518056E+03  0.7546771E-02  0.1112781E+00
          2   -1    0    0  502    0  0.00000000000E+00  0.00000000000E+00  0.13594120624E+04  0.13594120624E+04  0.00000000000E+00 0. -1.
         -1   -1    0    0    0  501 -0.00000000000E+00 -0.00000000000E+00 -0.58919072346E+02  0.58919072346E+02  0.00000000000E+00 0.  1.
         24    2    1    2    0    0  0.28089139928E+02  0.21915536252E+03  0.50609386905E+03  0.55794742396E+03  0.79726099307E+02 0.  0.
         23    2    1    2    0    0 -0.50490263806E+02 -0.24425739855E+03  0.51942272978E+03  0.58335674767E+03  0.91072385214E+02 0.  0.
        -11    1    3    3    0    0  0.11251717886E+02  0.14857818298E+03  0.24312651644E+03  0.28515360880E+03  0.00000000000E+00 0.  1.
         12    1    3    3    0    0  0.16837422042E+02  0.70577179537E+02  0.26296735261E+03  0.27279381517E+03  0.00000000000E+00 0. -1.
        -11    1    4    4    0    0  0.12973062600E+02 -0.59211625952E+02  0.19811733594E+03  0.20718300075E+03  0.00000000000E+00 0. -1.
         11    1    4    4    0    0 -0.63463326406E+02 -0.18504577260E+03  0.32130539384E+03  0.37617374691E+03  0.00000000000E+00 0.  1.
         21    1    1    2  502  501  0.22401123877E+02  0.25102036035E+02  0.27497639125E+03  0.27702696314E+03  0.00000000000E+00 0. -1.
<scales pt_clust_5="13000.00000" pt_clust_6="13000.00000" pt_clust_7="13000.00000" pt_clust_8="13000.00000" pt_clust_9="33.64406"></scales>
<clustering>
<clus scale="   33.644">  1  9  2 -1</clus>
<clus scale="   79.726">  5  6 -1 -1</clus>
<clus scale="   91.072">  7  8 -1 -1</clus>
<clus scale="  247.928">  2  5  1 -1</clus>
<clus scale="   33.644">  1  5  2 -1</clus>
</clustering>
</event>
<event>
 9    2  0.2984928E-005  0.1469325E+03  0.7546771E-02  0.1208624E+00
          2   -1    0    0  502    0  0.00000000000E+00  0.00000000000E+00  0.15416917165E+03  0.15416917165E+03  0.00000000000E+00 0. -1.
         -1   -1    0    0    0  501 -0.00000000000E+00 -0.00000000000E+00 -0.40724790846E+03  0.40724790846E+03  0.00000000000E+00 0.  1.
         24    2    1    2    0    0  0.73190383308E+02 -0.79436507630E+02 -0.35100430228E+03  0.37620689306E+03  0.81612592240E+02 0.  0.
         23    2    1    2    0    0 -0.52631162873E+02  0.70452126557E+02  0.88286603359E+02  0.16079072270E+03  0.10161491393E+03 0.  0.
        -13    1    3    3    0    0  0.25361209145E+02 -0.77089833852E+02 -0.27174886281E+03  0.28360796507E+03  0.00000000000E+00 0.  1.
         14    1    3    3    0    0  0.47829174163E+02 -0.23466737780E+01 -0.79255439468E+02  0.92598927986E+02  0.00000000000E+00 0. -1.
        -11    1    4    4    0    0 -0.27905718379E+02  0.32408178439E+02  0.10425822046E+03  0.11268893327E+03  0.00000000000E+00 0. -1.
         11    1    4    4    0    0 -0.24725444494E+02  0.38043948119E+02 -0.15971617101E+02  0.48101789434E+02  0.00000000000E+00 0.  1.
         21    1    1    2  502  501 -0.20559220435E+02  0.89843810723E+01  0.96389621105E+01  0.24419464341E+02  0.00000000000E+00 0.  1.
<scales pt_clust_5="13000.00000" pt_clust_6="13000.00000" pt_clust_7="13000.00000" pt_clust_8="13000.00000" pt_clust_9="22.43659"></scales>
<clustering>
<clus scale="   22.437">  1  9  2 -1</clus>
<clus scale="   81.613">  5  6 -1 -1</clus>
<clus scale="  101.615">  7  8 -1 -1</clus>
<clus scale="  133.881">  2  5  1 -1</clus>
<clus scale="   22.437">  1  5  2 -1</clus>
</clustering>
</event>
<event>
 9    2  0.2984928E-005  0.9979366E+02  0.7546771E-02  0.1282939E+00
         -1   -1    0    0    0  501 -0.00000000000E+00  0.00000000000E+00  0.62379082474E+02  0.62379082474E+02  0.00000000000E+00 0.  1.
          2   -1    0    0  502    0  0.00000000000E+00 -0.00000000000E+00 -0.57854849804E+03  0.57854849804E+03  0.00000000000E+00 0. -1.
         23    2    1    2    0    0  0.41532698444E+02 -0.13088592840E+02 -0.31834748760E+02  0.10135363700E+03  0.85806947286E+02 0.  0.
         24    2    1    2    0    0 -0.25099212020E+02  0.10211762315E+03 -0.19107434735E+03  0.23265727293E+03  0.81006302412E+02 0.  0.
        -11    1    4    4    0    0 -0.21460144249E+02  0.11543004402E+03 -0.15823123516E+03  0.19703237459E+03  0.00000000000E+00 0.  1.
         12    1    4    4    0    0 -0.36390677715E+01 -0.13312420874E+02 -0.32843112189E+02  0.35624898344E+02  0.00000000000E+00 0. -1.
        -13    1    3    3    0    0  0.47176583926E+02 -0.44097235108E+02 -0.18913913932E+02  0.67289912730E+02  0.00000000000E+00 0.  1.
         13    1    3    3    0    0 -0.56438854814E+01  0.31008642268E+02 -0.12920834828E+02  0.34063724272E+02  0.00000000000E+00 0. -1.
         21    1    1    2  502  501 -0.16433486424E+02 -0.89029030309E+02 -0.29326031946E+03  0.30691667058E+03  0.00000000000E+00 0. -1.
<scales pt_clust_5="13000.00000" pt_clust_6="13000.00000" pt_clust_7="13000.00000" pt_clust_8="13000.00000" pt_clust_9="90.53302"></scales>
<clustering>
<clus scale="   81.006">  5  6 -1 -1</clus>
<clus scale="   85.807">  7  8 -1 -1</clus>
<clus scale="   90.533">  2  9  1 -1</clus>
<clus scale="   95.697">  2  5  1 -1</clus>
<clus scale="   90.533">  2  5  1 -1</clus>
</clustering>
</event>
<event>
 9    2  0.2984928E-005  0.2705673E+03  0.7546771E-02  0.1101176E+00
         -1   -1    0    0    0  501 -0.00000000000E+00  0.00000000000E+00  0.12412797600E+04  0.12412797600E+04  0.00000000000E+00 0.  1.
          2   -1    0    0  502    0  0.00000000000E+00 -0.00000000000E+00 -0.16325005353E+03  0.16325005353E+03  0.00000000000E+00 0. -1.
         24    2    1    2    0    0 -0.17958695267E+02  0.26027334083E+03  0.10818160958E+04  0.11157139720E+04  0.80167795645E+02 0.  0.
         23    2    1    2    0    0  0.36904256833E+02 -0.22262170806E+03 -0.23369903874E+02  0.24233903233E+03  0.85203903139E+02 0.  0.
        -11    1    3    3    0    0 -0.43027157585E+02  0.11215243324E+03  0.55788612326E+03  0.57067191196E+03  0.00000000000E+00 0.  1.
         12    1    3    3    0    0  0.25068462318E+02  0.14812090760E+03  0.52392997257E+03  0.54504206005E+03  0.00000000000E+00 0. -1.
        -13    1    4    4    0    0  0.25400102187E+02 -0.25494980007E+02  0.18532697272E+02  0.40479872342E+02  0.00000000000E+00 0.  1.
         13    1    4    4    0    0  0.11504154646E+02 -0.19712672805E+03 -0.41902601146E+02  0.20185915998E+03  0.00000000000E+00 0. -1.
         21    1    1    2  502  501 -0.18945561566E+02 -0.37651632776E+02  0.19583514534E+02  0.46476809220E+02  0.00000000000E+00 0. -1.
<scales pt_clust_5="13000.00000" pt_clust_6="13000.00000" pt_clust_7="13000.00000" pt_clust_8="13000.00000" pt_clust_9="42.14949"></scales>
<clustering>
<clus scale="   42.149">  2  9  1 -1</clus>
<clus scale="   80.168">  5  6 -1 -1</clus>
<clus scale="   85.204">  7  8 -1 -1</clus>
<clus scale="  269.024">  1  5  2 -1</clus>
<clus scale="   42.149">  2  5  1 -1</clus>
</clustering>
</event>
<event>
 9    2  0.2984928E-005  0.9435258E+02  0.7546771E-02  0.1302775E+00
          4   -1    0    0  502    0  0.00000000000E+00  0.00000000000E+00  0.10094576861E+03  0.10094576861E+03  0.00000000000E+00 0. -1.
         -3   -1    0    0    0  501 -0.00000000000E+00 -0.00000000000E+00 -0.25694753732E+03  0.25694753732E+03  0.00000000000E+00 0.  1.
         23    2    1    2    0    0  0.32936198331E+02 -0.44837958723E+02 -0.13513223855E+03  0.17258913362E+03  0.91820757166E+02 0.  0.
         24    2    1    2    0    0 -0.11562170090E+02 -0.26003369439E+02  0.39749344932E+02  0.89648587655E+02  0.75146522519E+02 0.  0.
        -11    1    4    4    0    0 -0.16237377441E+02  0.24230197869E+02  0.20496461447E+02  0.35649121262E+02  0.00000000000E+00 0.  1.
         12    1    4    4    0    0  0.46752073507E+01 -0.50233567308E+02  0.19252883485E+02  0.53999466393E+02  0.00000000000E+00 0. -1.
        -13    1    3    3    0    0 -0.13494524354E+02 -0.57375470569E+02 -0.81055731188E+02  0.10022014952E+03  0.00000000000E+00 0.  1.
         13    1    3    3    0    0  0.46430722685E+02  0.12537511846E+02 -0.54076507359E+02  0.72368984105E+02  0.00000000000E+00 0. -1.
         21    1    1    2  502  501 -0.21374028241E+02  0.70841328162E+02 -0.60618875091E+02  0.95655584658E+02  0.00000000000E+00 0. -1.
<scales pt_clust_5="13000.00000" pt_clust_6="13000.00000" pt_clust_7="13000.00000" pt_clust_8="13000.00000" pt_clust_9="73.99556"></scales>
<clustering>
<clus scale="   73.996">  2  9  1 -1</clus>
<clus scale="   75.147">  5  6 -1 -1</clus>
<clus scale="   78.220">  1  5  2 -1</clus>
<clus scale="   91.821">  7  8 -1 -1</clus>
<clus scale="   78.220">  1  5  2 -1</clus>
</clustering>
</event>
<event>
 9    2  0.2984928E-005  0.1869694E+03  0.7546771E-02  0.1162382E+00
          2   -1    0    0  502    0  0.00000000000E+00  0.00000000000E+00  0.49858389639E+03  0.49858389639E+03  0.00000000000E+00 0. -1.
         -1   -1    0    0    0  501 -0.00000000000E+00 -0.00000000000E+00 -0.17493183537E+03  0.17493183537E+03  0.00000000000E+00 0.  1.
         23    2    1    2    0    0  0.14748499854E+03 -0.83467127422E+02 -0.77574647421E+02  0.20707515046E+03  0.90242483688E+02 0.  0.
         24    2    1    2    0    0 -0.14508182875E+03  0.29313531977E+02  0.21713314933E+03  0.27453220307E+03  0.79455055192E+02 0.  0.
        -13    1    4    4    0    0 -0.35395583855E+02 -0.27134909081E+02  0.55298785680E+02  0.71042989415E+02  0.00000000000E+00 0.  1.
         14    1    4    4    0    0 -0.10968624489E+03  0.56448441059E+02  0.16183436365E+03  0.20348921366E+03  0.00000000000E+00 0. -1.
        -11    1    3    3    0    0  0.12646479256E+03 -0.66444569644E+02 -0.21033792340E+02  0.14439752426E+03  0.00000000000E+00 0.  1.
         11    1    3    3    0    0  0.21020205975E+02 -0.17022557778E+02 -0.56540855081E+02  0.62677626198E+02  0.00000000000E+00 0. -1.
         21    1    1    2  502  501 -0.24031697882E+01  0.54153595445E+02  0.18409355912E+03  0.19190837823E+03  0.00000000000E+00 0.  1.
<scales pt_clust_5="13000.00000" pt_clust_6="13000.00000" pt_clust_7="13000.00000" pt_clust_8="13000.00000" pt_clust_9="54.20689"></scales>
<clustering>
<clus scale="   54.207">  1  9  2 -1</clus>
<clus scale="   79.455">  5  6 -1 -1</clus>
<clus scale="   90.242">  7  8 -1 -1</clus>
<clus scale="  182.008">  1  5  2 -1</clus>
<clus scale="   54.207">  1  5  2 -1</clus>
</clustering>
</event>
<event>
 9    2  0.2984928E-005  0.1225189E+03  0.7546771E-02  0.1243251E+00
          2   -1    0    0  502    0  0.00000000000E+00  0.00000000000E+00  0.27540657035E+03  0.27540657035E+03  0.00000000000E+00 0. -1.
         -1   -1    0    0    0  501 -0.00000000000E+00 -0.00000000000E+00 -0.10110981955E+03  0.10110981955E+03  0.00000000000E+00 0.  1.
         23    2    1    2    0    0  0.80361182609E+01 -0.81254263215E+02 -0.30679106995E+02  0.12707619374E+03  0.92413835119E+02 0.  0.
         24    2    1    2    0    0 -0.35102900399E+02  0.71520499836E+02  0.17655855140E+03  0.20900629767E+03  0.78506782383E+02 0.  0.
        -11    1    4    4    0    0  0.10281157961E+02  0.57105382847E+02  0.61849599035E+02  0.84806248944E+02  0.00000000000E+00 0.  1.
         12    1    4    4    0    0 -0.45384058360E+02  0.14415116988E+02  0.11470895236E+03  0.12420004872E+03  0.00000000000E+00 0. -1.
        -13    1    3    3    0    0 -0.13454385008E+02 -0.86402782858E+02  0.21871533858E+01  0.87471395333E+02  0.00000000000E+00 0. -1.
         13    1    3    3    0    0  0.21490503269E+02  0.51485196425E+01 -0.32866260381E+02  0.39604798405E+02  0.00000000000E+00 0.  1.
         21    1    1    2  502  501  0.27066782138E+02  0.97337633795E+01  0.28417306398E+02  0.40433898498E+02  0.00000000000E+00 0.  1.
<scales pt_clust_5="13000.00000" pt_clust_6="13000.00000" pt_clust_7="13000.00000" pt_clust_8="13000.00000" pt_clust_9="28.76381"></scales>
<clustering>
<clus scale="   28.764">  1  9  2 -1</clus>
<clus scale="   78.507">  5  6 -1 -1</clus>
<clus scale="   92.414">  7  8 -1 -1</clus>
<clus scale="  112.401">  1  5  2 -1</clus>
<clus scale="   28.764">  1  5  2 -1</clus>
</clustering>
</event>
<event>
 9    2  0.2984928E-005  0.1106508E+03  0.7546771E-02  0.1262397E+00
          2   -1    0    0  502    0  0.00000000000E+00  0.00000000000E+00  0.20528276737E+03  0.20528276737E+03  0.00000000000E+00 0. -1.
         -1   -1    0    0    0  501 -0.00000000000E+00 -0.00000000000E+00 -0.10029950007E+03  0.10029950007E+03  0.00000000000E+00 0.  1.
         23    2    1    2    0    0 -0.65260893283E+02 -0.47967281093E+01 -0.36391410987E+02  0.11720987671E+03  0.90176646706E+02 0.  0.
         24    2    1    2    0    0  0.57199876718E+02  0.24050808506E+02  0.12409199303E+03  0.16127274480E+03  0.82218052722E+02 0.  0.
        -13    1    4    4    0    0  0.46106394873E+02  0.46007603433E+02  0.46919282839E+02  0.80274020231E+02  0.00000000000E+00 0.  1.
         14    1    4    4    0    0  0.11093481845E+02 -0.21956794927E+02  0.77172710193E+02  0.80998724567E+02  0.00000000000E+00 0. -1.
        -11    1    3    3    0    0 -0.11377256101E+02  0.36191185534E+02  0.43647074094E+01  0.38187622831E+02  0.00000000000E+00 0. -1.
         11    1    3    3    0    0 -0.53883637182E+02 -0.40987913643E+02 -0.40756118396E+02  0.79022253875E+02  0.00000000000E+00 0.  1.
         21    1    1    2  502  501  0.80610165646E+01 -0.19254080397E+02  0.17282685256E+02  0.27099645932E+02  0.00000000000E+00 0.  1.
<scales pt_clust_5="13000.00000" pt_clust_6="13000.00000" pt_clust_7="13000.00000" pt_clust_8="13000.00000" pt_clust_9="20.87342"></scales>
<clustering>
<clus scale="   20.873">  1  9  2 -1</clus>
<clus scale="   82.218">  5  6 -1 -1</clus>
<clus scale="   90.177">  7  8 -1 -1</clus>
<clus scale="  104.267">  1  5  2 -1</clus>
<clus scale="   20.873">  1  5  2 -1</clus>
</clustering>
</event>
<event>
 9    2  0.2984928E-005  0.8933517E+02  0.7546771E-02  0.1306998E+00
          2   -1    0    0  502    0  0.00000000000E+00  0.00000000000E+00  0.47294836926E+03  0.47294836926E+03  0.00000000000E+00 0. -1.
         -1   -1    0    0    0  501 -0.00000000000E+00 -0.00000000000E+00 -0.65968444312E+02  0.65968444312E+02  0.00000000000E+00 0.  1.
         23    2    1    2    0    0 -0.15098107272E+02  0.18575790749E+00  0.20674570314E+02  0.91008883917E+02  0.87333794977E+02 0.  0.
         24    2    1    2    0    0 -0.11332953052E+01  0.39102670346E+02  0.42159444202E+02  0.10114656114E+03  0.83203995753E+02 0.  0.
        -11    1    4    4    0    0  0.93541237706E+00  0.65204682619E+02  0.34957886217E+02  0.73990401002E+02  0.00000000000E+00 0.  1.
         12    1    4    4    0    0 -0.20687076822E+01 -0.26102012273E+02  0.72015579857E+01  0.27156160141E+02  0.00000000000E+00 0. -1.
        -11    1    3    3    0    0  0.22322724207E+02 -0.29558925238E+02 -0.39248540173E+01  0.37248336289E+02  0.00000000000E+00 0.  1.
         11    1    3    3    0    0 -0.37420831478E+02  0.29744683145E+02  0.24599424331E+02  0.53760547629E+02  0.00000000000E+00 0. -1.
         21    1    1    2  502  501  0.16231402577E+02 -0.39288428253E+02  0.34414591043E+03  0.34676136851E+03  0.00000000000E+00 0. -1.
<scales pt_clust_5="13000.00000" pt_clust_6="13000.00000" pt_clust_7="13000.00000" pt_clust_8="13000.00000" pt_clust_9="42.50928"></scales>
<clustering>
<clus scale="   42.509">  1  9  2 -1</clus>
<clus scale="   83.204">  5  6 -1 -1</clus>
<clus scale="   85.302">  1  5  2 -1</clus>
<clus scale="   87.334">  7  8 -1 -1</clus>
<clus scale="   42.509">  1  5  2 -1</clus>
</clustering>
</event>
<event>
 9    2  0.2984928E-005  0.9555581E+02  0.7546771E-02  0.1294819E+00
          2   -1    0    0  502    0  0.00000000000E+00  0.00000000000E+00  0.58353180031E+03  0.58353180031E+03  0.00000000000E+00 0. -1.
         -1   -1    0    0    0  501 -0.00000000000E+00 -0.00000000000E+00 -0.38579265359E+02  0.38579265359E+02  0.00000000000E+00 0.  1.
         23    2    1    2    0    0 -0.22312379099E+02 -0.14789380091E+02  0.54436673622E+02  0.10952224417E+03  0.91187732231E+02 0.  0.
         24    2    1    2    0    0  0.44893052392E+02 -0.20553966061E+02  0.23877508959E+03  0.25737821223E+03  0.82414495385E+02 0.  0.
        -13    1    4    4    0    0 -0.24116929217E+02 -0.34997490338E+00  0.56552259085E+02  0.61480946357E+02  0.00000000000E+00 0.  1.
         14    1    4    4    0    0  0.69009981609E+02 -0.20203991158E+02  0.18222283050E+03  0.19589726587E+03  0.00000000000E+00 0. -1.
        -11    1    3    3    0    0 -0.15659161170E+02 -0.50510756510E+02  0.50244428768E+02  0.72945517162E+02  0.00000000000E+00 0. -1.
         11    1    3    3    0    0 -0.66532179296E+01  0.35721376419E+02  0.41922448538E+01  0.36576727013E+02  0.00000000000E+00 0.  1.
         21    1    1    2  502  501 -0.22580673293E+02  0.35343346152E+02  0.25174077174E+03  0.25521060926E+03  0.00000000000E+00 0.  1.
<scales pt_clust_5="13000.00000" pt_clust_6="13000.00000" pt_clust_7="13000.00000" pt_clust_8="13000.00000" pt_clust_9="41.94090"></scales>
<clustering>
<clus scale="   41.941">  1  9  2 -1</clus>
<clus scale="   82.414">  5  6 -1 -1</clus>
<clus scale="   87.223">  1  5  2 -1</clus>
<clus scale="   91.188">  7  8 -1 -1</clus>
<clus scale="   41.941">  1  5  2 -1</clus>
</clustering>
</event>
<event>
 9    2  0.2984928E-005  0.1794455E+03  0.7546771E-02  0.1169853E+00
          2   -1    0    0  502    0  0.00000000000E+00  0.00000000000E+00  0.10974498209E+04  0.10974498209E+04  0.00000000000E+00 0. -1.
         -1   -1    0    0    0  501 -0.00000000000E+00 -0.00000000000E+00 -0.18578432462E+03  0.18578432462E+03  0.00000000000E+00 0.  1.
         23    2    1    2    0    0  0.73046563399E+01 -0.15516457578E+03 -0.12828258643E+03  0.22109739182E+03  0.91094627218E+02 0.  0.
         24    2    1    2    0    0  0.36283424246E+02  0.14198577991E+03  0.89163896562E+03  0.90699425262E+03  0.78371427818E+02 0.  0.
        -13    1    4    4    0    0  0.14774436731E+02  0.26456323712E+02  0.61298011425E+02  0.68378850895E+02  0.00000000000E+00 0.  1.
         14    1    4    4    0    0  0.21508987516E+02  0.11552945620E+03  0.83034095420E+03  0.83861540172E+03  0.00000000000E+00 0. -1.
        -11    1    3    3    0    0 -0.14105882691E+02 -0.80665229202E+02 -0.11693345700E+03  0.14275604539E+03  0.00000000000E+00 0.  1.
         11    1    3    3    0    0  0.21410539031E+02 -0.74499346577E+02 -0.11349129429E+02  0.78341346432E+02  0.00000000000E+00 0. -1.
         21    1    1    2  502  501 -0.43588080586E+02  0.13178795872E+02  0.14830911712E+03  0.15514250111E+03  0.00000000000E+00 0. -1.
<scales pt_clust_5="13000.00000" pt_clust_6="13000.00000" pt_clust_7="13000.00000" pt_clust_8="13000.00000" pt_clust_9="45.53681"></scales>
<clustering>
<clus scale="   45.537">  1  9  2 -1</clus>
<clus scale="   78.371">  5  6 -1 -1</clus>
<clus scale="   91.095">  7  8 -1 -1</clus>
<clus scale="  173.334">  1  5  2 -1</clus>
<clus scale="   45.537">  1  5  2 -1</clus>
</clustering>
</event>
<event>
 9    2  0.2984928E-005  0.1148720E+03  0.7546771E-02  0.1255156E+00
          2   -1    0    0  502    0  0.00000000000E+00  0.00000000000E+00  0.51177689845E+03  0.51177689845E+03  0.00000000000E+00 0. -1.
         -1   -1    0    0    0  501 -0.00000000000E+00 -0.00000000000E+00 -0.56310885381E+02  0.56310885381E+02  0.00000000000E+00 0.  1.
         23    2    1    2    0    0  0.49640369581E+01 -0.67469081735E+02  0.39887434366E+02  0.11922217337E+03  0.89700616223E+02 0.  0.
         24    2    1    2    0    0  0.28025059779E+02  0.37287166030E+02  0.19102346025E+03  0.21990222962E+03  0.98444357385E+02 0.  0.
        -13    1    4    4    0    0 -0.59013207427E+01 -0.31595019500E+02  0.57777000727E+02  0.66115449455E+02  0.00000000000E+00 0.  1.
         14    1    4    4    0    0  0.33926380521E+02  0.68882185530E+02  0.13324645953E+03  0.15378678017E+03  0.00000000000E+00 0. -1.
        -13    1    3    3    0    0 -0.37801574093E+02 -0.48266336766E+02  0.64620889933E+01  0.61647034502E+02  0.00000000000E+00 0.  1.
         13    1    3    3    0    0  0.42765611052E+02 -0.19202744969E+02  0.33425345372E+02  0.57575138873E+02  0.00000000000E+00 0. -1.
         21    1    1    2  502  501 -0.32989096737E+02  0.30181915704E+02  0.22455511845E+03  0.22896338083E+03  0.00000000000E+00 0. -1.
<scales pt_clust_5="13000.00000" pt_clust_6="13000.00000" pt_clust_7="13000.00000" pt_clust_8="13000.00000" pt_clust_9="44.71273"></scales>
<clustering>
<clus scale="   44.713">  1  9  2 -1</clus>
<clus scale="   89.701">  7  8 -1 -1</clus>
<clus scale="   98.444">  5  6 -1 -1</clus>
<clus scale="  107.473">  2  7  1 -1</clus>
<clus scale="   44.713">  1  5  2 -1</clus>
</clustering>
</event>
<event>
 9    2  0.2984928E-005  0.9904265E+02  0.7546771E-02  0.1287048E+00
          2   -1    0    0  502    0  0.00000000000E+00  0.00000000000E+00  0.15216640913E+03  0.15216640913E+03  0.00000000000E+00 0. -1.
         -1   -1    0    0    0  501 -0.00000000000E+00 -0.00000000000E+00 -0.12016045207E+03  0.12016045207E+03  0.00000000000E+00 0.  1.
         24    2    1    2    0    0  0.78176711060E+01  0.45662006467E+02 -0.68668355670E+02  0.11527865547E+03  0.80172878958E+02 0.  0.
         23    2    1    2    0    0 -0.23622607268E+01 -0.21902516694E+02  0.94094568786E+02  0.13179809906E+03  0.89619476272E+02 0.  0.
        -11    1    3    3    0    0  0.85322551094E+01  0.68407386622E+02 -0.58243538443E+02  0.90247879155E+02  0.00000000000E+00 0.  1.
         12    1    3    3    0    0 -0.71458400340E+00 -0.22745380155E+02 -0.10424817227E+02  0.25030776314E+02  0.00000000000E+00 0. -1.
        -13    1    4    4    0    0  0.35067707378E+02 -0.67855008292E+01  0.78452738781E+01  0.36569597269E+02  0.00000000000E+00 0.  1.
         13    1    4    4    0    0 -0.37429968104E+02 -0.15117015865E+02  0.86249294908E+02  0.95228501789E+02  0.00000000000E+00 0. -1.
         21    1    1    2  502  501 -0.54554103792E+01 -0.23759489773E+02  0.65797439382E+01  0.25250106673E+02  0.00000000000E+00 0. -1.
<scales pt_clust_5="13000.00000" pt_clust_6="13000.00000" pt_clust_7="13000.00000" pt_clust_8="13000.00000" pt_clust_9="24.37775"></scales>
<clustering>
<clus scale="   24.378">  1  9  2 -1</clus>
<clus scale="   80.173">  5  6 -1 -1</clus>
<clus scale="   89.619">  7  8 -1 -1</clus>
<clus scale="   90.584">  2  5  1 -1</clus>
<clus scale="   24.378">  1  5  2 -1</clus>
</clustering>
</event>
<event>
 9    2  0.2984928E-005  0.5336587E+03  0.7546771E-02  0.1060809E+00
          2   -1    0    0  502    0  0.00000000000E+00  0.00000000000E+00  0.10697055269E+04  0.10697055269E+04  0.00000000000E+00 0. -1.
         -1   -1    0    0    0  501 -0.00000000000E+00 -0.00000000000E+00 -0.36921204560E+03  0.36921204560E+03  0.00000000000E+00 0.  1.
         24    2    1    2    0    0 -0.49143776175E+03  0.20192953914E+03  0.53738581207E+02  0.54043340353E+03  0.83029007476E+02 0.  0.
         23    2    1    2    0    0  0.84631723493E+00 -0.33870146568E+02  0.87393002628E+02  0.13571968551E+03  0.98154944074E+02 0.  0.
        -13    1    3    3    0    0 -0.46773657326E+03  0.20020504128E+03  0.34665416973E+02  0.50996201001E+03  0.00000000000E+00 0.  1.
         14    1    3    3    0    0 -0.23701188489E+02  0.17244978574E+01  0.19073164234E+02  0.30471393511E+02  0.00000000000E+00 0. -1.
        -13    1    4    4    0    0  0.35312176280E+02  0.12194877449E+02  0.62971483853E+02  0.73219345861E+02  0.00000000000E+00 0.  1.
         13    1    4    4    0    0 -0.34465859045E+02 -0.46065024018E+02  0.24421518775E+02  0.62500339653E+02  0.00000000000E+00 0. -1.
         21    1    1    2  502  501  0.49059144452E+03 -0.16805939257E+03  0.55936189742E+03  0.76276448341E+03  0.00000000000E+00 0. -1.
<scales pt_clust_5="13000.00000" pt_clust_6="13000.00000" pt_clust_7="13000.00000" pt_clust_8="13000.00000" pt_clust_9="527.16011"></scales>
<clustering>
<clus scale="   83.029">  5  6 -1 -1</clus>
<clus scale="   98.155">  7  8 -1 -1</clus>
<clus scale="  103.838">  1  7  2 -1</clus>
<clus scale="  527.160">  1  9  2 -1</clus>
<clus scale="  103.838">  1  5  2 -1</clus>
</clustering>
</event>
<event>
 9    2  0.2984928E-005  0.1440363E+03  0.7546771E-02  0.1208826E+00
         -1   -1    0    0    0  501 -0.00000000000E+00  0.00000000000E+00  0.38619557161E+03  0.38619557161E+03  0.00000000000E+00 0.  1.
          2   -1    0    0  502    0  0.00000000000E+00 -0.00000000000E+00 -0.20162986434E+03  0.20162986434E+03  0.00000000000E+00 0. -1.
         23    2    1    2    0    0  0.47445335853E+02 -0.10308131079E+03  0.32493788707E+03  0.35583507134E+03  0.90316947533E+02 0.  0.
         24    2    1    2    0    0 -0.32161653861E+02  0.75832481048E+02 -0.47269615195E+02  0.13378559287E+03  0.94229672492E+02 0.  0.
        -11    1    4    4    0    0 -0.15178548586E+02 -0.17392303311E+02  0.75801016871E+01  0.24296882376E+02  0.00000000000E+00 0.  1.
         12    1    4    4    0    0 -0.16983105276E+02  0.93224784359E+02 -0.54849716883E+02  0.10948871049E+03  0.00000000000E+00 0. -1.
        -13    1    3    3    0    0  0.12004463236E+02 -0.10842562387E+03  0.23872905301E+03  0.26247244389E+03  0.00000000000E+00 0.  1.
         13    1    3    3    0    0  0.35440872618E+02  0.53443130807E+01  0.86208834055E+02  0.93362627444E+02  0.00000000000E+00 0. -1.
         21    1    1    2  502  501 -0.15283681992E+02  0.27248829746E+02 -0.93102564604E+02  0.98204771745E+02  0.00000000000E+00 0. -1.
<scales pt_clust_5="13000.00000" pt_clust_6="13000.00000" pt_clust_7="13000.00000" pt_clust_8="13000.00000" pt_clust_9="31.24243"></scales>
<clustering>
<clus scale="   31.242">  2  9  1 -1</clus>
<clus scale="   90.317">  7  8 -1 -1</clus>
<clus scale="   94.230">  5  6 -1 -1</clus>
<clus scale="  141.508">  1  7  2 -1</clus>
<clus scale="   31.242">  2  5  1 -1</clus>
</clustering>
</event>
<event>
 9    2  0.2984928E-005  0.2736663E+03  0.7546771E-02  0.1120563E+00
          2   -1    0    0  502    0  0.00000000000E+00  0.00000000000E+00  0.33493215269E+03  0.33493215269E+03  0.00000000000E+00 0. -1.
         -1   -1    0    0    0  501 -0.00000000000E+00 -0.00000000000E+00 -0.42103605282E+03  0.42103605282E+03  0.00000000000E+00 0.  1.
         24    2    1    2    0    0  0.35116052084E+02 -0.13624738149E+03 -0.21998669893E+02  0.16030619834E+03  0.73604685116E+02 0.  0.
         23    2    1    2    0    0 -0.21000053633E+03 -0.84377568200E+02 -0.16762520571E+03  0.29570144880E+03  0.90118466241E+02 0.  0.
        -13    1    3    3    0    0  0.44188783086E+01 -0.39072241450E+02 -0.40815492959E+02  0.56675135667E+02  0.00000000000E+00 0.  1.
         14    1    3    3    0    0  0.30697173775E+02 -0.97175140043E+02  0.18816823066E+02  0.10363106267E+03  0.00000000000E+00 0. -1.
        -13    1    4    4    0    0 -0.63049873792E+02  0.15583490566E+02 -0.33737339711E+02  0.73187019711E+02  0.00000000000E+00 0. -1.
         13    1    4    4    0    0 -0.14695066254E+03 -0.99961058766E+02 -0.13388786600E+03  0.22251442909E+03  0.00000000000E+00 0.  1.
         21    1    1    2  502  501  0.17488448425E+03  0.22062494969E+03  0.10351997548E+03  0.29996055838E+03  0.00000000000E+00 0. -1.
<scales pt_clust_5="13000.00000" pt_clust_6="13000.00000" pt_clust_7="13000.00000" pt_clust_8="13000.00000" pt_clust_9="258.40265"></scales>
<clustering>
<clus scale="   73.605">  5  6 -1 -1</clus>
<clus scale="   90.118">  7  8 -1 -1</clus>
<clus scale="  158.790">  2  5  1 -1</clus>
<clus scale="  258.403">  1  9  2 -1</clus>
<clus scale="  258.403">  1  5  2 -1</clus>
</clustering>
</event>
<event>
 9    2  0.2984928E-005  0.9453448E+02  0.7546771E-02  0.1300245E+00
         -3   -1    0    0    0  501 -0.00000000000E+00  0.00000000000E+00  0.18331105003E+03  0.18331105003E+03  0.00000000000E+00 0.  1.
          4   -1    0    0  502    0  0.00000000000E+00 -0.00000000000E+00 -0.11200373478E+03  0.11200373478E+03  0.00000000000E+00 0. -1.
         23    2    1    2    0    0 -0.26563831877E+02 -0.23686841880E+02  0.73668736658E+02  0.12448479639E+03  0.93822588584E+02 0.  0.
         24    2    1    2    0    0 -0.26448842471E+02 -0.31986556420E+02 -0.17770366427E+02  0.92425227680E+02  0.80647106142E+02 0.  0.
        -11    1    4    4    0    0 -0.19000351096E+02  0.14512299527E+02  0.20694464181E+02  0.31620895418E+02  0.00000000000E+00 0.  1.
         12    1    4    4    0    0 -0.74484913741E+01 -0.46498855946E+02 -0.38464830608E+02  0.60804332261E+02  0.00000000000E+00 0. -1.
        -13    1    3    3    0    0 -0.59152616309E+02 -0.29977028504E+02  0.56483203079E+02  0.87109164180E+02  0.00000000000E+00 0.  1.
         13    1    3    3    0    0  0.32588784431E+02  0.62901866245E+01  0.17185533578E+02  0.37375632207E+02  0.00000000000E+00 0. -1.
         21    1    1    2  502  501  0.53012674348E+02  0.55673398299E+02  0.15408945018E+02  0.78404760737E+02  0.00000000000E+00 0.  1.
<scales pt_clust_5="13000.00000" pt_clust_6="13000.00000" pt_clust_7="13000.00000" pt_clust_8="13000.00000" pt_clust_9="76.87568"></scales>
<clustering>
<clus scale="   76.876">  2  9  1 -1</clus>
<clus scale="   80.647">  5  6 -1 -1</clus>
<clus scale="   81.474">  2  5  1 -1</clus>
<clus scale="   93.823">  7  8 -1 -1</clus>
<clus scale="   76.876">  2  5  1 -1</clus>
</clustering>
</event>
<event>
 9    2  0.2984928E-005  0.2957737E+03  0.7546771E-02  0.1087903E+00
         -1   -1    0    0    0  501 -0.00000000000E+00  0.00000000000E+00  0.25973642923E+03  0.25973642923E+03  0.00000000000E+00 0.  1.
          2   -1    0    0  502    0  0.00000000000E+00 -0.00000000000E+00 -0.41475992249E+03  0.41475992249E+03  0.00000000000E+00 0. -1.
         23    2    1    2    0    0 -0.27888954226E+03 -0.77513446437E+02  0.48248753905E+02  0.30779866614E+03  0.92867461818E+02 0.  0.
         24    2    1    2    0    0  0.25673008120E+03  0.58809506267E+02 -0.19324762218E+03  0.33601589621E+03  0.78696546367E+02 0.  0.
        -13    1    4    4    0    0  0.60116929393E+02  0.46292225086E+02 -0.72509902989E+02  0.10495094728E+03  0.00000000000E+00 0.  1.
         14    1    4    4    0    0  0.19661315180E+03  0.12517281182E+02 -0.12073771919E+03  0.23106494893E+03  0.00000000000E+00 0. -1.
        -13    1    3    3    0    0 -0.23538882148E+02  0.75443715032E+01  0.28798900976E+02  0.37952249098E+02  0.00000000000E+00 0. -1.
         13    1    3    3    0    0 -0.25535066012E+03 -0.85057817940E+02  0.19449852930E+02  0.26984641705E+03  0.00000000000E+00 0.  1.
         21    1    1    2  502  501  0.22159461067E+02  0.18703940170E+02 -0.10024624989E+02  0.30681789368E+02  0.00000000000E+00 0.  1.
<scales pt_clust_5="13000.00000" pt_clust_6="13000.00000" pt_clust_7="13000.00000" pt_clust_8="13000.00000" pt_clust_9="28.99792"></scales>
<clustering>
<clus scale="   28.998">  2  9  1 -1</clus>
<clus scale="   78.697">  5  6 -1 -1</clus>
<clus scale="   92.867">  7  8 -1 -1</clus>
<clus scale="  291.635">  2  5  1 -1</clus>
<clus scale="   28.998">  2  5  1 -1</clus>
</clustering>
</event>
<event>
 9    2  0.2984928E-005  0.1818396E+03  0.7546771E-02  0.1193361E+00
         -1   -1    0    0    0  501 -0.00000000000E+00  0.00000000000E+00  0.20775522605E+03  0.20775522605E+03  0.00000000000E+00 0.  1.
          2   -1    0    0  502    0  0.00000000000E+00 -0.00000000000E+00 -0.81930499255E+03  0.81930499255E+03  0.00000000000E+00 0. -1.
         23    2    1    2    0    0  0.87494244364E+01  0.16061029853E+03  0.14842137442E+03  0.23767367772E+03  0.92669586556E+02 0.  0.
         24    2    1    2    0    0  0.16314189400E+02 -0.54500832122E+02 -0.26786827239E+03  0.28535019614E+03  0.80217389663E+02 0.  0.
        -11    1    4    4    0    0 -0.31520297674E+02 -0.21720033810E+02 -0.13621874463E+03  0.14149500141E+03  0.00000000000E+00 0.  1.
         12    1    4    4    0    0  0.47834487075E+02 -0.32780798312E+02 -0.13164952776E+03  0.14385519473E+03  0.00000000000E+00 0. -1.
        -11    1    3    3    0    0 -0.10967691247E+02  0.59310207180E+02  0.11384236195E+03  0.12883351389E+03  0.00000000000E+00 0.  1.
         11    1    3    3    0    0  0.19717115683E+02  0.10130009135E+03  0.34579012472E+02  0.10884016382E+03  0.00000000000E+00 0. -1.
         21    1    1    2  502  501 -0.25063613837E+02 -0.10610946640E+03 -0.49210286853E+03  0.50403634474E+03  0.00000000000E+00 0. -1.
<scales pt_clust_5="13000.00000" pt_clust_6="13000.00000" pt_clust_7="13000.00000" pt_clust_8="13000.00000" pt_clust_9="156.45443"></scales>
<clustering>
<clus scale="   80.217">  5  6 -1 -1</clus>
<clus scale="   92.670">  7  8 -1 -1</clus>
<clus scale="   98.343">  2  5  1 -1</clus>
<clus scale="  156.454">  2  9  1 -1</clus>
<clus scale="   98.343">  2  5  1 -1</clus>
</clustering>
</event>
<event>
 9    2  0.2984928E-005  0.1454025E+03  0.7546771E-02  0.1208463E+00
          4   -1    0    0  502    0  0.00000000000E+00  0.00000000000E+00  0.64207730453E+02  0.64207730453E+02  0.00000000000E+00 0. -1.
         -3   -1    0    0    0  501 -0.00000000000E+00 -0.00000000000E+00 -0.68760731589E+03  0.68760731589E+03  0.00000000000E+00 0.  1.
         24    2    1    2    0    0 -0.10865175793E+03 -0.11555023138E+02 -0.50044760972E+03  0.51835792399E+03  0.79425463322E+02 0.  0.
         23    2    1    2    0    0  0.13079377929E+03  0.35995655251E+02 -0.11465082154E+03  0.19944943545E+03  0.90733491754E+02 0.  0.
        -13    1    3    3    0    0 -0.11968350202E+03 -0.19714171519E+02 -0.45424095688E+03  0.47015703347E+03  0.00000000000E+00 0.  1.
         14    1    3    3    0    0  0.11031744088E+02  0.81591483806E+01 -0.46206652839E+02  0.48200890516E+02  0.00000000000E+00 0. -1.
        -11    1    4    4    0    0  0.12129239830E+03  0.61302637374E+02 -0.91252725333E+02  0.16369764542E+03  0.00000000000E+00 0. -1.
         11    1    4    4    0    0  0.95013809895E+01 -0.25306982123E+02 -0.23398096202E+02  0.35751790035E+02  0.00000000000E+00 0.  1.
         21    1    1    2  502  501 -0.22142021359E+02 -0.24440632112E+02 -0.83011541826E+01  0.34007686906E+02  0.00000000000E+00 0. -1.
<scales pt_clust_5="13000.00000" pt_clust_6="13000.00000" pt_clust_7="13000.00000" pt_clust_8="13000.00000" pt_clust_9="32.97899"></scales>
<clustering>
<clus scale="   32.979">  1  9  2 -1</clus>
<clus scale="   79.425">  5  6 -1 -1</clus>
<clus scale="   90.733">  7  8 -1 -1</clus>
<clus scale="  138.628">  2  5  1 -1</clus>
<clus scale="   32.979">  1  5  2 -1</clus>
</clustering>
</event>
<event>
 9    2  0.2984928E-005  0.1920364E+03  0.7546771E-02  0.1168480E+00
          2   -1    0    0  502    0  0.00000000000E+00  0.00000000000E+00  0.63430629181E+03  0.63430629181E+03  0.00000000000E+00 0. -1.
         -1   -1    0    0    0  501 -0.00000000000E+00 -0.00000000000E+00 -0.20978374106E+03  0.20978374106E+03  0.00000000000E+00 0.  1.
         23    2    1    2    0    0 -0.11138000753E+03  0.13806057935E+02 -0.11038271260E+03  0.18298928760E+03  0.93298568164E+02 0.  0.
         24    2    1    2    0    0 -0.76029476505E+02 -0.10726773347E+03  0.11616318323E+03  0.19291026143E+03  0.80209948783E+02 0.  0.
        -13    1    4    4    0    0 -0.77970925856E+02 -0.11140705967E+03  0.82739757311E+02  0.15917558124E+03  0.00000000000E+00 0.  1.
         14    1    4    4    0    0  0.19414493509E+01  0.41393262011E+01  0.33423425921E+02  0.33734680186E+02  0.00000000000E+00 0. -1.
        -13    1    3    3    0    0  0.89487929879E+00 -0.20088396333E+02  0.24352195714E+01  0.20255240570E+02  0.00000000000E+00 0. -1.
         13    1    3    3    0    0 -0.11227488683E+03  0.33894454268E+02 -0.11281793217E+03  0.16273404703E+03  0.00000000000E+00 0.  1.
         21    1    1    2  502  501  0.18740948403E+03  0.93461675536E+02  0.41874208012E+03  0.46819048385E+03  0.00000000000E+00 0. -1.
<scales pt_clust_5="13000.00000" pt_clust_6="13000.00000" pt_clust_7="13000.00000" pt_clust_8="13000.00000" pt_clust_9="174.48304"></scales>
<clustering>
<clus scale="   80.210">  5  6 -1 -1</clus>
<clus scale="   93.299">  7  8 -1 -1</clus>
<clus scale="  145.948">  2  7  1 -1</clus>
<clus scale="  174.483">  1  9  2 -1</clus>
<clus scale="  174.483">  1  5  2 -1</clus>
</clustering>
</event>
<event>
 9    2  0.2984928E-005  0.1248611E+03  0.7546771E-02  0.1237993E+00
          2   -1    0    0  502    0  0.00000000000E+00  0.00000000000E+00  0.11402046333E+03  0.11402046333E+03  0.00000000000E+00 0. -1.
         -1   -1    0    0    0  501 -0.00000000000E+00 -0.00000000000E+00 -0.51347365382E+03  0.51347365382E+03  0.00000000000E+00 0.  1.
         23    2    1    2    0    0  0.37615156749E+02 -0.85480510764E+02 -0.44505235710E+03  0.46404924544E+03  0.92456929982E+02 0.  0.
         24    2    1    2    0    0 -0.14045209138E+02  0.35901867505E+02 -0.64236533370E+00  0.91668388280E+02  0.83165309995E+02 0.  0.
        -11    1    4    4    0    0 -0.29371946798E+02  0.47958794879E+01 -0.32860668761E+02  0.44334357672E+02  0.00000000000E+00 0.  1.
         12    1    4    4    0    0  0.15326737660E+02  0.31105988017E+02  0.32218303427E+02  0.47334030607E+02  0.00000000000E+00 0. -1.
        -11    1    3    3    0    0 -0.20563603368E+02 -0.64493819611E+02 -0.27129416298E+03  0.27961194076E+03  0.00000000000E+00 0.  1.
         11    1    3    3    0    0  0.58178760117E+02 -0.20986691153E+02 -0.17375819412E+03  0.18443730468E+03  0.00000000000E+00 0. -1.
         21    1    1    2  502  501 -0.23569947611E+02  0.49578643259E+02  0.46241531938E+02  0.71776483432E+02  0.00000000000E+00 0. -1.
<scales pt_clust_5="13000.00000" pt_clust_6="13000.00000" pt_clust_7="13000.00000" pt_clust_8="13000.00000" pt_clust_9="54.89612"></scales>
<clustering>
<clus scale="   54.896">  1  9  2 -1</clus>
<clus scale="   83.165">  5  6 -1 -1</clus>
<clus scale="   92.457">  7  8 -1 -1</clus>
<clus scale="  118.146">  1  5  2 -1</clus>
<clus scale="   54.896">  1  5  2 -1</clus>
</clustering>
</event>
<event>
 9    2  0.2984928E-005  0.1050392E+03  0.7546771E-02  0.1274710E+00
          2   -1    0    0  502    0  0.00000000000E+00  0.00000000000E+00  0.22652024214E+03  0.22652024214E+03  0.00000000000E+00 0. -1.
         -1   -1    0    0    0  501 -0.00000000000E+00 -0.00000000000E+00 -0.33219812772E+03  0.33219812772E+03  0.00000000000E+00 0.  1.
         24    2    1    2    0    0  0.42522491325E+02  0.35097369440E+02 -0.26962572037E+03  0.28693199743E+03  0.81190852019E+02 0.  0.
         23    2    1    2    0    0 -0.19347685934E+02 -0.25431023586E+02 -0.85416534134E+01  0.97478789724E+02  0.91695608899E+02 0.  0.
        -11    1    3    3    0    0  0.58127058549E+02  0.36549795229E+02 -0.25912347074E+03  0.26806643869E+03  0.00000000000E+00 0.  1.
         12    1    3    3    0    0 -0.15604567224E+02 -0.14524257889E+01 -0.10502249632E+02  0.18865558731E+02  0.00000000000E+00 0. -1.
        -13    1    4    4    0    0 -0.40512450590E+02 -0.96352958642E+01  0.29597067804E+02  0.51088981217E+02  0.00000000000E+00 0. -1.
         13    1    4    4    0    0  0.21164764656E+02 -0.15795727722E+02 -0.38138721217E+02  0.46389808507E+02  0.00000000000E+00 0.  1.
         21    1    1    2  502  501 -0.23174805391E+02 -0.96663458542E+01  0.17248948820E+03  0.17430758270E+03  0.00000000000E+00 0. -1.
<scales pt_clust_5="13000.00000" pt_clust_6="13000.00000" pt_clust_7="13000.00000" pt_clust_8="13000.00000" pt_clust_9="25.10996"></scales>
<clustering>
<clus scale="   25.110">  1  9  2 -1</clus>
<clus scale="   81.191">  5  6 -1 -1</clus>
<clus scale="   91.696">  7  8 -1 -1</clus>
<clus scale="   96.006">  2  5  1 -1</clus>
<clus scale="   25.110">  1  5  2 -1</clus>
</clustering>
</event>
<event>
 9    2  0.2984928E-005  0.2517398E+03  0.7546771E-02  0.1153328E+00
         -1   -1    0    0    0  501 -0.00000000000E+00  0.00000000000E+00  0.32536227733E+03  0.32536227733E+03  0.00000000000E+00 0.  1.
          2   -1    0    0  502    0  0.00000000000E+00 -0.00000000000E+00 -0.32395132776E+03  0.32395132776E+03  0.00000000000E+00 0. -1.
         23    2    1    2    0    0  0.58295451863E+02  0.23488247206E+03  0.13608992272E+03  0.29202079164E+03  0.90485028023E+02 0.  0.
         24    2    1    2    0    0  0.77339984990E+00 -0.20122187254E+02 -0.92578561079E+02  0.13061340576E+03  0.89908682706E+02 0.  0.
        -11    1    4    4    0    0 -0.22989768960E+02  0.28674577687E+02 -0.47505609497E+02  0.60062832235E+02  0.00000000000E+00 0.  1.
         12    1    4    4    0    0  0.23763168810E+02 -0.48796764941E+02 -0.45072951581E+02  0.70550573526E+02  0.00000000000E+00 0. -1.
        -11    1    3    3    0    0  0.24534907755E+02  0.20558531098E+02 -0.61369013962E+01  0.32592582871E+02  0.00000000000E+00 0. -1.
         11    1    3    3    0    0  0.33760544109E+02  0.21432394096E+03  0.14222682412E+03  0.25942820877E+03  0.00000000000E+00 0.  1.
         21    1    1    2  502  501 -0.59068851713E+02 -0.21476028481E+03 -0.42100412069E+02  0.22667940769E+03  0.00000000000E+00 0. -1.
<scales pt_clust_5="13000.00000" pt_clust_6="13000.00000" pt_clust_7="13000.00000" pt_clust_8="13000.00000" pt_clust_9="234.91569"></scales>
<clustering>
<clus scale="   89.909">  5  6 -1 -1</clus>
<clus scale="   90.485">  7  8 -1 -1</clus>
<clus scale="   92.136">  2  5  1 -1</clus>
<clus scale="  234.916">  2  9  1 -1</clus>
<clus scale="   92.136">  2  5  1 -1</clus>
</clustering>
</event>
<event>
 9    2  0.2984928E-005  0.9925355E+02  0.7546771E-02  0.1287493E+00
          2   -1    0    0  502    0  0.00000000000E+00  0.00000000000E+00  0.41427743442E+03  0.41427743442E+03  0.00000000000E+00 0. -1.
         -1   -1    0    0    0  501 -0.00000000000E+00 -0.00000000000E+00 -0.11517049303E+03  0.11517049303E+03  0.00000000000E+00 0.  1.
         23    2    1    2    0    0  0.15980985549E+02  0.27069815317E+02 -0.82027516998E+02  0.12863223407E+03  0.93965798540E+02 0.  0.
         24    2    1    2    0    0 -0.35596791434E+02 -0.21716130123E+02  0.22757206512E+03  0.24591298065E+03  0.83339230613E+02 0.  0.
        -13    1    4    4    0    0 -0.18372407440E+02  0.25455414834E+02  0.35522809768E+02  0.47406682159E+02  0.00000000000E+00 0.  1.
         14    1    4    4    0    0 -0.17224383994E+02 -0.47171544957E+02  0.19204925536E+03  0.19850629849E+03  0.00000000000E+00 0. -1.
        -11    1    3    3    0    0 -0.27367800661E+02  0.10939862434E+02  0.51735826679E+01  0.29923954631E+02  0.00000000000E+00 0. -1.
         11    1    3    3    0    0  0.43348786211E+02  0.16129952883E+02 -0.87201099666E+02  0.98708279434E+02  0.00000000000E+00 0.  1.
         21    1    1    2  502  501  0.19615805884E+02 -0.53536851944E+01  0.15356239327E+03  0.15490271274E+03  0.00000000000E+00 0. -1.
<scales pt_clust_5="13000.00000" pt_clust_6="13000.00000" pt_clust_7="13000.00000" pt_clust_8="13000.00000" pt_clust_9="20.33327"></scales>
<clustering>
<clus scale="   20.333">  1  9  2 -1</clus>
<clus scale="   83.339">  5  6 -1 -1</clus>
<clus scale="   89.259">  1  5  2 -1</clus>
<clus scale="   93.966">  7  8 -1 -1</clus>
<clus scale="   20.333">  1  5  2 -1</clus>
</clustering>
</event>
<event>
 9    2  0.2984928E-005  0.1396870E+03  0.7546771E-02  0.1216188E+00
          2   -1    0    0  502    0  0.00000000000E+00  0.00000000000E+00  0.16830909137E+03  0.16830909137E+03  0.00000000000E+00 0. -1.
         -1   -1    0    0    0  501 -0.00000000000E+00 -0.00000000000E+00 -0.30403260901E+03  0.30403260901E+03  0.00000000000E+00 0.  1.
         23    2    1    2    0    0  0.70437274614E+02  0.98857170404E+02 -0.15218485125E+03  0.21517764600E+03  0.91689915452E+02 0.  0.
         24    2    1    2    0    0 -0.41869706740E+02 -0.79750366630E+02 -0.86496750142E+02  0.14862123843E+03  0.80581582308E+02 0.  0.
        -11    1    4    4    0    0 -0.26322354107E+01 -0.60825114993E+02 -0.85607720798E+02  0.10504906062E+03  0.00000000000E+00 0.  1.
         12    1    4    4    0    0 -0.39237471330E+02 -0.18925251637E+02 -0.88902934424E+00  0.43572177809E+02  0.00000000000E+00 0. -1.
        -13    1    3    3    0    0  0.73864022205E+02  0.56642753443E+02 -0.14487134960E+03  0.17219757033E+03  0.00000000000E+00 0.  1.
         13    1    3    3    0    0 -0.34267475909E+01  0.42214416961E+02 -0.73135016485E+01  0.42980075672E+02  0.00000000000E+00 0. -1.
         21    1    1    2  502  501 -0.28567567874E+02 -0.19106803773E+02  0.10295808374E+03  0.10854281594E+03  0.00000000000E+00 0. -1.
<scales pt_clust_5="13000.00000" pt_clust_6="13000.00000" pt_clust_7="13000.00000" pt_clust_8="13000.00000" pt_clust_9="34.36824"></scales>
<clustering>
<clus scale="   34.368">  1  9  2 -1</clus>
<clus scale="   80.582">  5  6 -1 -1</clus>
<clus scale="   91.690">  7  8 -1 -1</clus>
<clus scale="  132.661">  1  5  2 -1</clus>
<clus scale="   34.368">  1  5  2 -1</clus>
</clustering>
</event>
<event>
 9    2  0.2984928E-005  0.9311799E+02  0.7546771E-02  0.1308399E+00
         -1   -1    0    0    0  501 -0.00000000000E+00  0.00000000000E+00  0.67339865272E+03  0.67339865272E+03  0.00000000000E+00 0.  1.
          2   -1    0    0  502    0  0.00000000000E+00 -0.00000000000E+00 -0.59957709841E+02  0.59957709841E+02  0.00000000000E+00 0. -1.
         24    2    1    2    0    0 -0.11986435701E+02 -0.24920377847E+02  0.54637183052E+03  0.55152132171E+03  0.69920606696E+02 0.  0.
         23    2    1    2    0    0 -0.20531896452E+02 -0.10981402265E+02  0.88725945616E+02  0.12877471510E+03  0.90379665056E+02 0.  0.
        -11    1    3    3    0    0  0.15433186420E+02 -0.38645152570E+02  0.23620355839E+03  0.23984109751E+03  0.00000000000E+00 0.  1.
         12    1    3    3    0    0 -0.27419622120E+02  0.13724774723E+02  0.31016827213E+03  0.31168022420E+03  0.00000000000E+00 0. -1.
        -13    1    4    4    0    0 -0.29354226694E+02  0.29679613496E+02  0.15452119826E+02  0.44511999384E+02  0.00000000000E+00 0.  1.
         13    1    4    4    0    0  0.88223302423E+01 -0.40661015761E+02  0.73273825791E+02  0.84262715715E+02  0.00000000000E+00 0. -1.
         21    1    1    2  502  501  0.32518332153E+02  0.35901780112E+02 -0.21656833264E+02  0.53060325746E+02  0.00000000000E+00 0. -1.
<scales pt_clust_5="13000.00000" pt_clust_6="13000.00000" pt_clust_7="13000.00000" pt_clust_8="13000.00000" pt_clust_9="48.43944"></scales>
<clustering>
<clus scale="   48.439">  2  9  1 -1</clus>
<clus scale="   69.921">  5  6 -1 -1</clus>
<clus scale="   73.426">  1  5  2 -1</clus>
<clus scale="   90.380">  7  8 -1 -1</clus>
<clus scale="   48.439">  2  5  1 -1</clus>
</clustering>
</event>
<event>
 9    2  0.2984928E-005  0.3595061E+03  0.7546771E-02  0.1059042E+00
         -1   -1    0    0    0  501 -0.00000000000E+00  0.00000000000E+00  0.21450772601E+03  0.21450772601E+03  0.00000000000E+00 0.  1.
          2   -1    0    0  502    0  0.00000000000E+00 -0.00000000000E+00 -0.20633214466E+04  0.20633214466E+04  0.00000000000E+00 0. -1.
         23    2    1    2    0    0  0.25722162631E+03  0.22838075340E+03  0.12587771408E+02  0.35570907176E+03  0.89720444574E+02 0.  0.
         24    2    1    2    0    0 -0.25158607145E+03 -0.30173277267E+03 -0.16613179236E+04  0.17089401005E+04  0.78490804096E+02 0.  0.
        -13    1    4    4    0    0 -0.14082698331E+03 -0.11011960421E+03 -0.78633062689E+03  0.80639594571E+03  0.00000000000E+00 0.  1.
         14    1    4    4    0    0 -0.11075908814E+03 -0.19161316846E+03 -0.87498729667E+03  0.90254415475E+03  0.00000000000E+00 0. -1.
        -11    1    3    3    0    0  0.14776180277E+02  0.22379257024E+02  0.25904103975E+02  0.37285241735E+02  0.00000000000E+00 0. -1.
         11    1    3    3    0    0  0.24244544603E+03  0.20600149638E+03 -0.13316332567E+02  0.31842383002E+03  0.00000000000E+00 0.  1.
         21    1    1    2  502  501 -0.56355548619E+01  0.73352019271E+02 -0.20008356839E+03  0.21318000035E+03  0.00000000000E+00 0.  1.
<scales pt_clust_5="13000.00000" pt_clust_6="13000.00000" pt_clust_7="13000.00000" pt_clust_8="13000.00000" pt_clust_9="73.56819"></scales>
<clustering>
<clus scale="   73.568">  2  9  1 -1</clus>
<clus scale="   78.491">  5  6 -1 -1</clus>
<clus scale="   89.720">  7  8 -1 -1</clus>
<clus scale="  356.869">  2  5  1 -1</clus>
<clus scale="   73.568">  2  5  1 -1</clus>
</clustering>
</event>
<event>
 9    2  0.2984928E-005  0.1111267E+03  0.7546771E-02  0.1263245E+00
         -1   -1    0    0    0  501 -0.00000000000E+00  0.00000000000E+00  0.86511253920E+02  0.86511253920E+02  0.00000000000E+00 0.  1.
          2   -1    0    0  502    0  0.00000000000E+00 -0.00000000000E+00 -0.46322427314E+03  0.46322427314E+03  0.00000000000E+00 0. -1.
         23    2    1    2    0    0 -0.62517488121E+02 -0.44600571480E+01  0.34253497933E+02  0.11735168266E+03  0.93111690303E+02 0.  0.
         24    2    1    2    0    0  0.44655360301E+02  0.31832023692E+02 -0.25737582410E+03  0.27535397096E+03  0.81056249320E+02 0.  0.
        -13    1    4    4    0    0  0.27637807854E+02  0.45445625533E+02 -0.76523441574E+02  0.93193295968E+02  0.00000000000E+00 0.  1.
         14    1    4    4    0    0  0.17017552447E+02 -0.13613601841E+02 -0.18085238253E+03  0.18216067499E+03  0.00000000000E+00 0. -1.
        -13    1    3    3    0    0 -0.80001224432E+02 -0.14718506056E+02  0.46472101264E+02  0.93682904134E+02  0.00000000000E+00 0.  1.
         13    1    3    3    0    0  0.17483736311E+02  0.10258448908E+02 -0.12218603331E+02  0.23668778523E+02  0.00000000000E+00 0. -1.
         21    1    1    2  502  501  0.17862127820E+02 -0.27371966544E+02 -0.15359069305E+03  0.15702987345E+03  0.00000000000E+00 0.  1.
<scales pt_clust_5="13000.00000" pt_clust_6="13000.00000" pt_clust_7="13000.00000" pt_clust_8="13000.00000" pt_clust_9="32.68456"></scales>
<clustering>
<clus scale="   32.685">  2  9  1 -1</clus>
<clus scale="   81.056">  5  6 -1 -1</clus>
<clus scale="   93.112">  7  8 -1 -1</clus>
<clus scale="  101.240">  2  5  1 -1</clus>
<clus scale="   32.685">  2  5  1 -1</clus>
</clustering>
</event>
<event>
 9    2  0.2984928E-005  0.9413796E+02  0.7546771E-02  0.1294004E+00
          2   -1    0    0  502    0  0.00000000000E+00  0.00000000000E+00  0.66332425367E+03  0.66332425367E+03  0.00000000000E+00 0. -1.
         -1   -1    0    0    0  501 -0.00000000000E+00 -0.00000000000E+00 -0.27958260498E+02  0.27958260498E+02  0.00000000000E+00 0.  1.
         23    2    1    2    0    0 -0.23040685303E+02  0.41437932225E+02  0.89937325230E+02  0.13179238037E+03  0.83860203000E+02 0.  0.
         24    2    1    2    0    0  0.34472235738E+02 -0.82980353077E+01  0.40254922284E+03  0.41237293920E+03  0.82148473828E+02 0.  0.
        -11    1    4    4    0    0  0.52672574583E+02 -0.26517873205E+02  0.21048537441E+03  0.21859023435E+03  0.00000000000E+00 0.  1.
         12    1    4    4    0    0 -0.18200338845E+02  0.18219837898E+02  0.19206384843E+03  0.19378270485E+03  0.00000000000E+00 0. -1.
        -11    1    3    3    0    0 -0.31340558746E+02 -0.18055323415E+02  0.36681228937E+02  0.51514443435E+02  0.00000000000E+00 0.  1.
         11    1    3    3    0    0  0.82998734429E+01  0.59493255640E+02  0.53256096292E+02  0.80277936932E+02  0.00000000000E+00 0. -1.
         21    1    1    2  502  501 -0.11431550435E+02 -0.33139896917E+02  0.14287944511E+03  0.14711719460E+03  0.00000000000E+00 0.  1.
<scales pt_clust_5="13000.00000" pt_clust_6="13000.00000" pt_clust_7="13000.00000" pt_clust_8="13000.00000" pt_clust_9="35.05614"></scales>
<clustering>
<clus scale="   35.056">  1  9  2 -1</clus>
<clus scale="   82.148">  5  6 -1 -1</clus>
<clus scale="   83.860">  7  8 -1 -1</clus>
<clus scale="   92.616">  1  5  2 -1</clus>
<clus scale="   35.056">  1  5  2 -1</clus>
</clustering>
</event>
<event>
 9    2  0.8600010E-005  0.1143936E+03  0.7546771E-02  0.1255950E+00
          2   -1    0    0  502    0  0.00000000000E+00  0.00000000000E+00  0.10305727472E+04  0.10305727472E+04  0.00000000000E+00 0. -1.
         -1   -1    0    0    0  501 -0.00000000000E+00 -0.00000000000E+00 -0.20691896914E+03  0.20691896914E+03  0.00000000000E+00 0.  1.
         23    2    1    2    0    0  0.30972557116E+02 -0.62882896876E+02 -0.18542042231E+03  0.21798465391E+03  0.90680859706E+02 0.  0.
         24    2    1    2    0    0 -0.40720897219E+02  0.34533491739E+02  0.92768313775E+03  0.93277054198E+03  0.81327279542E+02 0.  0.
        -13    1    4    4    0    0 -0.18667333301E+02 -0.19819974367E+02  0.12420610863E+03  0.12715525211E+03  0.00000000000E+00 0.  1.
         14    1    4    4    0    0 -0.22053563918E+02  0.54353466105E+02  0.80347702912E+03  0.80561528988E+03  0.00000000000E+00 0. -1.
        -13    1    3    3    0    0  0.19168663010E+02 -0.36403114392E+02 -0.18444389146E+03  0.18897664796E+03  0.00000000000E+00 0.  1.
         13    1    3    3    0    0  0.11803894106E+02 -0.26479782483E+02 -0.97653084940E+00  0.29008005945E+02  0.00000000000E+00 0. -1.
         21    1    1    2  502  501  0.97483401039E+01  0.28349405137E+02  0.81391062599E+02  0.86736520437E+02  0.00000000000E+00 0. -1.
<scales pt_clust_5="13000.00000" pt_clust_6="13000.00000" pt_clust_7="13000.00000" pt_clust_8="13000.00000" pt_clust_9="29.97864"></scales>
<clustering>
<clus scale="   29.979">  1  9  2 -1</clus>
<clus scale="   81.327">  5  6 -1 -1</clus>
<clus scale="   90.681">  7  8 -1 -1</clus>
<clus scale="  107.131">  1  5  2 -1</clus>
<clus scale="   29.979">  1  5  2 -1</clus>
</clustering>
</event>
<event>
 9    2  0.2984928E-005  0.1016627E+03  0.7546771E-02  0.1278224E+00
         -1   -1    0    0    0  501 -0.00000000000E+00  0.00000000000E+00  0.42748699977E+03  0.42748699977E+03  0.00000000000E+00 0.  1.
          2   -1    0    0  502    0  0.00000000000E+00 -0.00000000000E+00 -0.14649831977E+03  0.14649831977E+03  0.00000000000E+00 0. -1.
         24    2    1    2    0    0  0.51667917680E+02  0.31081157744E+02  0.38072614244E+03  0.39388423657E+03  0.80973972345E+02 0.  0.
         23    2    1    2    0    0 -0.77062475756E+02 -0.19644951375E+02 -0.47390968030E+02  0.12080668295E+03  0.77613152948E+02 0.  0.
        -11    1    3    3    0    0  0.44420118631E+02  0.56885928770E+02  0.30890582091E+03  0.31722541201E+03  0.00000000000E+00 0.  1.
         12    1    3    3    0    0  0.72477990498E+01 -0.25804771025E+02  0.71820321532E+02  0.76658824565E+02  0.00000000000E+00 0. -1.
        -13    1    4    4    0    0 -0.36919613883E+02 -0.48987365151E+02 -0.28109002670E+02  0.67475446385E+02  0.00000000000E+00 0. -1.
         13    1    4    4    0    0 -0.40142861873E+02  0.29342413776E+02 -0.19281965359E+02  0.53331236566E+02  0.00000000000E+00 0.  1.
         21    1    1    2  502  501  0.25394558076E+02 -0.11436206369E+02 -0.52346494411E+02  0.59294400015E+02  0.00000000000E+00 0. -1.
<scales pt_clust_5="13000.00000" pt_clust_6="13000.00000" pt_clust_7="13000.00000" pt_clust_8="13000.00000" pt_clust_9="27.85086"></scales>
<clustering>
<clus scale="   27.851">  2  9  1 -1</clus>
<clus scale="   77.613">  7  8 -1 -1</clus>
<clus scale="   80.974">  5  6 -1 -1</clus>
<clus scale="   99.007">  2  7  1 -1</clus>
<clus scale="   27.851">  2  5  1 -1</clus>
</clustering>
</event>
<event>
 9    2  0.2984928E-005  0.1825066E+03  0.7546771E-02  0.1166425E+00
         -3   -1    0    0    0  501 -0.00000000000E+00  0.00000000000E+00  0.18614019275E+03  0.18614019275E+03  0.00000000000E+00 0.  1.
          4   -1    0    0  502    0  0.00000000000E+00 -0.00000000000E+00 -0.23806404293E+03  0.23806404293E+03  0.00000000000E+00 0. -1.
         23    2    1    2    0    0 -0.73122942455E+02  0.14594613278E+03  0.52711925520E+02  0.19487110233E+03  0.92460591856E+02 0.  0.
         24    2    1    2    0    0  0.46790950591E+02 -0.14044695862E+03 -0.66385847363E+02  0.18257127143E+03  0.83728413203E+02 0.  0.
        -13    1    4    4    0    0  0.70875760576E+02 -0.11291555156E+03 -0.48618048436E+02  0.14190493246E+03  0.00000000000E+00 0.  1.
         14    1    4    4    0    0 -0.24084809985E+02 -0.27531407064E+02 -0.17767798927E+02  0.40666338975E+02  0.00000000000E+00 0. -1.
        -13    1    3    3    0    0 -0.59971823673E+02  0.58903516828E+02  0.64634247773E+02  0.10603692713E+03  0.00000000000E+00 0.  1.
         13    1    3    3    0    0 -0.13151118782E+02  0.87042615951E+02 -0.11922322252E+02  0.88834175207E+02  0.00000000000E+00 0. -1.
         21    1    1    2  502  501  0.26331991864E+02 -0.54991741549E+01 -0.38249928339E+02  0.46761861916E+02  0.00000000000E+00 0.  1.
<scales pt_clust_5="13000.00000" pt_clust_6="13000.00000" pt_clust_7="13000.00000" pt_clust_8="13000.00000" pt_clust_9="26.90009"></scales>
<clustering>
<clus scale="   26.900">  2  9  1 -1</clus>
<clus scale="   83.728">  5  6 -1 -1</clus>
<clus scale="   92.461">  7  8 -1 -1</clus>
<clus scale="  178.242">  2  5  1 -1</clus>
<clus scale="   26.900">  2  5  1 -1</clus>
</clustering>
</event>
<event>
 9    2  0.2984928E-005  0.1004116E+03  0.7546771E-02  0.1284133E+00
         -1   -1    0    0    0  501 -0.00000000000E+00  0.00000000000E+00  0.91392774782E+02  0.91392774782E+02  0.00000000000E+00 0.  1.
          2   -1    0    0  502    0  0.00000000000E+00 -0.00000000000E+00 -0.25890851947E+03  0.25890851947E+03  0.00000000000E+00 0. -1.
         24    2    1    2    0    0 -0.31684634477E+02 -0.19246558297E+02  0.36114484766E+02  0.96590331352E+02  0.81554215296E+02 0.  0.
         23    2    1    2    0    0  0.58135110570E+02  0.31776213778E+02 -0.11761590241E+03  0.16285346784E+03  0.91095184529E+02 0.  0.
        -11    1    3    3    0    0 -0.96097575796E+01 -0.42486229944E+02  0.45700790038E+02  0.63134692410E+02  0.00000000000E+00 0.  1.
         12    1    3    3    0    0 -0.22074876898E+02  0.23239671647E+02 -0.95863052717E+01  0.33455638943E+02  0.00000000000E+00 0. -1.
        -13    1    4    4    0    0  0.27559166033E+02  0.63044167779E+02 -0.68502648004E+02  0.97091129909E+02  0.00000000000E+00 0.  1.
         13    1    4    4    0    0  0.30575944537E+02 -0.31267954001E+02 -0.49113254406E+02  0.65762337930E+02  0.00000000000E+00 0. -1.
         21    1    1    2  502  501 -0.26450476093E+02 -0.12529655481E+02 -0.86014327042E+02  0.90857495060E+02  0.00000000000E+00 0. -1.
<scales pt_clust_5="13000.00000" pt_clust_6="13000.00000" pt_clust_7="13000.00000" pt_clust_8="13000.00000" pt_clust_9="29.26807"></scales>
<clustering>
<clus scale="   29.268">  2  9  1 -1</clus>
<clus scale="   81.554">  5  6 -1 -1</clus>
<clus scale="   91.095">  7  8 -1 -1</clus>
<clus scale="   91.844">  1  5  2 -1</clus>
<clus scale="   29.268">  2  5  1 -1</clus>
</clustering>
</event>
<event>
 9    2  0.2984928E-005  0.1029450E+03  0.7546771E-02  0.1281043E+00
         -1   -1    0    0    0  501 -0.00000000000E+00  0.00000000000E+00  0.95765553968E+02  0.95765553968E+02  0.00000000000E+00 0.  1.
          2   -1    0    0  502    0  0.00000000000E+00 -0.00000000000E+00 -0.16862664732E+03  0.16862664732E+03  0.00000000000E+00 0. -1.
         23    2    1    2    0    0  0.27412639797E+02  0.32101334238E+02  0.58935410845E+01  0.10182909721E+03  0.92479634140E+02 0.  0.
         24    2    1    2    0    0  0.97629035904E+01 -0.50620403966E+02 -0.76515678655E+02  0.12096995690E+03  0.78239004388E+02 0.  0.
        -13    1    4    4    0    0 -0.22208342798E+02  0.98146660537E+01 -0.28406894147E+02  0.37369637337E+02  0.00000000000E+00 0.  1.
         14    1    4    4    0    0  0.31971246389E+02 -0.60435070019E+02 -0.48108784507E+02  0.83600319561E+02  0.00000000000E+00 0. -1.
        -13    1    3    3    0    0  0.10983991451E+02  0.64438560997E+02  0.28408778808E+01  0.65429708838E+02  0.00000000000E+00 0.  1.
         13    1    3    3    0    0  0.16428648345E+02 -0.32337226758E+02  0.30526632037E+01  0.36399388367E+02  0.00000000000E+00 0. -1.
         21    1    1    2  502  501 -0.37175543387E+02  0.18519069727E+02 -0.22389557815E+01  0.41593147184E+02  0.00000000000E+00 0.  1.
<scales pt_clust_5="13000.00000" pt_clust_6="13000.00000" pt_clust_7="13000.00000" pt_clust_8="13000.00000" pt_clust_9="41.53284"></scales>
<clustering>
<clus scale="   41.533">  1  9  2 -1</clus>
<clus scale="   78.239">  5  6 -1 -1</clus>
<clus scale="   90.369">  2  5  1 -1</clus>
<clus scale="   92.480">  7  8 -1 -1</clus>
<clus scale="   90.369">  2  5  1 -1</clus>
</clustering>
</event>
<event>
 9    2  0.2984928E-005  0.1283859E+03  0.7546771E-02  0.1244109E+00
          2   -1    0    0  502    0  0.00000000000E+00  0.00000000000E+00  0.90980652598E+03  0.90980652598E+03  0.00000000000E+00 0. -1.
         -1   -1    0    0    0  501 -0.00000000000E+00 -0.00000000000E+00 -0.12577218114E+03  0.12577218114E+03  0.00000000000E+00 0.  1.
         23    2    1    2    0    0  0.85417482773E+02  0.29848743240E+02 -0.79216617339E+02  0.15101204400E+03  0.91336034142E+02 0.  0.
         24    2    1    2    0    0 -0.18223432174E+02  0.38826020188E+02  0.38803111976E+03  0.39973147236E+03  0.85892646804E+02 0.  0.
        -11    1    4    4    0    0 -0.14399476141E+02  0.37091754088E+02  0.61973672040E+02  0.73646990167E+02  0.00000000000E+00 0.  1.
         12    1    4    4    0    0 -0.38239560331E+01  0.17342660994E+01  0.32605744772E+03  0.32608448220E+03  0.00000000000E+00 0. -1.
        -13    1    3    3    0    0  0.56591842998E+02 -0.75062741563E+01 -0.86122965095E+02  0.10332543715E+03  0.00000000000E+00 0.  1.
         13    1    3    3    0    0  0.28825639774E+02  0.37355017396E+02  0.69063477556E+01  0.47686606845E+02  0.00000000000E+00 0. -1.
         21    1    1    2  502  501 -0.67194050599E+02 -0.68674763427E+02  0.47521984242E+03  0.48483519076E+03  0.00000000000E+00 0. -1.
<scales pt_clust_5="13000.00000" pt_clust_6="13000.00000" pt_clust_7="13000.00000" pt_clust_8="13000.00000" pt_clust_9="90.22559"></scales>
<clustering>
<clus scale="   85.893">  5  6 -1 -1</clus>
<clus scale="   91.336">  7  8 -1 -1</clus>
<clus scale="   96.006">  1  5  2 -1</clus>
<clus scale="   90.226">  1  9  2 -1</clus>
<clus scale="   96.006">  1  5  2 -1</clus>
</clustering>
</event>
<event>
 9    2  0.2984928E-005  0.1077818E+03  0.7546771E-02  0.1269133E+00
         -1   -1    0    0    0  501 -0.00000000000E+00  0.00000000000E+00  0.13475674312E+03  0.13475674312E+03  0.00000000000E+00 0.  1.
          2   -1    0    0  502    0  0.00000000000E+00 -0.00000000000E+00 -0.57398071566E+03  0.57398071566E+03  0.00000000000E+00 0. -1.
         23    2    1    2    0    0  0.34643208673E+02  0.44258527673E+02  0.10596662814E+03  0.15134119269E+03  0.92283590879E+02 0.  0.
         24    2    1    2    0    0 -0.41321766438E+02 -0.24571127607E+02 -0.46262801429E+03  0.47225651317E+03  0.81794290340E+02 0.  0.
        -11    1    4    4    0    0 -0.56290713596E+02 -0.33045494009E+02 -0.23256958642E+03  0.24155591824E+03  0.00000000000E+00 0.  1.
         12    1    4    4    0    0  0.14968947157E+02  0.84743664019E+01 -0.23005842788E+03  0.23070059493E+03  0.00000000000E+00 0. -1.
        -11    1    3    3    0    0 -0.26863437342E+02  0.15062959271E+02  0.76196313234E+01  0.31726893787E+02  0.00000000000E+00 0. -1.
         11    1    3    3    0    0  0.61506646016E+02  0.29195568402E+02  0.98346996818E+02  0.11961429890E+03  0.00000000000E+00 0.  1.
         21    1    1    2  502  501  0.66785577653E+01 -0.19687400065E+02 -0.82562586393E+02  0.85139752918E+02  0.00000000000E+00 0.  1.
<scales pt_clust_5="13000.00000" pt_clust_6="13000.00000" pt_clust_7="13000.00000" pt_clust_8="13000.00000" pt_clust_9="20.78934"></scales>
<clustering>
<clus scale="   20.789">  2  9  1 -1</clus>
<clus scale="   81.794">  5  6 -1 -1</clus>
<clus scale="   92.284">  7  8 -1 -1</clus>
<clus scale="   98.949">  2  5  1 -1</clus>
<clus scale="   20.789">  2  5  1 -1</clus>
</clustering>
</event>
<event>
 9    2  0.2984928E-005  0.1654284E+03  0.7546771E-02  0.1205143E+00
          2   -1    0    0  502    0  0.00000000000E+00  0.00000000000E+00  0.94549146362E+03  0.94549146362E+03  0.00000000000E+00 0. -1.
         -1   -1    0    0    0  501 -0.00000000000E+00 -0.00000000000E+00 -0.83715498203E+02  0.83715498203E+02  0.00000000000E+00 0.  1.
         24    2    1    2    0    0  0.60631774991E+02 -0.92609183040E+01 -0.69093720835E+01  0.10132182706E+03  0.80351704829E+02 0.  0.
         23    2    1    2    0    0  0.81536815444E+02 -0.54275353374E+02  0.19534088209E+03  0.23676899289E+03  0.91145101479E+02 0.  0.
        -13    1    3    3    0    0  0.46785974382E+02 -0.39022638618E+02  0.13857070408E+02  0.62479693692E+02  0.00000000000E+00 0.  1.
         14    1    3    3    0    0  0.13845800609E+02  0.29761720314E+02 -0.20766442491E+02  0.38842133364E+02  0.00000000000E+00 0. -1.
        -13    1    4    4    0    0  0.63747617733E+02 -0.72069747868E+02  0.10252437602E+03  0.14060247154E+03  0.00000000000E+00 0.  1.
         13    1    4    4    0    0  0.17789197711E+02  0.17794394494E+02  0.92816506071E+02  0.96166521356E+02  0.00000000000E+00 0. -1.
         21    1    1    2  502  501 -0.14216859044E+03  0.63536271678E+02  0.67334445541E+03  0.69111614187E+03  0.00000000000E+00 0. -1.
<scales pt_clust_5="13000.00000" pt_clust_6="13000.00000" pt_clust_7="13000.00000" pt_clust_8="13000.00000" pt_clust_9="138.05482"></scales>
<clustering>
<clus scale="   80.352">  5  6 -1 -1</clus>
<clus scale="   91.145">  7  8 -1 -1</clus>
<clus scale="  101.086">  2  5  1 -1</clus>
<clus scale="  138.055">  1  9  2 -1</clus>
<clus scale="  138.055">  1  5  2 -1</clus>
</clustering>
</event>
<event>
 9    2  0.2984928E-005  0.1106043E+03  0.7546771E-02  0.1263948E+00
          2   -1    0    0  502    0  0.00000000000E+00  0.00000000000E+00  0.27952018175E+03  0.27952018175E+03  0.00000000000E+00 0. -1.
         -1   -1    0    0    0  501 -0.00000000000E+00 -0.00000000000E+00 -0.18583264402E+03  0.18583264402E+03  0.00000000000E+00 0.  1.
         24    2    1    2    0    0  0.44254668633E+02  0.42484260555E+02 -0.14198636136E+03  0.17423099600E+03  0.80205517676E+02 0.  0.
         23    2    1    2    0    0 -0.79943119841E+02 -0.13668756817E+02  0.19250801766E+03  0.22813538579E+03  0.91698855284E+02 0.  0.
        -13    1    3    3    0    0  0.59822724408E+02  0.45101861056E+02 -0.13936782538E+03  0.15822871730E+03  0.00000000000E+00 0.  1.
         14    1    3    3    0    0 -0.15568055775E+02 -0.26176005013E+01 -0.26185359729E+01  0.16002278701E+02  0.00000000000E+00 0. -1.
        -13    1    4    4    0    0 -0.15877545939E+01  0.30131194303E+02  0.30393767989E+02  0.42827455765E+02  0.00000000000E+00 0.  1.
         13    1    4    4    0    0 -0.78355365247E+02 -0.43799951120E+02  0.16211424968E+03  0.18530793002E+03  0.00000000000E+00 0. -1.
         21    1    1    2  502  501  0.35688451208E+02 -0.28815503738E+02  0.43165881427E+02  0.62986443976E+02  0.00000000000E+00 0.  1.
<scales pt_clust_5="13000.00000" pt_clust_6="13000.00000" pt_clust_7="13000.00000" pt_clust_8="13000.00000" pt_clust_9="45.86937"></scales>
<clustering>
<clus scale="   45.869">  1  9  2 -1</clus>
<clus scale="   80.206">  5  6 -1 -1</clus>
<clus scale="   91.699">  7  8 -1 -1</clus>
<clus scale="  101.280">  2  5  1 -1</clus>
<clus scale="   45.869">  1  5  2 -1</clus>
</clustering>
</event>
<event>
 9    2  0.2984928E-005  0.9608868E+02  0.7546771E-02  0.1294984E+00
         -1   -1    0    0    0  501 -0.00000000000E+00  0.00000000000E+00  0.19261012022E+03  0.19261012022E+03  0.00000000000E+00 0.  1.
          2   -1    0    0  502    0  0.00000000000E+00 -0.00000000000E+00 -0.14861135717E+03  0.14861135717E+03  0.00000000000E+00 0. -1.
         23    2    1    2    0    0 -0.33920400301E+02 -0.95370403085E+01  0.14885804165E+03  0.17792603307E+03  0.90870281085E+02 0.  0.
         24    2    1    2    0    0  0.14643344457E+02  0.34087304204E+01 -0.31047749207E+02  0.86762425727E+02  0.79609728094E+02 0.  0.
        -11    1    4    4    0    0 -0.18456408408E+02 -0.28673674827E+02 -0.71579599046E+01  0.34843292460E+02  0.00000000000E+00 0.  1.
         12    1    4    4    0    0  0.33099752865E+02  0.32082405248E+02 -0.23889789303E+02  0.51919133267E+02  0.00000000000E+00 0. -1.
        -13    1    3    3    0    0 -0.58241186051E+02 -0.18863466091E+02  0.13542256466E+03  0.14861741865E+03  0.00000000000E+00 0.  1.
         13    1    3    3    0    0  0.24320785751E+02  0.93264257820E+01  0.13435476992E+02  0.29308614423E+02  0.00000000000E+00 0. -1.
         21    1    1    2  502  501  0.19277055843E+02  0.61283098881E+01 -0.73811529397E+02  0.76533018600E+02  0.00000000000E+00 0. -1.
<scales pt_clust_5="13000.00000" pt_clust_6="13000.00000" pt_clust_7="13000.00000" pt_clust_8="13000.00000" pt_clust_9="20.22773"></scales>
<clustering>
<clus scale="   20.228">  2  9  1 -1</clus>
<clus scale="   79.610">  5  6 -1 -1</clus>
<clus scale="   85.518">  2  5  1 -1</clus>
<clus scale="   90.870">  7  8 -1 -1</clus>
<clus scale="   20.228">  2  5  1 -1</clus>
</clustering>
</event>
<event>
 9    2  0.2984928E-005  0.1570073E+03  0.7546771E-02  0.1211339E+00
          2   -1    0    0  502    0  0.00000000000E+00  0.00000000000E+00  0.15474354040E+04  0.15474354040E+04  0.00000000000E+00 0. -1.
         -1   -1    0    0    0  501 -0.00000000000E+00 -0.00000000000E+00 -0.26668619032E+02  0.26668619032E+02  0.00000000000E+00 0.  1.
         24    2    1    2    0    0 -0.86673829682E+02  0.85474007514E+02  0.47129103506E+03  0.49356755650E+03  0.81703943520E+02 0.  0.
         23    2    1    2    0    0  0.14379637007E+02  0.48171159738E+02  0.48798247343E+03  0.49884739103E+03  0.90523977915E+02 0.  0.
        -11    1    3    3    0    0 -0.43154140749E+02  0.33894884927E+02  0.83291784884E+02  0.99742992321E+02  0.00000000000E+00 0.  1.
         12    1    3    3    0    0 -0.43519688934E+02  0.51579122586E+02  0.38799925018E+03  0.39382456418E+03  0.00000000000E+00 0. -1.
        -13    1    4    4    0    0  0.51357902633E+02  0.21262632562E+02  0.21547472051E+03  0.22252884956E+03  0.00000000000E+00 0. -1.
         13    1    4    4    0    0 -0.36978265626E+02  0.26908527176E+02  0.27250775291E+03  0.27631854147E+03  0.00000000000E+00 0.  1.
         21    1    1    2  502  501  0.72294192675E+02 -0.13364516725E+03  0.56149327648E+03  0.58168907550E+03  0.00000000000E+00 0. -1.
<scales pt_clust_5="13000.00000" pt_clust_6="13000.00000" pt_clust_7="13000.00000" pt_clust_8="13000.00000" pt_clust_9="134.07376"></scales>
<clustering>
<clus scale="   81.704">  5  6 -1 -1</clus>
<clus scale="   90.524">  7  8 -1 -1</clus>
<clus scale="  103.546">  1  7  2 -1</clus>
<clus scale="  134.074">  1  9  2 -1</clus>
<clus scale="  103.546">  1  5  2 -1</clus>
</clustering>
</event>
<event>
 9    2  0.2984928E-005  0.9676984E+02  0.7546771E-02  0.1288766E+00
          4   -1    0    0  502    0  0.00000000000E+00  0.00000000000E+00  0.25897340187E+03  0.25897340187E+03  0.00000000000E+00 0. -1.
         -3   -1    0    0    0  501 -0.00000000000E+00 -0.00000000000E+00 -0.76924674301E+02  0.76924674301E+02  0.00000000000E+00 0.  1.
         23    2    1    2    0    0 -0.35710123130E+02 -0.12004602072E+02 -0.21783343182E+02  0.10057999561E+03  0.90677991333E+02 0.  0.
         24    2    1    2    0    0  0.14122464380E+02  0.35143341865E+01  0.18559861827E+03  0.20581264973E+03  0.87750812762E+02 0.  0.
        -11    1    4    4    0    0  0.39148533331E+02  0.21638696939E+02  0.51561788724E+02  0.68260229443E+02  0.00000000000E+00 0.  1.
         12    1    4    4    0    0 -0.25026068951E+02 -0.18124362752E+02  0.13403682954E+03  0.13755242028E+03  0.00000000000E+00 0. -1.
        -11    1    3    3    0    0  0.17286249116E+02 -0.15403719582E+02  0.21859583128E+02  0.31842273160E+02  0.00000000000E+00 0.  1.
         11    1    3    3    0    0 -0.52996372246E+02  0.33991175095E+01 -0.43642926310E+02  0.68737722452E+02  0.00000000000E+00 0. -1.
         21    1    1    2  502  501  0.21587658750E+02  0.84902678857E+01  0.18233452487E+02  0.29505430833E+02  0.00000000000E+00 0.  1.
<scales pt_clust_5="13000.00000" pt_clust_6="13000.00000" pt_clust_7="13000.00000" pt_clust_8="13000.00000" pt_clust_9="23.19723"></scales>
<clustering>
<clus scale="   23.197">  1  9  2 -1</clus>
<clus scale="   87.751">  5  6 -1 -1</clus>
<clus scale="   90.678">  7  8 -1 -1</clus>
<clus scale="   94.032">  1  5  2 -1</clus>
<clus scale="   23.197">  1  5  2 -1</clus>
</clustering>
</event>
<event>
 9    2  0.2984928E-005  0.1524945E+03  0.7546771E-02  0.1198853E+00
          2   -1    0    0  502    0  0.00000000000E+00  0.00000000000E+00  0.66423916464E+02  0.66423916464E+02  0.00000000000E+00 0. -1.
         -1   -1    0    0    0  501 -0.00000000000E+00 -0.00000000000E+00 -0.62061777515E+03  0.62061777515E+03  0.00000000000E+00 0.  1.
         23    2    1    2    0    0  0.10682895153E+03 -0.61945967297E+02 -0.45327435117E+03  0.47797820285E+03  0.88067004162E+02 0.  0.
         24    2    1    2    0    0 -0.12171770943E+03  0.43682241016E+02 -0.10558842938E+03  0.18504188098E+03  0.79801267717E+02 0.  0.
        -13    1    4    4    0    0 -0.94865550126E+02  0.35203412512E+02 -0.11697566904E+03  0.15466757902E+03  0.00000000000E+00 0.  1.
         14    1    4    4    0    0 -0.26852159300E+02  0.84788285040E+01  0.11387239667E+02  0.30374301953E+02  0.00000000000E+00 0. -1.
        -11    1    3    3    0    0  0.54050306128E+02 -0.50484592004E+02 -0.37896706907E+03  0.38611678164E+03  0.00000000000E+00 0.  1.
         11    1    3    3    0    0  0.52778645405E+02 -0.11461375293E+02 -0.74307282104E+02  0.91861421217E+02  0.00000000000E+00 0. -1.
         21    1    1    2  502  501  0.14888757893E+02  0.18263726281E+02  0.46689218600E+01  0.24021607785E+02  0.00000000000E+00 0.  1.
<scales pt_clust_5="13000.00000" pt_clust_6="13000.00000" pt_clust_7="13000.00000" pt_clust_8="13000.00000" pt_clust_9="23.56351"></scales>
<clustering>
<clus scale="   23.564">  1  9  2 -1</clus>
<clus scale="   79.801">  5  6 -1 -1</clus>
<clus scale="   88.067">  7  8 -1 -1</clus>
<clus scale="  147.875">  1  5  2 -1</clus>
<clus scale="   23.564">  1  5  2 -1</clus>
</clustering>
</event>
<event>
 9    2  0.2984928E-005  0.1025183E+03  0.7546771E-02  0.1288107E+00
         -1   -1    0    0    0  501 -0.00000000000E+00  0.00000000000E+00  0.33261994721E+03  0.33261994721E+03  0.00000000000E+00 0.  1.
          2   -1    0    0  502    0  0.00000000000E+00 -0.00000000000E+00 -0.68168391825E+02  0.68168391825E+02  0.00000000000E+00 0. -1.
         24    2    1    2    0    0  0.48211039228E+01  0.52430775948E+01  0.24865719200E+03  0.26116152529E+03  0.79524903373E+02 0.  0.
         23    2    1    2    0    0 -0.66437536975E+01 -0.31111935091E+02 -0.39879871389E+01  0.10700992804E+03  0.10209372503E+03 0.  0.
        -13    1    3    3    0    0 -0.35923717068E+02 -0.58905911279E+01  0.92874224114E+02  0.99753867176E+02  0.00000000000E+00 0.  1.
         14    1    3    3    0    0  0.40744820991E+02  0.11133668723E+02  0.15578296788E+03  0.16140765812E+03  0.00000000000E+00 0. -1.
        -13    1    4    4    0    0  0.31656351116E+02 -0.45288347739E+02  0.21023792175E+02  0.59119868440E+02  0.00000000000E+00 0. -1.
         13    1    4    4    0    0 -0.38300104814E+02  0.14176412648E+02 -0.25011779314E+02  0.47890059603E+02  0.00000000000E+00 0.  1.
         21    1    1    2  502  501  0.18226497748E+01  0.25868857496E+02  0.19782350528E+02  0.32616885700E+02  0.00000000000E+00 0. -1.
<scales pt_clust_5="13000.00000" pt_clust_6="13000.00000" pt_clust_7="13000.00000" pt_clust_8="13000.00000" pt_clust_9="25.93299"></scales>
<clustering>
<clus scale="   25.933">  2  9  1 -1</clus>
<clus scale="   79.525">  5  6 -1 -1</clus>
<clus scale="   80.069">  1  5  2 -1</clus>
<clus scale="  102.094">  7  8 -1 -1</clus>
<clus scale="   25.933">  2  5  1 -1</clus>
</clustering>
</event>
<event>
 9    2  0.2984928E-005  0.1008659E+03  0.7546771E-02  0.1287102E+00
         -1   -1    0    0    0  501 -0.00000000000E+00  0.00000000000E+00  0.29471417639E+02  0.29471417639E+02  0.00000000000E+00 0.  1.
          2   -1    0    0  502    0  0.00000000000E+00 -0.00000000000E+00 -0.60613092852E+03  0.60613092852E+03  0.00000000000E+00 0. -1.
         23    2    1    2    0    0  0.33152670099E+01 -0.41949712503E+02 -0.93156918775E+02  0.13891674632E+03  0.94068493761E+02 0.  0.
         24    2    1    2    0    0  0.18636216437E+02  0.20023155960E+02 -0.33148880501E+03  0.34153782198E+03  0.77556564240E+02 0.  0.
        -11    1    4    4    0    0 -0.26027468041E+02 -0.78684218468E+01 -0.15478037005E+03  0.15715057781E+03  0.00000000000E+00 0.  1.
         12    1    4    4    0    0  0.44663684478E+02  0.27891577807E+02 -0.17670843497E+03  0.18438724417E+03  0.00000000000E+00 0. -1.
        -13    1    3    3    0    0  0.19071944584E+02 -0.64489542122E+02 -0.88294468568E+02  0.11098897825E+03  0.00000000000E+00 0.  1.
         13    1    3    3    0    0 -0.15756677574E+02  0.22539829619E+02 -0.48624502071E+01  0.27927768071E+02  0.00000000000E+00 0. -1.
         21    1    1    2  502  501 -0.21951483447E+02  0.21926556543E+02 -0.15201378709E+03  0.15514777785E+03  0.00000000000E+00 0. -1.
<scales pt_clust_5="13000.00000" pt_clust_6="13000.00000" pt_clust_7="13000.00000" pt_clust_8="13000.00000" pt_clust_9="31.02646"></scales>
<clustering>
<clus scale="   31.026">  2  9  1 -1</clus>
<clus scale="   77.557">  5  6 -1 -1</clus>
<clus scale="   85.674">  2  5  1 -1</clus>
<clus scale="   94.068">  7  8 -1 -1</clus>
<clus scale="   31.026">  2  5  1 -1</clus>
</clustering>
</event>
<event>
 9    2  0.2984928E-005  0.9374845E+02  0.7546771E-02  0.1294708E+00
          4   -1    0    0  502    0  0.00000000000E+00  0.00000000000E+00  0.99553353232E+02  0.99553353232E+02  0.00000000000E+00 0. -1.
         -3   -1    0    0    0  501 -0.00000000000E+00 -0.00000000000E+00 -0.36081738153E+03  0.36081738153E+03  0.00000000000E+00 0.  1.
         24    2    1    2    0    0 -0.15740137539E+02 -0.26370635913E+01 -0.28248167419E+03  0.29779378269E+03  0.92900671278E+02 0.  0.
         23    2    1    2    0    0 -0.14837763899E+00 -0.98788637028E+01 -0.38187931876E+02  0.99822541711E+02  0.91698460885E+02 0.  0.
        -13    1    3    3    0    0 -0.25835919357E+02 -0.44359591934E+02 -0.15364834537E+03  0.16199716714E+03  0.00000000000E+00 0.  1.
         14    1    3    3    0    0  0.10095781818E+02  0.41722528342E+02 -0.12883332882E+03  0.13579661555E+03  0.00000000000E+00 0. -1.
        -11    1    4    4    0    0  0.30959054666E+01 -0.49599713936E+02 -0.91966443214E+01  0.50540028888E+02  0.00000000000E+00 0.  1.
         11    1    4    4    0    0 -0.32442831056E+01  0.39720850233E+02 -0.28991287554E+02  0.49282512823E+02  0.00000000000E+00 0. -1.
         21    1    1    2  502  501  0.15888515178E+02  0.12515927294E+02  0.59405577763E+02  0.62754410363E+02  0.00000000000E+00 0. -1.
<scales pt_clust_5="13000.00000" pt_clust_6="13000.00000" pt_clust_7="13000.00000" pt_clust_8="13000.00000" pt_clust_9="20.22606"></scales>
<clustering>
<clus scale="   20.226">  1  9  2 -1</clus>
<clus scale="   91.698">  7  8 -1 -1</clus>
<clus scale="   92.557">  1  7  2 -1</clus>
<clus scale="   92.901">  5  6 -1 -1</clus>
<clus scale="   20.226">  1  5  2 -1</clus>
</clustering>
</event>
<event>
 9    2  0.2984928E-005  0.1195116E+03  0.7546771E-02  0.1244660E+00
         -1   -1    0    0    0  501 -0.00000000000E+00  0.00000000000E+00  0.19706589063E+03  0.19706589063E+03  0.00000000000E+00 0.  1.
          2   -1    0    0  502    0  0.00000000000E+00 -0.00000000000E+00 -0.20740531478E+03  0.20740531478E+03  0.00000000000E+00 0. -1.
         24    2    1    2    0    0  0.14903352353E+02 -0.83466204163E+02  0.97417013181E+02  0.15919406817E+03  0.93080393941E+02 0.  0.
         23    2    1    2    0    0 -0.73913352527E+01  0.60522544243E+02  0.23492403180E+02  0.11182639701E+03  0.90750426245E+02 0.  0.
        -11    1    3    3    0    0  0.10417367966E+02 -0.34218200345E+02  0.10337149469E+03  0.10938497477E+03  0.00000000000E+00 0.  1.
         12    1    3    3    0    0  0.44859843869E+01 -0.49248003818E+02 -0.59544815107E+01  0.49809093407E+02  0.00000000000E+00 0. -1.
        -11    1    4    4    0    0 -0.34370246878E+02  0.38241093879E+01 -0.15518513077E+02  0.37904642607E+02  0.00000000000E+00 0. -1.
         11    1    4    4    0    0  0.26978911625E+02  0.56698434855E+02  0.39010916257E+02  0.73921754407E+02  0.00000000000E+00 0.  1.
         21    1    1    2  502  501 -0.75120171001E+01  0.22943659920E+02 -0.13124884051E+03  0.13345074022E+03  0.00000000000E+00 0. -1.
<scales pt_clust_5="13000.00000" pt_clust_6="13000.00000" pt_clust_7="13000.00000" pt_clust_8="13000.00000" pt_clust_9="24.14212"></scales>
<clustering>
<clus scale="   24.142">  2  9  1 -1</clus>
<clus scale="   90.750">  7  8 -1 -1</clus>
<clus scale="   93.080">  5  6 -1 -1</clus>
<clus scale="  117.706">  2  7  1 -1</clus>
<clus scale="   24.142">  2  5  1 -1</clus>
</clustering>
</event>
<event>
 9    2  0.2984928E-005  0.1316825E+03  0.7546771E-02  0.1227610E+00
         -1   -1    0    0    0  501 -0.00000000000E+00  0.00000000000E+00  0.11584599283E+03  0.11584599283E+03  0.00000000000E+00 0.  1.
          2   -1    0    0  502    0  0.00000000000E+00 -0.00000000000E+00 -0.65898593695E+03  0.65898593695E+03  0.00000000000E+00 0. -1.
         24    2    1    2    0    0  0.43742733823E+02  0.88729755847E+02  0.56988248296E+02  0.13995253858E+03  0.80948479143E+02 0.  0.
         23    2    1    2    0    0  0.34644949292E+02 -0.81566251455E+02 -0.33728073452E+03  0.36049876000E+03  0.91365946582E+02 0.  0.
        -13    1    3    3    0    0  0.65404370253E+02  0.49043862560E+02  0.28810809181E+02  0.86678110435E+02  0.00000000000E+00 0.  1.
         14    1    3    3    0    0 -0.21661636430E+02  0.39685893287E+02  0.28177439115E+02  0.53274428142E+02  0.00000000000E+00 0. -1.
        -13    1    4    4    0    0 -0.30127054030E+02 -0.22008497792E+02 -0.13160149187E+03  0.13678803318E+03  0.00000000000E+00 0. -1.
         13    1    4    4    0    0  0.64772003322E+02 -0.59557753663E+02 -0.20567924265E+03  0.22371072682E+03  0.00000000000E+00 0.  1.
         21    1    1    2  502  501 -0.78387683115E+02 -0.71635043919E+01 -0.26284745790E+03  0.27438063121E+03  0.00000000000E+00 0. -1.
<scales pt_clust_5="13000.00000" pt_clust_6="13000.00000" pt_clust_7="13000.00000" pt_clust_8="13000.00000" pt_clust_9="78.71432"></scales>
<clustering>
<clus scale="   78.714">  2  9  1 -1</clus>
<clus scale="   80.948">  5  6 -1 -1</clus>
<clus scale="   91.366">  7  8 -1 -1</clus>
<clus scale="  124.680">  1  5  2 -1</clus>
<clus scale="   78.714">  2  5  1 -1</clus>
</clustering>
</event>
<event>
 9    2  0.2984928E-005  0.1462188E+03  0.7546771E-02  0.1215041E+00
         -1   -1    0    0    0  501 -0.00000000000E+00  0.00000000000E+00  0.67134381701E+02  0.67134381701E+02  0.00000000000E+00 0.  1.
          2   -1    0    0  502    0  0.00000000000E+00 -0.00000000000E+00 -0.41719930154E+03  0.41719930154E+03  0.00000000000E+00 0. -1.
         24    2    1    2    0    0  0.60185777039E+02  0.60314832701E+02 -0.33099022098E+02  0.12116567981E+03  0.79532194098E+02 0.  0.
         23    2    1    2    0    0 -0.55212680721E+02 -0.83041299192E+02 -0.28265287016E+03  0.32171190825E+03  0.11688288760E+03 0.  0.
        -13    1    3    3    0    0  0.61099122173E+02  0.26766047657E+02  0.90186657960E+01  0.67311665930E+02  0.00000000000E+00 0.  1.
         14    1    3    3    0    0 -0.91334513408E+00  0.33548785045E+02 -0.42117687894E+02  0.53854013879E+02  0.00000000000E+00 0. -1.
        -11    1    4    4    0    0 -0.74487171007E+02 -0.15252264067E+02 -0.19461362525E+03  0.20893882678E+03  0.00000000000E+00 0. -1.
         11    1    4    4    0    0  0.19274490287E+02 -0.67789035126E+02 -0.88039244912E+02  0.11277308147E+03  0.00000000000E+00 0.  1.
         21    1    1    2  502  501 -0.49730963185E+01  0.22726466491E+02 -0.34313027579E+02  0.41456095183E+02  0.00000000000E+00 0.  1.
<scales pt_clust_5="13000.00000" pt_clust_6="13000.00000" pt_clust_7="13000.00000" pt_clust_8="13000.00000" pt_clust_9="23.26422"></scales>
<clustering>
<clus scale="   23.264">  2  9  1 -1</clus>
<clus scale="   79.532">  5  6 -1 -1</clus>
<clus scale="  116.883">  7  8 -1 -1</clus>
<clus scale="  118.506">  1  5  2 -1</clus>
<clus scale="   23.264">  2  5  1 -1</clus>
</clustering>
</event>
<event>
 9    2  0.2984928E-005  0.2876942E+03  0.7546771E-02  0.1091948E+00
          2   -1    0    0  502    0  0.00000000000E+00  0.00000000000E+00  0.99789110415E+03  0.99789110415E+03  0.00000000000E+00 0. -1.
         -1   -1    0    0    0  501 -0.00000000000E+00 -0.00000000000E+00 -0.74481812793E+03  0.74481812793E+03  0.00000000000E+00 0.  1.
         23    2    1    2    0    0 -0.27292890723E+03 -0.73912245920E+02 -0.68722107301E+03  0.74855590675E+03  0.90055171098E+02 0.  0.
         24    2    1    2    0    0  0.14434560029E+03 -0.12254905411E+02  0.42501532624E+03  0.45612859806E+03  0.80183760168E+02 0.  0.
        -11    1    4    4    0    0  0.11982379542E+03 -0.40931177809E+02  0.34908952137E+03  0.37134431084E+03  0.00000000000E+00 0.  1.
         12    1    4    4    0    0  0.24521804867E+02  0.28676272398E+02  0.75925804873E+02  0.84784287213E+02  0.00000000000E+00 0. -1.
        -13    1    3    3    0    0 -0.22403510547E+03 -0.54150316918E+02 -0.62951192709E+03  0.67037993082E+03  0.00000000000E+00 0.  1.
         13    1    3    3    0    0 -0.48893801767E+02 -0.19761929003E+02 -0.57709145918E+02  0.78175975924E+02  0.00000000000E+00 0. -1.
         21    1    1    2  502  501  0.12858330694E+03  0.86167151331E+02  0.51527872299E+03  0.53802472727E+03  0.00000000000E+00 0. -1.
<scales pt_clust_5="13000.00000" pt_clust_6="13000.00000" pt_clust_7="13000.00000" pt_clust_8="13000.00000" pt_clust_9="154.78516"></scales>
<clustering>
<clus scale="   80.184">  5  6 -1 -1</clus>
<clus scale="   90.055">  7  8 -1 -1</clus>
<clus scale="  154.785">  1  9  2 -1</clus>
<clus scale="  284.759">  1  5  2 -1</clus>
<clus scale="  154.785">  1  5  2 -1</clus>
</clustering>
</event>
<event>
 9    2  0.2984928E-005  0.1469435E+03  0.7546771E-02  0.1206599E+00
          2   -1    0    0  502    0  0.00000000000E+00  0.00000000000E+00  0.42170530039E+03  0.42170530039E+03  0.00000000000E+00 0. -1.
         -1   -1    0    0    0  501 -0.00000000000E+00 -0.00000000000E+00 -0.24543539689E+03  0.24543539689E+03  0.00000000000E+00 0.  1.
         24    2    1    2    0    0  0.12194378948E+03  0.34526593981E+02 -0.19713468156E+03  0.24676512133E+03  0.77256513949E+02 0.  0.
         23    2    1    2    0    0 -0.53536586074E+02  0.20369431960E+01  0.14133512729E+03  0.17568664903E+03  0.89553700402E+02 0.  0.
        -11    1    3    3    0    0  0.12837592492E+03  0.20020159293E+02 -0.15816475835E+03  0.20468824016E+03  0.00000000000E+00 0.  1.
         12    1    3    3    0    0 -0.64321354433E+01  0.14506434688E+02 -0.38969923212E+02  0.42076881169E+02  0.00000000000E+00 0. -1.
        -13    1    4    4    0    0  0.25012677271E+02 -0.34489799370E+01  0.28259339391E+02  0.37896170646E+02  0.00000000000E+00 0.  1.
         13    1    4    4    0    0 -0.78549263345E+02  0.54859231330E+01  0.11307578790E+03  0.13779047838E+03  0.00000000000E+00 0. -1.
         21    1    1    2  502  501 -0.68407203405E+02 -0.36563537177E+02  0.23206945777E+03  0.24468892692E+03  0.00000000000E+00 0. -1.
<scales pt_clust_5="13000.00000" pt_clust_6="13000.00000" pt_clust_7="13000.00000" pt_clust_8="13000.00000" pt_clust_9="77.56570"></scales>
<clustering>
<clus scale="   77.257">  5  6 -1 -1</clus>
<clus scale="   77.566">  1  9  2 -1</clus>
<clus scale="   89.554">  7  8 -1 -1</clus>
<clus scale="  139.789">  2  5  1 -1</clus>
<clus scale="   77.566">  1  5  2 -1</clus>
</clustering>
</event>
<event>
 9    2  0.2984928E-005  0.9563020E+02  0.7546771E-02  0.1293818E+00
         -1   -1    0    0    0  501 -0.00000000000E+00  0.00000000000E+00  0.11322444419E+03  0.11322444419E+03  0.00000000000E+00 0.  1.
          2   -1    0    0  502    0  0.00000000000E+00 -0.00000000000E+00 -0.14117703098E+03  0.14117703098E+03  0.00000000000E+00 0. -1.
         23    2    1    2    0    0  0.30829911197E+02 -0.45859494766E+02  0.31618491247E+02  0.10734502843E+03  0.86427133795E+02 0.  0.
         24    2    1    2    0    0  0.12117323732E+02  0.21348841931E+02 -0.50941511716E+02  0.96859768506E+02  0.78639522842E+02 0.  0.
        -11    1    4    4    0    0  0.27431668287E+02 -0.15069924197E+02 -0.47921352025E+02  0.57236832724E+02  0.00000000000E+00 0.  1.
         12    1    4    4    0    0 -0.15314344555E+02  0.36418766128E+02 -0.30201596907E+01  0.39622935782E+02  0.00000000000E+00 0. -1.
        -13    1    3    3    0    0  0.26610270939E+02 -0.71638032123E+02  0.22243059163E+02  0.79591883046E+02  0.00000000000E+00 0. -1.
         13    1    3    3    0    0  0.42196402575E+01  0.25778537357E+02  0.93754320836E+01  0.27753145387E+02  0.00000000000E+00 0.  1.
         21    1    1    2  502  501 -0.42947234929E+02  0.24510652835E+02 -0.86295663233E+01  0.50196678231E+02  0.00000000000E+00 0.  1.
<scales pt_clust_5="13000.00000" pt_clust_6="13000.00000" pt_clust_7="13000.00000" pt_clust_8="13000.00000" pt_clust_9="49.44934"></scales>
<clustering>
<clus scale="   49.449">  2  9  1 -1</clus>
<clus scale="   78.640">  5  6 -1 -1</clus>
<clus scale="   86.427">  7  8 -1 -1</clus>
<clus scale="   88.655">  2  5  1 -1</clus>
<clus scale="   49.449">  2  5  1 -1</clus>
</clustering>
</event>
<event>
 9    2  0.2984928E-005  0.1008414E+03  0.7546771E-02  0.1284492E+00
          2   -1    0    0  502    0  0.00000000000E+00  0.00000000000E+00  0.35426359896E+03  0.35426359896E+03  0.00000000000E+00 0. -1.
         -1   -1    0    0    0  501 -0.00000000000E+00 -0.00000000000E+00 -0.22997152616E+03  0.22997152616E+03  0.00000000000E+00 0.  1.
         23    2    1    2    0    0  0.38583828250E+02  0.22974058120E+02 -0.20508119676E+03  0.22858862993E+03  0.90431992784E+02 0.  0.
         24    2    1    2    0    0 -0.45835228205E+02  0.50625847540E+01  0.30356199963E+03  0.31685399850E+03  0.78230881572E+02 0.  0.
        -11    1    4    4    0    0 -0.65651224196E+02  0.12593971460E+02  0.19222879367E+03  0.20352051609E+03  0.00000000000E+00 0.  1.
         12    1    4    4    0    0  0.19815995991E+02 -0.75313867057E+01  0.11133320597E+03  0.11333348240E+03  0.00000000000E+00 0. -1.
        -11    1    3    3    0    0  0.61500891408E+02  0.37777102809E+02 -0.16508470102E+03  0.18017332669E+03  0.00000000000E+00 0.  1.
         11    1    3    3    0    0 -0.22917063158E+02 -0.14803044689E+02 -0.39996495739E+02  0.48415303234E+02  0.00000000000E+00 0. -1.
         21    1    1    2  502  501  0.72513999550E+01 -0.28036642874E+02  0.25811269924E+02  0.38792496697E+02  0.00000000000E+00 0. -1.
<scales pt_clust_5="13000.00000" pt_clust_6="13000.00000" pt_clust_7="13000.00000" pt_clust_8="13000.00000" pt_clust_9="28.95922"></scales>
<clustering>
<clus scale="   28.959">  1  9  2 -1</clus>
<clus scale="   78.231">  5  6 -1 -1</clus>
<clus scale="   90.062">  1  5  2 -1</clus>
<clus scale="   90.432">  7  8 -1 -1</clus>
<clus scale="   28.959">  1  5  2 -1</clus>
</clustering>
</event>
<event>
 9    2  0.2984928E-005  0.1505064E+03  0.7546771E-02  0.1222450E+00
         -1   -1    0    0    0  501 -0.00000000000E+00  0.00000000000E+00  0.11104804927E+03  0.11104804927E+03  0.00000000000E+00 0.  1.
          2   -1    0    0  502    0  0.00000000000E+00 -0.00000000000E+00 -0.85730403071E+03  0.85730403071E+03  0.00000000000E+00 0. -1.
         24    2    1    2    0    0  0.39618037078E+02 -0.12269756968E+03  0.32708033806E+02  0.15395014011E+03  0.77501920600E+02 0.  0.
         23    2    1    2    0    0 -0.14532576743E+02 -0.55348781360E+01 -0.19546428156E+03  0.21645145679E+03  0.91668517612E+02 0.  0.
        -11    1    3    3    0    0  0.14660867121E+02 -0.12447414434E+03  0.29130710343E+02  0.12867537417E+03  0.00000000000E+00 0.  1.
         12    1    3    3    0    0  0.24957169957E+02  0.17765746617E+01  0.35773234626E+01  0.25274765933E+02  0.00000000000E+00 0. -1.
        -13    1    4    4    0    0  0.67480880294E+01 -0.45105410564E+02 -0.73790612056E+02  0.86747271899E+02  0.00000000000E+00 0.  1.
         13    1    4    4    0    0 -0.21280664772E+02  0.39570532428E+02 -0.12167366950E+03  0.12970418490E+03  0.00000000000E+00 0. -1.
         21    1    1    2  502  501 -0.25085460335E+02  0.12823244781E+03 -0.58349973369E+03  0.59795048308E+03  0.00000000000E+00 0. -1.
<scales pt_clust_5="13000.00000" pt_clust_6="13000.00000" pt_clust_7="13000.00000" pt_clust_8="13000.00000" pt_clust_9="129.01790"></scales>
<clustering>
<clus scale="   77.502">  5  6 -1 -1</clus>
<clus scale="   91.669">  7  8 -1 -1</clus>
<clus scale="   92.978">  2  7  1 -1</clus>
<clus scale="  129.018">  2  9  1 -1</clus>
<clus scale="   92.978">  2  5  1 -1</clus>
</clustering>
</event>
<event>
 9    2  0.2984928E-005  0.9930188E+02  0.7546771E-02  0.1286434E+00
         -1   -1    0    0    0  501 -0.00000000000E+00  0.00000000000E+00  0.15796073267E+02  0.15796073267E+02  0.00000000000E+00 0.  1.
          2   -1    0    0  502    0  0.00000000000E+00 -0.00000000000E+00 -0.75301845233E+03  0.75301845233E+03  0.00000000000E+00 0. -1.
         23    2    1    2    0    0 -0.42740887089E+02 -0.27651663871E+02 -0.29525388104E+03  0.31279186239E+03  0.89847075449E+02 0.  0.
         24    2    1    2    0    0  0.38218799865E+02  0.56797906994E+01 -0.37107546003E+03  0.38166517993E+03  0.80488358446E+02 0.  0.
        -11    1    4    4    0    0  0.15823787315E+02  0.38580345026E+02 -0.11123107264E+03  0.11879051640E+03  0.00000000000E+00 0.  1.
         12    1    4    4    0    0  0.22395012550E+02 -0.32900554327E+02 -0.25984438740E+03  0.26287466353E+03  0.00000000000E+00 0. -1.
        -13    1    3    3    0    0 -0.48442131579E+01 -0.43875630990E+02 -0.23904594800E+03  0.24308743828E+03  0.00000000000E+00 0.  1.
         13    1    3    3    0    0 -0.37896673931E+02  0.16223967118E+02 -0.56207933043E+02  0.69704424114E+02  0.00000000000E+00 0. -1.
         21    1    1    2  502  501  0.45220872234E+01  0.21971873172E+02 -0.70893037988E+02  0.74357483273E+02  0.00000000000E+00 0. -1.
<scales pt_clust_5="13000.00000" pt_clust_6="13000.00000" pt_clust_7="13000.00000" pt_clust_8="13000.00000" pt_clust_9="22.43240"></scales>
<clustering>
<clus scale="   22.432">  1  9  2 -1</clus>
<clus scale="   80.488">  5  6 -1 -1</clus>
<clus scale="   89.847">  7  8 -1 -1</clus>
<clus scale="   90.922">  2  5  1 -1</clus>
<clus scale="   90.922">  2  5  1 -1</clus>
</clustering>
</event>
<event>
 9    2  0.2984928E-005  0.9974654E+02  0.7546771E-02  0.1287345E+00
         -1   -1    0    0    0  501 -0.00000000000E+00  0.00000000000E+00  0.69719122345E+03  0.69719122345E+03  0.00000000000E+00 0.  1.
          2   -1    0    0  502    0  0.00000000000E+00 -0.00000000000E+00 -0.30042017331E+02  0.30042017331E+02  0.00000000000E+00 0. -1.
         23    2    1    2    0    0  0.38225444686E+02 -0.72316665829E+02  0.29610305882E+03  0.32122381451E+03  0.93897991413E+02 0.  0.
         24    2    1    2    0    0 -0.14885387193E+02  0.37657507261E+01  0.12902221635E+03  0.15338407243E+03  0.81511874808E+02 0.  0.
        -11    1    4    4    0    0 -0.17833579452E+02  0.40409505574E+02  0.86861004246E+02  0.97446389135E+02  0.00000000000E+00 0.  1.
         12    1    4    4    0    0  0.29481922585E+01 -0.36643754848E+02  0.42161212100E+02  0.55937683297E+02  0.00000000000E+00 0. -1.
        -11    1    3    3    0    0 -0.17393034639E+02 -0.28991020541E+02  0.19534724920E+03  0.19825121613E+03  0.00000000000E+00 0. -1.
         11    1    3    3    0    0  0.55618479325E+02 -0.43325645288E+02  0.10075580961E+03  0.12297259838E+03  0.00000000000E+00 0.  1.
         21    1    1    2  502  501 -0.23340057492E+02  0.68550915103E+02  0.24202393095E+03  0.25262535383E+03  0.00000000000E+00 0.  1.
<scales pt_clust_5="13000.00000" pt_clust_6="13000.00000" pt_clust_7="13000.00000" pt_clust_8="13000.00000" pt_clust_9="72.41537"></scales>
<clustering>
<clus scale="   72.415">  1  9  2 -1</clus>
<clus scale="   81.512">  5  6 -1 -1</clus>
<clus scale="   88.186">  2  5  1 -1</clus>
<clus scale="   93.898">  7  8 -1 -1</clus>
<clus scale="   88.186">  2  5  1 -1</clus>
</clustering>
</event>
<event>
 9    2  0.3411709E-005  0.9045431E+02  0.7546771E-02  0.1307503E+00
          2   -1    0    0  502    0  0.00000000000E+00  0.00000000000E+00  0.55982321716E+03  0.55982321716E+03  0.00000000000E+00 0. -1.
         -1   -1    0    0    0  501 -0.00000000000E+00 -0.00000000000E+00 -0.33191889129E+03  0.33191889129E+03  0.00000000000E+00 0.  1.
         24    2    1    2    0    0  0.31899884730E+01  0.12673623981E+02 -0.31015934984E+03  0.32066008852E+03  0.80332268160E+02 0.  0.
         23    2    1    2    0    0  0.51621081004E+02 -0.43910858698E+02  0.44293468351E+03  0.45693499488E+03  0.89473773648E+02 0.  0.
        -13    1    3    3    0    0  0.25685842352E+02 -0.26036528282E+02 -0.14460493103E+03  0.14915847070E+03  0.00000000000E+00 0.  1.
         14    1    3    3    0    0 -0.22495853879E+02  0.38710152263E+02 -0.16555441881E+03  0.17150161782E+03  0.00000000000E+00 0. -1.
        -11    1    4    4    0    0 -0.57859958021E+01 -0.47249242355E+02  0.28302550229E+03  0.28700070313E+03  0.00000000000E+00 0. -1.
         11    1    4    4    0    0  0.57407076806E+02  0.33383836576E+01  0.15990918122E+03  0.16993429175E+03  0.00000000000E+00 0.  1.
         21    1    1    2  502  501 -0.54811069477E+02  0.31237234717E+02  0.95128992199E+02  0.11414702505E+03  0.00000000000E+00 0.  1.
<scales pt_clust_5="13000.00000" pt_clust_6="13000.00000" pt_clust_7="13000.00000" pt_clust_8="13000.00000" pt_clust_9="63.08739"></scales>
<clustering>
<clus scale="   63.087">  1  9  2 -1</clus>
<clus scale="   80.332">  5  6 -1 -1</clus>
<clus scale="   81.423">  2  5  1 -1</clus>
<clus scale="   89.474">  7  8 -1 -1</clus>
<clus scale="   63.087">  1  5  2 -1</clus>
</clustering>
</event>
<event>
 9    2  0.2984928E-005  0.9956898E+02  0.7546771E-02  0.1284741E+00
          2   -1    0    0  502    0  0.00000000000E+00  0.00000000000E+00  0.67648317809E+02  0.67648317809E+02  0.00000000000E+00 0. -1.
         -1   -1    0    0    0  501 -0.00000000000E+00 -0.00000000000E+00 -0.20204948084E+03  0.20204948084E+03  0.00000000000E+00 0.  1.
         24    2    1    2    0    0 -0.17183724480E+02  0.43126173492E+02 -0.91745767612E+02  0.13206507899E+03  0.82877934259E+02 0.  0.
         23    2    1    2    0    0  0.37044078344E+02 -0.20341329091E+02 -0.40219807331E+02  0.10730921591E+03  0.90064429761E+02 0.  0.
        -13    1    3    3    0    0  0.19169479536E+02  0.96300975568E+01 -0.77799850866E+02  0.80703311700E+02  0.00000000000E+00 0.  1.
         14    1    3    3    0    0 -0.36353204017E+02  0.33496075935E+02 -0.13945916746E+02  0.51361767290E+02  0.00000000000E+00 0. -1.
        -13    1    4    4    0    0 -0.35470770521E+01 -0.35160715225E+02 -0.51676534845E+02  0.62604487893E+02  0.00000000000E+00 0.  1.
         13    1    4    4    0    0  0.40591155397E+02  0.14819386134E+02  0.11456727515E+02  0.44704728018E+02  0.00000000000E+00 0. -1.
         21    1    1    2  502  501 -0.19860353864E+02 -0.22784844401E+02 -0.24355880843E+01  0.30323503744E+02  0.00000000000E+00 0. -1.
<scales pt_clust_5="13000.00000" pt_clust_6="13000.00000" pt_clust_7="13000.00000" pt_clust_8="13000.00000" pt_clust_9="30.22553"></scales>
<clustering>
<clus scale="   30.226">  1  9  2 -1</clus>
<clus scale="   82.878">  5  6 -1 -1</clus>
<clus scale="   90.064">  7  8 -1 -1</clus>
<clus scale="   93.119">  2  5  1 -1</clus>
<clus scale="   30.226">  1  5  2 -1</clus>
</clustering>
</event>
<event>
 9    2  0.2984928E-005  0.1119035E+03  0.7546771E-02  0.1265924E+00
         -1   -1    0    0    0  501 -0.00000000000E+00  0.00000000000E+00  0.43018590646E+02  0.43018590646E+02  0.00000000000E+00 0.  1.
          2   -1    0    0  502    0  0.00000000000E+00 -0.00000000000E+00 -0.10256228970E+04  0.10256228970E+04  0.00000000000E+00 0. -1.
         23    2    1    2    0    0 -0.33526791349E+02  0.45632487070E+02 -0.47657472973E+02  0.12425533691E+03  0.99808739121E+02 0.  0.
         24    2    1    2    0    0 -0.10298429459E+02 -0.20607052798E+02 -0.56137695448E+03  0.56742278811E+03  0.79333644675E+02 0.  0.
        -11    1    4    4    0    0 -0.24414087135E+02 -0.15273560478E+02 -0.68402690126E+02  0.74217634810E+02  0.00000000000E+00 0.  1.
         12    1    4    4    0    0  0.14115657677E+02 -0.53334923207E+01 -0.49297426435E+03  0.49320515330E+03  0.00000000000E+00 0. -1.
        -11    1    3    3    0    0 -0.35603571734E+02  0.10927904932E+02  0.24209949467E+02  0.44420210261E+02  0.00000000000E+00 0.  1.
         11    1    3    3    0    0  0.20767803850E+01  0.34704582138E+02 -0.71867422440E+02  0.79835126644E+02  0.00000000000E+00 0. -1.
         21    1    1    2  502  501  0.43825220808E+02 -0.25025434272E+02 -0.37356987886E+03  0.37696336259E+03  0.00000000000E+00 0. -1.
<scales pt_clust_5="13000.00000" pt_clust_6="13000.00000" pt_clust_7="13000.00000" pt_clust_8="13000.00000" pt_clust_9="50.46704"></scales>
<clustering>
<clus scale="   50.467">  2  9  1 -1</clus>
<clus scale="   79.334">  5  6 -1 -1</clus>
<clus scale="   94.098">  2  5  1 -1</clus>
<clus scale="   99.809">  7  8 -1 -1</clus>
<clus scale="   50.467">  2  5  1 -1</clus>
</clustering>
</event>
<event>
 9    2  0.9022881E-005  0.1555871E+03  0.7546771E-02  0.1195350E+00
          2   -1    0    0  502    0  0.00000000000E+00  0.00000000000E+00  0.33697580614E+03  0.33697580614E+03  0.00000000000E+00 0. -1.
         -1   -1    0    0    0  501 -0.00000000000E+00 -0.00000000000E+00 -0.36898365291E+03  0.36898365291E+03  0.00000000000E+00 0.  1.
         23    2    1    2    0    0 -0.12592684376E+03 -0.16514197484E+02 -0.32757141830E+03  0.36295340349E+03  0.91114490175E+02 0.  0.
         24    2    1    2    0    0  0.11131617239E+03  0.24526221055E+01  0.29114716731E+03  0.32225264027E+03  0.81748306008E+02 0.  0.
        -11    1    4    4    0    0  0.25383753822E+02  0.12880539714E+02  0.13651612941E+02  0.31569127281E+02  0.00000000000E+00 0.  1.
         12    1    4    4    0    0  0.85932418569E+02 -0.10427917609E+02  0.27749555437E+03  0.29068351299E+03  0.00000000000E+00 0. -1.
        -13    1    3    3    0    0 -0.88567395841E+02 -0.36127792341E+02 -0.29358157190E+03  0.30877101603E+03  0.00000000000E+00 0.  1.
         13    1    3    3    0    0 -0.37359447917E+02  0.19613594857E+02 -0.33989846405E+02  0.54182387456E+02  0.00000000000E+00 0. -1.
         21    1    1    2  502  501  0.14610671367E+02  0.14061575378E+02  0.44164042256E+01  0.20753415290E+02  0.00000000000E+00 0. -1.
<scales pt_clust_5="13000.00000" pt_clust_6="13000.00000" pt_clust_7="13000.00000" pt_clust_8="13000.00000" pt_clust_9="20.27806"></scales>
<clustering>
<clus scale="   20.278">  1  9  2 -1</clus>
<clus scale="   81.748">  5  6 -1 -1</clus>
<clus scale="   91.114">  7  8 -1 -1</clus>
<clus scale="  150.294">  1  5  2 -1</clus>
<clus scale="   20.278">  1  5  2 -1</clus>
</clustering>
</event>
<event>
 9    2  0.2984928E-005  0.9195763E+02  0.7546771E-02  0.1305504E+00
         -1   -1    0    0    0  501 -0.00000000000E+00  0.00000000000E+00  0.83040935101E+02  0.83040935101E+02  0.00000000000E+00 0.  1.
          2   -1    0    0  502    0  0.00000000000E+00 -0.00000000000E+00 -0.36422372232E+03  0.36422372232E+03  0.00000000000E+00 0. -1.
         23    2    1    2    0    0 -0.76357980703E+01  0.10780247398E+02  0.44200967312E+02  0.10176177234E+03  0.90703989180E+02 0.  0.
         24    2    1    2    0    0  0.36040792406E+02 -0.12206987337E+02 -0.25194947009E+03  0.26675345065E+03  0.78936168525E+02 0.  0.
        -13    1    4    4    0    0  0.24650198682E+02  0.28864602438E+02 -0.67471085489E+02  0.77415405095E+02  0.00000000000E+00 0.  1.
         14    1    4    4    0    0  0.11390593724E+02 -0.41071589775E+02 -0.18447838460E+03  0.18933804556E+03  0.00000000000E+00 0. -1.
        -11    1    3    3    0    0 -0.36992080101E+02  0.18603932329E+02 -0.72247482176E+01  0.42032336065E+02  0.00000000000E+00 0. -1.
         11    1    3    3    0    0  0.29356282030E+02 -0.78236849307E+01  0.51425715530E+02  0.59729436279E+02  0.00000000000E+00 0.  1.
         21    1    1    2  502  501 -0.28404994336E+02  0.14267399392E+01 -0.73434284439E+02  0.78749434418E+02  0.00000000000E+00 0.  1.
<scales pt_clust_5="13000.00000" pt_clust_6="13000.00000" pt_clust_7="13000.00000" pt_clust_8="13000.00000" pt_clust_9="28.44080"></scales>
<clustering>
<clus scale="   28.441">  2  9  1 -1</clus>
<clus scale="   78.936">  5  6 -1 -1</clus>
<clus scale="   80.374">  2  5  1 -1</clus>
<clus scale="   90.704">  7  8 -1 -1</clus>
<clus scale="   28.441">  2  5  1 -1</clus>
</clustering>
</event>
<event>
 9    2  0.2984928E-005  0.1481237E+03  0.7546771E-02  0.1204092E+00
         -1   -1    0    0    0  501 -0.00000000000E+00  0.00000000000E+00  0.10924151560E+03  0.10924151560E+03  0.00000000000E+00 0.  1.
          2   -1    0    0  502    0  0.00000000000E+00 -0.00000000000E+00 -0.58536745495E+03  0.58536745495E+03  0.00000000000E+00 0. -1.
         23    2    1    2    0    0  0.68728841251E+02  0.98857978498E+02  0.32911960421E+02  0.15237504278E+03  0.87397957597E+02 0.  0.
         24    2    1    2    0    0 -0.38997124175E+02 -0.11217196675E+03 -0.32321723920E+03  0.35357933550E+03  0.80284724335E+02 0.  0.
        -11    1    4    4    0    0 -0.37811083977E+02 -0.20474807713E+02 -0.53140280557E+02  0.68357773808E+02  0.00000000000E+00 0.  1.
         12    1    4    4    0    0 -0.11860401986E+01 -0.91697159042E+02 -0.27007695864E+03  0.28522156169E+03  0.00000000000E+00 0. -1.
        -11    1    3    3    0    0  0.22708575436E+02  0.44810581927E+02 -0.29153262540E+02  0.58082530658E+02  0.00000000000E+00 0. -1.
         11    1    3    3    0    0  0.46020265815E+02  0.54047396572E+02  0.62065222961E+02  0.94292512126E+02  0.00000000000E+00 0.  1.
         21    1    1    2  502  501 -0.29731717076E+02  0.13313988256E+02 -0.18582066058E+03  0.18865459226E+03  0.00000000000E+00 0. -1.
<scales pt_clust_5="13000.00000" pt_clust_6="13000.00000" pt_clust_7="13000.00000" pt_clust_8="13000.00000" pt_clust_9="32.57664"></scales>
<clustering>
<clus scale="   32.577">  2  9  1 -1</clus>
<clus scale="   80.285">  5  6 -1 -1</clus>
<clus scale="   87.398">  7  8 -1 -1</clus>
<clus scale="  144.041">  2  5  1 -1</clus>
<clus scale="   32.577">  2  5  1 -1</clus>
</clustering>
</event>
<event>
 9    2  0.2984928E-005  0.9785181E+02  0.7546771E-02  0.1291771E+00
          2   -1    0    0  502    0  0.00000000000E+00  0.00000000000E+00  0.10310666280E+03  0.10310666280E+03  0.00000000000E+00 0. -1.
         -1   -1    0    0    0  501 -0.00000000000E+00 -0.00000000000E+00 -0.19012648316E+03  0.19012648316E+03  0.00000000000E+00 0.  1.
         23    2    1    2    0    0  0.20798057085E+02 -0.30368626632E+02 -0.14205273868E+03  0.17326112099E+03  0.92117440353E+02 0.  0.
         24    2    1    2    0    0 -0.69028787267E+01  0.12770928932E+02  0.54800123014E+02  0.97548618907E+02  0.79384716462E+02 0.  0.
        -11    1    4    4    0    0 -0.23697749153E+02 -0.21673849254E+02  0.49296355374E+02  0.58834256259E+02  0.00000000000E+00 0.  1.
         12    1    4    4    0    0  0.16794870427E+02  0.34444778187E+02  0.55037676403E+01  0.38714362648E+02  0.00000000000E+00 0. -1.
        -13    1    3    3    0    0 -0.36517734212E+02 -0.65581214004E+01 -0.51021876685E+02  0.63085543262E+02  0.00000000000E+00 0.  1.
         13    1    3    3    0    0  0.57315791297E+02 -0.23810505232E+02 -0.91030861999E+02  0.11017557773E+03  0.00000000000E+00 0. -1.
         21    1    1    2  502  501 -0.13895178359E+02  0.17597697700E+02  0.23279531198E+00  0.22423406066E+02  0.00000000000E+00 0. -1.
<scales pt_clust_5="13000.00000" pt_clust_6="13000.00000" pt_clust_7="13000.00000" pt_clust_8="13000.00000" pt_clust_9="22.42220"></scales>
<clustering>
<clus scale="   22.422">  1  9  2 -1</clus>
<clus scale="   79.385">  5  6 -1 -1</clus>
<clus scale="   85.973">  1  5  2 -1</clus>
<clus scale="   92.117">  7  8 -1 -1</clus>
<clus scale="   22.422">  1  5  2 -1</clus>
</clustering>
</event>
<event>
 9    2  0.2984928E-005  0.1380314E+03  0.7546771E-02  0.1218632E+00
          4   -1    0    0  502    0  0.00000000000E+00  0.00000000000E+00  0.13804668615E+03  0.13804668615E+03  0.00000000000E+00 0. -1.
         -3   -1    0    0    0  501 -0.00000000000E+00 -0.00000000000E+00 -0.28174242487E+03  0.28174242487E+03  0.00000000000E+00 0.  1.
         23    2    1    2    0    0  0.11379199754E+02 -0.97841068723E+02 -0.17999145825E+03  0.22453443843E+03  0.91194452026E+02 0.  0.
         24    2    1    2    0    0  0.16077125561E+02  0.12295084295E+03  0.62211803640E+01  0.14741297042E+03  0.79476392810E+02 0.  0.
        -11    1    4    4    0    0  0.47507911727E+02  0.89540550153E+02  0.60150330587E+01  0.10154157976E+03  0.00000000000E+00 0.  1.
         12    1    4    4    0    0 -0.31430786166E+02  0.33410292794E+02  0.20614730531E+00  0.45871390651E+02  0.00000000000E+00 0. -1.
        -11    1    3    3    0    0 -0.23068981777E+02  0.63546645268E+01 -0.24803280893E+02  0.34463929325E+02  0.00000000000E+00 0. -1.
         11    1    3    3    0    0  0.34448181531E+02 -0.10419573325E+03 -0.15518817736E+03  0.19007050910E+03  0.00000000000E+00 0.  1.
         21    1    1    2  502  501 -0.27456325316E+02 -0.25109774223E+02  0.30074539162E+02  0.47841702177E+02  0.00000000000E+00 0. -1.
<scales pt_clust_5="13000.00000" pt_clust_6="13000.00000" pt_clust_7="13000.00000" pt_clust_8="13000.00000" pt_clust_9="37.20686"></scales>
<clustering>
<clus scale="   37.207">  1  9  2 -1</clus>
<clus scale="   79.476">  5  6 -1 -1</clus>
<clus scale="   91.194">  7  8 -1 -1</clus>
<clus scale="  130.586">  1  5  2 -1</clus>
<clus scale="   37.207">  1  5  2 -1</clus>
</clustering>
</event>
<event>
 9    2  0.2984928E-005  0.9469592E+02  0.7546771E-02  0.1294813E+00
         -1   -1    0    0    0  501 -0.00000000000E+00  0.00000000000E+00  0.18635351811E+03  0.18635351811E+03  0.00000000000E+00 0.  1.
          2   -1    0    0  502    0  0.00000000000E+00 -0.00000000000E+00 -0.13570035271E+03  0.13570035271E+03  0.00000000000E+00 0. -1.
         23    2    1    2    0    0  0.31080804319E+02 -0.24566562117E+02  0.76719453066E+02  0.12517388792E+03  0.90626129609E+02 0.  0.
         24    2    1    2    0    0  0.43817756892E+02 -0.15666755170E+02 -0.48974331860E+02  0.10882719884E+03  0.85319581508E+02 0.  0.
        -13    1    4    4    0    0  0.13225364510E+02  0.34569536831E+02 -0.10250425316E+02  0.38406176096E+02  0.00000000000E+00 0.  1.
         14    1    4    4    0    0  0.30592392382E+02 -0.50236292002E+02 -0.38723906543E+02  0.70421022740E+02  0.00000000000E+00 0. -1.
        -13    1    3    3    0    0 -0.13926923002E+02 -0.45995753559E+02  0.46549730965E+02  0.66906247710E+02  0.00000000000E+00 0. -1.
         13    1    3    3    0    0  0.45007727321E+02  0.21429191442E+02  0.30169722100E+02  0.58267640214E+02  0.00000000000E+00 0.  1.
         21    1    1    2  502  501 -0.74898561211E+02  0.40233317287E+02  0.22908044198E+02  0.88052784058E+02  0.00000000000E+00 0. -1.
<scales pt_clust_5="13000.00000" pt_clust_6="13000.00000" pt_clust_7="13000.00000" pt_clust_8="13000.00000" pt_clust_9="85.02067"></scales>
<clustering>
<clus scale="   85.021">  1  9  2 -1</clus>
<clus scale="   85.320">  5  6 -1 -1</clus>
<clus scale="   89.631">  2  5  1 -1</clus>
<clus scale="   90.626">  7  8 -1 -1</clus>
<clus scale="   89.631">  2  5  1 -1</clus>
</clustering>
</event>
<event>
 9    2  0.2984928E-005  0.1754048E+03  0.7546771E-02  0.1173213E+00
         -1   -1    0    0    0  501 -0.00000000000E+00  0.00000000000E+00  0.55492159238E+02  0.55492159238E+02  0.00000000000E+00 0.  1.
          2   -1    0    0  502    0  0.00000000000E+00 -0.00000000000E+00 -0.83695267410E+03  0.83695267410E+03  0.00000000000E+00 0. -1.
         24    2    1    2    0    0 -0.77965313091E+02  0.10759662451E+03 -0.23428020876E+03  0.28157167053E+03  0.82096076507E+02 0.  0.
         23    2    1    2    0    0  0.13001298948E+03 -0.11959342545E+03 -0.31021340370E+03  0.36796125144E+03  0.89202925298E+02 0.  0.
        -13    1    3    3    0    0 -0.44629465977E+02  0.40659033958E+02 -0.37524285805E+02  0.71084585537E+02  0.00000000000E+00 0.  1.
         14    1    3    3    0    0 -0.33335847113E+02  0.66937590552E+02 -0.19675592295E+03  0.21048708499E+03  0.00000000000E+00 0. -1.
        -11    1    4    4    0    0  0.87370136031E+02 -0.74659010199E+02 -0.11270391465E+03  0.16096484353E+03  0.00000000000E+00 0.  1.
         11    1    4    4    0    0  0.42642853448E+02 -0.44934415249E+02 -0.19750948905E+03  0.20699640792E+03  0.00000000000E+00 0. -1.
         21    1    1    2  502  501 -0.52047676389E+02  0.11996800938E+02 -0.23696690240E+03  0.24291191137E+03  0.00000000000E+00 0. -1.
<scales pt_clust_5="13000.00000" pt_clust_6="13000.00000" pt_clust_7="13000.00000" pt_clust_8="13000.00000" pt_clust_9="53.41239"></scales>
<clustering>
<clus scale="   53.412">  2  9  1 -1</clus>
<clus scale="   82.096">  5  6 -1 -1</clus>
<clus scale="   89.203">  7  8 -1 -1</clus>
<clus scale="  171.900">  1  5  2 -1</clus>
<clus scale="   53.412">  2  5  1 -1</clus>
</clustering>
</event>
<event>
 9    2  0.2984928E-005  0.9370344E+02  0.7546771E-02  0.1297234E+00
         -1   -1    0    0    0  501 -0.00000000000E+00  0.00000000000E+00  0.16811195983E+03  0.16811195983E+03  0.00000000000E+00 0.  1.
          2   -1    0    0  502    0  0.00000000000E+00 -0.00000000000E+00 -0.21376061727E+03  0.21376061727E+03  0.00000000000E+00 0. -1.
         23    2    1    2    0    0 -0.11474893467E+02 -0.50194568573E+02  0.11758887109E+03  0.15765515603E+03  0.91525066101E+02 0.  0.
         24    2    1    2    0    0  0.53195360908E+01  0.16814716387E+02 -0.16831652437E+03  0.18989688559E+03  0.86135606055E+02 0.  0.
        -11    1    4    4    0    0  0.39272598379E+02 -0.13572179016E+02 -0.93164143978E+02  0.10201028747E+03  0.00000000000E+00 0.  1.
         12    1    4    4    0    0 -0.33953062288E+02  0.30386895402E+02 -0.75152380387E+02  0.87886598118E+02  0.00000000000E+00 0. -1.
        -11    1    3    3    0    0  0.16522711236E+02  0.13367416413E+02  0.70773108596E+02  0.73895336176E+02  0.00000000000E+00 0. -1.
         11    1    3    3    0    0 -0.27997604703E+02 -0.63561984986E+02  0.46815762495E+02  0.83759819857E+02  0.00000000000E+00 0.  1.
         21    1    1    2  502  501  0.61553573760E+01  0.33379852186E+02  0.50789958364E+01  0.34320535473E+02  0.00000000000E+00 0. -1.
<scales pt_clust_5="13000.00000" pt_clust_6="13000.00000" pt_clust_7="13000.00000" pt_clust_8="13000.00000" pt_clust_9="33.94264"></scales>
<clustering>
<clus scale="   33.943">  1  9  2 -1</clus>
<clus scale="   86.136">  5  6 -1 -1</clus>
<clus scale="   88.447">  2  5  1 -1</clus>
<clus scale="   91.525">  7  8 -1 -1</clus>
<clus scale="   88.447">  2  5  1 -1</clus>
</clustering>
</event>
<event>
 9    2  0.2984928E-005  0.9490163E+02  0.7546771E-02  0.1295793E+00
         -1   -1    0    0    0  501 -0.00000000000E+00  0.00000000000E+00  0.13832470946E+03  0.13832470946E+03  0.00000000000E+00 0.  1.
          2   -1    0    0  502    0  0.00000000000E+00 -0.00000000000E+00 -0.18803971432E+03  0.18803971432E+03  0.00000000000E+00 0. -1.
         23    2    1    2    0    0 -0.12334121202E+02  0.17363625014E+01  0.94998501036E+02  0.13411570142E+03  0.93846473930E+02 0.  0.
         24    2    1    2    0    0  0.27880912957E+02  0.17962547894E+02 -0.13828631430E+03  0.16634392364E+03  0.86297148132E+02 0.  0.
        -13    1    4    4    0    0  0.56858670402E+02 -0.25735342211E+01 -0.83575602464E+02  0.10111583855E+03  0.00000000000E+00 0.  1.
         14    1    4    4    0    0 -0.28977757446E+02  0.20536082115E+02 -0.54710711839E+02  0.65228085095E+02  0.00000000000E+00 0. -1.
        -13    1    3    3    0    0 -0.47751616272E+02 -0.20899630733E+02  0.59455902090E+02  0.79069688976E+02  0.00000000000E+00 0.  1.
         13    1    3    3    0    0  0.35417495070E+02  0.22635993235E+02  0.35542598946E+02  0.55046012449E+02  0.00000000000E+00 0. -1.
         21    1    1    2  502  501 -0.15546791754E+02 -0.19698910395E+02 -0.64271915916E+01  0.25904798713E+02  0.00000000000E+00 0.  1.
<scales pt_clust_5="13000.00000" pt_clust_6="13000.00000" pt_clust_7="13000.00000" pt_clust_8="13000.00000" pt_clust_9="25.09482"></scales>
<clustering>
<clus scale="   25.095">  2  9  1 -1</clus>
<clus scale="   86.297">  5  6 -1 -1</clus>
<clus scale="   87.443">  2  5  1 -1</clus>
<clus scale="   93.846">  7  8 -1 -1</clus>
<clus scale="   25.095">  2  5  1 -1</clus>
</clustering>
</event>
<event>
 9    2  0.2984928E-005  0.1206525E+03  0.7546771E-02  0.1248200E+00
          2   -1    0    0  502    0  0.00000000000E+00  0.00000000000E+00  0.71234709856E+03  0.71234709856E+03  0.00000000000E+00 0. -1.
         -1   -1    0    0    0  501 -0.00000000000E+00 -0.00000000000E+00 -0.65151165302E+02  0.65151165302E+02  0.00000000000E+00 0.  1.
         23    2    1    2    0    0 -0.61245670665E+02  0.32052520673E+02  0.14580556461E+02  0.12132897265E+03  0.98639397408E+02 0.  0.
         24    2    1    2    0    0  0.36532740975E+02 -0.79784732884E+02  0.47024330629E+03  0.48513192027E+03  0.80771085138E+02 0.  0.
        -11    1    4    4    0    0  0.31837634286E+02  0.31083945420E+01  0.80086275054E+02  0.86238671868E+02  0.00000000000E+00 0.  1.
         12    1    4    4    0    0  0.46951066885E+01 -0.82893127426E+02  0.39015703123E+03  0.39889324840E+03  0.00000000000E+00 0. -1.
        -13    1    3    3    0    0 -0.38244297399E+02  0.12586276802E+02 -0.41402625680E+02  0.57751346828E+02  0.00000000000E+00 0.  1.
         13    1    3    3    0    0 -0.23001373266E+02  0.19466243871E+02  0.55983182141E+02  0.63577625822E+02  0.00000000000E+00 0. -1.
         21    1    1    2  502  501  0.24712929690E+02  0.47732212211E+02  0.16237207051E+03  0.17103737094E+03  0.00000000000E+00 0. -1.
<scales pt_clust_5="13000.00000" pt_clust_6="13000.00000" pt_clust_7="13000.00000" pt_clust_8="13000.00000" pt_clust_9="53.75028"></scales>
<clustering>
<clus scale="   53.750">  1  9  2 -1</clus>
<clus scale="   80.771">  5  6 -1 -1</clus>
<clus scale="   98.639">  7  8 -1 -1</clus>
<clus scale="  106.542">  1  5  2 -1</clus>
<clus scale="   53.750">  1  5  2 -1</clus>
</clustering>
</event>
<event>
 9    2  0.2984928E-005  0.1218333E+03  0.7546771E-02  0.1247883E+00
         -1   -1    0    0    0  501 -0.00000000000E+00  0.00000000000E+00  0.42234943589E+02  0.42234943589E+02  0.00000000000E+00 0.  1.
          2   -1    0    0  502    0  0.00000000000E+00 -0.00000000000E+00 -0.11196929523E+04  0.11196929523E+04  0.00000000000E+00 0. -1.
         24    2    1    2    0    0 -0.44366012031E+02  0.44696078256E+02 -0.59857590164E+02  0.12011289572E+03  0.82934276289E+02 0.  0.
         23    2    1    2    0    0 -0.58042278680E+02  0.52493749369E+01 -0.55225357384E+03  0.56272242854E+03  0.90972851558E+02 0.  0.
        -11    1    3    3    0    0 -0.40969681574E+02  0.67741445807E+02 -0.54779417473E+02  0.96271505997E+02  0.00000000000E+00 0.  1.
         12    1    3    3    0    0 -0.33963304563E+01 -0.23045367551E+02 -0.50781726912E+01  0.23841389725E+02  0.00000000000E+00 0. -1.
        -13    1    4    4    0    0  0.19852326445E+02  0.15650778377E+02 -0.77784206664E+02  0.81789024541E+02  0.00000000000E+00 0.  1.
         13    1    4    4    0    0 -0.77894605125E+02 -0.10401403440E+02 -0.47446936717E+03  0.48093340400E+03  0.00000000000E+00 0. -1.
         21    1    1    2  502  501  0.10240829071E+03 -0.49945453193E+02 -0.46534684472E+03  0.47909257163E+03  0.00000000000E+00 0.  1.
<scales pt_clust_5="13000.00000" pt_clust_6="13000.00000" pt_clust_7="13000.00000" pt_clust_8="13000.00000" pt_clust_9="81.03877"></scales>
<clustering>
<clus scale="   82.934">  5  6 -1 -1</clus>
<clus scale="   90.973">  7  8 -1 -1</clus>
<clus scale="  104.135">  1  5  2 -1</clus>
<clus scale="   81.039">  1  9  2 -1</clus>
<clus scale="  121.833">  2  5  1 -1</clus>
</clustering>
</event>
<event>
 9    2  0.2984928E-005  0.1116891E+03  0.7546771E-02  0.1271413E+00
         -1   -1    0    0    0  501 -0.00000000000E+00  0.00000000000E+00  0.11680239365E+03  0.11680239365E+03  0.00000000000E+00 0.  1.
          2   -1    0    0  502    0  0.00000000000E+00 -0.00000000000E+00 -0.44850549049E+03  0.44850549049E+03  0.00000000000E+00 0. -1.
         24    2    1    2    0    0  0.19358965802E+02 -0.17675760814E+02  0.41240160623E+02  0.93120645796E+02  0.79268541982E+02 0.  0.
         23    2    1    2    0    0  0.22328522318E+01  0.57079222313E+02 -0.28559969151E+02  0.12488522474E+03  0.10732019508E+03 0.  0.
        -11    1    3    3    0    0  0.47066902047E+02 -0.17375586583E+02  0.41954743260E+02  0.65401871222E+02  0.00000000000E+00 0.  1.
         12    1    3    3    0    0 -0.27707936245E+02 -0.30017423119E+00 -0.71458263671E+00  0.27718774574E+02  0.00000000000E+00 0. -1.
        -11    1    4    4    0    0  0.53087652769E+02  0.39700724902E+02 -0.58717071220E+01  0.66550156865E+02  0.00000000000E+00 0.  1.
         11    1    4    4    0    0 -0.50854800537E+02  0.17378497411E+02 -0.22688262029E+02  0.58335067874E+02  0.00000000000E+00 0. -1.
         21    1    1    2  502  501 -0.21591818034E+02 -0.39403461499E+02 -0.34438328831E+03  0.34730201360E+03  0.00000000000E+00 0. -1.
<scales pt_clust_5="13000.00000" pt_clust_6="13000.00000" pt_clust_7="13000.00000" pt_clust_8="13000.00000" pt_clust_9="44.93150"></scales>
<clustering>
<clus scale="   44.931">  2  9  1 -1</clus>
<clus scale="   79.269">  5  6 -1 -1</clus>
<clus scale="   85.090">  1  5  2 -1</clus>
<clus scale="  107.320">  7  8 -1 -1</clus>
<clus scale="   44.931">  2  5  1 -1</clus>
</clustering>
</event>
<event>
 9    2  0.2984928E-005  0.2387446E+03  0.7546771E-02  0.1162493E+00
         -1   -1    0    0    0  501 -0.00000000000E+00  0.00000000000E+00  0.14858629963E+04  0.14858629963E+04  0.00000000000E+00 0.  1.
          2   -1    0    0  502    0  0.00000000000E+00 -0.00000000000E+00 -0.10792227231E+03  0.10792227231E+03  0.00000000000E+00 0. -1.
         23    2    1    2    0    0 -0.15774386186E+03  0.15896516689E+03  0.11347741422E+04  0.11602112144E+04  0.90689899347E+02 0.  0.
         24    2    1    2    0    0 -0.92900989366E+01 -0.26851530470E+02 -0.25398801647E+02  0.90817986228E+02  0.82434803758E+02 0.  0.
        -11    1    4    4    0    0 -0.35327534513E+02 -0.41855916777E+02 -0.61161660279E+01  0.55112248646E+02  0.00000000000E+00 0.  1.
         12    1    4    4    0    0  0.26037435576E+02  0.15004386307E+02 -0.19282635619E+02  0.35705737582E+02  0.00000000000E+00 0. -1.
        -11    1    3    3    0    0 -0.14839504789E+03  0.13238517003E+03  0.10844793150E+04  0.11025617027E+04  0.00000000000E+00 0.  1.
         11    1    3    3    0    0 -0.93488139678E+01  0.26579996861E+02  0.50294827205E+02  0.57649511700E+02  0.00000000000E+00 0. -1.
         21    1    1    2  502  501  0.16703396079E+03 -0.13211363642E+03  0.26856538339E+03  0.34275606799E+03  0.00000000000E+00 0. -1.
<scales pt_clust_5="13000.00000" pt_clust_6="13000.00000" pt_clust_7="13000.00000" pt_clust_8="13000.00000" pt_clust_9="220.84915"></scales>
<clustering>
<clus scale="   82.435">  5  6 -1 -1</clus>
<clus scale="   87.194">  2  5  1 -1</clus>
<clus scale="   90.690">  7  8 -1 -1</clus>
<clus scale="  220.849">  2  9  1 -1</clus>
<clus scale="   87.194">  2  5  1 -1</clus>
</clustering>
</event>
<event>
 9    2  0.2984928E-005  0.1123555E+03  0.7546771E-02  0.1256874E+00
         -1   -1    0    0    0  501 -0.00000000000E+00  0.00000000000E+00  0.27297478741E+03  0.27297478741E+03  0.00000000000E+00 0.  1.
          2   -1    0    0  502    0  0.00000000000E+00 -0.00000000000E+00 -0.22130433774E+03  0.22130433774E+03  0.00000000000E+00 0. -1.
         24    2    1    2    0    0  0.43391670632E+02  0.67041689799E+02  0.23981636032E+03  0.26519804802E+03  0.80253926657E+02 0.  0.
         23    2    1    2    0    0 -0.21775129294E+02 -0.36934911215E+02 -0.12088695939E+03  0.15228615867E+03  0.82091858613E+02 0.  0.
        -11    1    3    3    0    0  0.19822467784E+02  0.77117452900E+02  0.21600051179E+03  0.23020915026E+03  0.00000000000E+00 0.  1.
         12    1    3    3    0    0  0.23569202848E+02 -0.10075763101E+02  0.23815848530E+02  0.34988897756E+02  0.00000000000E+00 0. -1.
        -13    1    4    4    0    0  0.25595611848E+02 -0.85462436116E+00 -0.12224889037E+02  0.28378048570E+02  0.00000000000E+00 0.  1.
         13    1    4    4    0    0 -0.47370741142E+02 -0.36080286853E+02 -0.10866207035E+03  0.12390811010E+03  0.00000000000E+00 0. -1.
         21    1    1    2  502  501 -0.21616541338E+02 -0.30106778584E+02 -0.67258951257E+02  0.76794918454E+02  0.00000000000E+00 0. -1.
<scales pt_clust_5="13000.00000" pt_clust_6="13000.00000" pt_clust_7="13000.00000" pt_clust_8="13000.00000" pt_clust_9="37.06336"></scales>
<clustering>
<clus scale="   37.063">  2  9  1 -1</clus>
<clus scale="   80.254">  5  6 -1 -1</clus>
<clus scale="   82.092">  7  8 -1 -1</clus>
<clus scale="  111.020">  1  5  2 -1</clus>
<clus scale="   37.063">  2  5  1 -1</clus>
</clustering>
</event>
<event>
 9    2  0.2984928E-005  0.1235210E+03  0.7546771E-02  0.1240406E+00
         -1   -1    0    0    0  501 -0.00000000000E+00  0.00000000000E+00  0.45498863347E+03  0.45498863347E+03  0.00000000000E+00 0.  1.
          2   -1    0    0  502    0  0.00000000000E+00 -0.00000000000E+00 -0.97492873286E+02  0.97492873286E+02  0.00000000000E+00 0. -1.
         23    2    1    2    0    0 -0.12847448379E+03 -0.30883377067E+02  0.32023632659E+03  0.35823789375E+03  0.91233807799E+02 0.  0.
         24    2    1    2    0    0  0.76810237716E+02 -0.14607539667E+01 -0.16618177664E+02  0.11289169767E+03  0.81033481679E+02 0.  0.
        -13    1    4    4    0    0  0.22790694555E+02 -0.34489678393E+02  0.12517396588E+02  0.43193042163E+02  0.00000000000E+00 0.  1.
         14    1    4    4    0    0  0.54019543161E+02  0.33028924426E+02 -0.29135574253E+02  0.69698655504E+02  0.00000000000E+00 0. -1.
        -13    1    3    3    0    0 -0.95928723791E+02 -0.41706742792E+02  0.30155483738E+03  0.31918191113E+03  0.00000000000E+00 0.  1.
         13    1    3    3    0    0 -0.32545759998E+02  0.10823365726E+02  0.18681489209E+02  0.39055982621E+02  0.00000000000E+00 0. -1.
         21    1    1    2  502  501  0.51664246073E+02  0.32344131033E+02  0.53877611256E+02  0.81351915338E+02  0.00000000000E+00 0. -1.
<scales pt_clust_5="13000.00000" pt_clust_6="13000.00000" pt_clust_7="13000.00000" pt_clust_8="13000.00000" pt_clust_9="60.95357"></scales>
<clustering>
<clus scale="   60.954">  1  9  2 -1</clus>
<clus scale="   81.033">  5  6 -1 -1</clus>
<clus scale="   91.234">  7  8 -1 -1</clus>
<clus scale="  116.191">  2  5  1 -1</clus>
<clus scale="  116.191">  2  5  1 -1</clus>
</clustering>
</event>
<event>
 9    2  0.2984928E-005  0.1017056E+03  0.7546771E-02  0.1283549E+00
         -1   -1    0    0    0  501 -0.00000000000E+00  0.00000000000E+00  0.46151779510E+02  0.46151779510E+02  0.00000000000E+00 0.  1.
          2   -1    0    0  502    0  0.00000000000E+00 -0.00000000000E+00 -0.29937890673E+03  0.29937890673E+03  0.00000000000E+00 0. -1.
         24    2    1    2    0    0  0.35518993459E+02  0.10991810009E+02 -0.51132720258E+02  0.10036099364E+03  0.77944564785E+02 0.  0.
         23    2    1    2    0    0 -0.55826653131E+02 -0.83384351896E+01 -0.12338853800E+03  0.16384285049E+03  0.91834653835E+02 0.  0.
        -13    1    3    3    0    0  0.41042251678E+02  0.12676352017E+02  0.56145736394E+01  0.43320662049E+02  0.00000000000E+00 0.  1.
         14    1    3    3    0    0 -0.55232582187E+01 -0.16845420078E+01 -0.56747293898E+02  0.57040331589E+02  0.00000000000E+00 0. -1.
        -11    1    4    4    0    0 -0.27055273199E+02 -0.86693716641E+01 -0.13102800074E+03  0.13407267728E+03  0.00000000000E+00 0. -1.
         11    1    4    4    0    0 -0.28771379932E+02  0.33093647458E+00  0.76394627426E+01  0.29770173213E+02  0.00000000000E+00 0.  1.
         21    1    1    2  502  501  0.20307659672E+02 -0.26533748199E+01 -0.78705868960E+02  0.81326842113E+02  0.00000000000E+00 0. -1.
<scales pt_clust_5="13000.00000" pt_clust_6="13000.00000" pt_clust_7="13000.00000" pt_clust_8="13000.00000" pt_clust_9="20.48027"></scales>
<clustering>
<clus scale="   20.480">  2  9  1 -1</clus>
<clus scale="   77.945">  5  6 -1 -1</clus>
<clus scale="   89.363">  1  5  2 -1</clus>
<clus scale="   91.835">  7  8 -1 -1</clus>
<clus scale="   20.480">  2  5  1 -1</clus>
</clustering>
</event>
<event>
 9    2  0.2984928E-005  0.1217305E+03  0.7546771E-02  0.1245322E+00
         -1   -1    0    0    0  501 -0.00000000000E+00  0.00000000000E+00  0.10584107246E+03  0.10584107246E+03  0.00000000000E+00 0.  1.
          2   -1    0    0  502    0  0.00000000000E+00 -0.00000000000E+00 -0.28667695116E+03  0.28667695116E+03  0.00000000000E+00 0. -1.
         24    2    1    2    0    0 -0.50128356022E+01  0.96059056093E+02  0.19893836324E+02  0.12650437178E+03  0.79719010132E+02 0.  0.
         23    2    1    2    0    0  0.20815459132E+02 -0.23787260784E+02 -0.11070306806E+03  0.14949012431E+03  0.95357280122E+02 0.  0.
        -11    1    3    3    0    0  0.12331575775E+02  0.18622634863E+02  0.38944300267E+02  0.44894641257E+02  0.00000000000E+00 0.  1.
         12    1    3    3    0    0 -0.17344411377E+02  0.77436421230E+02 -0.19050463943E+02  0.81609730519E+02  0.00000000000E+00 0. -1.
        -13    1    4    4    0    0  0.79768997580E+01  0.20932352633E+02  0.65539863660E+01  0.23339859764E+02  0.00000000000E+00 0.  1.
         13    1    4    4    0    0  0.12838559374E+02 -0.44719613417E+02 -0.11725705443E+03  0.12615026454E+03  0.00000000000E+00 0. -1.
         21    1    1    2  502  501 -0.15802623529E+02 -0.72271795309E+02 -0.90026646961E+02  0.11652352754E+03  0.00000000000E+00 0. -1.
<scales pt_clust_5="13000.00000" pt_clust_6="13000.00000" pt_clust_7="13000.00000" pt_clust_8="13000.00000" pt_clust_9="73.97929"></scales>
<clustering>
<clus scale="   73.979">  2  9  1 -1</clus>
<clus scale="   79.719">  5  6 -1 -1</clus>
<clus scale="   95.357">  7  8 -1 -1</clus>
<clus scale="  109.911">  1  5  2 -1</clus>
<clus scale="   73.979">  2  5  1 -1</clus>
</clustering>
</event>
<event>
 9    2  0.2984928E-005  0.1425632E+03  0.7546771E-02  0.1215889E+00
         -1   -1    0    0    0  501 -0.00000000000E+00  0.00000000000E+00  0.80435237511E+03  0.80435237511E+03  0.00000000000E+00 0.  1.
          2   -1    0    0  502    0  0.00000000000E+00 -0.00000000000E+00 -0.90418517891E+02  0.90418517891E+02  0.00000000000E+00 0. -1.
         23    2    1    2    0    0 -0.17033566553E+02 -0.10436979696E+03  0.69344078998E+03  0.70883848935E+03  0.10202292818E+03 0.  0.
         24    2    1    2    0    0 -0.15250088573E+02  0.98306070044E+02 -0.26813564016E+02  0.12833969115E+03  0.76520980784E+02 0.  0.
        -11    1    4    4    0    0 -0.17797675065E+02  0.48960672306E+02  0.24092851392E+02  0.57396604068E+02  0.00000000000E+00 0.  1.
         12    1    4    4    0    0  0.25475864919E+01  0.49345397738E+02 -0.50906415408E+02  0.70943087081E+02  0.00000000000E+00 0. -1.
        -11    1    3    3    0    0  0.31441044566E+02 -0.53460093755E+00  0.11938294483E+03  0.12345490107E+03  0.00000000000E+00 0. -1.
         11    1    3    3    0    0 -0.48474611118E+02 -0.10383519602E+03  0.57405784514E+03  0.58538358828E+03  0.00000000000E+00 0.  1.
         21    1    1    2  502  501  0.32283655125E+02  0.60637269144E+01  0.47306631264E+02  0.57592712507E+02  0.00000000000E+00 0.  1.
<scales pt_clust_5="13000.00000" pt_clust_6="13000.00000" pt_clust_7="13000.00000" pt_clust_8="13000.00000" pt_clust_9="32.84818"></scales>
<clustering>
<clus scale="   32.848">  1  9  2 -1</clus>
<clus scale="   76.521">  5  6 -1 -1</clus>
<clus scale="  102.023">  7  8 -1 -1</clus>
<clus scale="  125.583">  2  5  1 -1</clus>
<clus scale="  125.583">  2  5  1 -1</clus>
</clustering>
</event>
<event>
 9    2  0.2984928E-005  0.1138854E+03  0.7546771E-02  0.1257171E+00
          2   -1    0    0  502    0  0.00000000000E+00  0.00000000000E+00  0.23899430854E+03  0.23899430854E+03  0.00000000000E+00 0. -1.
         -1   -1    0    0    0  501 -0.00000000000E+00 -0.00000000000E+00 -0.12160358098E+03  0.12160358098E+03  0.00000000000E+00 0.  1.
         23    2    1    2    0    0 -0.56336107198E+02 -0.35755121603E+02 -0.67773006607E+02  0.13195003143E+03  0.91462804875E+02 0.  0.
         24    2    1    2    0    0  0.50715708957E+02  0.57319552457E+02  0.15785419171E+03  0.19339981326E+03  0.81412085724E+02 0.  0.
        -13    1    4    4    0    0  0.17808718900E+02 -0.19593068266E+02  0.25087513383E+02  0.36474951962E+02  0.00000000000E+00 0.  1.
         14    1    4    4    0    0  0.32906990057E+02  0.76912620723E+02  0.13276667832E+03  0.15692486130E+03  0.00000000000E+00 0. -1.
        -13    1    3    3    0    0 -0.29896380477E+02  0.59951372152E+00 -0.79965481246E+02  0.85373480503E+02  0.00000000000E+00 0.  1.
         13    1    3    3    0    0 -0.26439726722E+02 -0.36354635324E+02  0.12192474640E+02  0.46576550930E+02  0.00000000000E+00 0. -1.
         21    1    1    2  502  501  0.56203982413E+01 -0.21564430854E+02  0.27309542456E+02  0.35248044820E+02  0.00000000000E+00 0.  1.
<scales pt_clust_5="13000.00000" pt_clust_6="13000.00000" pt_clust_7="13000.00000" pt_clust_8="13000.00000" pt_clust_9="22.28483"></scales>
<clustering>
<clus scale="   22.285">  1  9  2 -1</clus>
<clus scale="   81.412">  5  6 -1 -1</clus>
<clus scale="   91.463">  7  8 -1 -1</clus>
<clus scale="  105.983">  1  5  2 -1</clus>
<clus scale="   22.285">  1  5  2 -1</clus>
</clustering>
</event>
<event>
 9    2  0.2984928E-005  0.1082067E+03  0.7546771E-02  0.1269165E+00
         -1   -1    0    0    0  501 -0.00000000000E+00  0.00000000000E+00  0.52067268556E+03  0.52067268556E+03  0.00000000000E+00 0.  1.
          2   -1    0    0  502    0  0.00000000000E+00 -0.00000000000E+00 -0.52009644131E+02  0.52009644131E+02  0.00000000000E+00 0. -1.
         24    2    1    2    0    0 -0.19934578070E+02  0.60073326515E+00  0.29085866879E+03  0.30225515494E+03  0.79760047571E+02 0.  0.
         23    2    1    2    0    0  0.27661702532E+02  0.65421073857E+02  0.50770164510E+02  0.12705256926E+03  0.92301999212E+02 0.  0.
        -13    1    3    3    0    0  0.25811246709E+02 -0.10482261351E+02  0.53975441206E+02  0.60740814228E+02  0.00000000000E+00 0.  1.
         14    1    3    3    0    0 -0.45745824779E+02  0.11082994616E+02  0.23688322759E+03  0.24151434071E+03  0.00000000000E+00 0. -1.
        -11    1    4    4    0    0  0.60925248817E+02  0.52471587995E+02  0.30450709099E+02  0.85979062421E+02  0.00000000000E+00 0.  1.
         11    1    4    4    0    0 -0.33263546285E+02  0.12949485863E+02  0.20319455411E+02  0.41073506835E+02  0.00000000000E+00 0. -1.
         21    1    1    2  502  501 -0.77271244615E+01 -0.66021807123E+02  0.12703420813E+03  0.14337460550E+03  0.00000000000E+00 0. -1.
<scales pt_clust_5="13000.00000" pt_clust_6="13000.00000" pt_clust_7="13000.00000" pt_clust_8="13000.00000" pt_clust_9="66.47246"></scales>
<clustering>
<clus scale="   66.472">  1  9  2 -1</clus>
<clus scale="   79.760">  5  6 -1 -1</clus>
<clus scale="   92.302">  7  8 -1 -1</clus>
<clus scale="   97.728">  1  5  2 -1</clus>
<clus scale="  108.207">  2  5  1 -1</clus>
</clustering>
</event>
<event>
 9    2  0.2984928E-005  0.1767485E+03  0.7546771E-02  0.1172783E+00
         -1   -1    0    0    0  501 -0.00000000000E+00  0.00000000000E+00  0.21099092381E+03  0.21099092381E+03  0.00000000000E+00 0.  1.
          2   -1    0    0  502    0  0.00000000000E+00 -0.00000000000E+00 -0.26278176236E+03  0.26278176236E+03  0.00000000000E+00 0. -1.
         24    2    1    2    0    0  0.29997869736E+02  0.16675456373E+03  0.58253493129E+02  0.19580061864E+03  0.78977566983E+02 0.  0.
         23    2    1    2    0    0  0.31646232659E+01 -0.12906011098E+03 -0.24768498795E+01  0.15926492431E+03  0.93234404836E+02 0.  0.
        -11    1    3    3    0    0  0.54922672255E+02  0.86303136916E+02  0.38410267536E+02  0.10927067320E+03  0.00000000000E+00 0.  1.
         12    1    3    3    0    0 -0.24924802519E+02  0.80451426811E+02  0.19843225594E+02  0.86529945444E+02  0.00000000000E+00 0. -1.
        -11    1    4    4    0    0 -0.38974424581E+02 -0.92886598922E+02 -0.16281161085E+02  0.10203921911E+03  0.00000000000E+00 0.  1.
         11    1    4    4    0    0  0.42139047847E+02 -0.36173512056E+02  0.13804311205E+02  0.57225705201E+02  0.00000000000E+00 0. -1.
         21    1    1    2  502  501 -0.33162493002E+02 -0.37694452749E+02 -0.10756748180E+03  0.11870714322E+03  0.00000000000E+00 0. -1.
<scales pt_clust_5="13000.00000" pt_clust_6="13000.00000" pt_clust_7="13000.00000" pt_clust_8="13000.00000" pt_clust_9="50.20580"></scales>
<clustering>
<clus scale="   50.206">  2  9  1 -1</clus>
<clus scale="   78.978">  5  6 -1 -1</clus>
<clus scale="   93.234">  7  8 -1 -1</clus>
<clus scale="  169.661">  1  5  2 -1</clus>
<clus scale="   50.206">  2  5  1 -1</clus>
</clustering>
</event>
<event>
 9    2  0.2984928E-005  0.1175544E+03  0.7546771E-02  0.1251660E+00
         -1   -1    0    0    0  501 -0.00000000000E+00  0.00000000000E+00  0.17573711653E+03  0.17573711653E+03  0.00000000000E+00 0.  1.
          2   -1    0    0  502    0  0.00000000000E+00 -0.00000000000E+00 -0.42456765941E+03  0.42456765941E+03  0.00000000000E+00 0. -1.
         24    2    1    2    0    0 -0.40326639171E+01 -0.80620734413E+02  0.10791011398E+03  0.15600213601E+03  0.78588221413E+02 0.  0.
         23    2    1    2    0    0 -0.66646867621E+02  0.41086443573E+02 -0.56392378176E+02  0.13322765727E+03  0.91867336615E+02 0.  0.
        -11    1    3    3    0    0  0.28803980521E+02 -0.56441396975E+02  0.93098123104E+02  0.11261687756E+03  0.00000000000E+00 0.  1.
         12    1    3    3    0    0 -0.32836644438E+02 -0.24179337438E+02  0.14811990877E+02  0.43385258448E+02  0.00000000000E+00 0. -1.
        -13    1    4    4    0    0 -0.23276712175E+02 -0.29620271947E+02 -0.19932676603E+02  0.42620152938E+02  0.00000000000E+00 0.  1.
         13    1    4    4    0    0 -0.43370155446E+02  0.70706715519E+02 -0.36459701573E+02  0.90607504334E+02  0.00000000000E+00 0. -1.
         21    1    1    2  502  501  0.70679531538E+02  0.39534290841E+02 -0.30034827868E+03  0.31107498266E+03  0.00000000000E+00 0. -1.
<scales pt_clust_5="13000.00000" pt_clust_6="13000.00000" pt_clust_7="13000.00000" pt_clust_8="13000.00000" pt_clust_9="80.98491"></scales>
<clustering>
<clus scale="   78.588">  5  6 -1 -1</clus>
<clus scale="   80.985">  2  9  1 -1</clus>
<clus scale="   91.867">  7  8 -1 -1</clus>
<clus scale="  107.497">  1  5  2 -1</clus>
<clus scale="   80.985">  2  5  1 -1</clus>
</clustering>
</event>
<event>
 9    2  0.2984928E-005  0.1360713E+03  0.7546771E-02  0.1226051E+00
         -1   -1    0    0    0  501 -0.00000000000E+00  0.00000000000E+00  0.12414834592E+03  0.12414834592E+03  0.00000000000E+00 0.  1.
          2   -1    0    0  502    0  0.00000000000E+00 -0.00000000000E+00 -0.70013104900E+03  0.70013104900E+03  0.00000000000E+00 0. -1.
         23    2    1    2    0    0  0.69429474874E+02  0.14390094689E+01  0.65624032334E+02  0.13390117390E+03  0.93810916333E+02 0.  0.
         24    2    1    2    0    0 -0.15010971814E+02 -0.10674331782E+03 -0.30923190590E+03  0.33749949095E+03  0.81621502036E+02 0.  0.
        -13    1    4    4    0    0  0.31681466710E+02 -0.24370798602E+02 -0.78364242598E+02  0.87969345089E+02  0.00000000000E+00 0.  1.
         14    1    4    4    0    0 -0.46692438524E+02 -0.82372519216E+02 -0.23086766330E+03  0.24953014586E+03  0.00000000000E+00 0. -1.
        -11    1    3    3    0    0  0.38864529049E+02  0.46759789553E+02  0.44281357894E+02  0.75218137402E+02  0.00000000000E+00 0.  1.
         11    1    3    3    0    0  0.30564945825E+02 -0.45320780084E+02  0.21342674439E+02  0.58683036501E+02  0.00000000000E+00 0. -1.
         21    1    1    2  502  501 -0.54418503060E+02  0.10530430835E+03 -0.33237482952E+03  0.35287873007E+03  0.00000000000E+00 0.  1.
<scales pt_clust_5="13000.00000" pt_clust_6="13000.00000" pt_clust_7="13000.00000" pt_clust_8="13000.00000" pt_clust_9="108.87295"></scales>
<clustering>
<clus scale="   81.622">  5  6 -1 -1</clus>
<clus scale="   93.811">  7  8 -1 -1</clus>
<clus scale="  116.718">  1  7  2 -1</clus>
<clus scale="  108.873">  2  9  1 -1</clus>
<clus scale="  108.873">  2  5  1 -1</clus>
</clustering>
</event>
<event>
 9    2  0.2984928E-005  0.1325649E+03  0.7546771E-02  0.1227276E+00
         -1   -1    0    0    0  501 -0.00000000000E+00  0.00000000000E+00  0.85609771581E+02  0.85609771581E+02  0.00000000000E+00 0.  1.
          2   -1    0    0  502    0  0.00000000000E+00 -0.00000000000E+00 -0.61284673196E+03  0.61284673196E+03  0.00000000000E+00 0. -1.
         23    2    1    2    0    0  0.64175534053E+02  0.75992534705E+02  0.14194791612E+02  0.13693528922E+03  0.93039866844E+02 0.  0.
         24    2    1    2    0    0 -0.42825643717E+02 -0.38555521237E+02 -0.44939796291E+03  0.45989658086E+03  0.78903561635E+02 0.  0.
        -13    1    4    4    0    0 -0.16450330897E+01 -0.33191491815E+02 -0.62586188317E+02  0.70861923702E+02  0.00000000000E+00 0.  1.
         14    1    4    4    0    0 -0.41180610628E+02 -0.53640294215E+01 -0.38681177460E+03  0.38903465716E+03  0.00000000000E+00 0. -1.
        -13    1    3    3    0    0  0.83620546160E+02  0.53558350419E+02  0.29422756342E+02  0.10356925813E+03  0.00000000000E+00 0.  1.
         13    1    3    3    0    0 -0.19445012107E+02  0.22434184286E+02 -0.15227964730E+02  0.33366031084E+02  0.00000000000E+00 0. -1.
         21    1    1    2  502  501 -0.21349890336E+02 -0.37437013468E+02 -0.92033789079E+02  0.10162463347E+03  0.00000000000E+00 0. -1.
<scales pt_clust_5="13000.00000" pt_clust_6="13000.00000" pt_clust_7="13000.00000" pt_clust_8="13000.00000" pt_clust_9="43.09696"></scales>
<clustering>
<clus scale="   43.097">  2  9  1 -1</clus>
<clus scale="   78.904">  5  6 -1 -1</clus>
<clus scale="   93.040">  7  8 -1 -1</clus>
<clus scale="  123.056">  2  5  1 -1</clus>
<clus scale="   43.097">  2  5  1 -1</clus>
</clustering>
</event>
<event>
 9    2  0.2984928E-005  0.1062882E+03  0.7546771E-02  0.1273776E+00
          2   -1    0    0  502    0  0.00000000000E+00  0.00000000000E+00  0.27614636098E+03  0.27614636098E+03  0.00000000000E+00 0. -1.
         -1   -1    0    0    0  501 -0.00000000000E+00 -0.00000000000E+00 -0.10772081124E+03  0.10772081124E+03  0.00000000000E+00 0.  1.
         23    2    1    2    0    0 -0.15801999114E+02  0.45939218156E+02 -0.57017388355E+02  0.11987027293E+03  0.93583037015E+02 0.  0.
         24    2    1    2    0    0  0.46113380508E+02 -0.48971432418E+02  0.19364414133E+03  0.21996125871E+03  0.79751218238E+02 0.  0.
        -13    1    4    4    0    0  0.42053533914E+02 -0.54508838944E+02  0.77693438801E+02  0.10380743553E+03  0.00000000000E+00 0.  1.
         14    1    4    4    0    0  0.40598465948E+01  0.55374065266E+01  0.11595070252E+03  0.11615382319E+03  0.00000000000E+00 0. -1.
        -13    1    3    3    0    0  0.21722321783E+02 -0.15839836602E+02  0.14183339100E+01  0.26921577931E+02  0.00000000000E+00 0. -1.
         13    1    3    3    0    0 -0.37524320897E+02  0.61779054758E+02 -0.58435722265E+02  0.92948695000E+02  0.00000000000E+00 0.  1.
         21    1    1    2  502  501 -0.30311381394E+02  0.30322142615E+01  0.31798796761E+02  0.44035640575E+02  0.00000000000E+00 0. -1.
<scales pt_clust_5="13000.00000" pt_clust_6="13000.00000" pt_clust_7="13000.00000" pt_clust_8="13000.00000" pt_clust_9="30.46267"></scales>
<clustering>
<clus scale="   30.463">  1  9  2 -1</clus>
<clus scale="   79.751">  5  6 -1 -1</clus>
<clus scale="   93.583">  7  8 -1 -1</clus>
<clus scale="   94.338">  1  5  2 -1</clus>
<clus scale="   30.463">  1  5  2 -1</clus>
</clustering>
</event>
<event>
 9    2  0.2984928E-005  0.1091035E+03  0.7546771E-02  0.1266769E+00
         -1   -1    0    0    0  501 -0.00000000000E+00  0.00000000000E+00  0.43410700447E+02  0.43410700447E+02  0.00000000000E+00 0.  1.
          2   -1    0    0  502    0  0.00000000000E+00 -0.00000000000E+00 -0.64245951159E+03  0.64245951159E+03  0.00000000000E+00 0. -1.
         23    2    1    2    0    0  0.62848294123E+02  0.10990568678E+02 -0.53820917415E+02  0.12335909757E+03  0.90829924189E+02 0.  0.
         24    2    1    2    0    0 -0.46597915956E+02  0.23394049230E+02 -0.45069310204E+03  0.46061310870E+03  0.79507964194E+02 0.  0.
        -11    1    4    4    0    0  0.21140380350E+02  0.42446987628E+01 -0.63173920848E+02  0.66752358941E+02  0.00000000000E+00 0.  1.
         12    1    4    4    0    0 -0.67738296306E+02  0.19149350467E+02 -0.38751918119E+03  0.39386074976E+03  0.00000000000E+00 0. -1.
        -13    1    3    3    0    0  0.74330661999E+02 -0.90858879913E+01 -0.63601069637E+02  0.98248138571E+02  0.00000000000E+00 0.  1.
         13    1    3    3    0    0 -0.11482367876E+02  0.20076456670E+02  0.97801522215E+01  0.25110959000E+02  0.00000000000E+00 0. -1.
         21    1    1    2  502  501 -0.16250378167E+02 -0.34384617909E+02 -0.94534791692E+02  0.10189800577E+03  0.00000000000E+00 0. -1.
<scales pt_clust_5="13000.00000" pt_clust_6="13000.00000" pt_clust_7="13000.00000" pt_clust_8="13000.00000" pt_clust_9="38.03126"></scales>
<clustering>
<clus scale="   38.031">  2  9  1 -1</clus>
<clus scale="   79.508">  5  6 -1 -1</clus>
<clus scale="   90.830">  7  8 -1 -1</clus>
<clus scale="   99.875">  2  5  1 -1</clus>
<clus scale="   38.031">  2  5  1 -1</clus>
</clustering>
</event>
<event>
 9    2  0.2984928E-005  0.1025997E+03  0.7546771E-02  0.1280215E+00
          2   -1    0    0  502    0  0.00000000000E+00  0.00000000000E+00  0.12934132079E+03  0.12934132079E+03  0.00000000000E+00 0. -1.
         -1   -1    0    0    0  501 -0.00000000000E+00 -0.00000000000E+00 -0.20612970971E+03  0.20612970971E+03  0.00000000000E+00 0.  1.
         23    2    1    2    0    0  0.42034449740E+02 -0.29835881855E+02 -0.15349871357E+03  0.18602059722E+03  0.91568186135E+02 0.  0.
         24    2    1    2    0    0 -0.18740815796E+02  0.67139808204E+00  0.75902779667E+02  0.11211663324E+03  0.80356944547E+02 0.  0.
        -11    1    4    4    0    0 -0.31214545376E+02  0.17185426301E+02  0.23525963435E+01  0.35710242645E+02  0.00000000000E+00 0.  1.
         12    1    4    4    0    0  0.12473729580E+02 -0.16514028219E+02  0.73550183323E+02  0.76406390600E+02  0.00000000000E+00 0. -1.
        -11    1    3    3    0    0  0.40032210532E+02  0.19619247844E+02 -0.32146350835E+02  0.54962538497E+02  0.00000000000E+00 0.  1.
         11    1    3    3    0    0  0.20022392084E+01 -0.49455129699E+02 -0.12135236274E+03  0.13105805873E+03  0.00000000000E+00 0. -1.
         21    1    1    2  502  501 -0.23293633944E+02  0.29164483773E+02  0.80754499235E+00  0.37333800034E+02  0.00000000000E+00 0. -1.
<scales pt_clust_5="13000.00000" pt_clust_6="13000.00000" pt_clust_7="13000.00000" pt_clust_8="13000.00000" pt_clust_9="37.32507"></scales>
<clustering>
<clus scale="   37.325">  1  9  2 -1</clus>
<clus scale="   80.357">  5  6 -1 -1</clus>
<clus scale="   91.568">  7  8 -1 -1</clus>
<clus scale="   92.732">  1  5  2 -1</clus>
<clus scale="   37.325">  1  5  2 -1</clus>
</clustering>
</event>
<event>
 9    2  0.2984928E-005  0.1092252E+03  0.7546771E-02  0.1267231E+00
         -3   -1    0    0    0  501 -0.00000000000E+00  0.00000000000E+00  0.55533018699E+02  0.55533018699E+02  0.00000000000E+00 0.  1.
          4   -1    0    0  502    0  0.00000000000E+00 -0.00000000000E+00 -0.57321185099E+03  0.57321185099E+03  0.00000000000E+00 0. -1.
         23    2    1    2    0    0  0.61247024646E+02 -0.20580165271E+02 -0.20112252453E+02  0.11494259507E+03  0.92911550579E+02 0.  0.
         24    2    1    2    0    0 -0.18885610329E+02  0.20326134838E+02 -0.30205390433E+03  0.31375288013E+03  0.80215276798E+02 0.  0.
        -11    1    4    4    0    0 -0.13278072886E+02 -0.27704506119E+02 -0.17754076027E+03  0.18017926750E+03  0.00000000000E+00 0.  1.
         12    1    4    4    0    0 -0.56075374435E+01  0.48030640957E+02 -0.12451314406E+03  0.13357361263E+03  0.00000000000E+00 0. -1.
        -11    1    3    3    0    0  0.18899876514E+02 -0.44932930235E+02  0.19046308921E+02  0.52334839594E+02  0.00000000000E+00 0.  1.
         11    1    3    3    0    0  0.42347148132E+02  0.24352764964E+02 -0.39158561374E+02  0.62607755472E+02  0.00000000000E+00 0. -1.
         21    1    1    2  502  501 -0.42361414317E+02  0.25403043248E+00 -0.19551267551E+03  0.20004939450E+03  0.00000000000E+00 0. -1.
<scales pt_clust_5="13000.00000" pt_clust_6="13000.00000" pt_clust_7="13000.00000" pt_clust_8="13000.00000" pt_clust_9="42.36218"></scales>
<clustering>
<clus scale="   42.362">  2  9  1 -1</clus>
<clus scale="   80.215">  5  6 -1 -1</clus>
<clus scale="   92.912">  7  8 -1 -1</clus>
<clus scale="   98.651">  2  5  1 -1</clus>
<clus scale="   42.362">  2  5  1 -1</clus>
</clustering>
</event>
<event>
 9    2  0.2984928E-005  0.1410833E+03  0.7546771E-02  0.1213993E+00
         -1   -1    0    0    0  501 -0.00000000000E+00  0.00000000000E+00  0.21810563469E+03  0.21810563469E+03  0.00000000000E+00 0.  1.
          2   -1    0    0  502    0  0.00000000000E+00 -0.00000000000E+00 -0.25756585418E+03  0.25756585418E+03  0.00000000000E+00 0. -1.
         24    2    1    2    0    0  0.48202761135E+02  0.10161086765E+03  0.15598242839E+03  0.20877925743E+03  0.81301818950E+02 0.  0.
         23    2    1    2    0    0 -0.25549785922E+02 -0.83086230996E+02 -0.83427251251E+02  0.15111758598E+03  0.91215706983E+02 0.  0.
        -11    1    3    3    0    0  0.10024375746E+01  0.89176029665E+02  0.11113739007E+03  0.14249522315E+03  0.00000000000E+00 0.  1.
         12    1    3    3    0    0  0.47200323560E+02  0.12434837981E+02  0.44845038312E+02  0.66284034284E+02  0.00000000000E+00 0. -1.
        -11    1    4    4    0    0  0.27918258723E+02 -0.75407033716E+01 -0.40743062637E+01  0.29204303604E+02  0.00000000000E+00 0.  1.
         11    1    4    4    0    0 -0.53468044645E+02 -0.75545527625E+02 -0.79352944987E+02  0.12191328238E+03  0.00000000000E+00 0. -1.
         21    1    1    2  502  501 -0.22652975213E+02 -0.18524636649E+02 -0.11201539662E+03  0.11577464545E+03  0.00000000000E+00 0.  1.
<scales pt_clust_5="13000.00000" pt_clust_6="13000.00000" pt_clust_7="13000.00000" pt_clust_8="13000.00000" pt_clust_9="29.26294"></scales>
<clustering>
<clus scale="   29.263">  2  9  1 -1</clus>
<clus scale="   81.302">  5  6 -1 -1</clus>
<clus scale="   91.216">  7  8 -1 -1</clus>
<clus scale="  134.886">  1  5  2 -1</clus>
<clus scale="   29.263">  2  5  1 -1</clus>
</clustering>
</event>
<event>
 9    2  0.2984928E-005  0.1047710E+03  0.7546771E-02  0.1275883E+00
          2   -1    0    0  502    0  0.00000000000E+00  0.00000000000E+00  0.53914546307E+03  0.53914546307E+03  0.00000000000E+00 0. -1.
         -1   -1    0    0    0  501 -0.00000000000E+00 -0.00000000000E+00 -0.33495093939E+02  0.33495093939E+02  0.00000000000E+00 0.  1.
         23    2    1    2    0    0  0.13375111190E+02  0.49521518836E+02  0.10678905513E+03  0.15046597247E+03  0.92762234495E+02 0.  0.
         24    2    1    2    0    0  0.14883859465E+02 -0.47160416374E+02  0.20123556082E+03  0.22252468459E+03  0.81091615907E+02 0.  0.
        -11    1    4    4    0    0  0.17074679974E+02 -0.63929960211E+02  0.19236424428E+03  0.20342710485E+03  0.00000000000E+00 0.  1.
         12    1    4    4    0    0 -0.21908205096E+01  0.16769543838E+02  0.88713165368E+01  0.19097579745E+02  0.00000000000E+00 0. -1.
        -11    1    3    3    0    0  0.36331596425E+02 -0.49312487430E+00  0.82822349706E+02  0.90442079155E+02  0.00000000000E+00 0.  1.
         11    1    3    3    0    0 -0.22956485235E+02  0.50014643710E+02  0.23966705423E+02  0.60023893314E+02  0.00000000000E+00 0. -1.
         21    1    1    2  502  501 -0.28258970655E+02 -0.23611024618E+01  0.19762575318E+03  0.19964989994E+03  0.00000000000E+00 0. -1.
<scales pt_clust_5="13000.00000" pt_clust_6="13000.00000" pt_clust_7="13000.00000" pt_clust_8="13000.00000" pt_clust_9="28.35744"></scales>
<clustering>
<clus scale="   28.357">  1  9  2 -1</clus>
<clus scale="   81.092">  5  6 -1 -1</clus>
<clus scale="   92.762">  7  8 -1 -1</clus>
<clus scale="   94.594">  1  5  2 -1</clus>
<clus scale="   28.357">  1  5  2 -1</clus>
</clustering>
</event>
<event>
 9    2  0.2984928E-005  0.1117600E+03  0.7546771E-02  0.1261290E+00
          4   -1    0    0  502    0  0.00000000000E+00  0.00000000000E+00  0.42462779497E+02  0.42462779497E+02  0.00000000000E+00 0. -1.
         -3   -1    0    0    0  501 -0.00000000000E+00 -0.00000000000E+00 -0.42519020758E+03  0.42519020758E+03  0.00000000000E+00 0.  1.
         23    2    1    2    0    0 -0.24693856239E+02  0.41227621264E+02 -0.21135753970E+03  0.23513671353E+03  0.91146920799E+02 0.  0.
         24    2    1    2    0    0  0.16854128746E+01 -0.76570971418E+02 -0.99864505523E+02  0.14950084941E+03  0.80694672881E+02 0.  0.
        -11    1    4    4    0    0  0.19591309213E+02  0.83238756626E+01 -0.35795233631E+02  0.41646188943E+02  0.00000000000E+00 0.  1.
         12    1    4    4    0    0 -0.17905896338E+02 -0.84894847080E+02 -0.64069271892E+02  0.10785466047E+03  0.00000000000E+00 0. -1.
        -13    1    3    3    0    0  0.11519715050E+02  0.37221894737E+02 -0.18768596795E+03  0.19168775612E+03  0.00000000000E+00 0.  1.
         13    1    3    3    0    0 -0.36213571289E+02  0.40057265267E+01 -0.23671571747E+02  0.43448957404E+02  0.00000000000E+00 0. -1.
         21    1    1    2  502  501  0.23008443364E+02  0.35343350154E+02 -0.71505382867E+02  0.83015424140E+02  0.00000000000E+00 0.  1.
<scales pt_clust_5="13000.00000" pt_clust_6="13000.00000" pt_clust_7="13000.00000" pt_clust_8="13000.00000" pt_clust_9="42.17275"></scales>
<clustering>
<clus scale="   42.173">  2  9  1 -1</clus>
<clus scale="   80.695">  5  6 -1 -1</clus>
<clus scale="   91.147">  7  8 -1 -1</clus>
<clus scale="  103.413">  1  5  2 -1</clus>
<clus scale="  103.413">  1  5  2 -1</clus>
</clustering>
</event>
<event>
 9    2  0.2984928E-005  0.3175990E+03  0.7546771E-02  0.1077035E+00
          2   -1    0    0  502    0  0.00000000000E+00  0.00000000000E+00  0.39396619111E+03  0.39396619111E+03  0.00000000000E+00 0. -1.
         -1   -1    0    0    0  501 -0.00000000000E+00 -0.00000000000E+00 -0.61749376228E+03  0.61749376228E+03  0.00000000000E+00 0.  1.
         24    2    1    2    0    0 -0.19184124395E+03  0.18901593330E+03 -0.44955375112E+03  0.53033026782E+03  0.81372795814E+02 0.  0.
         23    2    1    2    0    0  0.17264795048E+03 -0.25886619086E+03  0.24510963623E+03  0.40621894335E+03  0.90089270111E+02 0.  0.
        -13    1    3    3    0    0 -0.14804428275E+03  0.93121202102E+02 -0.30194191997E+03  0.34893780387E+03  0.00000000000E+00 0.  1.
         14    1    3    3    0    0 -0.43796961201E+02  0.95894731197E+02 -0.14761183115E+03  0.18139246395E+03  0.00000000000E+00 0. -1.
        -13    1    4    4    0    0  0.67839417037E+02 -0.34172358374E+02  0.60238043717E+02  0.96946162852E+02  0.00000000000E+00 0.  1.
         13    1    4    4    0    0  0.10480853344E+03 -0.22469383248E+03  0.18487159252E+03  0.30927278050E+03  0.00000000000E+00 0. -1.
         21    1    1    2  502  501  0.19193293470E+02  0.69850257559E+02 -0.19083456279E+02  0.74910742213E+02  0.00000000000E+00 0. -1.
<scales pt_clust_5="13000.00000" pt_clust_6="13000.00000" pt_clust_7="13000.00000" pt_clust_8="13000.00000" pt_clust_9="72.43922"></scales>
<clustering>
<clus scale="   72.439">  2  9  1 -1</clus>
<clus scale="   81.373">  5  6 -1 -1</clus>
<clus scale="   90.089">  7  8 -1 -1</clus>
<clus scale="  315.237">  2  5  1 -1</clus>
<clus scale="  317.599">  1  5  2 -1</clus>
</clustering>
</event>
<event>
 9    2  0.2984928E-005  0.1141792E+03  0.7546771E-02  0.1256929E+00
         -1   -1    0    0    0  501 -0.00000000000E+00  0.00000000000E+00  0.22841049154E+03  0.22841049154E+03  0.00000000000E+00 0.  1.
          2   -1    0    0  502    0  0.00000000000E+00 -0.00000000000E+00 -0.24785847301E+03  0.24785847301E+03  0.00000000000E+00 0. -1.
         23    2    1    2    0    0  0.61344144768E+02 -0.29932503331E+02  0.18838830706E+03  0.22040265888E+03  0.91804787201E+02 0.  0.
         24    2    1    2    0    0 -0.70965528650E+02  0.63232003728E+00 -0.11275717524E+03  0.15591076780E+03  0.80978274011E+02 0.  0.
        -13    1    4    4    0    0 -0.40860793351E+02 -0.39070947441E+02 -0.71969663856E+02  0.91519265090E+02  0.00000000000E+00 0.  1.
         14    1    4    4    0    0 -0.30104735299E+02  0.39703267478E+02 -0.40787511383E+02  0.64391502706E+02  0.00000000000E+00 0. -1.
        -11    1    3    3    0    0  0.29738868656E+02 -0.52607817357E+02  0.16328105394E+03  0.17410538571E+03  0.00000000000E+00 0.  1.
         11    1    3    3    0    0  0.31605276113E+02  0.22675314026E+02  0.25107253115E+02  0.46297273174E+02  0.00000000000E+00 0. -1.
         21    1    1    2  502  501  0.96213838821E+01  0.29300183294E+02 -0.95079113282E+02  0.99955537872E+02  0.00000000000E+00 0. -1.
<scales pt_clust_5="13000.00000" pt_clust_6="13000.00000" pt_clust_7="13000.00000" pt_clust_8="13000.00000" pt_clust_9="30.83945"></scales>
<clustering>
<clus scale="   30.839">  2  9  1 -1</clus>
<clus scale="   80.978">  5  6 -1 -1</clus>
<clus scale="   91.805">  7  8 -1 -1</clus>
<clus scale="  105.670">  2  5  1 -1</clus>
<clus scale="   30.839">  2  5  1 -1</clus>
</clustering>
</event>
<event>
 9    2  0.2984928E-005  0.8362986E+02  0.7546771E-02  0.1319496E+00
         -1   -1    0    0    0  501 -0.00000000000E+00  0.00000000000E+00  0.13850884579E+02  0.13850884579E+02  0.00000000000E+00 0.  1.
          2   -1    0    0  502    0  0.00000000000E+00 -0.00000000000E+00 -0.11429411061E+04  0.11429411061E+04  0.00000000000E+00 0. -1.
         23    2    1    2    0    0  0.14745699379E+02 -0.27316111939E+02 -0.16877710392E+03  0.18971049311E+03  0.80874932873E+02 0.  0.
         24    2    1    2    0    0 -0.20822093395E+02  0.39484419425E+01 -0.85604876738E+03  0.86005801747E+03  0.80194460610E+02 0.  0.
        -11    1    4    4    0    0 -0.18134646513E+02  0.22936182940E+02 -0.11173903648E+03  0.11550128210E+03  0.00000000000E+00 0.  1.
         12    1    4    4    0    0 -0.26874468823E+01 -0.18987740997E+02 -0.74430973090E+03  0.74455673537E+03  0.00000000000E+00 0. -1.
        -11    1    3    3    0    0  0.13472173299E+01  0.25229666221E+02 -0.94027790564E+02  0.97363116479E+02  0.00000000000E+00 0.  1.
         11    1    3    3    0    0  0.13398482049E+02 -0.52545778160E+02 -0.74749313357E+02  0.92347376634E+02  0.00000000000E+00 0. -1.
         21    1    1    2  502  501  0.60763940159E+01  0.23367669996E+02 -0.10426435022E+03  0.10702348010E+03  0.00000000000E+00 0.  1.
<scales pt_clust_5="13000.00000" pt_clust_6="13000.00000" pt_clust_7="13000.00000" pt_clust_8="13000.00000" pt_clust_9="24.14478"></scales>
<clustering>
<clus scale="   24.145">  1  9  2 -1</clus>
<clus scale="   80.194">  5  6 -1 -1</clus>
<clus scale="   80.875">  7  8 -1 -1</clus>
<clus scale="   82.972">  2  5  1 -1</clus>
<clus scale="   82.972">  2  5  1 -1</clus>
</clustering>
</event>
<event>
 9    2  0.2984928E-005  0.1141749E+03  0.7546771E-02  0.1259331E+00
          2   -1    0    0  502    0  0.00000000000E+00  0.00000000000E+00  0.48060425845E+03  0.48060425845E+03  0.00000000000E+00 0. -1.
         -1   -1    0    0    0  501 -0.00000000000E+00 -0.00000000000E+00 -0.10840016957E+03  0.10840016957E+03  0.00000000000E+00 0.  1.
         23    2    1    2    0    0  0.27861539149E+02  0.41311594028E+02 -0.22336755347E+02  0.10816307762E+03  0.93367058198E+02 0.  0.
         24    2    1    2    0    0 -0.70634350754E+02 -0.13257998887E+03  0.19577720578E+03  0.25798171457E+03  0.75227560065E+02 0.  0.
        -13    1    4    4    0    0 -0.48857201947E+02 -0.25622502872E+02  0.41680686309E+02  0.69143462792E+02  0.00000000000E+00 0.  1.
         14    1    4    4    0    0 -0.21777148807E+02 -0.10695748600E+03  0.15409651947E+03  0.18883825178E+03  0.00000000000E+00 0. -1.
        -13    1    3    3    0    0  0.58026234593E+02  0.13385202989E+02 -0.29467646886E+02  0.66442078332E+02  0.00000000000E+00 0. -1.
         13    1    3    3    0    0 -0.30164695444E+02  0.27926391039E+02  0.71308915388E+01  0.41720999291E+02  0.00000000000E+00 0.  1.
         21    1    1    2  502  501  0.42772811605E+02  0.91268394843E+02  0.19876363846E+03  0.22285963583E+03  0.00000000000E+00 0. -1.
<scales pt_clust_5="13000.00000" pt_clust_6="13000.00000" pt_clust_7="13000.00000" pt_clust_8="13000.00000" pt_clust_9="100.79401"></scales>
<clustering>
<clus scale="   75.228">  5  6 -1 -1</clus>
<clus scale="   93.367">  7  8 -1 -1</clus>
<clus scale="  100.794">  1  9  2 -1</clus>
<clus scale="  100.794">  1  5  2 -1</clus>
<clus scale="  100.794">  1  5  2 -1</clus>
</clustering>
</event>
<event>
 9    2  0.2984928E-005  0.1569802E+03  0.7546771E-02  0.1192999E+00
          2   -1    0    0  502    0  0.00000000000E+00  0.00000000000E+00  0.21981949603E+03  0.21981949603E+03  0.00000000000E+00 0. -1.
         -1   -1    0    0    0  501 -0.00000000000E+00 -0.00000000000E+00 -0.27166658474E+03  0.27166658474E+03  0.00000000000E+00 0.  1.
         24    2    1    2    0    0 -0.11732387407E+03  0.29056868910E+02 -0.15076455861E+03  0.21118722497E+03  0.85210907746E+02 0.  0.
         23    2    1    2    0    0  0.14322375773E+03 -0.44783050579E+02 -0.17410767019E+01  0.17517864003E+03  0.90365691372E+02 0.  0.
        -11    1    3    3    0    0 -0.68496847389E+02  0.30484376868E+01 -0.13847008732E+03  0.15451561785E+03  0.00000000000E+00 0.  1.
         12    1    3    3    0    0 -0.48827026683E+02  0.26008431223E+02 -0.12294471281E+02  0.56671607119E+02  0.00000000000E+00 0. -1.
        -13    1    4    4    0    0  0.13862833950E+03 -0.21741861848E+02 -0.24525754518E+02  0.14245012356E+03  0.00000000000E+00 0. -1.
         13    1    4    4    0    0  0.45954182305E+01 -0.23041188731E+02  0.22784677816E+02  0.32728516465E+02  0.00000000000E+00 0.  1.
         21    1    1    2  502  501 -0.25899883656E+02  0.15726181669E+02  0.10065854659E+03  0.10512021578E+03  0.00000000000E+00 0. -1.
<scales pt_clust_5="13000.00000" pt_clust_6="13000.00000" pt_clust_7="13000.00000" pt_clust_8="13000.00000" pt_clust_9="30.30044"></scales>
<clustering>
<clus scale="   30.300">  1  9  2 -1</clus>
<clus scale="   85.211">  5  6 -1 -1</clus>
<clus scale="   90.366">  7  8 -1 -1</clus>
<clus scale="  154.070">  2  5  1 -1</clus>
<clus scale="   30.300">  1  5  2 -1</clus>
</clustering>
</event>
<event>
 9    2  0.2984928E-005  0.1074601E+03  0.7546771E-02  0.1269208E+00
         -1   -1    0    0    0  501 -0.00000000000E+00  0.00000000000E+00  0.22545833882E+03  0.22545833882E+03  0.00000000000E+00 0.  1.
          2   -1    0    0  502    0  0.00000000000E+00 -0.00000000000E+00 -0.55998736297E+03  0.55998736297E+03  0.00000000000E+00 0. -1.
         23    2    1    2    0    0 -0.52750600456E+02 -0.21223671975E+01  0.20637055691E+03  0.22933652029E+03  0.84966478598E+02 0.  0.
         24    2    1    2    0    0  0.31299538093E+02 -0.13962453988E+02 -0.37744494374E+03  0.39047015225E+03  0.93955537580E+02 0.  0.
        -11    1    4    4    0    0  0.34185109092E+02 -0.29968314296E+01 -0.39456918162E+02  0.52291979051E+02  0.00000000000E+00 0.  1.
         12    1    4    4    0    0 -0.28855709993E+01 -0.10965622559E+02 -0.33798802558E+03  0.33817817320E+03  0.00000000000E+00 0. -1.
        -13    1    3    3    0    0  0.20990450609E+02  0.39928406996E+00  0.82741726687E+02  0.85363644367E+02  0.00000000000E+00 0.  1.
         13    1    3    3    0    0 -0.73741051065E+02 -0.25216512675E+01  0.12362883023E+03  0.14397287592E+03  0.00000000000E+00 0. -1.
         21    1    1    2  502  501  0.21451062363E+02  0.16084821186E+02 -0.16345463733E+03  0.16563902926E+03  0.00000000000E+00 0. -1.
<scales pt_clust_5="13000.00000" pt_clust_6="13000.00000" pt_clust_7="13000.00000" pt_clust_8="13000.00000" pt_clust_9="26.81174"></scales>
<clustering>
<clus scale="   26.812">  2  9  1 -1</clus>
<clus scale="   84.966">  7  8 -1 -1</clus>
<clus scale="   93.956">  5  6 -1 -1</clus>
<clus scale="   99.696">  1  7  2 -1</clus>
<clus scale="   26.812">  2  5  1 -1</clus>
</clustering>
</event>
<event>
 9    2  0.2984928E-005  0.1499762E+03  0.7546771E-02  0.1202934E+00
         -1   -1    0    0    0  501 -0.00000000000E+00  0.00000000000E+00  0.45060497206E+02  0.45060497206E+02  0.00000000000E+00 0.  1.
          2   -1    0    0  502    0  0.00000000000E+00 -0.00000000000E+00 -0.14411469296E+04  0.14411469296E+04  0.00000000000E+00 0. -1.
         24    2    1    2    0    0  0.12518826349E+03  0.85153178657E+01 -0.15689176912E+03  0.21688561793E+03  0.81729627985E+02 0.  0.
         23    2    1    2    0    0 -0.77405141561E+02  0.98531272662E+02 -0.75508799549E+03  0.77122396199E+03  0.94491010069E+02 0.  0.
        -11    1    3    3    0    0  0.80555899363E+02  0.14459818132E+02 -0.38945730394E+02  0.90637239469E+02  0.00000000000E+00 0.  1.
         12    1    3    3    0    0  0.44632364125E+02 -0.59445002666E+01 -0.11794603873E+03  0.12624837846E+03  0.00000000000E+00 0. -1.
        -11    1    4    4    0    0 -0.33859889550E+02  0.10595960327E+03 -0.48887624889E+03  0.50137203390E+03  0.00000000000E+00 0.  1.
         11    1    4    4    0    0 -0.43545252011E+02 -0.74283306075E+01 -0.26621174659E+03  0.26985192809E+03  0.00000000000E+00 0. -1.
         21    1    1    2  502  501 -0.47783121927E+02 -0.10704659053E+03 -0.48410666773E+03  0.49809784684E+03  0.00000000000E+00 0. -1.
<scales pt_clust_5="13000.00000" pt_clust_6="13000.00000" pt_clust_7="13000.00000" pt_clust_8="13000.00000" pt_clust_9="117.22713"></scales>
<clustering>
<clus scale="   81.730">  5  6 -1 -1</clus>
<clus scale="   94.491">  7  8 -1 -1</clus>
<clus scale="  117.227">  2  9  1 -1</clus>
<clus scale="  142.282">  1  5  2 -1</clus>
<clus scale="  117.227">  2  5  1 -1</clus>
</clustering>
</event>
<event>
 9    2  0.2984928E-005  0.1211255E+03  0.7546771E-02  0.1246226E+00
          2   -1    0    0  502    0  0.00000000000E+00  0.00000000000E+00  0.15117491073E+03  0.15117491073E+03  0.00000000000E+00 0. -1.
         -1   -1    0    0    0  501 -0.00000000000E+00 -0.00000000000E+00 -0.20264757564E+03  0.20264757564E+03  0.00000000000E+00 0.  1.
         24    2    1    2    0    0  0.26623844845E+02 -0.70271189756E+02 -0.14125886870E+03  0.17881959172E+03  0.79846785617E+02 0.  0.
         23    2    1    2    0    0 -0.83609444439E+00  0.78305831544E+02  0.72914683130E+02  0.14315620332E+03  0.95103339716E+02 0.  0.
        -11    1    3    3    0    0  0.30731456362E+02 -0.48622016643E+02 -0.14543092929E+03  0.15639270477E+03  0.00000000000E+00 0.  1.
         12    1    3    3    0    0 -0.41076115166E+01 -0.21649173113E+02  0.41720605851E+01  0.22426886952E+02  0.00000000000E+00 0. -1.
        -11    1    4    4    0    0 -0.42632543731E+02  0.16291052707E+02  0.13357448118E+02  0.47553691797E+02  0.00000000000E+00 0.  1.
         11    1    4    4    0    0  0.41796449287E+02  0.62014778837E+02  0.59557235011E+02  0.95602511522E+02  0.00000000000E+00 0. -1.
         21    1    1    2  502  501 -0.25787750401E+02 -0.80346417874E+01  0.16871520653E+02  0.31846691328E+02  0.00000000000E+00 0.  1.
<scales pt_clust_5="13000.00000" pt_clust_6="13000.00000" pt_clust_7="13000.00000" pt_clust_8="13000.00000" pt_clust_9="27.01043"></scales>
<clustering>
<clus scale="   27.010">  1  9  2 -1</clus>
<clus scale="   79.847">  5  6 -1 -1</clus>
<clus scale="   95.103">  7  8 -1 -1</clus>
<clus scale="  109.555">  2  5  1 -1</clus>
<clus scale="   27.010">  1  5  2 -1</clus>
</clustering>
</event>
<event>
 9    2  0.2984928E-005  0.1180997E+03  0.7546771E-02  0.1248841E+00
          2   -1    0    0  502    0  0.00000000000E+00  0.00000000000E+00  0.75739320736E+03  0.75739320736E+03  0.00000000000E+00 0. -1.
         -1   -1    0    0    0  501 -0.00000000000E+00 -0.00000000000E+00 -0.38383394455E+02  0.38383394455E+02  0.00000000000E+00 0.  1.
         23    2    1    2    0    0  0.78484720744E+02  0.26561172701E+02  0.90597842388E+02  0.15176017884E+03  0.89206701262E+02 0.  0.
         24    2    1    2    0    0 -0.59832664559E+02  0.74008870812E+01  0.48745641306E+03  0.49783232712E+03  0.81169886112E+02 0.  0.
        -13    1    4    4    0    0 -0.20148557781E+02  0.12220616745E+02  0.27812394937E+02  0.36453218876E+02  0.00000000000E+00 0.  1.
         14    1    4    4    0    0 -0.39684106778E+02 -0.48197296641E+01  0.45964401812E+03  0.46137910824E+03  0.00000000000E+00 0. -1.
        -11    1    3    3    0    0  0.19495596346E+02  0.38376090082E+02  0.44811544778E-01  0.43044216510E+02  0.00000000000E+00 0.  1.
         11    1    3    3    0    0  0.58989124398E+02 -0.11814917381E+02  0.90553030843E+02  0.10871596233E+03  0.00000000000E+00 0. -1.
         21    1    1    2  502  501 -0.18652056185E+02 -0.33962059783E+02  0.14095555746E+03  0.14618409586E+03  0.00000000000E+00 0. -1.
<scales pt_clust_5="13000.00000" pt_clust_6="13000.00000" pt_clust_7="13000.00000" pt_clust_8="13000.00000" pt_clust_9="38.74688"></scales>
<clustering>
<clus scale="   38.747">  1  9  2 -1</clus>
<clus scale="   81.170">  5  6 -1 -1</clus>
<clus scale="   89.207">  7  8 -1 -1</clus>
<clus scale="  112.153">  1  5  2 -1</clus>
<clus scale="   38.747">  1  5  2 -1</clus>
</clustering>
</event>
<event>
 9    2  0.2984928E-005  0.1994561E+03  0.7546771E-02  0.1158923E+00
          2   -1    0    0  502    0  0.00000000000E+00  0.00000000000E+00  0.92251065638E+03  0.92251065638E+03  0.00000000000E+00 0. -1.
         -1   -1    0    0    0  501 -0.00000000000E+00 -0.00000000000E+00 -0.14611760214E+03  0.14611760214E+03  0.00000000000E+00 0.  1.
         24    2    1    2    0    0  0.13223047492E+03  0.10068712598E+03  0.11710402389E+02  0.18518914731E+03  0.80839909216E+02 0.  0.
         23    2    1    2    0    0  0.13206419328E+03 -0.87609544079E+01  0.27162175555E+03  0.31650777487E+03  0.94239524602E+02 0.  0.
        -11    1    3    3    0    0  0.13919811611E+03  0.10502854241E+03  0.17337690951E+02  0.17523614290E+03  0.00000000000E+00 0.  1.
         12    1    3    3    0    0 -0.69676411896E+01 -0.43414164287E+01 -0.56272885619E+01  0.99530044164E+01  0.00000000000E+00 0. -1.
        -13    1    4    4    0    0  0.10307595735E+02  0.32351129561E+02  0.58427601851E+02  0.67576821261E+02  0.00000000000E+00 0.  1.
         13    1    4    4    0    0  0.12175659754E+03 -0.41112083969E+02  0.21319415370E+03  0.24893095361E+03  0.00000000000E+00 0. -1.
         21    1    1    2  502  501 -0.26429466820E+03 -0.91926171574E+02  0.49306089630E+03  0.56693133634E+03  0.00000000000E+00 0. -1.
<scales pt_clust_5="13000.00000" pt_clust_6="13000.00000" pt_clust_7="13000.00000" pt_clust_8="13000.00000" pt_clust_9="182.33941"></scales>
<clustering>
<clus scale="   80.840">  5  6 -1 -1</clus>
<clus scale="   94.240">  7  8 -1 -1</clus>
<clus scale="  162.477">  1  7  2 -1</clus>
<clus scale="  182.339">  1  9  2 -1</clus>
<clus scale="  162.477">  1  5  2 -1</clus>
</clustering>
</event>
<event>
 9    2  0.2984928E-005  0.9163863E+02  0.7546771E-02  0.1310184E+00
          2   -1    0    0  502    0  0.00000000000E+00  0.00000000000E+00  0.57279358311E+03  0.57279358311E+03  0.00000000000E+00 0. -1.
         -1   -1    0    0    0  501 -0.00000000000E+00 -0.00000000000E+00 -0.27832811875E+02  0.27832811875E+02  0.00000000000E+00 0.  1.
         24    2    1    2    0    0  0.77859821969E+01 -0.33402036108E+02  0.57602132769E+02  0.96454423088E+02  0.69347909115E+02 0.  0.
         23    2    1    2    0    0  0.14572420386E+02 -0.33581476475E+00  0.33593225163E+03  0.34742985447E+03  0.87433162362E+02 0.  0.
        -11    1    3    3    0    0  0.37832619281E+02 -0.13667781327E+02  0.21948384579E+02  0.45824086610E+02  0.00000000000E+00 0.  1.
         12    1    3    3    0    0 -0.30046637084E+02 -0.19734254781E+02  0.35653748190E+02  0.50630336477E+02  0.00000000000E+00 0. -1.
        -13    1    4    4    0    0  0.22537720150E+02  0.37860660363E+02  0.11646159793E+03  0.12451779883E+03  0.00000000000E+00 0.  1.
         13    1    4    4    0    0 -0.79652997641E+01 -0.38196475127E+02  0.21947065370E+03  0.22291205563E+03  0.00000000000E+00 0. -1.
         21    1    1    2  502  501 -0.22358402583E+02  0.33737850872E+02  0.15142638683E+03  0.15674211743E+03  0.00000000000E+00 0.  1.
<scales pt_clust_5="13000.00000" pt_clust_6="13000.00000" pt_clust_7="13000.00000" pt_clust_8="13000.00000" pt_clust_9="40.47395"></scales>
<clustering>
<clus scale="   40.474">  1  9  2 -1</clus>
<clus scale="   69.348">  5  6 -1 -1</clus>
<clus scale="   74.580">  2  5  1 -1</clus>
<clus scale="   87.433">  7  8 -1 -1</clus>
<clus scale="   40.474">  1  5  2 -1</clus>
</clustering>
</event>
<event>
 9    2  0.2984928E-005  0.1272453E+03  0.7546771E-02  0.1234569E+00
         -1   -1    0    0    0  501 -0.00000000000E+00  0.00000000000E+00  0.82152740926E+02  0.82152740926E+02  0.00000000000E+00 0.  1.
          2   -1    0    0  502    0  0.00000000000E+00 -0.00000000000E+00 -0.63852857216E+03  0.63852857216E+03  0.00000000000E+00 0. -1.
         23    2    1    2    0    0 -0.96087933079E+02  0.15246634667E+02 -0.50258945212E+02  0.14225166045E+03  0.90797701370E+02 0.  0.
         24    2    1    2    0    0  0.75881939004E+02  0.61512047846E+02 -0.90491459532E+02  0.15529294579E+03  0.79908660772E+02 0.  0.
        -11    1    4    4    0    0  0.52517876704E+02  0.74702528612E+02 -0.90354586089E+02  0.12846223718E+03  0.00000000000E+00 0.  1.
         12    1    4    4    0    0  0.23364062300E+02 -0.13190480766E+02 -0.13687344243E+00  0.26830708606E+02  0.00000000000E+00 0. -1.
        -11    1    3    3    0    0  0.15304041380E+02  0.14154285253E+02 -0.23115656062E+01  0.20973812461E+02  0.00000000000E+00 0. -1.
         11    1    3    3    0    0 -0.11139197446E+03  0.10923494144E+01 -0.47947379605E+02  0.12127784799E+03  0.00000000000E+00 0.  1.
         21    1    1    2  502  501  0.20205994075E+02 -0.76758682513E+02 -0.41562542649E+03  0.42313670685E+03  0.00000000000E+00 0. -1.
<scales pt_clust_5="13000.00000" pt_clust_6="13000.00000" pt_clust_7="13000.00000" pt_clust_8="13000.00000" pt_clust_9="79.37366"></scales>
<clustering>
<clus scale="   79.374">  2  9  1 -1</clus>
<clus scale="   79.909">  5  6 -1 -1</clus>
<clus scale="   90.798">  7  8 -1 -1</clus>
<clus scale="  119.719">  2  5  1 -1</clus>
<clus scale="   79.374">  2  5  1 -1</clus>
</clustering>
</event>
<event>
 9    2  0.2984928E-005  0.1286116E+03  0.7546771E-02  0.1236478E+00
         -1   -1    0    0    0  501 -0.00000000000E+00  0.00000000000E+00  0.48830290969E+02  0.48830290969E+02  0.00000000000E+00 0.  1.
          2   -1    0    0  502    0  0.00000000000E+00 -0.00000000000E+00 -0.12932153467E+04  0.12932153467E+04  0.00000000000E+00 0. -1.
         24    2    1    2    0    0 -0.26717747093E+02 -0.92333568645E+02 -0.73866813965E+02  0.14529920673E+03  0.80101356800E+02 0.  0.
         23    2    1    2    0    0  0.49750622107E+02 -0.43159306557E+02 -0.55040731882E+03  0.56158787647E+03  0.89971530198E+02 0.  0.
        -11    1    3    3    0    0 -0.19744884145E+02 -0.10085806700E+03 -0.41022016448E+02  0.11065720023E+03  0.00000000000E+00 0.  1.
         12    1    3    3    0    0 -0.69728629479E+01  0.85244983587E+01 -0.32844797517E+02  0.34642006494E+02  0.00000000000E+00 0. -1.
        -13    1    4    4    0    0 -0.39274956466E+01  0.23329187462E+02 -0.77799531299E+02  0.81316931079E+02  0.00000000000E+00 0.  1.
         13    1    4    4    0    0  0.53678117753E+02 -0.66488494020E+02 -0.47260778752E+03  0.48027094539E+03  0.00000000000E+00 0. -1.
         21    1    1    2  502  501 -0.23032875014E+02  0.13549287520E+03 -0.62011092290E+03  0.63515855443E+03  0.00000000000E+00 0.  1.
<scales pt_clust_5="13000.00000" pt_clust_6="13000.00000" pt_clust_7="13000.00000" pt_clust_8="13000.00000" pt_clust_9="100.62165"></scales>
<clustering>
<clus scale="   80.101">  5  6 -1 -1</clus>
<clus scale="   89.972">  7  8 -1 -1</clus>
<clus scale="  111.502">  2  7  1 -1</clus>
<clus scale="  100.622">  2  9  1 -1</clus>
<clus scale="  111.502">  2  5  1 -1</clus>
</clustering>
</event>
<event>
 9    2  0.2984928E-005  0.1329332E+03  0.7546771E-02  0.1225675E+00
         -3   -1    0    0    0  501 -0.00000000000E+00  0.00000000000E+00  0.30829029531E+03  0.30829029531E+03  0.00000000000E+00 0.  1.
          4   -1    0    0  502    0  0.00000000000E+00 -0.00000000000E+00 -0.12316111593E+03  0.12316111593E+03  0.00000000000E+00 0. -1.
         23    2    1    2    0    0  0.47150060552E+02  0.83253212113E+02  0.23347553773E+03  0.26833126067E+03  0.91305055695E+02 0.  0.
         24    2    1    2    0    0 -0.29750908168E+02 -0.99376269363E+02 -0.44968982991E+02  0.13915997230E+03  0.81132786281E+02 0.  0.
        -13    1    4    4    0    0 -0.12633488648E+02 -0.34521623007E+02  0.23244206890E+02  0.43492995349E+02  0.00000000000E+00 0.  1.
         14    1    4    4    0    0 -0.17117419520E+02 -0.64854646356E+02 -0.68213189881E+02  0.95666976950E+02  0.00000000000E+00 0. -1.
        -13    1    3    3    0    0 -0.16134832824E+02  0.61350773349E+02  0.91321823663E+02  0.11119319088E+03  0.00000000000E+00 0.  1.
         13    1    3    3    0    0  0.63284893376E+02  0.21902438764E+02  0.14215371407E+03  0.15713806979E+03  0.00000000000E+00 0. -1.
         21    1    1    2  502  501 -0.17399152384E+02  0.16123057250E+02 -0.33773753495E+01  0.23960178276E+02  0.00000000000E+00 0.  1.
<scales pt_clust_5="13000.00000" pt_clust_6="13000.00000" pt_clust_7="13000.00000" pt_clust_8="13000.00000" pt_clust_9="23.72095"></scales>
<clustering>
<clus scale="   23.721">  2  9  1 -1</clus>
<clus scale="   81.133">  5  6 -1 -1</clus>
<clus scale="   91.305">  7  8 -1 -1</clus>
<clus scale="  126.163">  2  5  1 -1</clus>
<clus scale="   23.721">  2  5  1 -1</clus>
</clustering>
</event>
<event>
 9    2  0.2984928E-005  0.1172116E+03  0.7546771E-02  0.1253195E+00
         -1   -1    0    0    0  501 -0.00000000000E+00  0.00000000000E+00  0.16518031058E+03  0.16518031058E+03  0.00000000000E+00 0.  1.
          2   -1    0    0  502    0  0.00000000000E+00 -0.00000000000E+00 -0.14745514903E+03  0.14745514903E+03  0.00000000000E+00 0. -1.
         23    2    1    2    0    0 -0.61203525130E+02  0.29979931883E+02  0.98959715907E+02  0.15420686038E+03  0.96654346054E+02 0.  0.
         24    2    1    2    0    0  0.39860461626E+02 -0.52300281507E+02 -0.58238836827E+02  0.11992499691E+03  0.81645985347E+02 0.  0.
        -13    1    4    4    0    0 -0.19838966484E+02  0.66515613963E+01 -0.10991846245E+02  0.23635747165E+02  0.00000000000E+00 0.  1.
         14    1    4    4    0    0  0.59699428110E+02 -0.58951842903E+02 -0.47246990582E+02  0.96289249750E+02  0.00000000000E+00 0. -1.
        -13    1    3    3    0    0 -0.38429754677E+02  0.53482716696E+02  0.20148660765E+02  0.68871006675E+02  0.00000000000E+00 0. -1.
         13    1    3    3    0    0 -0.22773770453E+02 -0.23502784814E+02  0.78811055142E+02  0.85335853703E+02  0.00000000000E+00 0.  1.
         21    1    1    2  502  501  0.21343063504E+02  0.22320349624E+02 -0.22995717521E+02  0.38503602317E+02  0.00000000000E+00 0.  1.
<scales pt_clust_5="13000.00000" pt_clust_6="13000.00000" pt_clust_7="13000.00000" pt_clust_8="13000.00000" pt_clust_9="30.88243"></scales>
<clustering>
<clus scale="   30.882">  2  9  1 -1</clus>
<clus scale="   81.646">  5  6 -1 -1</clus>
<clus scale="   96.654">  7  8 -1 -1</clus>
<clus scale="  105.179">  2  5  1 -1</clus>
<clus scale="   30.882">  2  5  1 -1</clus>
</clustering>
</event>
<event>
 9    2  0.2984928E-005  0.9392364E+02  0.7546771E-02  0.1296493E+00
         -3   -1    0    0    0  501 -0.00000000000E+00  0.00000000000E+00  0.14538074062E+03  0.14538074062E+03  0.00000000000E+00 0.  1.
          4   -1    0    0  502    0  0.00000000000E+00 -0.00000000000E+00 -0.10694529562E+03  0.10694529562E+03  0.00000000000E+00 0. -1.
         23    2    1    2    0    0 -0.89522876304E+01 -0.25612817954E+02  0.91189041746E+02  0.13162650250E+03  0.90961172643E+02 0.  0.
         24    2    1    2    0    0  0.14099732014E+02  0.51318648993E+01 -0.45543169622E+02  0.98384608663E+02  0.85908162839E+02 0.  0.
        -11    1    4    4    0    0  0.17742904791E+02 -0.21653387875E+02  0.15231222842E+02  0.31869578381E+02  0.00000000000E+00 0.  1.
         12    1    4    4    0    0 -0.36431727772E+01  0.26785252775E+02 -0.60774392464E+02  0.66515030282E+02  0.00000000000E+00 0. -1.
        -13    1    3    3    0    0 -0.20953588189E+01 -0.53869555463E+02  0.25187687288E+02  0.59504110155E+02  0.00000000000E+00 0.  1.
         13    1    3    3    0    0 -0.68569288114E+01  0.28256737509E+02  0.66001354458E+02  0.72122392346E+02  0.00000000000E+00 0. -1.
         21    1    1    2  502  501 -0.51474443835E+01  0.20480953055E+02 -0.72104271279E+01  0.22314925074E+02  0.00000000000E+00 0.  1.
<scales pt_clust_5="13000.00000" pt_clust_6="13000.00000" pt_clust_7="13000.00000" pt_clust_8="13000.00000" pt_clust_9="21.11790"></scales>
<clustering>
<clus scale="   21.118">  2  9  1 -1</clus>
<clus scale="   85.908">  5  6 -1 -1</clus>
<clus scale="   89.039">  2  5  1 -1</clus>
<clus scale="   90.961">  7  8 -1 -1</clus>
<clus scale="   21.118">  2  5  1 -1</clus>
</clustering>
</event>
<event>
 9    2  0.2984928E-005  0.1018167E+03  0.7546771E-02  0.1281533E+00
          2   -1    0    0  502    0  0.00000000000E+00  0.00000000000E+00  0.44078841902E+03  0.44078841902E+03  0.00000000000E+00 0. -1.
         -1   -1    0    0    0  501 -0.00000000000E+00 -0.00000000000E+00 -0.80803622235E+02  0.80803622235E+02  0.00000000000E+00 0.  1.
         23    2    1    2    0    0 -0.40646119796E+00 -0.63457766630E+02  0.21923809867E+02  0.11331492909E+03  0.91282891931E+02 0.  0.
         24    2    1    2    0    0  0.47194858803E+02  0.12526929103E+02  0.40412212961E+02  0.10269914012E+03  0.80806483494E+02 0.  0.
        -13    1    4    4    0    0  0.23126001019E+02 -0.30151848980E+02 -0.17767924076E+01  0.38040805871E+02  0.00000000000E+00 0.  1.
         14    1    4    4    0    0  0.24068857784E+02  0.42678778083E+02  0.42189005369E+02  0.64658334248E+02  0.00000000000E+00 0. -1.
        -13    1    3    3    0    0 -0.13854357715E+02  0.18522407739E+02  0.19419012286E+02  0.30201338618E+02  0.00000000000E+00 0. -1.
         13    1    3    3    0    0  0.13447896517E+02 -0.81980174369E+02  0.25047975806E+01  0.83113590473E+02  0.00000000000E+00 0.  1.
         21    1    1    2  502  501 -0.46788397605E+02  0.50930837527E+02  0.29764877395E+03  0.30557797204E+03  0.00000000000E+00 0. -1.
<scales pt_clust_5="13000.00000" pt_clust_6="13000.00000" pt_clust_7="13000.00000" pt_clust_8="13000.00000" pt_clust_9="69.15999"></scales>
<clustering>
<clus scale="   69.160">  1  9  2 -1</clus>
<clus scale="   80.806">  5  6 -1 -1</clus>
<clus scale="   91.283">  7  8 -1 -1</clus>
<clus scale="   92.541">  1  5  2 -1</clus>
<clus scale="   69.160">  1  5  2 -1</clus>
</clustering>
</event>
<event>
 9    2  0.2984928E-005  0.1535680E+03  0.7546771E-02  0.1197172E+00
         -1   -1    0    0    0  501 -0.00000000000E+00  0.00000000000E+00  0.46225872065E+03  0.46225872065E+03  0.00000000000E+00 0.  1.
          2   -1    0    0  502    0  0.00000000000E+00 -0.00000000000E+00 -0.25019436280E+03  0.25019436280E+03  0.00000000000E+00 0. -1.
         23    2    1    2    0    0  0.12790878510E+03 -0.11221478472E+02  0.42312274283E+03  0.45047379928E+03  0.86065146564E+02 0.  0.
         24    2    1    2    0    0 -0.10885054337E+03  0.48747945701E+01 -0.18397212503E+03  0.22825744478E+03  0.79896895386E+02 0.  0.
        -11    1    4    4    0    0 -0.26485005712E+02  0.20848252616E+02 -0.11440652103E+03  0.11926842507E+03  0.00000000000E+00 0.  1.
         12    1    4    4    0    0 -0.82365537661E+02 -0.15973458046E+02 -0.69565604002E+02  0.10898901971E+03  0.00000000000E+00 0. -1.
        -11    1    3    3    0    0  0.56634304964E+02 -0.28528717347E+02  0.94772319181E+02  0.11403124438E+03  0.00000000000E+00 0. -1.
         11    1    3    3    0    0  0.71274480133E+02  0.17307238875E+02  0.32835042365E+03  0.33644255490E+03  0.00000000000E+00 0.  1.
         21    1    1    2  502  501 -0.19058241725E+02  0.63466839019E+01 -0.27086259952E+02  0.33721839398E+02  0.00000000000E+00 0. -1.
<scales pt_clust_5="13000.00000" pt_clust_6="13000.00000" pt_clust_7="13000.00000" pt_clust_8="13000.00000" pt_clust_9="20.08723"></scales>
<clustering>
<clus scale="   20.087">  2  9  1 -1</clus>
<clus scale="   79.897">  5  6 -1 -1</clus>
<clus scale="   86.065">  7  8 -1 -1</clus>
<clus scale="  150.198">  2  5  1 -1</clus>
<clus scale="   20.087">  2  5  1 -1</clus>
</clustering>
</event>
<event>
 9    2  0.2984928E-005  0.9958422E+02  0.7546771E-02  0.1286423E+00
         -1   -1    0    0    0  501 -0.00000000000E+00  0.00000000000E+00  0.14234543177E+03  0.14234543177E+03  0.00000000000E+00 0.  1.
          2   -1    0    0  502    0  0.00000000000E+00 -0.00000000000E+00 -0.36676654370E+03  0.36676654370E+03  0.00000000000E+00 0. -1.
         24    2    1    2    0    0  0.45543858742E+02 -0.17438745431E+02  0.10872128154E+03  0.14187146440E+03  0.76998976884E+02 0.  0.
         23    2    1    2    0    0 -0.20730743569E+01  0.32563974228E+02 -0.28764472825E+03  0.30252174113E+03  0.87836234642E+02 0.  0.
        -11    1    3    3    0    0  0.40492580927E+02 -0.42897664557E+02  0.48759849752E+02  0.76533533058E+02  0.00000000000E+00 0.  1.
         12    1    3    3    0    0  0.50512778154E+01  0.25458919126E+02  0.59961431784E+02  0.65337931343E+02  0.00000000000E+00 0. -1.
        -13    1    4    4    0    0 -0.43903095420E+02  0.19269954171E+02 -0.17991054125E+03  0.18618973058E+03  0.00000000000E+00 0. -1.
         13    1    4    4    0    0  0.41830021063E+02  0.13294020057E+02 -0.10773418700E+03  0.11633201055E+03  0.00000000000E+00 0.  1.
         21    1    1    2  502  501 -0.43470784385E+02 -0.15125228797E+02 -0.45497665224E+02  0.64718769936E+02  0.00000000000E+00 0. -1.
<scales pt_clust_5="13000.00000" pt_clust_6="13000.00000" pt_clust_7="13000.00000" pt_clust_8="13000.00000" pt_clust_9="46.02697"></scales>
<clustering>
<clus scale="   46.027">  2  9  1 -1</clus>
<clus scale="   76.999">  5  6 -1 -1</clus>
<clus scale="   87.836">  7  8 -1 -1</clus>
<clus scale="   90.170">  1  5  2 -1</clus>
<clus scale="   46.027">  2  5  1 -1</clus>
</clustering>
</event>
<event>
 9    2  0.2984928E-005  0.9012467E+02  0.7546771E-02  0.1311584E+00
          2   -1    0    0  502    0  0.00000000000E+00  0.00000000000E+00  0.33550576994E+02  0.33550576994E+02  0.00000000000E+00 0. -1.
         -1   -1    0    0    0  501 -0.00000000000E+00 -0.00000000000E+00 -0.44566150584E+03  0.44566150584E+03  0.00000000000E+00 0.  1.
         24    2    1    2    0    0 -0.98327661301E+01  0.12625425907E+02 -0.26263115507E+03  0.27389122082E+03  0.76060453346E+02 0.  0.
         23    2    1    2    0    0  0.95458482851E-01  0.30203838787E+02 -0.11775344220E+03  0.15113856610E+03  0.89803741704E+02 0.  0.
        -13    1    3    3    0    0 -0.23764142151E+02 -0.26309522392E+02 -0.10051734276E+03  0.10658640447E+03  0.00000000000E+00 0.  1.
         14    1    3    3    0    0  0.13931376021E+02  0.38934948299E+02 -0.16211381230E+03  0.16730481636E+03  0.00000000000E+00 0. -1.
        -13    1    4    4    0    0 -0.26186756006E+02 -0.10733040994E+02 -0.55458357228E+01  0.28839220741E+02  0.00000000000E+00 0. -1.
         13    1    4    4    0    0  0.26282214489E+02  0.40936879782E+02 -0.11220760647E+03  0.12229934536E+03  0.00000000000E+00 0.  1.
         21    1    1    2  502  501  0.97373076472E+01 -0.42829264694E+02 -0.31726331585E+02  0.54182295912E+02  0.00000000000E+00 0.  1.
<scales pt_clust_5="13000.00000" pt_clust_6="13000.00000" pt_clust_7="13000.00000" pt_clust_8="13000.00000" pt_clust_9="43.92222"></scales>
<clustering>
<clus scale="   43.922">  1  9  2 -1</clus>
<clus scale="   76.060">  5  6 -1 -1</clus>
<clus scale="   76.439">  2  5  1 -1</clus>
<clus scale="   89.804">  7  8 -1 -1</clus>
<clus scale="   43.922">  1  5  2 -1</clus>
</clustering>
</event>
<event>
 9    2  0.2984928E-005  0.1208605E+03  0.7546771E-02  0.1241734E+00
          2   -1    0    0  502    0  0.00000000000E+00  0.00000000000E+00  0.75742081262E+03  0.75742081262E+03  0.00000000000E+00 0. -1.
         -1   -1    0    0    0  501 -0.00000000000E+00 -0.00000000000E+00 -0.12830478820E+03  0.12830478820E+03  0.00000000000E+00 0.  1.
         23    2    1    2    0    0 -0.73540508399E+02 -0.14013627927E+02 -0.82012817076E+02  0.14690651414E+03  0.96181253827E+02 0.  0.
         24    2    1    2    0    0  0.53895545957E+02 -0.52767509534E+02  0.54833831924E+03  0.56176994377E+03  0.96028211705E+02 0.  0.
        -13    1    4    4    0    0  0.24278462565E+02 -0.78647535117E+02  0.39329182453E+03  0.40181256546E+03  0.00000000000E+00 0.  1.
         14    1    4    4    0    0  0.29617083392E+02  0.25880025584E+02  0.15504649471E+03  0.15995737831E+03  0.00000000000E+00 0. -1.
        -11    1    3    3    0    0 -0.42219605829E+01 -0.25989652535E+02 -0.70973340852E+02  0.75700079932E+02  0.00000000000E+00 0.  1.
         11    1    3    3    0    0 -0.69318547816E+02  0.11976024608E+02 -0.11039476224E+02  0.71206434204E+02  0.00000000000E+00 0. -1.
         21    1    1    2  502  501  0.19644962443E+02  0.66781137461E+02  0.16279052225E+03  0.17704914291E+03  0.00000000000E+00 0. -1.
<scales pt_clust_5="13000.00000" pt_clust_6="13000.00000" pt_clust_7="13000.00000" pt_clust_8="13000.00000" pt_clust_9="69.61067"></scales>
<clustering>
<clus scale="   69.611">  1  9  2 -1</clus>
<clus scale="   96.028">  5  6 -1 -1</clus>
<clus scale="   96.181">  7  8 -1 -1</clus>
<clus scale="  120.739">  1  5  2 -1</clus>
<clus scale="   69.611">  1  5  2 -1</clus>
</clustering>
</event>
<event>
 9    2  0.2984928E-005  0.9046935E+02  0.7546771E-02  0.1303088E+00
          2   -1    0    0  502    0  0.00000000000E+00  0.00000000000E+00  0.48677895930E+03  0.48677895930E+03  0.00000000000E+00 0. -1.
         -1   -1    0    0    0  501 -0.00000000000E+00 -0.00000000000E+00 -0.99984856352E+02  0.99984856352E+02  0.00000000000E+00 0.  1.
         24    2    1    2    0    0  0.10428988923E+02  0.94206823201E+01 -0.68905541059E+02  0.11215335324E+03  0.87366400796E+02 0.  0.
         23    2    1    2    0    0 -0.25138233550E+01  0.28222092713E+02  0.33395973037E+03  0.34693808901E+03  0.89633310076E+02 0.  0.
        -11    1    3    3    0    0 -0.21643466806E+02  0.36989188075E+02 -0.49926728938E+02  0.65797552783E+02  0.00000000000E+00 0.  1.
         12    1    3    3    0    0  0.32072455728E+02 -0.27568505755E+02 -0.18978812121E+02  0.46355800452E+02  0.00000000000E+00 0. -1.
        -11    1    4    4    0    0 -0.16774621065E+02 -0.28267042238E+02  0.16423859517E+03  0.16749546182E+03  0.00000000000E+00 0. -1.
         11    1    4    4    0    0  0.14260797710E+02  0.56489134951E+02  0.16972113520E+03  0.17944262719E+03  0.00000000000E+00 0.  1.
         21    1    1    2  502  501 -0.79151655676E+01 -0.37642775033E+02  0.12173991364E+03  0.12767237341E+03  0.00000000000E+00 0. -1.
<scales pt_clust_5="13000.00000" pt_clust_6="13000.00000" pt_clust_7="13000.00000" pt_clust_8="13000.00000" pt_clust_9="38.46594"></scales>
<clustering>
<clus scale="   38.466">  1  9  2 -1</clus>
<clus scale="   87.366">  5  6 -1 -1</clus>
<clus scale="   88.224">  2  5  1 -1</clus>
<clus scale="   89.633">  7  8 -1 -1</clus>
<clus scale="   38.466">  1  5  2 -1</clus>
</clustering>
</event>
<event>
 9    2  0.2984928E-005  0.1028505E+03  0.7546771E-02  0.1281848E+00
         -1   -1    0    0    0  501 -0.00000000000E+00  0.00000000000E+00  0.38770575518E+03  0.38770575518E+03  0.00000000000E+00 0.  1.
          2   -1    0    0  502    0  0.00000000000E+00 -0.00000000000E+00 -0.44805911003E+02  0.44805911003E+02  0.00000000000E+00 0. -1.
         23    2    1    2    0    0 -0.43194481316E+02 -0.48910207495E+01  0.23783450185E+03  0.25971932478E+03  0.94864071670E+02 0.  0.
         24    2    1    2    0    0  0.34840049059E+02 -0.13814970360E+02  0.11889514330E+03  0.14807445241E+03  0.79908109290E+02 0.  0.
        -13    1    4    4    0    0  0.53910569420E+02 -0.29878095886E+02  0.96809432723E+02  0.11476548424E+03  0.00000000000E+00 0.  1.
         14    1    4    4    0    0 -0.19070520361E+02  0.16063125526E+02  0.22085710580E+02  0.33308968167E+02  0.00000000000E+00 0. -1.
        -13    1    3    3    0    0 -0.46504348261E+02  0.16659196645E+02  0.23192831101E+03  0.23713060682E+03  0.00000000000E+00 0. -1.
         13    1    3    3    0    0  0.33098669451E+01 -0.21550217394E+02  0.59061908341E+01  0.22588717960E+02  0.00000000000E+00 0.  1.
         21    1    1    2  502  501  0.83544322568E+01  0.18705991109E+02 -0.13829800971E+02  0.24717889000E+02  0.00000000000E+00 0. -1.
<scales pt_clust_5="13000.00000" pt_clust_6="13000.00000" pt_clust_7="13000.00000" pt_clust_8="13000.00000" pt_clust_9="20.48684"></scales>
<clustering>
<clus scale="   20.487">  2  9  1 -1</clus>
<clus scale="   79.908">  5  6 -1 -1</clus>
<clus scale="   89.243">  2  5  1 -1</clus>
<clus scale="   94.864">  7  8 -1 -1</clus>
<clus scale="   20.487">  2  5  1 -1</clus>
</clustering>
</event>
<event>
 9    2  0.2984928E-005  0.1228415E+03  0.7546771E-02  0.1242134E+00
         -1   -1    0    0    0  501 -0.00000000000E+00  0.00000000000E+00  0.76491370470E+02  0.76491370470E+02  0.00000000000E+00 0.  1.
          2   -1    0    0  502    0  0.00000000000E+00 -0.00000000000E+00 -0.55222914107E+03  0.55222914107E+03  0.00000000000E+00 0. -1.
         23    2    1    2    0    0 -0.58173073862E+02 -0.64042256171E+02  0.82372159934E+01  0.12565010929E+03  0.90744592894E+02 0.  0.
         24    2    1    2    0    0  0.22604650553E+02  0.60148470614E+02 -0.34927408921E+03  0.36369821687E+03  0.78455049641E+02 0.  0.
        -13    1    4    4    0    0 -0.16633970119E+02  0.58789754977E+02 -0.18635841236E+03  0.19611828601E+03  0.00000000000E+00 0.  1.
         14    1    4    4    0    0  0.39238620672E+02  0.13587156370E+01 -0.16291567686E+03  0.16757993086E+03  0.00000000000E+00 0. -1.
        -11    1    3    3    0    0 -0.57119920792E+02 -0.16049452686E+02 -0.27899879836E+02  0.65564270587E+02  0.00000000000E+00 0. -1.
         11    1    3    3    0    0 -0.10531530703E+01 -0.47992803485E+02  0.36137095830E+02  0.60085838704E+02  0.00000000000E+00 0.  1.
         21    1    1    2  502  501  0.35568423309E+02  0.38937855571E+01 -0.13470089738E+03  0.13937218538E+03  0.00000000000E+00 0. -1.
<scales pt_clust_5="13000.00000" pt_clust_6="13000.00000" pt_clust_7="13000.00000" pt_clust_8="13000.00000" pt_clust_9="35.78092"></scales>
<clustering>
<clus scale="   35.781">  2  9  1 -1</clus>
<clus scale="   78.455">  5  6 -1 -1</clus>
<clus scale="   90.745">  7  8 -1 -1</clus>
<clus scale="  114.064">  2  5  1 -1</clus>
<clus scale="   35.781">  2  5  1 -1</clus>
</clustering>
</event>
<event>
 9    2  0.2984928E-005  0.1009200E+03  0.7546771E-02  0.1283856E+00
          2   -1    0    0  502    0  0.00000000000E+00  0.00000000000E+00  0.37837275192E+03  0.37837275192E+03  0.00000000000E+00 0. -1.
         -1   -1    0    0    0  501 -0.00000000000E+00 -0.00000000000E+00 -0.99268809979E+02  0.99268809979E+02  0.00000000000E+00 0.  1.
         23    2    1    2    0    0  0.45317877456E+02 -0.54384930172E+01 -0.61976426224E+02  0.11936618689E+03  0.91235530041E+02 0.  0.
         24    2    1    2    0    0 -0.20390374760E+02  0.10563645952E+02  0.23994725313E+03  0.25398944816E+03  0.80053716279E+02 0.  0.
        -13    1    4    4    0    0 -0.25975488418E+02 -0.99354098621E+01  0.23238754726E+02  0.36241938261E+02  0.00000000000E+00 0.  1.
         14    1    4    4    0    0  0.55851136580E+01  0.20499055814E+02  0.21670849841E+03  0.21774750990E+03  0.00000000000E+00 0. -1.
        -13    1    3    3    0    0  0.18652931385E+02 -0.46384138917E+02 -0.16585269161E+02  0.52673440608E+02  0.00000000000E+00 0. -1.
         13    1    3    3    0    0  0.26664946071E+02  0.40945645900E+02 -0.45391157062E+02  0.66692746282E+02  0.00000000000E+00 0.  1.
         21    1    1    2  502  501 -0.24927502696E+02 -0.51251529350E+01  0.10113311503E+03  0.10428592685E+03  0.00000000000E+00 0.  1.
<scales pt_clust_5="13000.00000" pt_clust_6="13000.00000" pt_clust_7="13000.00000" pt_clust_8="13000.00000" pt_clust_9="25.44892"></scales>
<clustering>
<clus scale="   25.449">  1  9  2 -1</clus>
<clus scale="   80.054">  5  6 -1 -1</clus>
<clus scale="   90.937">  1  5  2 -1</clus>
<clus scale="   91.236">  7  8 -1 -1</clus>
<clus scale="   25.449">  1  5  2 -1</clus>
</clustering>
</event>
<event>
 9    2  0.2984928E-005  0.1237760E+03  0.7546771E-02  0.1258385E+00
          2   -1    0    0  502    0  0.00000000000E+00  0.00000000000E+00  0.79423911836E+03  0.79423911836E+03  0.00000000000E+00 0. -1.
         -1   -1    0    0    0  501 -0.00000000000E+00 -0.00000000000E+00 -0.38591294416E+02  0.38591294416E+02  0.00000000000E+00 0.  1.
         24    2    1    2    0    0  0.99741396299E+01  0.11558972177E+02  0.57784175999E+02  0.99172195104E+02  0.79139244289E+02 0.  0.
         23    2    1    2    0    0  0.41437455406E+02 -0.78074163247E+02  0.27596463988E+03  0.30346501020E+03  0.90121541685E+02 0.  0.
        -11    1    3    3    0    0  0.11147387738E+02 -0.23279917876E+02 -0.59862090817E+01  0.26496292738E+02  0.00000000000E+00 0.  1.
         12    1    3    3    0    0 -0.11732481076E+01  0.34838890054E+02  0.63770385081E+02  0.72675902366E+02  0.00000000000E+00 0. -1.
        -13    1    4    4    0    0  0.41269397483E+02  0.59859717144E+01  0.79523646298E+02  0.89794238938E+02  0.00000000000E+00 0.  1.
         13    1    4    4    0    0  0.16805792345E+00 -0.84060134961E+02  0.19644099358E+03  0.21367077126E+03  0.00000000000E+00 0. -1.
         21    1    1    2  502  501 -0.51411595036E+02  0.66515191070E+02  0.42189900807E+03  0.43019320748E+03  0.00000000000E+00 0. -1.
<scales pt_clust_5="13000.00000" pt_clust_6="13000.00000" pt_clust_7="13000.00000" pt_clust_8="13000.00000" pt_clust_9="84.84459"></scales>
<clustering>
<clus scale="   79.139">  5  6 -1 -1</clus>
<clus scale="   80.598">  2  5  1 -1</clus>
<clus scale="   84.845">  1  9  2 -1</clus>
<clus scale="   90.122">  7  8 -1 -1</clus>
<clus scale="   84.845">  1  5  2 -1</clus>
</clustering>
</event>
<event>
 9    2  0.2984928E-005  0.1053758E+03  0.7546771E-02  0.1274325E+00
          2   -1    0    0  502    0  0.00000000000E+00  0.00000000000E+00  0.36305165734E+03  0.36305165734E+03  0.00000000000E+00 0. -1.
         -1   -1    0    0    0  501 -0.00000000000E+00 -0.00000000000E+00 -0.16415881980E+03  0.16415881980E+03  0.00000000000E+00 0.  1.
         24    2    1    2    0    0  0.40711703067E+02 -0.35830916480E+02 -0.13821818014E+03  0.16850321781E+03  0.79672904730E+02 0.  0.
         23    2    1    2    0    0 -0.16334411553E+02  0.32242712187E+02  0.27366023021E+03  0.29064016023E+03  0.90969091726E+02 0.  0.
        -11    1    3    3    0    0  0.20311853318E+02  0.99195878487E+01 -0.10726052035E+03  0.10961655365E+03  0.00000000000E+00 0.  1.
         12    1    3    3    0    0  0.20399849750E+02 -0.45750504329E+02 -0.30957659790E+02  0.58886664160E+02  0.00000000000E+00 0. -1.
        -11    1    4    4    0    0  0.21358433009E+02  0.48545318058E+02  0.19262365284E+03  0.19979164697E+03  0.00000000000E+00 0. -1.
         11    1    4    4    0    0 -0.37692844563E+02 -0.16302605871E+02  0.81036577376E+02  0.90848513264E+02  0.00000000000E+00 0.  1.
         21    1    1    2  502  501 -0.24377291514E+02  0.35882042932E+01  0.63450787460E+02  0.68067099107E+02  0.00000000000E+00 0.  1.
<scales pt_clust_5="13000.00000" pt_clust_6="13000.00000" pt_clust_7="13000.00000" pt_clust_8="13000.00000" pt_clust_9="24.63996"></scales>
<clustering>
<clus scale="   24.640">  1  9  2 -1</clus>
<clus scale="   79.673">  5  6 -1 -1</clus>
<clus scale="   90.969">  7  8 -1 -1</clus>
<clus scale="   95.794">  2  5  1 -1</clus>
<clus scale="   24.640">  1  5  2 -1</clus>
</clustering>
</event>
<event>
 9    2  0.2984928E-005  0.2034258E+03  0.7546771E-02  0.1148023E+00
          2   -1    0    0  502    0  0.00000000000E+00  0.00000000000E+00  0.52844610615E+03  0.52844610615E+03  0.00000000000E+00 0. -1.
         -1   -1    0    0    0  501 -0.00000000000E+00 -0.00000000000E+00 -0.56813410100E+03  0.56813410100E+03  0.00000000000E+00 0.  1.
         23    2    1    2    0    0 -0.52087676809E+02  0.18823532404E+03 -0.43018705418E+03  0.48116461384E+03  0.91174671549E+02 0.  0.
         24    2    1    2    0    0  0.50826057003E+00 -0.15122518125E+03 -0.44353870265E+02  0.17595312936E+03  0.78249115971E+02 0.  0.
        -11    1    4    4    0    0 -0.38693480249E+02 -0.70991821522E+02 -0.17765520673E+02  0.82780661157E+02  0.00000000000E+00 0.  1.
         12    1    4    4    0    0  0.39201740819E+02 -0.80233359733E+02 -0.26588349592E+02  0.93172468204E+02  0.00000000000E+00 0. -1.
        -13    1    3    3    0    0 -0.92670935438E+01  0.14399311852E+03 -0.22810324569E+03  0.26990922159E+03  0.00000000000E+00 0. -1.
         13    1    3    3    0    0 -0.42820583265E+02  0.44242205522E+02 -0.20208380849E+03  0.21125539225E+03  0.00000000000E+00 0.  1.
         21    1    1    2  502  501  0.51579416239E+02 -0.37010142785E+02  0.43485292959E+03  0.43946246395E+03  0.00000000000E+00 0. -1.
<scales pt_clust_5="13000.00000" pt_clust_6="13000.00000" pt_clust_7="13000.00000" pt_clust_8="13000.00000" pt_clust_9="63.48375"></scales>
<clustering>
<clus scale="   63.484">  1  9  2 -1</clus>
<clus scale="   78.249">  5  6 -1 -1</clus>
<clus scale="   91.175">  7  8 -1 -1</clus>
<clus scale="  197.970">  1  5  2 -1</clus>
<clus scale="   63.484">  1  5  2 -1</clus>
</clustering>
</event>
<event>
 9    2  0.2984928E-005  0.1017716E+03  0.7546771E-02  0.1281078E+00
         -1   -1    0    0    0  501 -0.00000000000E+00  0.00000000000E+00  0.24033961477E+02  0.24033961477E+02  0.00000000000E+00 0.  1.
          2   -1    0    0  502    0  0.00000000000E+00 -0.00000000000E+00 -0.13839260114E+04  0.13839260114E+04  0.00000000000E+00 0. -1.
         23    2    1    2    0    0 -0.51460208845E+02  0.29995064309E+02 -0.13651340281E+03  0.17441654597E+03  0.90759932697E+02 0.  0.
         24    2    1    2    0    0  0.44148209854E+02  0.14750202824E+02 -0.10554328790E+04  0.10595854283E+04  0.81339319098E+02 0.  0.
        -11    1    4    4    0    0 -0.94389919057E+01 -0.20073492138E+02 -0.12443505413E+03  0.12639668647E+03  0.00000000000E+00 0.  1.
         12    1    4    4    0    0  0.53587201759E+02  0.34823694962E+02 -0.93099782486E+03  0.93318874180E+03  0.00000000000E+00 0. -1.
        -11    1    3    3    0    0 -0.74620618358E+02  0.64574261300E+01 -0.10314716151E+03  0.12747263221E+03  0.00000000000E+00 0.  1.
         11    1    3    3    0    0  0.23160409513E+02  0.23537638179E+02 -0.33366241299E+02  0.46943913751E+02  0.00000000000E+00 0. -1.
         21    1    1    2  502  501  0.73119989913E+01 -0.44745267133E+02 -0.16794576812E+03  0.17395799863E+03  0.00000000000E+00 0.  1.
<scales pt_clust_5="13000.00000" pt_clust_6="13000.00000" pt_clust_7="13000.00000" pt_clust_8="13000.00000" pt_clust_9="45.33877"></scales>
<clustering>
<clus scale="   45.339">  1  9  2 -1</clus>
<clus scale="   81.339">  5  6 -1 -1</clus>
<clus scale="   90.760">  7  8 -1 -1</clus>
<clus scale="   93.467">  2  5  1 -1</clus>
<clus scale="   93.467">  2  5  1 -1</clus>
</clustering>
</event>
<event>
 9    2  0.2984928E-005  0.9446724E+02  0.7546771E-02  0.1297377E+00
          2   -1    0    0  502    0  0.00000000000E+00  0.00000000000E+00  0.29298915327E+03  0.29298915327E+03  0.00000000000E+00 0. -1.
         -1   -1    0    0    0  501 -0.00000000000E+00 -0.00000000000E+00 -0.12842736232E+03  0.12842736232E+03  0.00000000000E+00 0.  1.
         23    2    1    2    0    0  0.54276030964E+02  0.10865213214E+02 -0.59507327539E+02  0.12066345279E+03  0.89188600239E+02 0.  0.
         24    2    1    2    0    0  0.10759475398E+02  0.35128534804E+02  0.19825659526E+03  0.21701938797E+03  0.80261802385E+02 0.  0.
        -11    1    4    4    0    0  0.14363321653E+02 -0.21903002495E+02  0.32815219550E+02  0.41986726013E+02  0.00000000000E+00 0.  1.
         12    1    4    4    0    0 -0.36038462554E+01  0.57031537299E+02  0.16544137571E+03  0.17503266196E+03  0.00000000000E+00 0. -1.
        -13    1    3    3    0    0  0.77019695266E+02  0.17698230187E+02 -0.55527142390E+02  0.96584286261E+02  0.00000000000E+00 0.  1.
         13    1    3    3    0    0 -0.22743664302E+02 -0.68330169735E+01 -0.39801851494E+01  0.24079166528E+02  0.00000000000E+00 0. -1.
         21    1    1    2  502  501 -0.65035506362E+02 -0.45993748018E+02  0.25812523228E+02  0.83733674826E+02  0.00000000000E+00 0.  1.
<scales pt_clust_5="13000.00000" pt_clust_6="13000.00000" pt_clust_7="13000.00000" pt_clust_8="13000.00000" pt_clust_9="79.65577"></scales>
<clustering>
<clus scale="   79.656">  2  9  1 -1</clus>
<clus scale="   80.262">  5  6 -1 -1</clus>
<clus scale="   86.090">  1  5  2 -1</clus>
<clus scale="   89.189">  7  8 -1 -1</clus>
<clus scale="   86.090">  1  5  2 -1</clus>
</clustering>
</event>
<event>
 9    2  0.2984928E-005  0.8778690E+02  0.7546771E-02  0.1313073E+00
          2   -1    0    0  502    0  0.00000000000E+00  0.00000000000E+00  0.13653040993E+03  0.13653040993E+03  0.00000000000E+00 0. -1.
         -1   -1    0    0    0  501 -0.00000000000E+00 -0.00000000000E+00 -0.11582995542E+03  0.11582995542E+03  0.00000000000E+00 0.  1.
         23    2    1    2    0    0  0.62860515174E+01 -0.98507745763E+01 -0.69924717009E+02  0.11251387534E+03  0.87369067131E+02 0.  0.
         24    2    1    2    0    0 -0.94947977960E+01 -0.14264555925E+02  0.65221296790E+02  0.10467260667E+03  0.80055657465E+02 0.  0.
        -11    1    4    4    0    0 -0.30271207772E+01 -0.47581170220E+02  0.42119861051E+02  0.63617716987E+02  0.00000000000E+00 0.  1.
         12    1    4    4    0    0 -0.64676770189E+01  0.33316614295E+02  0.23101435739E+02  0.41054889688E+02  0.00000000000E+00 0. -1.
        -13    1    3    3    0    0 -0.31053059459E+01 -0.43733036487E+02 -0.13219223046E+02  0.45792676962E+02  0.00000000000E+00 0.  1.
         13    1    3    3    0    0  0.93913574633E+01  0.33882261910E+02 -0.56705493963E+02  0.66721198376E+02  0.00000000000E+00 0. -1.
         21    1    1    2  502  501  0.32087462787E+01  0.24115330502E+02  0.25403874724E+02  0.35173883335E+02  0.00000000000E+00 0. -1.
<scales pt_clust_5="13000.00000" pt_clust_6="13000.00000" pt_clust_7="13000.00000" pt_clust_8="13000.00000" pt_clust_9="24.32787"></scales>
<clustering>
<clus scale="   24.328">  1  9  2 -1</clus>
<clus scale="   80.056">  5  6 -1 -1</clus>
<clus scale="   80.511">  1  5  2 -1</clus>
<clus scale="   87.369">  7  8 -1 -1</clus>
<clus scale="   24.328">  1  5  2 -1</clus>
</clustering>
</event>
<event>
 9    2  0.2984928E-005  0.1424618E+03  0.7546771E-02  0.1211705E+00
         -1   -1    0    0    0  501 -0.00000000000E+00  0.00000000000E+00  0.77079816683E+02  0.77079816683E+02  0.00000000000E+00 0.  1.
          2   -1    0    0  502    0  0.00000000000E+00 -0.00000000000E+00 -0.48902752935E+03  0.48902752935E+03  0.00000000000E+00 0. -1.
         23    2    1    2    0    0  0.11817479271E+03  0.29984904108E+01 -0.37640570491E+02  0.15248440201E+03  0.88658940512E+02 0.  0.
         24    2    1    2    0    0 -0.90349161356E+02 -0.40381528333E+02 -0.24591764430E+03  0.27703736481E+03  0.80502018203E+02 0.  0.
        -11    1    4    4    0    0 -0.49975250591E+02  0.12653448254E+02 -0.57746742133E+02  0.77410087529E+02  0.00000000000E+00 0.  1.
         12    1    4    4    0    0 -0.40373910765E+02 -0.53034976587E+02 -0.18817090217E+03  0.19962727728E+03  0.00000000000E+00 0. -1.
        -11    1    3    3    0    0  0.10928159123E+03  0.34831475031E+02 -0.30136716613E+02  0.11859139734E+03  0.00000000000E+00 0.  1.
         11    1    3    3    0    0  0.88932014744E+01 -0.31832984620E+02 -0.75038538786E+01  0.33893004667E+02  0.00000000000E+00 0. -1.
         21    1    1    2  502  501 -0.27825631352E+02  0.37383037922E+02 -0.12838949787E+03  0.13658557921E+03  0.00000000000E+00 0. -1.
<scales pt_clust_5="13000.00000" pt_clust_6="13000.00000" pt_clust_7="13000.00000" pt_clust_8="13000.00000" pt_clust_9="46.60212"></scales>
<clustering>
<clus scale="   46.602">  2  9  1 -1</clus>
<clus scale="   80.502">  5  6 -1 -1</clus>
<clus scale="   88.659">  7  8 -1 -1</clus>
<clus scale="  137.534">  2  5  1 -1</clus>
<clus scale="   46.602">  2  5  1 -1</clus>
</clustering>
</event>
<event>
 9    2  0.2984928E-005  0.9131744E+02  0.7546771E-02  0.1306389E+00
         -1   -1    0    0    0  501 -0.00000000000E+00  0.00000000000E+00  0.37207306506E+03  0.37207306506E+03  0.00000000000E+00 0.  1.
          2   -1    0    0  502    0  0.00000000000E+00 -0.00000000000E+00 -0.39365548191E+02  0.39365548191E+02  0.00000000000E+00 0. -1.
         24    2    1    2    0    0  0.21359982479E+01 -0.43494376671E+01  0.25679081595E+03  0.26915429026E+03  0.80492414002E+02 0.  0.
         23    2    1    2    0    0 -0.23750406822E+02 -0.94843202502E+01  0.61712703619E+02  0.11295329752E+03  0.91082135885E+02 0.  0.
        -11    1    3    3    0    0 -0.38252788391E+02  0.14122395427E+01  0.98118795491E+02  0.10532126219E+03  0.00000000000E+00 0.  1.
         12    1    3    3    0    0  0.40388786639E+02 -0.57616772098E+01  0.15867202046E+03  0.16383302807E+03  0.00000000000E+00 0. -1.
        -13    1    4    4    0    0 -0.55873653803E+02 -0.22992633993E+01  0.19068686929E+02  0.59082710014E+02  0.00000000000E+00 0.  1.
         13    1    4    4    0    0  0.32123246980E+02 -0.71850568509E+01  0.42644016690E+02  0.53870587503E+02  0.00000000000E+00 0. -1.
         21    1    1    2  502  501  0.21614408574E+02  0.13833757917E+02  0.14203997300E+02  0.29331025475E+02  0.00000000000E+00 0. -1.
<scales pt_clust_5="13000.00000" pt_clust_6="13000.00000" pt_clust_7="13000.00000" pt_clust_8="13000.00000" pt_clust_9="25.66234"></scales>
<clustering>
<clus scale="   25.662">  2  9  1 -1</clus>
<clus scale="   80.492">  5  6 -1 -1</clus>
<clus scale="   80.759">  1  5  2 -1</clus>
<clus scale="   91.082">  7  8 -1 -1</clus>
<clus scale="   25.662">  2  5  1 -1</clus>
</clustering>
</event>
<event>
 9    2  0.2984928E-005  0.1046781E+03  0.7546771E-02  0.1276751E+00
         -1   -1    0    0    0  501 -0.00000000000E+00  0.00000000000E+00  0.80712813500E+02  0.80712813500E+02  0.00000000000E+00 0.  1.
          2   -1    0    0  502    0  0.00000000000E+00 -0.00000000000E+00 -0.21645190505E+03  0.21645190505E+03  0.00000000000E+00 0. -1.
         24    2    1    2    0    0  0.27868346930E+02 -0.45697329213E+02  0.18640092155E+02  0.98044336167E+02  0.80002175977E+02 0.  0.
         23    2    1    2    0    0 -0.25019982779E+02  0.19405471321E+02 -0.11044629332E+03  0.14784198706E+03  0.93039225992E+02 0.  0.
        -13    1    3    3    0    0  0.32314457379E+02  0.96801276087E+01  0.25194541814E+02  0.42103372352E+02  0.00000000000E+00 0.  1.
         14    1    3    3    0    0 -0.44461104484E+01 -0.55377456822E+02 -0.65544496594E+01  0.55940963815E+02  0.00000000000E+00 0. -1.
        -13    1    4    4    0    0 -0.98450126448E+01 -0.33175497010E+02 -0.75109495818E+02  0.82698090896E+02  0.00000000000E+00 0.  1.
         13    1    4    4    0    0 -0.15174970134E+02  0.52580968331E+02 -0.35336797502E+02  0.65143896160E+02  0.00000000000E+00 0. -1.
         21    1    1    2  502  501 -0.28483641516E+01  0.26291857892E+02 -0.43932890388E+02  0.51278395330E+02  0.00000000000E+00 0. -1.
<scales pt_clust_5="13000.00000" pt_clust_6="13000.00000" pt_clust_7="13000.00000" pt_clust_8="13000.00000" pt_clust_9="26.44570"></scales>
<clustering>
<clus scale="   26.446">  2  9  1 -1</clus>
<clus scale="   80.002">  5  6 -1 -1</clus>
<clus scale="   93.039">  7  8 -1 -1</clus>
<clus scale="   93.282">  1  5  2 -1</clus>
<clus scale="   26.446">  2  5  1 -1</clus>
</clustering>
</event>
<event>
 9    2  0.2984928E-005  0.9126177E+02  0.7546771E-02  0.1306937E+00
         -3   -1    0    0    0  501 -0.00000000000E+00  0.00000000000E+00  0.32385021930E+03  0.32385021930E+03  0.00000000000E+00 0.  1.
          4   -1    0    0  502    0  0.00000000000E+00 -0.00000000000E+00 -0.12167754971E+03  0.12167754971E+03  0.00000000000E+00 0. -1.
         23    2    1    2    0    0 -0.32120423986E+01  0.97992003538E+01  0.28472415447E+03  0.29903798156E+03  0.90826916342E+02 0.  0.
         24    2    1    2    0    0  0.12935576735E+02  0.17095577819E+02 -0.84203952462E+02  0.11784355101E+03  0.79606588788E+02 0.  0.
        -11    1    4    4    0    0  0.82565590665E+01  0.48794299985E+02 -0.42367907066E+02  0.65146711565E+02  0.00000000000E+00 0.  1.
         12    1    4    4    0    0  0.46790176688E+01 -0.31698722166E+02 -0.41836045396E+02  0.52696839446E+02  0.00000000000E+00 0. -1.
        -11    1    3    3    0    0 -0.43100406031E+02 -0.11631227836E+02  0.11452101492E+03  0.12291457732E+03  0.00000000000E+00 0.  1.
         11    1    3    3    0    0  0.39888363633E+02  0.21430428190E+02  0.17020313955E+03  0.17612340424E+03  0.00000000000E+00 0. -1.
         21    1    1    2  502  501 -0.97235343366E+01 -0.26894778172E+02  0.16524675829E+01  0.28646236438E+02  0.00000000000E+00 0. -1.
<scales pt_clust_5="13000.00000" pt_clust_6="13000.00000" pt_clust_7="13000.00000" pt_clust_8="13000.00000" pt_clust_9="28.59854"></scales>
<clustering>
<clus scale="   28.599">  2  9  1 -1</clus>
<clus scale="   79.607">  5  6 -1 -1</clus>
<clus scale="   80.102">  2  5  1 -1</clus>
<clus scale="   90.827">  7  8 -1 -1</clus>
<clus scale="   28.599">  2  5  1 -1</clus>
</clustering>
</event>
<event>
 9    2  0.2984928E-005  0.1046761E+03  0.7546771E-02  0.1274858E+00
          4   -1    0    0  502    0  0.00000000000E+00  0.00000000000E+00  0.35765364658E+02  0.35765364658E+02  0.00000000000E+00 0. -1.
         -3   -1    0    0    0  501 -0.00000000000E+00 -0.00000000000E+00 -0.64233551901E+03  0.64233551901E+03  0.00000000000E+00 0.  1.
         23    2    1    2    0    0  0.36912313670E+02 -0.16989417863E+02 -0.28625192865E+03  0.30267974262E+03  0.89575112167E+02 0.  0.
         24    2    1    2    0    0 -0.47202062207E+02  0.52503130307E+02 -0.32114065391E+03  0.33843764358E+03  0.80150518621E+02 0.  0.
        -13    1    4    4    0    0 -0.45531103953E+02  0.28266593010E+02 -0.30404345507E+03  0.30873047190E+03  0.00000000000E+00 0.  1.
         14    1    4    4    0    0 -0.16709582539E+01  0.24236537297E+02 -0.17097198839E+02  0.29707171689E+02  0.00000000000E+00 0. -1.
        -11    1    3    3    0    0 -0.63048793610E+01 -0.40304966876E+02 -0.19325940066E+03  0.19751819613E+03  0.00000000000E+00 0.  1.
         11    1    3    3    0    0  0.43217193031E+02  0.23315549013E+02 -0.92992527982E+02  0.10516154649E+03  0.00000000000E+00 0. -1.
         21    1    1    2  502  501  0.10289748537E+02 -0.35513712444E+02  0.82242819941E+00  0.36983497464E+02  0.00000000000E+00 0.  1.
<scales pt_clust_5="13000.00000" pt_clust_6="13000.00000" pt_clust_7="13000.00000" pt_clust_8="13000.00000" pt_clust_9="36.97435"></scales>
<clustering>
<clus scale="   36.974">  1  9  2 -1</clus>
<clus scale="   80.151">  5  6 -1 -1</clus>
<clus scale="   89.575">  7  8 -1 -1</clus>
<clus scale="   96.734">  1  5  2 -1</clus>
<clus scale="   36.974">  1  5  2 -1</clus>
</clustering>
</event>
<event>
 9    2  0.2984928E-005  0.9347055E+02  0.7546771E-02  0.1300605E+00
         -1   -1    0    0    0  501 -0.00000000000E+00  0.00000000000E+00  0.78339855111E+02  0.78339855111E+02  0.00000000000E+00 0.  1.
          2   -1    0    0  502    0  0.00000000000E+00 -0.00000000000E+00 -0.39792398989E+03  0.39792398989E+03  0.00000000000E+00 0. -1.
         24    2    1    2    0    0  0.11809290275E+02 -0.60848749176E+01  0.40993673175E+02  0.92302892848E+02  0.81626329993E+02 0.  0.
         23    2    1    2    0    0 -0.10337844003E+02 -0.17493730712E+02 -0.33975340292E+03  0.35246854604E+03  0.91590389900E+02 0.  0.
        -13    1    3    3    0    0 -0.15594307529E+02  0.17265393767E+02  0.50037439053E+02  0.55181713966E+02  0.00000000000E+00 0.  1.
         14    1    3    3    0    0  0.27403597805E+02 -0.23350268685E+02 -0.90437658785E+01  0.37121178882E+02  0.00000000000E+00 0. -1.
        -13    1    4    4    0    0  0.59117220303E+01  0.32999340830E+02 -0.70822068559E+02  0.78356048570E+02  0.00000000000E+00 0.  1.
         13    1    4    4    0    0 -0.16249566033E+02 -0.50493071543E+02 -0.26893133436E+03  0.27411249747E+03  0.00000000000E+00 0. -1.
         21    1    1    2  502  501 -0.14714462727E+01  0.23578605630E+02 -0.20824405037E+02  0.31492406112E+02  0.00000000000E+00 0. -1.
<scales pt_clust_5="13000.00000" pt_clust_6="13000.00000" pt_clust_7="13000.00000" pt_clust_8="13000.00000" pt_clust_9="23.62447"></scales>
<clustering>
<clus scale="   23.624">  1  9  2 -1</clus>
<clus scale="   81.626">  5  6 -1 -1</clus>
<clus scale="   83.731">  1  5  2 -1</clus>
<clus scale="   91.590">  7  8 -1 -1</clus>
<clus scale="   93.471">  2  5  1 -1</clus>
</clustering>
</event>
<event>
 9    2  0.2984928E-005  0.1092032E+03  0.7546771E-02  0.1266328E+00
         -1   -1    0    0    0  501 -0.00000000000E+00  0.00000000000E+00  0.59454302211E+03  0.59454302211E+03  0.00000000000E+00 0.  1.
          2   -1    0    0  502    0  0.00000000000E+00 -0.00000000000E+00 -0.65555133727E+02  0.65555133727E+02  0.00000000000E+00 0. -1.
         23    2    1    2    0    0 -0.38223739571E+02 -0.66929875323E+02  0.32687717103E+03  0.34764212502E+03  0.89809240454E+02 0.  0.
         24    2    1    2    0    0  0.64649821730E+02  0.15149938190E+01  0.21749591071E+03  0.24024696826E+03  0.78944537043E+02 0.  0.
        -13    1    4    4    0    0  0.69950314014E+02  0.17639694824E+02  0.20932867218E+03  0.22141070043E+03  0.00000000000E+00 0.  1.
         14    1    4    4    0    0 -0.53004922840E+01 -0.16124701005E+02  0.81672385225E+01  0.18836267837E+02  0.00000000000E+00 0. -1.
        -11    1    3    3    0    0 -0.43771065285E+02  0.35578566234E+01  0.16976349320E+03  0.17535166986E+03  0.00000000000E+00 0.  1.
         11    1    3    3    0    0  0.55473257142E+01 -0.70487731946E+02  0.15711367783E+03  0.17229045516E+03  0.00000000000E+00 0. -1.
         21    1    1    2  502  501 -0.26426082159E+02  0.65414881504E+02 -0.15385193354E+02  0.72209062554E+02  0.00000000000E+00 0.  1.
<scales pt_clust_5="13000.00000" pt_clust_6="13000.00000" pt_clust_7="13000.00000" pt_clust_8="13000.00000" pt_clust_9="70.55101"></scales>
<clustering>
<clus scale="   70.551">  2  9  1 -1</clus>
<clus scale="   78.945">  5  6 -1 -1</clus>
<clus scale="   89.809">  7  8 -1 -1</clus>
<clus scale="  100.458">  2  5  1 -1</clus>
<clus scale="   70.551">  2  5  1 -1</clus>
</clustering>
</event>
<event>
 9    2  0.2984928E-005  0.1284591E+03  0.7546771E-02  0.1233456E+00
          2   -1    0    0  502    0  0.00000000000E+00  0.00000000000E+00  0.45280235226E+03  0.45280235226E+03  0.00000000000E+00 0. -1.
         -1   -1    0    0    0  501 -0.00000000000E+00 -0.00000000000E+00 -0.72572314677E+02  0.72572314677E+02  0.00000000000E+00 0.  1.
         23    2    1    2    0    0  0.20226732666E+02  0.92958020155E+02  0.11597071999E+02  0.13248155139E+03  0.91468875330E+02 0.  0.
         24    2    1    2    0    0 -0.30528059825E+02 -0.64270020930E+02  0.29166453545E+03  0.31010870954E+03  0.77695639941E+02 0.  0.
        -11    1    4    4    0    0 -0.30226262281E+02 -0.31845850267E+02  0.51114483538E+02  0.67383050822E+02  0.00000000000E+00 0.  1.
         12    1    4    4    0    0 -0.30179754397E+00 -0.32424170663E+02  0.24055005191E+03  0.24272565872E+03  0.00000000000E+00 0. -1.
        -13    1    3    3    0    0  0.36213182639E+02  0.56996217688E+02 -0.31159686336E+02  0.74369950115E+02  0.00000000000E+00 0.  1.
         13    1    3    3    0    0 -0.15986449973E+02  0.35961802467E+02  0.42756758335E+02  0.58111601275E+02  0.00000000000E+00 0. -1.
         21    1    1    2  502  501  0.10301327159E+02 -0.28687999225E+02  0.76968430136E+02  0.82784406010E+02  0.00000000000E+00 0. -1.
<scales pt_clust_5="13000.00000" pt_clust_6="13000.00000" pt_clust_7="13000.00000" pt_clust_8="13000.00000" pt_clust_9="30.48145"></scales>
<clustering>
<clus scale="   30.481">  1  9  2 -1</clus>
<clus scale="   77.696">  5  6 -1 -1</clus>
<clus scale="   91.469">  7  8 -1 -1</clus>
<clus scale="  119.045">  1  5  2 -1</clus>
<clus scale="   30.481">  1  5  2 -1</clus>
</clustering>
</event>
<event>
 9    2  0.2984928E-005  0.9868329E+02  0.7546771E-02  0.1289414E+00
          2   -1    0    0  502    0  0.00000000000E+00  0.00000000000E+00  0.18969033657E+04  0.18969033657E+04  0.00000000000E+00 0. -1.
         -1   -1    0    0    0  501 -0.00000000000E+00 -0.00000000000E+00 -0.35342304940E+02  0.35342304940E+02  0.00000000000E+00 0.  1.
         23    2    1    2    0    0 -0.24997529882E+01  0.33059036467E+02  0.47933677324E+02  0.10917780060E+03  0.92320128164E+02 0.  0.
         24    2    1    2    0    0  0.38359758403E+02 -0.66327852626E+02  0.16027488282E+04  0.16065903442E+04  0.80360891174E+02 0.  0.
        -11    1    4    4    0    0 -0.96000267507E+01 -0.18536220823E+02  0.92567206540E+02  0.94891726312E+02  0.00000000000E+00 0.  1.
         12    1    4    4    0    0  0.47959785154E+02 -0.47791631804E+02  0.15101816217E+04  0.15116986179E+04  0.00000000000E+00 0. -1.
        -13    1    3    3    0    0  0.30103124151E+02 -0.15364109375E+02  0.36404335370E+02  0.49674234512E+02  0.00000000000E+00 0. -1.
         13    1    3    3    0    0 -0.32602877140E+02  0.48423145842E+02  0.11529341954E+02  0.59503566085E+02  0.00000000000E+00 0.  1.
         21    1    1    2  502  501 -0.35860005415E+02  0.33268816160E+02  0.21087855522E+03  0.21647752578E+03  0.00000000000E+00 0.  1.
<scales pt_clust_5="13000.00000" pt_clust_6="13000.00000" pt_clust_7="13000.00000" pt_clust_8="13000.00000" pt_clust_9="48.91579"></scales>
<clustering>
<clus scale="   48.916">  1  9  2 -1</clus>
<clus scale="   80.361">  5  6 -1 -1</clus>
<clus scale="   87.597">  1  5  2 -1</clus>
<clus scale="   92.320">  7  8 -1 -1</clus>
<clus scale="   48.916">  1  5  2 -1</clus>
</clustering>
</event>
<event>
 9    2  0.2984928E-005  0.1024000E+03  0.7546771E-02  0.1279999E+00
         -1   -1    0    0    0  501 -0.00000000000E+00  0.00000000000E+00  0.30377754768E+02  0.30377754768E+02  0.00000000000E+00 0.  1.
          2   -1    0    0  502    0  0.00000000000E+00 -0.00000000000E+00 -0.10016041780E+04  0.10016041780E+04  0.00000000000E+00 0. -1.
         23    2    1    2    0    0  0.33066453993E+02 -0.38189347539E+02 -0.77171180719E+02  0.13003595620E+03  0.91663199411E+02 0.  0.
         24    2    1    2    0    0 -0.47673576963E+01  0.16939826021E+02 -0.62779859733E+03  0.63334779690E+03  0.81784274923E+02 0.  0.
        -11    1    4    4    0    0 -0.16132990976E+02 -0.17178052104E+02 -0.60760471909E+02  0.65170498069E+02  0.00000000000E+00 0.  1.
         12    1    4    4    0    0  0.11365633279E+02  0.34117878125E+02 -0.56703812542E+03  0.56817729884E+03  0.00000000000E+00 0. -1.
        -11    1    3    3    0    0 -0.17798819513E+02 -0.40320088927E+02 -0.90508093017E+01  0.44993607281E+02  0.00000000000E+00 0.  1.
         11    1    3    3    0    0  0.50865273506E+02  0.21307413880E+01 -0.68120371417E+02  0.85042348919E+02  0.00000000000E+00 0. -1.
         21    1    1    2  502  501 -0.28299096297E+02  0.21249521518E+02 -0.26625664520E+03  0.26859817968E+03  0.00000000000E+00 0.  1.
<scales pt_clust_5="13000.00000" pt_clust_6="13000.00000" pt_clust_7="13000.00000" pt_clust_8="13000.00000" pt_clust_9="35.38900"></scales>
<clustering>
<clus scale="   35.389">  2  9  1 -1</clus>
<clus scale="   81.784">  5  6 -1 -1</clus>
<clus scale="   91.663">  7  8 -1 -1</clus>
<clus scale="   93.661">  2  5  1 -1</clus>
<clus scale="   35.389">  2  5  1 -1</clus>
</clustering>
</event>
<event>
 9    2  0.2984928E-005  0.1391423E+03  0.7546771E-02  0.1224973E+00
          2   -1    0    0  502    0  0.00000000000E+00  0.00000000000E+00  0.16461594420E+04  0.16461594420E+04  0.00000000000E+00 0. -1.
         -1   -1    0    0    0  501 -0.00000000000E+00 -0.00000000000E+00 -0.35572522345E+02  0.35572522345E+02  0.00000000000E+00 0.  1.
         23    2    1    2    0    0 -0.43767103058E+02  0.69721981499E+02  0.20007905686E+03  0.23617637032E+03  0.94715019329E+02 0.  0.
         24    2    1    2    0    0 -0.71764863224E+02  0.35643626861E+01  0.11072537344E+04  0.11128671664E+04  0.85437681830E+02 0.  0.
        -13    1    4    4    0    0 -0.22137948937E+02 -0.20462146279E+02  0.10900188026E+03  0.11309375807E+03  0.00000000000E+00 0.  1.
         14    1    4    4    0    0 -0.49626914287E+02  0.24026508965E+02  0.99825185417E+03  0.99977340838E+03  0.00000000000E+00 0. -1.
        -11    1    3    3    0    0 -0.16203407183E+02  0.24871612747E+02  0.41296947634E+00  0.29687001680E+02  0.00000000000E+00 0.  1.
         11    1    3    3    0    0 -0.27563695875E+02  0.44850368752E+02  0.19966608739E+03  0.20648936864E+03  0.00000000000E+00 0. -1.
         21    1    1    2  502  501  0.11553196628E+03 -0.73286344185E+02  0.30325412836E+03  0.33268842758E+03  0.00000000000E+00 0. -1.
<scales pt_clust_5="13000.00000" pt_clust_6="13000.00000" pt_clust_7="13000.00000" pt_clust_8="13000.00000" pt_clust_9="101.92957"></scales>
<clustering>
<clus scale="   85.438">  5  6 -1 -1</clus>
<clus scale="   94.715">  7  8 -1 -1</clus>
<clus scale="  111.636">  1  5  2 -1</clus>
<clus scale="  101.930">  1  9  2 -1</clus>
<clus scale="  111.636">  1  5  2 -1</clus>
</clustering>
</event>
<event>
 9    2  0.2984928E-005  0.1070786E+03  0.7546771E-02  0.1270274E+00
          2   -1    0    0  502    0  0.00000000000E+00  0.00000000000E+00  0.36398176055E+03  0.36398176055E+03  0.00000000000E+00 0. -1.
         -1   -1    0    0    0  501 -0.00000000000E+00 -0.00000000000E+00 -0.53412631724E+02  0.53412631724E+02  0.00000000000E+00 0.  1.
         23    2    1    2    0    0 -0.42887916447E+02  0.41973372227E+02  0.34735244425E+02  0.11361685021E+03  0.90006189197E+02 0.  0.
         24    2    1    2    0    0  0.54554238162E+02 -0.15944061458E+02  0.22628581586E+03  0.24660552812E+03  0.79866376180E+02 0.  0.
        -13    1    4    4    0    0  0.32667304525E+02 -0.30654769463E+02  0.45305062122E+02  0.63713549027E+02  0.00000000000E+00 0.  1.
         14    1    4    4    0    0  0.21886933638E+02  0.14710708005E+02  0.18098075374E+03  0.18289197910E+03  0.00000000000E+00 0. -1.
        -11    1    3    3    0    0 -0.24020016572E+02  0.55212406749E+02  0.56021433156E+02  0.82242154812E+02  0.00000000000E+00 0. -1.
         11    1    3    3    0    0 -0.18867899876E+02 -0.13239034522E+02 -0.21286188732E+02  0.31374695401E+02  0.00000000000E+00 0.  1.
         21    1    1    2  502  501 -0.11666321715E+02 -0.26029310769E+02  0.49548068540E+02  0.57172013936E+02  0.00000000000E+00 0.  1.
<scales pt_clust_5="13000.00000" pt_clust_6="13000.00000" pt_clust_7="13000.00000" pt_clust_8="13000.00000" pt_clust_9="28.52417"></scales>
<clustering>
<clus scale="   28.524">  1  9  2 -1</clus>
<clus scale="   79.866">  5  6 -1 -1</clus>
<clus scale="   90.006">  7  8 -1 -1</clus>
<clus scale="   98.708">  1  5  2 -1</clus>
<clus scale="   28.524">  1  5  2 -1</clus>
</clustering>
</event>
<event>
 9    2  0.2984928E-005  0.1244305E+03  0.7546771E-02  0.1240438E+00
          2   -1    0    0  502    0  0.00000000000E+00  0.00000000000E+00  0.34246296447E+03  0.34246296447E+03  0.00000000000E+00 0. -1.
         -1   -1    0    0    0  501 -0.00000000000E+00 -0.00000000000E+00 -0.10007957667E+03  0.10007957667E+03  0.00000000000E+00 0.  1.
         24    2    1    2    0    0 -0.59092537028E+02  0.95737354020E+02  0.73259790830E+01  0.13923199490E+03  0.81696447585E+02 0.  0.
         23    2    1    2    0    0  0.20525941516E+02 -0.20484107070E+02  0.87488986812E+02  0.13323152751E+03  0.96205011259E+02 0.  0.
        -13    1    3    3    0    0 -0.74244324330E+02  0.60461151359E+02 -0.11563401052E+02  0.96444195070E+02  0.00000000000E+00 0.  1.
         14    1    3    3    0    0  0.15151787302E+02  0.35276202661E+02  0.18889380135E+02  0.42787799833E+02  0.00000000000E+00 0. -1.
        -11    1    4    4    0    0  0.33755857752E+02 -0.52414198705E+02  0.38485040702E+02  0.73265302267E+02  0.00000000000E+00 0. -1.
         11    1    4    4    0    0 -0.13229916236E+02  0.31930091635E+02  0.49003946110E+02  0.59966225242E+02  0.00000000000E+00 0.  1.
         21    1    1    2  502  501  0.38566595511E+02 -0.75253246950E+02  0.14756842191E+03  0.17007901872E+03  0.00000000000E+00 0. -1.
<scales pt_clust_5="13000.00000" pt_clust_6="13000.00000" pt_clust_7="13000.00000" pt_clust_8="13000.00000" pt_clust_9="84.56024"></scales>
<clustering>
<clus scale="   81.696">  5  6 -1 -1</clus>
<clus scale="   84.560">  1  9  2 -1</clus>
<clus scale="   96.205">  7  8 -1 -1</clus>
<clus scale="  113.586">  2  5  1 -1</clus>
<clus scale="   84.560">  1  5  2 -1</clus>
</clustering>
</event>
<event>
 9    2  0.2984928E-005  0.9744890E+02  0.7546771E-02  0.1292249E+00
         -1   -1    0    0    0  501 -0.00000000000E+00  0.00000000000E+00  0.96044289828E+02  0.96044289828E+02  0.00000000000E+00 0.  1.
          2   -1    0    0  502    0  0.00000000000E+00 -0.00000000000E+00 -0.40682717048E+03  0.40682717048E+03  0.00000000000E+00 0. -1.
         24    2    1    2    0    0 -0.23364342467E+02 -0.29378692482E+02  0.61025605144E+02  0.10671114253E+03  0.79083142242E+02 0.  0.
         23    2    1    2    0    0  0.79789606995E+01  0.53404746979E+01 -0.17748991406E+03  0.19975702552E+03  0.91148314126E+02 0.  0.
        -11    1    3    3    0    0 -0.24444398467E+02 -0.50763067504E+02  0.18849898658E+02  0.59411584041E+02  0.00000000000E+00 0.  1.
         12    1    3    3    0    0  0.10800560000E+01  0.21384375022E+02  0.42175706486E+02  0.47299558493E+02  0.00000000000E+00 0. -1.
        -13    1    4    4    0    0  0.24196435530E+02  0.25190605751E+02 -0.16927350869E+03  0.17283967963E+03  0.00000000000E+00 0. -1.
         13    1    4    4    0    0 -0.16217474831E+02 -0.19850131053E+02 -0.82164053738E+01  0.26917345894E+02  0.00000000000E+00 0.  1.
         21    1    1    2  502  501  0.15385381767E+02  0.24038217784E+02 -0.19431857173E+03  0.19640329225E+03  0.00000000000E+00 0. -1.
<scales pt_clust_5="13000.00000" pt_clust_6="13000.00000" pt_clust_7="13000.00000" pt_clust_8="13000.00000" pt_clust_9="28.54025"></scales>
<clustering>
<clus scale="   28.540">  2  9  1 -1</clus>
<clus scale="   79.083">  5  6 -1 -1</clus>
<clus scale="   86.269">  1  5  2 -1</clus>
<clus scale="   91.148">  7  8 -1 -1</clus>
<clus scale="   28.540">  2  5  1 -1</clus>
</clustering>
</event>
<event>
 9    2  0.2984928E-005  0.1098455E+03  0.7546771E-02  0.1271629E+00
          2   -1    0    0  502    0  0.00000000000E+00  0.00000000000E+00  0.42959319239E+03  0.42959319239E+03  0.00000000000E+00 0. -1.
         -1   -1    0    0    0  501 -0.00000000000E+00 -0.00000000000E+00 -0.40594032250E+02  0.40594032250E+02  0.00000000000E+00 0.  1.
         23    2    1    2    0    0  0.10484841814E+02  0.50289542730E+02  0.75819528909E+02  0.13664126712E+03  0.10140643422E+03 0.  0.
         24    2    1    2    0    0 -0.11428625873E+02 -0.23472005335E+02  0.18561222707E+03  0.20318678582E+03  0.78431005166E+02 0.  0.
        -11    1    4    4    0    0  0.12371967285E+02  0.21795081839E+02  0.28458244537E+02  0.37920480601E+02  0.00000000000E+00 0.  1.
         12    1    4    4    0    0 -0.23800593157E+02 -0.45267087174E+02  0.15715398253E+03  0.16526630522E+03  0.00000000000E+00 0. -1.
        -13    1    3    3    0    0  0.29220243589E+02 -0.20371762080E+02  0.44785103121E+02  0.57223568459E+02  0.00000000000E+00 0. -1.
         13    1    3    3    0    0 -0.18735401776E+02  0.70661304810E+02  0.31034425788E+02  0.79417698664E+02  0.00000000000E+00 0.  1.
         21    1    1    2  502  501  0.94378405899E+00 -0.26817537395E+02  0.12756740416E+03  0.13035917169E+03  0.00000000000E+00 0. -1.
<scales pt_clust_5="13000.00000" pt_clust_6="13000.00000" pt_clust_7="13000.00000" pt_clust_8="13000.00000" pt_clust_9="26.83414"></scales>
<clustering>
<clus scale="   26.834">  1  9  2 -1</clus>
<clus scale="   78.431">  5  6 -1 -1</clus>
<clus scale="   89.074">  1  5  2 -1</clus>
<clus scale="  101.406">  7  8 -1 -1</clus>
<clus scale="   26.834">  1  5  2 -1</clus>
</clustering>
</event>
<event>
 9    2  0.2984928E-005  0.1457527E+03  0.7546771E-02  0.1225265E+00
         -1   -1    0    0    0  501 -0.00000000000E+00  0.00000000000E+00  0.42437333537E+02  0.42437333537E+02  0.00000000000E+00 0.  1.
          2   -1    0    0  502    0  0.00000000000E+00 -0.00000000000E+00 -0.77937894958E+03  0.77937894958E+03  0.00000000000E+00 0. -1.
         23    2    1    2    0    0  0.56721292503E+02 -0.69634988774E+02 -0.31562750392E+03  0.34053370541E+03  0.90973329080E+02 0.  0.
         24    2    1    2    0    0  0.60520348742E+02  0.47763412351E+01 -0.20912534763E+03  0.23033174910E+03  0.75058494355E+02 0.  0.
        -11    1    4    4    0    0  0.54245962195E+02 -0.50484288814E+01 -0.61153952114E+02  0.81901873652E+02  0.00000000000E+00 0.  1.
         12    1    4    4    0    0  0.62743865473E+01  0.98247701165E+01 -0.14797139552E+03  0.14842987545E+03  0.00000000000E+00 0. -1.
        -13    1    3    3    0    0  0.24199469275E+02 -0.87018578574E+02 -0.23892536983E+03  0.25542744504E+03  0.00000000000E+00 0. -1.
         13    1    3    3    0    0  0.32521823228E+02  0.17383589800E+02 -0.76702134096E+02  0.85106260377E+02  0.00000000000E+00 0.  1.
         21    1    1    2  502  501 -0.11724164124E+03  0.64858647539E+02 -0.21218876449E+03  0.25095082861E+03  0.00000000000E+00 0.  1.
<scales pt_clust_5="13000.00000" pt_clust_6="13000.00000" pt_clust_7="13000.00000" pt_clust_8="13000.00000" pt_clust_9="113.87588"></scales>
<clustering>
<clus scale="   75.058">  5  6 -1 -1</clus>
<clus scale="   90.973">  7  8 -1 -1</clus>
<clus scale="   96.537">  2  5  1 -1</clus>
<clus scale="  113.876">  1  9  2 -1</clus>
<clus scale="   96.537">  2  5  1 -1</clus>
</clustering>
</event>
<event>
 9    2  0.2984928E-005  0.9536998E+02  0.7546771E-02  0.1296796E+00
         -1   -1    0    0    0  501 -0.00000000000E+00  0.00000000000E+00  0.45385362138E+02  0.45385362138E+02  0.00000000000E+00 0.  1.
          2   -1    0    0  502    0  0.00000000000E+00 -0.00000000000E+00 -0.49678016173E+03  0.49678016173E+03  0.00000000000E+00 0. -1.
         24    2    1    2    0    0  0.24819747630E+02  0.73850786806E+01 -0.13878973825E+02  0.84572811996E+02  0.79305582117E+02 0.  0.
         23    2    1    2    0    0 -0.47776644560E+02 -0.17022265100E+02 -0.29170551450E+03  0.30967198530E+03  0.90731835719E+02 0.  0.
        -11    1    3    3    0    0 -0.21709917991E+02  0.12145067755E+02  0.15527224551E+02  0.29324356979E+02  0.00000000000E+00 0.  1.
         12    1    3    3    0    0  0.46529665622E+02 -0.47599890745E+01 -0.29406198376E+02  0.55248455017E+02  0.00000000000E+00 0. -1.
        -11    1    4    4    0    0  0.64478487892E+01 -0.20526772390E+02 -0.11796016394E+02  0.24537097251E+02  0.00000000000E+00 0.  1.
         11    1    4    4    0    0 -0.54224493349E+02  0.35045072900E+01 -0.27990949811E+03  0.28513488805E+03  0.00000000000E+00 0. -1.
         21    1    1    2  502  501  0.22956896930E+02  0.96371864192E+01 -0.14581031127E+03  0.14792072657E+03  0.00000000000E+00 0. -1.
<scales pt_clust_5="13000.00000" pt_clust_6="13000.00000" pt_clust_7="13000.00000" pt_clust_8="13000.00000" pt_clust_9="24.89768"></scales>
<clustering>
<clus scale="   24.898">  2  9  1 -1</clus>
<clus scale="   79.306">  5  6 -1 -1</clus>
<clus scale="   84.573">  1  5  2 -1</clus>
<clus scale="   90.732">  7  8 -1 -1</clus>
<clus scale="   24.898">  2  5  1 -1</clus>
</clustering>
</event>
<event>
 9    2  0.2984928E-005  0.1644717E+03  0.7546771E-02  0.1185117E+00
          2   -1    0    0  502    0  0.00000000000E+00  0.00000000000E+00  0.16684536238E+03  0.16684536238E+03  0.00000000000E+00 0. -1.
         -1   -1    0    0    0  501 -0.00000000000E+00 -0.00000000000E+00 -0.21473537761E+03  0.21473537761E+03  0.00000000000E+00 0.  1.
         23    2    1    2    0    0 -0.95689669797E+02 -0.11197157790E+03 -0.10109235410E+03  0.19980628482E+03  0.89491565149E+02 0.  0.
         24    2    1    2    0    0  0.76436660852E+02  0.93583472109E+02  0.33690515649E+02  0.14876669798E+03  0.79975310003E+02 0.  0.
        -11    1    4    4    0    0  0.40842703744E+02  0.15053157661E+02 -0.19245039785E+02  0.47593020087E+02  0.00000000000E+00 0.  1.
         12    1    4    4    0    0  0.35593957108E+02  0.78530314449E+02  0.52935555435E+02  0.10117367790E+03  0.00000000000E+00 0. -1.
        -11    1    3    3    0    0 -0.92147230292E+02 -0.78886288754E+02 -0.11168459631E+03  0.16488665094E+03  0.00000000000E+00 0.  1.
         11    1    3    3    0    0 -0.35424395042E+01 -0.33085289147E+02  0.10592242209E+02  0.34919633884E+02  0.00000000000E+00 0. -1.
         21    1    1    2  502  501  0.19253008945E+02  0.18388105792E+02  0.19511823226E+02  0.33007757174E+02  0.00000000000E+00 0. -1.
<scales pt_clust_5="13000.00000" pt_clust_6="13000.00000" pt_clust_7="13000.00000" pt_clust_8="13000.00000" pt_clust_9="26.62331"></scales>
<clustering>
<clus scale="   26.623">  1  9  2 -1</clus>
<clus scale="   79.975">  5  6 -1 -1</clus>
<clus scale="   89.492">  7  8 -1 -1</clus>
<clus scale="  159.494">  1  5  2 -1</clus>
<clus scale="   26.623">  1  5  2 -1</clus>
</clustering>
</event>
<event>
 9    2  0.2984928E-005  0.1002670E+03  0.7546771E-02  0.1285881E+00
          2   -1    0    0  502    0  0.00000000000E+00  0.00000000000E+00  0.68429031371E+02  0.68429031371E+02  0.00000000000E+00 0. -1.
         -1   -1    0    0    0  501 -0.00000000000E+00 -0.00000000000E+00 -0.28374443594E+03  0.28374443594E+03  0.00000000000E+00 0.  1.
         23    2    1    2    0    0  0.29493876247E+02 -0.26010885979E+02 -0.21375427623E+03  0.23603232622E+03  0.92053861901E+02 0.  0.
         24    2    1    2    0    0 -0.17115309164E+02  0.42199720771E+02  0.10321339970E+02  0.92550881487E+02  0.79908606321E+02 0.  0.
        -13    1    4    4    0    0  0.22624172000E+02 -0.10230841983E+02 -0.41888471407E+01  0.25180741187E+02  0.00000000000E+00 0.  1.
         14    1    4    4    0    0 -0.39739481164E+02  0.52430562755E+02  0.14510187111E+02  0.67370140299E+02  0.00000000000E+00 0. -1.
        -11    1    3    3    0    0  0.16534253898E+02 -0.47240653378E+02 -0.20274584038E+03  0.20883231712E+03  0.00000000000E+00 0.  1.
         11    1    3    3    0    0  0.12959622349E+02  0.21229767399E+02 -0.11008435849E+02  0.27200009101E+02  0.00000000000E+00 0. -1.
         21    1    1    2  502  501 -0.12378567082E+02 -0.16188834792E+02 -0.11882468313E+02  0.23590259603E+02  0.00000000000E+00 0. -1.
<scales pt_clust_5="13000.00000" pt_clust_6="13000.00000" pt_clust_7="13000.00000" pt_clust_8="13000.00000" pt_clust_9="20.37909"></scales>
<clustering>
<clus scale="   20.379">  1  9  2 -1</clus>
<clus scale="   79.909">  5  6 -1 -1</clus>
<clus scale="   89.246">  1  5  2 -1</clus>
<clus scale="   92.054">  7  8 -1 -1</clus>
<clus scale="   20.379">  1  5  2 -1</clus>
</clustering>
</event>
<event>
 9    2  0.2984928E-005  0.9027996E+02  0.7546771E-02  0.1308674E+00
          2   -1    0    0  502    0  0.00000000000E+00  0.00000000000E+00  0.75868067605E+03  0.75868067605E+03  0.00000000000E+00 0. -1.
         -1   -1    0    0    0  501 -0.00000000000E+00 -0.00000000000E+00 -0.20375041390E+02  0.20375041390E+02  0.00000000000E+00 0.  1.
         23    2    1    2    0    0 -0.73772841806E+01  0.31105772751E+02  0.14669132528E+03  0.17489410654E+03  0.89708473226E+02 0.  0.
         24    2    1    2    0    0  0.43720978095E+01 -0.42749890680E+01  0.54051979508E+03  0.54637258522E+03  0.79523343955E+02 0.  0.
        -11    1    4    4    0    0 -0.17864580791E+02 -0.16626178160E+02  0.54814559197E+02  0.60001741199E+02  0.00000000000E+00 0.  1.
         12    1    4    4    0    0  0.22236678600E+02  0.12351189092E+02  0.48570523588E+03  0.48637084402E+03  0.00000000000E+00 0. -1.
        -11    1    3    3    0    0  0.32819884085E+02  0.36254964732E+02  0.49457098747E+02  0.69552655416E+02  0.00000000000E+00 0.  1.
         11    1    3    3    0    0 -0.40197168265E+02 -0.51491919808E+01  0.97234226533E+02  0.10534145112E+03  0.00000000000E+00 0. -1.
         21    1    1    2  502  501  0.30051863711E+01 -0.26830783683E+02  0.51094514300E+02  0.57789025686E+02  0.00000000000E+00 0. -1.
<scales pt_clust_5="13000.00000" pt_clust_6="13000.00000" pt_clust_7="13000.00000" pt_clust_8="13000.00000" pt_clust_9="26.99856"></scales>
<clustering>
<clus scale="   26.999">  2  9  1 -1</clus>
<clus scale="   79.523">  5  6 -1 -1</clus>
<clus scale="   80.167">  1  5  2 -1</clus>
<clus scale="   89.708">  7  8 -1 -1</clus>
<clus scale="   80.167">  1  5  2 -1</clus>
</clustering>
</event>
<event>
 9    2  0.2984928E-005  0.1401472E+03  0.7546771E-02  0.1217422E+00
          2   -1    0    0  502    0  0.00000000000E+00  0.00000000000E+00  0.76064941142E+03  0.76064941142E+03  0.00000000000E+00 0. -1.
         -1   -1    0    0    0  501 -0.00000000000E+00 -0.00000000000E+00 -0.31121637105E+02  0.31121637105E+02  0.00000000000E+00 0.  1.
         24    2    1    2    0    0  0.76620946628E+01  0.10522325927E+03  0.25999215580E+03  0.29053984797E+03  0.75411141037E+02 0.  0.
         23    2    1    2    0    0 -0.37115140138E+02 -0.96384765624E+02  0.33262274209E+03  0.36090751550E+03  0.94598041831E+02 0.  0.
        -13    1    3    3    0    0 -0.10078360737E+02  0.98733065867E+02  0.15634408467E+03  0.18518440664E+03  0.00000000000E+00 0.  1.
         14    1    3    3    0    0  0.17740455400E+02  0.64901933998E+01  0.10364807113E+03  0.10535544133E+03  0.00000000000E+00 0. -1.
        -13    1    4    4    0    0  0.32019552745E+02 -0.27901688288E+02  0.90897092976E+02  0.10032964407E+03  0.00000000000E+00 0.  1.
         13    1    4    4    0    0 -0.69134692883E+02 -0.68483077336E+02  0.24172564911E+03  0.26057787143E+03  0.00000000000E+00 0. -1.
         21    1    1    2  502  501  0.29453045475E+02 -0.88384936425E+01  0.13691287642E+03  0.14032368506E+03  0.00000000000E+00 0.  1.
<scales pt_clust_5="13000.00000" pt_clust_6="13000.00000" pt_clust_7="13000.00000" pt_clust_8="13000.00000" pt_clust_9="30.75062"></scales>
<clustering>
<clus scale="   30.751">  1  9  2 -1</clus>
<clus scale="   75.411">  5  6 -1 -1</clus>
<clus scale="   94.598">  7  8 -1 -1</clus>
<clus scale="  127.982">  2  5  1 -1</clus>
<clus scale="   30.751">  1  5  2 -1</clus>
</clustering>
</event>
<event>
 9    2  0.2984928E-005  0.1223616E+03  0.7546771E-02  0.1254022E+00
          4   -1    0    0  502    0  0.00000000000E+00  0.00000000000E+00  0.17812437918E+03  0.17812437918E+03  0.00000000000E+00 0. -1.
         -3   -1    0    0    0  501 -0.00000000000E+00 -0.00000000000E+00 -0.48907575572E+03  0.48907575572E+03  0.00000000000E+00 0.  1.
         23    2    1    2    0    0 -0.79619351544E+02 -0.20955574126E+02 -0.41822457898E+03  0.43567882836E+03  0.90143584309E+02 0.  0.
         24    2    1    2    0    0 -0.10795229246E+02  0.36130903199E+02  0.10622278210E+03  0.13983602738E+03  0.82757815201E+02 0.  0.
        -11    1    4    4    0    0  0.35126463156E+01 -0.26196606830E+02  0.24252344468E+02  0.35871675536E+02  0.00000000000E+00 0.  1.
         12    1    4    4    0    0 -0.14307875562E+02  0.62327510029E+02  0.81970437632E+02  0.10396435185E+03  0.00000000000E+00 0. -1.
        -11    1    3    3    0    0 -0.89453875105E+02 -0.39446618202E+02 -0.29753223189E+03  0.31318279083E+03  0.00000000000E+00 0.  1.
         11    1    3    3    0    0  0.98345235614E+01  0.18491044076E+02 -0.12069234709E+03  0.12249603753E+03  0.00000000000E+00 0. -1.
         21    1    1    2  502  501  0.90414580790E+02 -0.15175329073E+02  0.10504203328E+01  0.91685279161E+02  0.00000000000E+00 0. -1.
<scales pt_clust_5="13000.00000" pt_clust_6="13000.00000" pt_clust_7="13000.00000" pt_clust_8="13000.00000" pt_clust_9="82.74349"></scales>
<clustering>
<clus scale="   82.758">  5  6 -1 -1</clus>
<clus scale="   90.144">  7  8 -1 -1</clus>
<clus scale="   90.944">  1  5  2 -1</clus>
<clus scale="   82.743">  1  9  2 -1</clus>
<clus scale="   90.944">  1  5  2 -1</clus>
</clustering>
</event>
<event>
 9    2  0.2984928E-005  0.1690032E+03  0.7546771E-02  0.1203989E+00
          4   -1    0    0  502    0  0.00000000000E+00  0.00000000000E+00  0.66010994302E+03  0.66010994302E+03  0.00000000000E+00 0. -1.
         -3   -1    0    0    0  501 -0.00000000000E+00 -0.00000000000E+00 -0.12676641358E+03  0.12676641358E+03  0.00000000000E+00 0.  1.
         23    2    1    2    0    0 -0.12180241843E+03  0.59124002933E+02 -0.22631886916E+02  0.16586844849E+03  0.93105655263E+02 0.  0.
         24    2    1    2    0    0 -0.19993318530E+02  0.46088847676E+02  0.15609967381E+03  0.18388505990E+03  0.83202718855E+02 0.  0.
        -13    1    4    4    0    0 -0.15990989342E+02 -0.19784243299E+02  0.75750098611E+02  0.79907480643E+02  0.00000000000E+00 0.  1.
         14    1    4    4    0    0 -0.40023291881E+01  0.65873090976E+02  0.80349575199E+02  0.10397757926E+03  0.00000000000E+00 0. -1.
        -13    1    3    3    0    0 -0.48712406035E+02 -0.15976051867E+02  0.16727032193E+02  0.53925192081E+02  0.00000000000E+00 0. -1.
         13    1    3    3    0    0 -0.73090012396E+02  0.75100054800E+02 -0.39358919109E+02  0.11194325641E+03  0.00000000000E+00 0.  1.
         21    1    1    2  502  501  0.14179573696E+03 -0.10521285061E+03  0.39987574254E+03  0.43712284821E+03  0.00000000000E+00 0. -1.
<scales pt_clust_5="13000.00000" pt_clust_6="13000.00000" pt_clust_7="13000.00000" pt_clust_8="13000.00000" pt_clust_9="141.04408"></scales>
<clustering>
<clus scale="   83.203">  5  6 -1 -1</clus>
<clus scale="   93.106">  7  8 -1 -1</clus>
<clus scale="   97.194">  1  5  2 -1</clus>
<clus scale="  141.044">  1  9  2 -1</clus>
<clus scale="   97.194">  1  5  2 -1</clus>
</clustering>
</event>
<event>
 9    2  0.2984928E-005  0.1093993E+03  0.7546771E-02  0.1267220E+00
         -1   -1    0    0    0  501 -0.00000000000E+00  0.00000000000E+00  0.33447764603E+02  0.33447764603E+02  0.00000000000E+00 0.  1.
          2   -1    0    0  502    0  0.00000000000E+00 -0.00000000000E+00 -0.48567114653E+03  0.48567114653E+03  0.00000000000E+00 0. -1.
         23    2    1    2    0    0  0.56912555110E+02  0.43667463015E+01 -0.14540280468E+03  0.18182270851E+03  0.93055974115E+02 0.  0.
         24    2    1    2    0    0 -0.55708446176E+02  0.32721909884E+02 -0.21238380423E+03  0.23583033450E+03  0.79592160479E+02 0.  0.
        -11    1    4    4    0    0 -0.43761999827E+02 -0.49938852842E+01 -0.41814789175E+02  0.60733253765E+02  0.00000000000E+00 0.  1.
         12    1    4    4    0    0 -0.11946446349E+02  0.37715795169E+02 -0.17056901505E+03  0.17509708073E+03  0.00000000000E+00 0. -1.
        -13    1    3    3    0    0  0.77331651540E+02  0.23337039579E+02 -0.10001517789E+03  0.12856063766E+03  0.00000000000E+00 0. -1.
         13    1    3    3    0    0 -0.20419096429E+02 -0.18970293277E+02 -0.45387626783E+02  0.53262070848E+02  0.00000000000E+00 0.  1.
         21    1    1    2  502  501 -0.12041089340E+01 -0.37088656186E+02 -0.94436773024E+02  0.10146586813E+03  0.00000000000E+00 0. -1.
<scales pt_clust_5="13000.00000" pt_clust_6="13000.00000" pt_clust_7="13000.00000" pt_clust_8="13000.00000" pt_clust_9="37.10820"></scales>
<clustering>
<clus scale="   37.108">  2  9  1 -1</clus>
<clus scale="   79.592">  5  6 -1 -1</clus>
<clus scale="   93.056">  7  8 -1 -1</clus>
<clus scale="   98.202">  2  5  1 -1</clus>
<clus scale="   37.108">  2  5  1 -1</clus>
</clustering>
</event>
<event>
 9    2  0.2984928E-005  0.9836147E+02  0.7546771E-02  0.1286571E+00
          2   -1    0    0  502    0  0.00000000000E+00  0.00000000000E+00  0.27246578932E+03  0.27246578932E+03  0.00000000000E+00 0. -1.
         -1   -1    0    0    0  501 -0.00000000000E+00 -0.00000000000E+00 -0.69576685442E+02  0.69576685442E+02  0.00000000000E+00 0.  1.
         24    2    1    2    0    0  0.19450109842E+02 -0.22241321271E+02 -0.12939184053E+02  0.86021308486E+02  0.79744967772E+02 0.  0.
         23    2    1    2    0    0 -0.25440258289E+02  0.46569825989E+02  0.20563378376E+03  0.22897147246E+03  0.85596300997E+02 0.  0.
        -13    1    3    3    0    0  0.20509314200E+02 -0.12950501133E+02 -0.45815928107E+02  0.51840589473E+02  0.00000000000E+00 0.  1.
         14    1    3    3    0    0 -0.10592043588E+01 -0.92908201380E+01  0.32876744053E+02  0.34180719013E+02  0.00000000000E+00 0. -1.
        -11    1    4    4    0    0 -0.40141338861E+02 -0.87973519076E+01  0.62497904580E+02  0.74797784479E+02  0.00000000000E+00 0.  1.
         11    1    4    4    0    0  0.14701080572E+02  0.55367177897E+02  0.14313587918E+03  0.15417368798E+03  0.00000000000E+00 0. -1.
         21    1    1    2  502  501  0.59901484472E+01 -0.24328504718E+02  0.10194504178E+02  0.27049693819E+02  0.00000000000E+00 0.  1.
<scales pt_clust_5="13000.00000" pt_clust_6="13000.00000" pt_clust_7="13000.00000" pt_clust_8="13000.00000" pt_clust_9="25.05510"></scales>
<clustering>
<clus scale="   25.055">  2  9  1 -1</clus>
<clus scale="   79.745">  5  6 -1 -1</clus>
<clus scale="   85.596">  7  8 -1 -1</clus>
<clus scale="   93.314">  2  5  1 -1</clus>
<clus scale="   98.361">  1  5  2 -1</clus>
</clustering>
</event>
<event>
 9    2  0.2984928E-005  0.9153466E+02  0.7546771E-02  0.1305189E+00
         -1   -1    0    0    0  501 -0.00000000000E+00  0.00000000000E+00  0.17179788714E+03  0.17179788714E+03  0.00000000000E+00 0.  1.
          2   -1    0    0  502    0  0.00000000000E+00 -0.00000000000E+00 -0.12571314774E+03  0.12571314774E+03  0.00000000000E+00 0. -1.
         23    2    1    2    0    0  0.36427151514E+02  0.19548549538E+01  0.11492679498E+03  0.15081539771E+03  0.90588946109E+02 0.  0.
         24    2    1    2    0    0 -0.10204908110E+02  0.53851389555E+00 -0.83363623595E+02  0.11661742453E+03  0.80905499315E+02 0.  0.
        -13    1    4    4    0    0  0.93108841143E+01  0.37387156073E+02 -0.29641294515E+02  0.48611709935E+02  0.00000000000E+00 0.  1.
         14    1    4    4    0    0 -0.19515792224E+02 -0.36848642178E+02 -0.53722329080E+02  0.68005714600E+02  0.00000000000E+00 0. -1.
        -13    1    3    3    0    0  0.17477462887E+02  0.44439537007E+02  0.77847180691E+02  0.91326434836E+02  0.00000000000E+00 0. -1.
         13    1    3    3    0    0  0.18949688627E+02 -0.42484682053E+02  0.37079614293E+02  0.59488962878E+02  0.00000000000E+00 0.  1.
         21    1    1    2  502  501 -0.26222243404E+02 -0.24933688494E+01  0.14521568014E+02  0.30078212629E+02  0.00000000000E+00 0. -1.
<scales pt_clust_5="13000.00000" pt_clust_6="13000.00000" pt_clust_7="13000.00000" pt_clust_8="13000.00000" pt_clust_9="26.34052"></scales>
<clustering>
<clus scale="   26.341">  1  9  2 -1</clus>
<clus scale="   80.905">  5  6 -1 -1</clus>
<clus scale="   81.963">  2  5  1 -1</clus>
<clus scale="   90.589">  7  8 -1 -1</clus>
<clus scale="   81.963">  2  5  1 -1</clus>
</clustering>
</event>
<event>
 9    2  0.2984928E-005  0.1184260E+03  0.7546771E-02  0.1249401E+00
         -1   -1    0    0    0  501 -0.00000000000E+00  0.00000000000E+00  0.12653946421E+03  0.12653946421E+03  0.00000000000E+00 0.  1.
          2   -1    0    0  502    0  0.00000000000E+00 -0.00000000000E+00 -0.22330302271E+03  0.22330302271E+03  0.00000000000E+00 0. -1.
         23    2    1    2    0    0 -0.56034929322E+02  0.52862651106E+02  0.64780912100E+02  0.13625952425E+03  0.91846165901E+02 0.  0.
         24    2    1    2    0    0  0.33261389556E+02 -0.61516956653E+02 -0.95712747018E+02  0.14338789911E+03  0.80675297819E+02 0.  0.
        -13    1    4    4    0    0  0.18219280529E+02 -0.70490149399E+02 -0.36119033916E+02  0.81273537860E+02  0.00000000000E+00 0.  1.
         14    1    4    4    0    0  0.15042109027E+02  0.89731927466E+01 -0.59593713102E+02  0.62114361249E+02  0.00000000000E+00 0. -1.
        -13    1    3    3    0    0  0.10846930595E+02  0.35146035098E+02 -0.60134518099E+01  0.37270112545E+02  0.00000000000E+00 0.  1.
         13    1    3    3    0    0 -0.66881859917E+02  0.17716616008E+02  0.70794363910E+02  0.98989411707E+02  0.00000000000E+00 0. -1.
         21    1    1    2  502  501  0.22773539766E+02  0.86543055466E+01 -0.65831723580E+02  0.70195063555E+02  0.00000000000E+00 0.  1.
<scales pt_clust_5="13000.00000" pt_clust_6="13000.00000" pt_clust_7="13000.00000" pt_clust_8="13000.00000" pt_clust_9="24.36249"></scales>
<clustering>
<clus scale="   24.362">  2  9  1 -1</clus>
<clus scale="   80.675">  5  6 -1 -1</clus>
<clus scale="   91.846">  7  8 -1 -1</clus>
<clus scale="  109.989">  2  5  1 -1</clus>
<clus scale="   24.362">  2  5  1 -1</clus>
</clustering>
</event>
<event>
 9    2  0.2984928E-005  0.1409842E+03  0.7546771E-02  0.1215358E+00
          2   -1    0    0  502    0  0.00000000000E+00  0.00000000000E+00  0.30997029496E+03  0.30997029496E+03  0.00000000000E+00 0. -1.
         -1   -1    0    0    0  501 -0.00000000000E+00 -0.00000000000E+00 -0.11852473603E+03  0.11852473603E+03  0.00000000000E+00 0.  1.
         24    2    1    2    0    0  0.43536932259E+02  0.87813967049E+02 -0.16035795082E+02  0.12672078081E+03  0.78703572256E+02 0.  0.
         23    2    1    2    0    0 -0.19778559635E+02 -0.12691946463E+03  0.10815599630E+03  0.19241599994E+03  0.93949218049E+02 0.  0.
        -13    1    3    3    0    0 -0.22362631167E+02  0.33617440513E+02 -0.55652039519E+01  0.40757711839E+02  0.00000000000E+00 0.  1.
         14    1    3    3    0    0  0.65899563426E+02  0.54196526537E+02 -0.10470591130E+02  0.85963068972E+02  0.00000000000E+00 0. -1.
        -13    1    4    4    0    0 -0.27233301007E+02 -0.33012732110E+02 -0.72908700623E+01  0.43412555228E+02  0.00000000000E+00 0.  1.
         13    1    4    4    0    0  0.74547413726E+01 -0.93906732522E+02  0.11544686637E+03  0.14900344471E+03  0.00000000000E+00 0. -1.
         21    1    1    2  502  501 -0.23758372625E+02  0.39105497583E+02  0.99325357708E+02  0.10935825024E+03  0.00000000000E+00 0.  1.
<scales pt_clust_5="13000.00000" pt_clust_6="13000.00000" pt_clust_7="13000.00000" pt_clust_8="13000.00000" pt_clust_9="45.75697"></scales>
<clustering>
<clus scale="   45.757">  1  9  2 -1</clus>
<clus scale="   78.704">  5  6 -1 -1</clus>
<clus scale="   93.949">  7  8 -1 -1</clus>
<clus scale="  131.318">  2  5  1 -1</clus>
<clus scale="   45.757">  1  5  2 -1</clus>
</clustering>
</event>
<event>
 9    2  0.2984928E-005  0.9199754E+02  0.7546771E-02  0.1305026E+00
         -1   -1    0    0    0  501 -0.00000000000E+00  0.00000000000E+00  0.12961539384E+03  0.12961539384E+03  0.00000000000E+00 0.  1.
          2   -1    0    0  502    0  0.00000000000E+00 -0.00000000000E+00 -0.32555117444E+03  0.32555117444E+03  0.00000000000E+00 0. -1.
         23    2    1    2    0    0  0.68909107166E+02 -0.23163744374E+02  0.63035947909E+02  0.13209915794E+03  0.90507638880E+02 0.  0.
         24    2    1    2    0    0  0.31592285438E+01  0.15941107414E+02 -0.23211764867E+03  0.24582006022E+03  0.79276727678E+02 0.  0.
        -13    1    4    4    0    0  0.34271655749E+02  0.20720422701E+02 -0.18409343890E+03  0.18839924774E+03  0.00000000000E+00 0.  1.
         14    1    4    4    0    0 -0.31112427205E+02 -0.47793152869E+01 -0.48024209774E+02  0.57420812478E+02  0.00000000000E+00 0. -1.
        -11    1    3    3    0    0  0.48640612916E+02 -0.28382420204E+02 -0.90481807737E+01  0.57038062527E+02  0.00000000000E+00 0. -1.
         11    1    3    3    0    0  0.20268494250E+02  0.52186758300E+01  0.72084128683E+02  0.75061095413E+02  0.00000000000E+00 0.  1.
         21    1    1    2  502  501 -0.72068335710E+02  0.72226369592E+01 -0.26854079834E+02  0.77247350119E+02  0.00000000000E+00 0. -1.
<scales pt_clust_5="13000.00000" pt_clust_6="13000.00000" pt_clust_7="13000.00000" pt_clust_8="13000.00000" pt_clust_9="72.42936"></scales>
<clustering>
<clus scale="   72.429">  1  9  2 -1</clus>
<clus scale="   79.277">  5  6 -1 -1</clus>
<clus scale="   80.974">  2  5  1 -1</clus>
<clus scale="   90.508">  7  8 -1 -1</clus>
<clus scale="   80.974">  2  5  1 -1</clus>
</clustering>
</event>
<event>
 9    2  0.2984928E-005  0.1046047E+03  0.7546771E-02  0.1275508E+00
         -1   -1    0    0    0  501 -0.00000000000E+00  0.00000000000E+00  0.35757921321E+02  0.35757921321E+02  0.00000000000E+00 0.  1.
          2   -1    0    0  502    0  0.00000000000E+00 -0.00000000000E+00 -0.37383062072E+03  0.37383062072E+03  0.00000000000E+00 0. -1.
         24    2    1    2    0    0  0.28473521860E+02 -0.41425864793E+02 -0.10603592395E+03  0.14249594418E+03  0.80837078239E+02 0.  0.
         23    2    1    2    0    0 -0.45762142845E+02  0.30452415820E+02 -0.15984323054E+03  0.19205113650E+03  0.91171581824E+02 0.  0.
        -13    1    3    3    0    0  0.52857928270E+02 -0.85835361075E+01 -0.51239244934E+02  0.74115436277E+02  0.00000000000E+00 0.  1.
         14    1    3    3    0    0 -0.24384406411E+02 -0.32842328686E+02 -0.54796679020E+02  0.68380507903E+02  0.00000000000E+00 0. -1.
        -11    1    4    4    0    0  0.42358013430E+01 -0.28506088439E+02 -0.36839539358E+02  0.46772756506E+02  0.00000000000E+00 0.  1.
         11    1    4    4    0    0 -0.49997944188E+02  0.58958504259E+02 -0.12300369119E+03  0.14527837999E+03  0.00000000000E+00 0. -1.
         21    1    1    2  502  501  0.17288620986E+02  0.10973448974E+02 -0.72193544902E+02  0.75041461363E+02  0.00000000000E+00 0.  1.
<scales pt_clust_5="13000.00000" pt_clust_6="13000.00000" pt_clust_7="13000.00000" pt_clust_8="13000.00000" pt_clust_9="20.47713"></scales>
<clustering>
<clus scale="   20.477">  2  9  1 -1</clus>
<clus scale="   80.837">  5  6 -1 -1</clus>
<clus scale="   91.172">  7  8 -1 -1</clus>
<clus scale="   95.731">  1  5  2 -1</clus>
<clus scale="   20.477">  2  5  1 -1</clus>
</clustering>
</event>
<event>
 9    2  0.2984928E-005  0.1427724E+03  0.7546771E-02  0.1212815E+00
         -1   -1    0    0    0  501 -0.00000000000E+00  0.00000000000E+00  0.41268460984E+03  0.41268460984E+03  0.00000000000E+00 0.  1.
          2   -1    0    0  502    0  0.00000000000E+00 -0.00000000000E+00 -0.62834729635E+02  0.62834729635E+02  0.00000000000E+00 0. -1.
         24    2    1    2    0    0 -0.10440737831E+03  0.10040328728E+02  0.17355005736E+03  0.21689614548E+03  0.76958473651E+02 0.  0.
         23    2    1    2    0    0  0.11554150695E+03  0.27064741557E+02  0.14501914496E+03  0.20883126824E+03  0.92182461061E+02 0.  0.
        -13    1    3    3    0    0 -0.39113239423E+02 -0.25858352049E+02  0.10767003174E+03  0.11743651733E+03  0.00000000000E+00 0.  1.
         14    1    3    3    0    0 -0.65294138891E+02  0.35898680777E+02  0.65880025624E+02  0.99459628148E+02  0.00000000000E+00 0. -1.
        -11    1    4    4    0    0  0.74609922752E+02  0.23597609444E+02  0.25268980727E+02  0.82231436394E+02  0.00000000000E+00 0.  1.
         11    1    4    4    0    0  0.40931584196E+02  0.34671321131E+01  0.11975016424E+03  0.12659983185E+03  0.00000000000E+00 0. -1.
         21    1    1    2  502  501 -0.11134128633E+02 -0.37105070285E+02  0.31280677878E+02  0.49791925749E+02  0.00000000000E+00 0. -1.
<scales pt_clust_5="13000.00000" pt_clust_6="13000.00000" pt_clust_7="13000.00000" pt_clust_8="13000.00000" pt_clust_9="38.73958"></scales>
<clustering>
<clus scale="   38.740">  2  9  1 -1</clus>
<clus scale="   76.958">  5  6 -1 -1</clus>
<clus scale="   92.182">  7  8 -1 -1</clus>
<clus scale="  133.450">  1  5  2 -1</clus>
<clus scale="   38.740">  2  5  1 -1</clus>
</clustering>
</event>
<event>
 9    2  0.2984928E-005  0.9352193E+02  0.7546771E-02  0.1300031E+00
         -3   -1    0    0    0  501 -0.00000000000E+00  0.00000000000E+00  0.29445602438E+02  0.29445602438E+02  0.00000000000E+00 0.  1.
          4   -1    0    0  502    0  0.00000000000E+00 -0.00000000000E+00 -0.51184828119E+03  0.51184828119E+03  0.00000000000E+00 0. -1.
         23    2    1    2    0    0 -0.15539553311E+02  0.25924961559E+02 -0.86970027537E+02  0.12930200175E+03  0.90783482077E+02 0.  0.
         24    2    1    2    0    0  0.12615771318E+02  0.68732148775E+01 -0.28127295268E+03  0.29317813836E+03  0.81440457603E+02 0.  0.
        -13    1    4    4    0    0 -0.10102808870E+02  0.29474675474E+02 -0.44954255665E+02  0.54696511257E+02  0.00000000000E+00 0.  1.
         14    1    4    4    0    0  0.22718580188E+02 -0.22601460596E+02 -0.23631869702E+03  0.23848162710E+03  0.00000000000E+00 0. -1.
        -11    1    3    3    0    0  0.28956640244E+02 -0.10047688980E+02 -0.78134350623E+01  0.31630568056E+02  0.00000000000E+00 0.  1.
         11    1    3    3    0    0 -0.44496193555E+02  0.35972650540E+02 -0.79156592475E+02  0.97671433695E+02  0.00000000000E+00 0. -1.
         21    1    1    2  502  501  0.29237819925E+01 -0.32798176437E+02 -0.11415969853E+03  0.11881374351E+03  0.00000000000E+00 0. -1.
<scales pt_clust_5="13000.00000" pt_clust_6="13000.00000" pt_clust_7="13000.00000" pt_clust_8="13000.00000" pt_clust_9="32.92824"></scales>
<clustering>
<clus scale="   32.928">  2  9  1 -1</clus>
<clus scale="   81.440">  5  6 -1 -1</clus>
<clus scale="   84.482">  2  5  1 -1</clus>
<clus scale="   90.783">  7  8 -1 -1</clus>
<clus scale="   32.928">  2  5  1 -1</clus>
</clustering>
</event>
<event>
 9    2  0.2984928E-005  0.1243417E+03  0.7546771E-02  0.1237455E+00
          2   -1    0    0  502    0  0.00000000000E+00  0.00000000000E+00  0.67340225288E+03  0.67340225288E+03  0.00000000000E+00 0. -1.
         -1   -1    0    0    0  501 -0.00000000000E+00 -0.00000000000E+00 -0.63414353040E+02  0.63414353040E+02  0.00000000000E+00 0.  1.
         23    2    1    2    0    0 -0.10481822087E+02  0.12048642781E+03  0.14544657011E+03  0.20743605996E+03  0.85136163483E+02 0.  0.
         24    2    1    2    0    0 -0.80508572023E+02 -0.53098639846E+02  0.33300253719E+03  0.35582127733E+03  0.80106153969E+02 0.  0.
        -11    1    4    4    0    0 -0.31988828587E+01 -0.33057866380E+02  0.18193613935E+03  0.18494273217E+03  0.00000000000E+00 0.  1.
         12    1    4    4    0    0 -0.77309689164E+02 -0.20040773466E+02  0.15106639784E+03  0.17087854516E+03  0.00000000000E+00 0. -1.
        -13    1    3    3    0    0  0.23008296465E+02  0.95072483183E+02  0.67408854643E+02  0.11879441253E+03  0.00000000000E+00 0.  1.
         13    1    3    3    0    0 -0.33490118552E+02  0.25413944623E+02  0.78037715472E+02  0.88641647424E+02  0.00000000000E+00 0. -1.
         21    1    1    2  502  501  0.90990394110E+02 -0.67387787960E+02  0.13153879254E+03  0.17355926863E+03  0.00000000000E+00 0.  1.
<scales pt_clust_5="13000.00000" pt_clust_6="13000.00000" pt_clust_7="13000.00000" pt_clust_8="13000.00000" pt_clust_9="113.22705"></scales>
<clustering>
<clus scale="   80.106">  5  6 -1 -1</clus>
<clus scale="   85.136">  7  8 -1 -1</clus>
<clus scale="  113.227">  2  9  1 -1</clus>
<clus scale="  120.953">  1  5  2 -1</clus>
<clus scale="  120.953">  1  5  2 -1</clus>
</clustering>
</event>
<event>
 9    2  0.2984928E-005  0.5076974E+03  0.7546771E-02  0.1040015E+00
         -1   -1    0    0    0  501 -0.00000000000E+00  0.00000000000E+00  0.50968473605E+03  0.50968473605E+03  0.00000000000E+00 0.  1.
          2   -1    0    0  502    0  0.00000000000E+00 -0.00000000000E+00 -0.11736343320E+04  0.11736343320E+04  0.00000000000E+00 0. -1.
         24    2    1    2    0    0 -0.34003473331E+02  0.20186914564E+03  0.14861710060E+03  0.26399061123E+03  0.75475903902E+02 0.  0.
         23    2    1    2    0    0 -0.48825672490E+03 -0.94265027620E+01 -0.68837428371E+03  0.84905339964E+03  0.92460978807E+02 0.  0.
        -11    1    3    3    0    0  0.21518747267E+02  0.38436824674E+02  0.18236481535E+02  0.47676149528E+02  0.00000000000E+00 0.  1.
         12    1    3    3    0    0 -0.55522220598E+02  0.16343232097E+03  0.13038061906E+03  0.21631446171E+03  0.00000000000E+00 0. -1.
        -11    1    4    4    0    0 -0.44029167136E+03 -0.10146960313E+02 -0.65959848815E+03  0.79311404114E+03  0.00000000000E+00 0. -1.
         11    1    4    4    0    0 -0.47965053536E+02  0.72045755057E+00 -0.28775795560E+02  0.55939358505E+02  0.00000000000E+00 0.  1.
         21    1    1    2  502  501  0.52226019823E+03 -0.19244264288E+03 -0.12419241285E+03  0.57027505720E+03  0.00000000000E+00 0.  1.
<scales pt_clust_5="13000.00000" pt_clust_6="13000.00000" pt_clust_7="13000.00000" pt_clust_8="13000.00000" pt_clust_9="499.20695"></scales>
<clustering>
<clus scale="   75.476">  5  6 -1 -1</clus>
<clus scale="   92.461">  7  8 -1 -1</clus>
<clus scale="  218.183">  1  5  2 -1</clus>
<clus scale="  499.207">  1  9  2 -1</clus>
<clus scale="  507.697">  2  5  1 -1</clus>
</clustering>
</event>
<event>
 9    2  0.2984928E-005  0.1201256E+03  0.7546771E-02  0.1246973E+00
          2   -1    0    0  502    0  0.00000000000E+00  0.00000000000E+00  0.95667862320E+03  0.95667862320E+03  0.00000000000E+00 0. -1.
         -1   -1    0    0    0  501 -0.00000000000E+00 -0.00000000000E+00 -0.62938744968E+02  0.62938744968E+02  0.00000000000E+00 0.  1.
         23    2    1    2    0    0 -0.51506508824E+02 -0.58589571733E+02  0.89012170663E+01  0.12288415950E+03  0.94528443464E+02 0.  0.
         24    2    1    2    0    0  0.48507046814E+02  0.89214229985E+01  0.58566890438E+03  0.59345369214E+03  0.82138260124E+02 0.  0.
        -11    1    4    4    0    0  0.11449680887E+02 -0.21294975558E+02  0.48813758760E+02  0.54473426739E+02  0.00000000000E+00 0.  1.
         12    1    4    4    0    0  0.37057365926E+02  0.30216398556E+02  0.53685514562E+03  0.53898026540E+03  0.00000000000E+00 0. -1.
        -11    1    3    3    0    0 -0.19678978053E+01 -0.58585069367E+02 -0.24079447099E+02  0.63371150748E+02  0.00000000000E+00 0.  1.
         11    1    3    3    0    0 -0.49538611019E+02 -0.45023656456E-02  0.32980664166E+02  0.59513008752E+02  0.00000000000E+00 0. -1.
         21    1    1    2  502  501  0.29994620104E+01  0.49668148734E+02  0.29916975678E+03  0.30327951652E+03  0.00000000000E+00 0. -1.
<scales pt_clust_5="13000.00000" pt_clust_6="13000.00000" pt_clust_7="13000.00000" pt_clust_8="13000.00000" pt_clust_9="49.75864"></scales>
<clustering>
<clus scale="   49.759">  1  9  2 -1</clus>
<clus scale="   82.138">  5  6 -1 -1</clus>
<clus scale="   94.528">  7  8 -1 -1</clus>
<clus scale="  110.640">  1  5  2 -1</clus>
<clus scale="   49.759">  1  5  2 -1</clus>
</clustering>
</event>
<event>
 9    2  0.2984928E-005  0.2755622E+03  0.7546771E-02  0.1142863E+00
         -1   -1    0    0    0  501 -0.00000000000E+00  0.00000000000E+00  0.45767219451E+02  0.45767219451E+02  0.00000000000E+00 0.  1.
          2   -1    0    0  502    0  0.00000000000E+00 -0.00000000000E+00 -0.28478342790E+04  0.28478342790E+04  0.00000000000E+00 0. -1.
         23    2    1    2    0    0 -0.44101295863E+01 -0.36304319249E+01 -0.87735351678E+02  0.12575442878E+03  0.89911373838E+02 0.  0.
         24    2    1    2    0    0 -0.60490774197E+01 -0.26287369295E+03 -0.14625499068E+04  0.14879675749E+04  0.76525187634E+02 0.  0.
        -13    1    4    4    0    0  0.17058668845E+02 -0.21608156389E+03 -0.10507160601E+04  0.10728403792E+04  0.00000000000E+00 0.  1.
         14    1    4    4    0    0 -0.23107746265E+02 -0.46792129059E+02 -0.41183384676E+03  0.41512719571E+03  0.00000000000E+00 0. -1.
        -13    1    3    3    0    0  0.32879804095E+02 -0.11945986941E+01 -0.81470855330E+02  0.87863580917E+02  0.00000000000E+00 0. -1.
         13    1    3    3    0    0 -0.37289933681E+02 -0.24358332308E+01 -0.62644963484E+01  0.37890847866E+02  0.00000000000E+00 0.  1.
         21    1    1    2  502  501  0.10459207006E+02  0.26650412488E+03 -0.12517818010E+04  0.12798794947E+04  0.00000000000E+00 0. -1.
<scales pt_clust_5="13000.00000" pt_clust_6="13000.00000" pt_clust_7="13000.00000" pt_clust_8="13000.00000" pt_clust_9="264.72330"></scales>
<clustering>
<clus scale="   76.525">  5  6 -1 -1</clus>
<clus scale="   89.911">  7  8 -1 -1</clus>
<clus scale="   90.093">  1  7  2 -1</clus>
<clus scale="  264.723">  1  9  2 -1</clus>
<clus scale="  275.562">  2  5  1 -1</clus>
</clustering>
</event>
<event>
 9    2  0.2984928E-005  0.9374289E+02  0.7546771E-02  0.1301486E+00
         -1   -1    0    0    0  501 -0.00000000000E+00  0.00000000000E+00  0.10711532290E+03  0.10711532290E+03  0.00000000000E+00 0.  1.
          2   -1    0    0  502    0  0.00000000000E+00 -0.00000000000E+00 -0.55673454162E+03  0.55673454162E+03  0.00000000000E+00 0. -1.
         24    2    1    2    0    0  0.50000850525E+01  0.17496841527E+02  0.82534674504E+02  0.11604847459E+03  0.79524434258E+02 0.  0.
         23    2    1    2    0    0  0.15106089094E+02 -0.31270348635E+02 -0.33368335265E+03  0.34784008565E+03  0.91880992153E+02 0.  0.
        -11    1    3    3    0    0  0.11772293207E+02  0.46480395413E+02  0.67239512986E+02  0.82584297246E+02  0.00000000000E+00 0.  1.
         12    1    3    3    0    0 -0.67722081541E+01 -0.28983553885E+02  0.15295161519E+02  0.33464177339E+02  0.00000000000E+00 0. -1.
        -13    1    4    4    0    0 -0.26193188067E+02  0.18610405742E+02 -0.13912470797E+03  0.14278695553E+03  0.00000000000E+00 0. -1.
         13    1    4    4    0    0  0.41299277161E+02 -0.49880754378E+02 -0.19455864469E+03  0.20505313012E+03  0.00000000000E+00 0.  1.
         21    1    1    2  502  501 -0.20106174146E+02  0.13773507108E+02 -0.19847054057E+03  0.19996130428E+03  0.00000000000E+00 0. -1.
<scales pt_clust_5="13000.00000" pt_clust_6="13000.00000" pt_clust_7="13000.00000" pt_clust_8="13000.00000" pt_clust_9="24.37145"></scales>
<clustering>
<clus scale="   24.371">  2  9  1 -1</clus>
<clus scale="   79.524">  5  6 -1 -1</clus>
<clus scale="   81.669">  1  5  2 -1</clus>
<clus scale="   91.881">  7  8 -1 -1</clus>
<clus scale="   24.371">  2  5  1 -1</clus>
</clustering>
</event>
<event>
 9    2  0.2984928E-005  0.9282671E+02  0.7546771E-02  0.1302696E+00
          2   -1    0    0  502    0  0.00000000000E+00  0.00000000000E+00  0.44737209298E+03  0.44737209298E+03  0.00000000000E+00 0. -1.
         -1   -1    0    0    0  501 -0.00000000000E+00 -0.00000000000E+00 -0.92132375154E+02  0.92132375154E+02  0.00000000000E+00 0.  1.
         24    2    1    2    0    0  0.60089865083E+01  0.95614642803E+01 -0.56190574872E+02  0.99499493833E+02  0.81334119843E+02 0.  0.
         23    2    1    2    0    0 -0.44926256164E+02 -0.36161205028E+01  0.36512202490E+03  0.37922375469E+03  0.92006077192E+02 0.  0.
        -11    1    3    3    0    0 -0.12825072142E+02 -0.30445343751E+02 -0.41199379015E+02  0.52808997934E+02  0.00000000000E+00 0.  1.
         12    1    3    3    0    0  0.18834058651E+02  0.40006808031E+02 -0.14991195857E+02  0.46690495899E+02  0.00000000000E+00 0. -1.
        -11    1    4    4    0    0 -0.72855942762E+02  0.48350203647E+01  0.27259053428E+03  0.28220022182E+03  0.00000000000E+00 0. -1.
         11    1    4    4    0    0  0.27929686597E+02 -0.84511408675E+01  0.92531490615E+02  0.97023532871E+02  0.00000000000E+00 0.  1.
         21    1    1    2  502  501  0.38917269656E+02 -0.59453437775E+01  0.46308267806E+02  0.60781219610E+02  0.00000000000E+00 0.  1.
<scales pt_clust_5="13000.00000" pt_clust_6="13000.00000" pt_clust_7="13000.00000" pt_clust_8="13000.00000" pt_clust_9="39.36878"></scales>
<clustering>
<clus scale="   39.369">  1  9  2 -1</clus>
<clus scale="   81.334">  5  6 -1 -1</clus>
<clus scale="   82.261">  2  5  1 -1</clus>
<clus scale="   92.006">  7  8 -1 -1</clus>
<clus scale="   39.369">  1  5  2 -1</clus>
</clustering>
</event>
<event>
 9    2  0.2984928E-005  0.1351902E+03  0.7546771E-02  0.1220231E+00
         -1   -1    0    0    0  501 -0.00000000000E+00  0.00000000000E+00  0.13624289072E+03  0.13624289072E+03  0.00000000000E+00 0.  1.
          2   -1    0    0  502    0  0.00000000000E+00 -0.00000000000E+00 -0.66526958895E+03  0.66526958895E+03  0.00000000000E+00 0. -1.
         23    2    1    2    0    0  0.24518197311E+02 -0.10028177486E+03  0.82420092318E+02  0.16272949943E+03  0.95027585465E+02 0.  0.
         24    2    1    2    0    0  0.67409941798E+01  0.54123649386E+02 -0.24322482532E+03  0.26636503589E+03  0.93899980116E+02 0.  0.
        -11    1    4    4    0    0  0.28813504288E+01  0.45772334790E+02 -0.34381709693E+02  0.57319375204E+02  0.00000000000E+00 0.  1.
         12    1    4    4    0    0  0.38596437509E+01  0.83513145962E+01 -0.20884311563E+03  0.20904566068E+03  0.00000000000E+00 0. -1.
        -11    1    3    3    0    0  0.12069638643E+02 -0.47876408698E+02  0.95314713536E+02  0.10734393929E+03  0.00000000000E+00 0.  1.
         11    1    3    3    0    0  0.12448558668E+02 -0.52405366160E+02 -0.12894621218E+02  0.55385560136E+02  0.00000000000E+00 0. -1.
         21    1    1    2  502  501 -0.31259191491E+02  0.46158125472E+02 -0.36822196522E+03  0.37241794435E+03  0.00000000000E+00 0. -1.
<scales pt_clust_5="13000.00000" pt_clust_6="13000.00000" pt_clust_7="13000.00000" pt_clust_8="13000.00000" pt_clust_9="55.74683"></scales>
<clustering>
<clus scale="   55.747">  2  9  1 -1</clus>
<clus scale="   93.900">  5  6 -1 -1</clus>
<clus scale="   95.028">  7  8 -1 -1</clus>
<clus scale="  134.400">  2  5  1 -1</clus>
<clus scale="   55.747">  2  5  1 -1</clus>
</clustering>
</event>
<event>
 9    2  0.2984928E-005  0.1063236E+03  0.7546771E-02  0.1272705E+00
          2   -1    0    0  502    0  0.00000000000E+00  0.00000000000E+00  0.33542910000E+03  0.33542910000E+03  0.00000000000E+00 0. -1.
         -1   -1    0    0    0  501 -0.00000000000E+00 -0.00000000000E+00 -0.34695464311E+03  0.34695464311E+03  0.00000000000E+00 0.  1.
         23    2    1    2    0    0  0.38518821947E+02 -0.36875713859E+02 -0.31727033376E+03  0.33490238764E+03  0.93035620307E+02 0.  0.
         24    2    1    2    0    0 -0.41011818787E+02 -0.24272097545E+01  0.89533408129E+02  0.12771262074E+03  0.81279897256E+02 0.  0.
        -13    1    4    4    0    0  0.14210461320E+02  0.24516199343E+02  0.18741283769E+02  0.33973768682E+02  0.00000000000E+00 0.  1.
         14    1    4    4    0    0 -0.55222280107E+02 -0.26943409097E+02  0.70792124361E+02  0.93738852060E+02  0.00000000000E+00 0. -1.
        -13    1    3    3    0    0  0.30592296817E+02 -0.62509424029E+02 -0.28270666359E+03  0.29114665437E+03  0.00000000000E+00 0.  1.
         13    1    3    3    0    0  0.79265251304E+01  0.25633710170E+02 -0.34563670170E+02  0.43755733263E+02  0.00000000000E+00 0. -1.
         21    1    1    2  502  501  0.24929968403E+01  0.39302923613E+02  0.21621138252E+03  0.21976873473E+03  0.00000000000E+00 0.  1.
<scales pt_clust_5="13000.00000" pt_clust_6="13000.00000" pt_clust_7="13000.00000" pt_clust_8="13000.00000" pt_clust_9="39.38191"></scales>
<clustering>
<clus scale="   39.382">  1  9  2 -1</clus>
<clus scale="   81.280">  5  6 -1 -1</clus>
<clus scale="   93.036">  7  8 -1 -1</clus>
<clus scale="   96.206">  1  5  2 -1</clus>
<clus scale="   39.382">  1  5  2 -1</clus>
</clustering>
</event>
<event>
 9    2  0.2984928E-005  0.9306156E+02  0.7546771E-02  0.1302563E+00
          2   -1    0    0  502    0  0.00000000000E+00  0.00000000000E+00  0.29549229840E+03  0.29549229840E+03  0.00000000000E+00 0. -1.
         -1   -1    0    0    0  501 -0.00000000000E+00 -0.00000000000E+00 -0.13960927338E+03  0.13960927338E+03  0.00000000000E+00 0.  1.
         23    2    1    2    0    0 -0.12103145471E+02  0.11253611484E+02 -0.10721825825E+03  0.14196147438E+03  0.91565142952E+02 0.  0.
         24    2    1    2    0    0  0.30755048141E+02  0.87513582986E+01  0.24645758891E+03  0.26112283875E+03  0.80133229886E+02 0.  0.
        -13    1    4    4    0    0  0.15194477018E+02 -0.35825906631E+02  0.11898885354E+03  0.12519071445E+03  0.00000000000E+00 0.  1.
         14    1    4    4    0    0  0.15560571123E+02  0.44577264930E+02  0.12746873537E+03  0.13593212430E+03  0.00000000000E+00 0. -1.
        -13    1    3    3    0    0 -0.34480622998E+02 -0.30215525325E+02 -0.49993812932E+02  0.67832681389E+02  0.00000000000E+00 0.  1.
         13    1    3    3    0    0  0.22377477527E+02  0.41469136809E+02 -0.57224445315E+02  0.74128792987E+02  0.00000000000E+00 0. -1.
         21    1    1    2  502  501 -0.18651902670E+02 -0.20004969783E+02  0.16643694365E+02  0.32017258648E+02  0.00000000000E+00 0.  1.
<scales pt_clust_5="13000.00000" pt_clust_6="13000.00000" pt_clust_7="13000.00000" pt_clust_8="13000.00000" pt_clust_9="27.35128"></scales>
<clustering>
<clus scale="   27.351">  1  9  2 -1</clus>
<clus scale="   80.133">  5  6 -1 -1</clus>
<clus scale="   81.839">  1  5  2 -1</clus>
<clus scale="   91.565">  7  8 -1 -1</clus>
<clus scale="   27.351">  1  5  2 -1</clus>
</clustering>
</event>
<event>
 9    2  0.2984928E-005  0.1159342E+03  0.7546771E-02  0.1253070E+00
         -1   -1    0    0    0  501 -0.00000000000E+00  0.00000000000E+00  0.69352970496E+02  0.69352970496E+02  0.00000000000E+00 0.  1.
          2   -1    0    0  502    0  0.00000000000E+00 -0.00000000000E+00 -0.39645136904E+03  0.39645136904E+03  0.00000000000E+00 0. -1.
         24    2    1    2    0    0 -0.73655040624E+02  0.65615314684E+02 -0.45430094655E+02  0.13455141803E+03  0.79433972975E+02 0.  0.
         23    2    1    2    0    0  0.44394373684E+02 -0.48418472491E+01 -0.11816617896E+03  0.15438419666E+03  0.88752072811E+02 0.  0.
        -13    1    3    3    0    0 -0.49563495656E+02  0.20507418631E+02  0.14699897740E+02  0.55616376312E+02  0.00000000000E+00 0.  1.
         14    1    3    3    0    0 -0.24091544968E+02  0.45107896053E+02 -0.60129992395E+02  0.78935041716E+02  0.00000000000E+00 0. -1.
        -13    1    4    4    0    0 -0.20997535286E+02 -0.16216721200E+02 -0.11865205098E+02  0.29063062925E+02  0.00000000000E+00 0.  1.
         13    1    4    4    0    0  0.65391908971E+02  0.11374873951E+02 -0.10630097386E+03  0.12532113373E+03  0.00000000000E+00 0. -1.
         21    1    1    2  502  501  0.29260666940E+02 -0.60773467435E+02 -0.16350212494E+03  0.17686872486E+03  0.00000000000E+00 0.  1.
<scales pt_clust_5="13000.00000" pt_clust_6="13000.00000" pt_clust_7="13000.00000" pt_clust_8="13000.00000" pt_clust_9="67.45073"></scales>
<clustering>
<clus scale="   67.451">  2  9  1 -1</clus>
<clus scale="   79.434">  5  6 -1 -1</clus>
<clus scale="   88.752">  7  8 -1 -1</clus>
<clus scale="  108.966">  1  5  2 -1</clus>
<clus scale="   67.451">  2  5  1 -1</clus>
</clustering>
</event>
<event>
 9    2  0.2984928E-005  0.1147867E+03  0.7546771E-02  0.1254535E+00
          2   -1    0    0  502    0  0.00000000000E+00  0.00000000000E+00  0.16647260456E+03  0.16647260456E+03  0.00000000000E+00 0. -1.
         -1   -1    0    0    0  501 -0.00000000000E+00 -0.00000000000E+00 -0.16160253483E+03  0.16160253483E+03  0.00000000000E+00 0.  1.
         24    2    1    2    0    0  0.24857315774E+02  0.74238629944E+02 -0.78393204284E+02  0.13750608894E+03  0.81444273555E+02 0.  0.
         23    2    1    2    0    0  0.19715538915E+02 -0.71108358419E+02  0.88492113798E+02  0.14558151062E+03  0.88983262004E+02 0.  0.
        -11    1    3    3    0    0  0.28096748048E+02  0.63083629073E+02 -0.11985473834E+02  0.70090106940E+02  0.00000000000E+00 0.  1.
         12    1    3    3    0    0 -0.32394322745E+01  0.11155000872E+02 -0.66407730449E+02  0.67415982002E+02  0.00000000000E+00 0. -1.
        -13    1    4    4    0    0  0.41426201084E+02 -0.48247492228E+02  0.94086659085E+02  0.11356165753E+03  0.00000000000E+00 0. -1.
         13    1    4    4    0    0 -0.21710662169E+02 -0.22860866191E+02 -0.55945452868E+01  0.32019853088E+02  0.00000000000E+00 0.  1.
         21    1    1    2  502  501 -0.44572854689E+02 -0.31302715254E+01 -0.52288397856E+01  0.44987539835E+02  0.00000000000E+00 0. -1.
<scales pt_clust_5="13000.00000" pt_clust_6="13000.00000" pt_clust_7="13000.00000" pt_clust_8="13000.00000" pt_clust_9="44.68264"></scales>
<clustering>
<clus scale="   44.683">  2  9  1 -1</clus>
<clus scale="   81.444">  5  6 -1 -1</clus>
<clus scale="   88.983">  7  8 -1 -1</clus>
<clus scale="  109.046">  2  5  1 -1</clus>
<clus scale="  114.787">  1  5  2 -1</clus>
</clustering>
</event>
<event>
 9    2  0.2984928E-005  0.1184131E+03  0.7546771E-02  0.1250028E+00
          2   -1    0    0  502    0  0.00000000000E+00  0.00000000000E+00  0.94742246377E+03  0.94742246377E+03  0.00000000000E+00 0. -1.
         -1   -1    0    0    0  501 -0.00000000000E+00 -0.00000000000E+00 -0.46149520662E+02  0.46149520662E+02  0.00000000000E+00 0.  1.
         23    2    1    2    0    0  0.69231879307E+02 -0.12304656790E+02  0.54009964978E+02  0.12881488870E+03  0.93443788144E+02 0.  0.
         24    2    1    2    0    0 -0.81046418394E+02  0.55132879354E+02  0.67617762513E+03  0.68799726434E+03  0.80721116788E+02 0.  0.
        -11    1    4    4    0    0 -0.57381866163E+02 -0.89629176309E+01  0.34360916394E+03  0.34848281163E+03  0.00000000000E+00 0.  1.
         12    1    4    4    0    0 -0.23664552231E+02  0.64095796984E+02  0.33256846119E+03  0.33951445271E+03  0.00000000000E+00 0. -1.
        -13    1    3    3    0    0  0.40460419380E+02 -0.47487177761E+02  0.59520238227E+01  0.62669802742E+02  0.00000000000E+00 0.  1.
         13    1    3    3    0    0  0.28771459927E+02  0.35182520972E+02  0.48057941156E+02  0.66145085958E+02  0.00000000000E+00 0. -1.
         21    1    1    2  502  501  0.11814539087E+02 -0.42828222564E+02  0.17108535300E+03  0.17675983139E+03  0.00000000000E+00 0. -1.
<scales pt_clust_5="13000.00000" pt_clust_6="13000.00000" pt_clust_7="13000.00000" pt_clust_8="13000.00000" pt_clust_9="44.42792"></scales>
<clustering>
<clus scale="   44.428">  1  9  2 -1</clus>
<clus scale="   80.721">  5  6 -1 -1</clus>
<clus scale="   93.444">  7  8 -1 -1</clus>
<clus scale="  108.655">  1  5  2 -1</clus>
<clus scale="   44.428">  1  5  2 -1</clus>
</clustering>
</event>
<event>
 9    2  0.2984928E-005  0.1739456E+03  0.7546771E-02  0.1176887E+00
          2   -1    0    0  502    0  0.00000000000E+00  0.00000000000E+00  0.17952902035E+03  0.17952902035E+03  0.00000000000E+00 0. -1.
         -1   -1    0    0    0  501 -0.00000000000E+00 -0.00000000000E+00 -0.36000058971E+03  0.36000058971E+03  0.00000000000E+00 0.  1.
         24    2    1    2    0    0  0.15441031270E+03 -0.16184519513E+02 -0.26515761894E+03  0.31768730343E+03  0.80698057832E+02 0.  0.
         23    2    1    2    0    0 -0.89911733555E+02 -0.14899985776E+01  0.42176092609E+02  0.14259868389E+03  0.10231921586E+03 0.  0.
        -13    1    3    3    0    0  0.10546533869E+03 -0.34781975237E+02 -0.22760958030E+03  0.25325647970E+03  0.00000000000E+00 0.  1.
         14    1    3    3    0    0  0.48944974017E+02  0.18597455724E+02 -0.37548038642E+02  0.64430823731E+02  0.00000000000E+00 0. -1.
        -13    1    4    4    0    0 -0.82044406334E+01 -0.35955676022E+02  0.39269263516E+02  0.53872057149E+02  0.00000000000E+00 0. -1.
         13    1    4    4    0    0 -0.81707292921E+02  0.34465677445E+02  0.29068290932E+01  0.88726626746E+02  0.00000000000E+00 0.  1.
         21    1    1    2  502  501 -0.64498579149E+02  0.17674518091E+02  0.42509956979E+02  0.79243622736E+02  0.00000000000E+00 0. -1.
<scales pt_clust_5="13000.00000" pt_clust_6="13000.00000" pt_clust_7="13000.00000" pt_clust_8="13000.00000" pt_clust_9="66.87642"></scales>
<clustering>
<clus scale="   66.876">  1  9  2 -1</clus>
<clus scale="   80.698">  5  6 -1 -1</clus>
<clus scale="  102.319">  7  8 -1 -1</clus>
<clus scale="  162.173">  2  5  1 -1</clus>
<clus scale="   66.876">  1  5  2 -1</clus>
</clustering>
</event>
<event>
 9    2  0.2984928E-005  0.1079360E+03  0.7546771E-02  0.1267734E+00
          2   -1    0    0  502    0  0.00000000000E+00  0.00000000000E+00  0.19934599125E+03  0.19934599125E+03  0.00000000000E+00 0. -1.
         -1   -1    0    0    0  501 -0.00000000000E+00 -0.00000000000E+00 -0.84335865722E+02  0.84335865722E+02  0.00000000000E+00 0.  1.
         23    2    1    2    0    0  0.37325326952E+02  0.10999691627E+02 -0.14759509488E+00  0.98429309822E+02  0.90410917481E+02 0.  0.
         24    2    1    2    0    0 -0.60423937553E+02 -0.30925446441E+02  0.11185551122E+03  0.15456890161E+03  0.82294923836E+02 0.  0.
        -13    1    4    4    0    0  0.44094574191E+00  0.24406321962E+02  0.26479835871E+02  0.36014506697E+02  0.00000000000E+00 0.  1.
         14    1    4    4    0    0 -0.60864883295E+02 -0.55331768403E+02  0.85375675345E+02  0.11855439492E+03  0.00000000000E+00 0. -1.
        -13    1    3    3    0    0  0.60143914042E+02 -0.15703213382E+02 -0.72893612918E+01  0.62586069495E+02  0.00000000000E+00 0. -1.
         13    1    3    3    0    0 -0.22818587090E+02  0.26702905009E+02  0.71417661970E+01  0.35843240327E+02  0.00000000000E+00 0.  1.
         21    1    1    2  502  501  0.23098610601E+02  0.19925754814E+02  0.33022094099E+01  0.30683645540E+02  0.00000000000E+00 0.  1.
<scales pt_clust_5="13000.00000" pt_clust_6="13000.00000" pt_clust_7="13000.00000" pt_clust_8="13000.00000" pt_clust_9="30.50543"></scales>
<clustering>
<clus scale="   30.505">  2  9  1 -1</clus>
<clus scale="   82.295">  5  6 -1 -1</clus>
<clus scale="   90.411">  7  8 -1 -1</clus>
<clus scale="  101.235">  1  5  2 -1</clus>
<clus scale="  101.235">  1  5  2 -1</clus>
</clustering>
</event>
<event>
 9    2  0.2984928E-005  0.1023663E+03  0.7546771E-02  0.1280208E+00
         -1   -1    0    0    0  501 -0.00000000000E+00  0.00000000000E+00  0.68478559569E+02  0.68478559569E+02  0.00000000000E+00 0.  1.
          2   -1    0    0  502    0  0.00000000000E+00 -0.00000000000E+00 -0.31101168393E+03  0.31101168393E+03  0.00000000000E+00 0. -1.
         24    2    1    2    0    0  0.48562557478E+02 -0.24657325691E+02  0.11888764067E+01  0.97926877768E+02  0.81375391018E+02 0.  0.
         23    2    1    2    0    0 -0.27982900357E+01  0.25442063100E+02 -0.15816892874E+03  0.18453598753E+03  0.91547756241E+02 0.  0.
        -13    1    3    3    0    0  0.31510025701E+02  0.23124770916E+01  0.37863645324E+02  0.49314145102E+02  0.00000000000E+00 0.  1.
         14    1    3    3    0    0  0.17052531777E+02 -0.26969802783E+02 -0.36674768917E+02  0.48612732666E+02  0.00000000000E+00 0. -1.
        -11    1    4    4    0    0 -0.29187293987E+02  0.27541851089E+02 -0.15219638377E+03  0.15739819225E+03  0.00000000000E+00 0. -1.
         11    1    4    4    0    0  0.26389003951E+02 -0.20997879890E+01 -0.59725449714E+01  0.27137795278E+02  0.00000000000E+00 0.  1.
         21    1    1    2  502  501 -0.45764267442E+02 -0.78473740839E+00 -0.85553072025E+02  0.97027378200E+02  0.00000000000E+00 0. -1.
<scales pt_clust_5="13000.00000" pt_clust_6="13000.00000" pt_clust_7="13000.00000" pt_clust_8="13000.00000" pt_clust_9="45.77100"></scales>
<clustering>
<clus scale="   45.771">  2  9  1 -1</clus>
<clus scale="   81.375">  5  6 -1 -1</clus>
<clus scale="   91.548">  7  8 -1 -1</clus>
<clus scale="   93.380">  1  5  2 -1</clus>
<clus scale="   45.771">  2  5  1 -1</clus>
</clustering>
</event>
<event>
 9    2  0.2984928E-005  0.1045020E+03  0.7546771E-02  0.1281680E+00
         -1   -1    0    0    0  501 -0.00000000000E+00  0.00000000000E+00  0.10347120222E+03  0.10347120222E+03  0.00000000000E+00 0.  1.
          2   -1    0    0  502    0  0.00000000000E+00 -0.00000000000E+00 -0.15627266950E+03  0.15627266950E+03  0.00000000000E+00 0. -1.
         23    2    1    2    0    0 -0.16359200198E+02  0.28079031163E+02  0.35028143958E+02  0.10945348662E+03  0.98473546918E+02 0.  0.
         24    2    1    2    0    0  0.39427998552E+02 -0.19650466801E+02 -0.43174539905E+02  0.99326814285E+02  0.77852856239E+02 0.  0.
        -13    1    4    4    0    0  0.29566164404E+02 -0.58856068639E+01  0.18499880169E+02  0.35370100537E+02  0.00000000000E+00 0.  1.
         14    1    4    4    0    0  0.98618341478E+01 -0.13764859938E+02 -0.61674420074E+02  0.63956713747E+02  0.00000000000E+00 0. -1.
        -11    1    3    3    0    0  0.27955439232E+02  0.45613593451E+02  0.30497818024E+02  0.61581031124E+02  0.00000000000E+00 0. -1.
         11    1    3    3    0    0 -0.44314639430E+02 -0.17534562288E+02  0.45303259344E+01  0.47872455499E+02  0.00000000000E+00 0.  1.
         21    1    1    2  502  501 -0.23068798354E+02 -0.84285643611E+01 -0.44655071330E+02  0.50963570814E+02  0.00000000000E+00 0.  1.
<scales pt_clust_5="13000.00000" pt_clust_6="13000.00000" pt_clust_7="13000.00000" pt_clust_8="13000.00000" pt_clust_9="24.56034"></scales>
<clustering>
<clus scale="   24.560">  2  9  1 -1</clus>
<clus scale="   77.853">  5  6 -1 -1</clus>
<clus scale="   85.350">  2  5  1 -1</clus>
<clus scale="   98.474">  7  8 -1 -1</clus>
<clus scale="   24.560">  2  5  1 -1</clus>
</clustering>
</event>
<event>
 9    2  0.2984928E-005  0.9599808E+02  0.7546771E-02  0.1294283E+00
         -1   -1    0    0    0  501 -0.00000000000E+00  0.00000000000E+00  0.15059850257E+03  0.15059850257E+03  0.00000000000E+00 0.  1.
          2   -1    0    0  502    0  0.00000000000E+00 -0.00000000000E+00 -0.84586184900E+02  0.84586184900E+02  0.00000000000E+00 0. -1.
         23    2    1    2    0    0 -0.87100383137E+01 -0.47405483173E+02  0.37819576814E+02  0.10923664611E+03  0.90438818330E+02 0.  0.
         24    2    1    2    0    0 -0.16093483596E+02  0.21274479546E+02  0.99808240371E+01  0.85578275889E+02  0.80699571011E+02 0.  0.
        -11    1    4    4    0    0 -0.21969989573E+02  0.13636311343E+02  0.43552762139E+02  0.50650493767E+02  0.00000000000E+00 0.  1.
         12    1    4    4    0    0  0.58765059773E+01  0.76381682033E+01 -0.33571938102E+02  0.34927782122E+02  0.00000000000E+00 0. -1.
        -13    1    3    3    0    0  0.10549670984E+02 -0.70182304091E+02  0.35402479441E+02  0.79310698623E+02  0.00000000000E+00 0.  1.
         13    1    3    3    0    0 -0.19259709298E+02  0.22776820918E+02  0.24170973728E+01  0.29925947488E+02  0.00000000000E+00 0. -1.
         21    1    1    2  502  501  0.24803521909E+02  0.26131003627E+02  0.18211916815E+02  0.40369765465E+02  0.00000000000E+00 0.  1.
<scales pt_clust_5="13000.00000" pt_clust_6="13000.00000" pt_clust_7="13000.00000" pt_clust_8="13000.00000" pt_clust_9="36.02838"></scales>
<clustering>
<clus scale="   36.028">  1  9  2 -1</clus>
<clus scale="   80.700">  5  6 -1 -1</clus>
<clus scale="   86.884">  2  5  1 -1</clus>
<clus scale="   90.439">  7  8 -1 -1</clus>
<clus scale="   86.884">  2  5  1 -1</clus>
</clustering>
</event>
<event>
 9    2  0.2984928E-005  0.1015612E+03  0.7546771E-02  0.1282325E+00
          2   -1    0    0  502    0  0.00000000000E+00  0.00000000000E+00  0.59026342101E+03  0.59026342101E+03  0.00000000000E+00 0. -1.
         -1   -1    0    0    0  501 -0.00000000000E+00 -0.00000000000E+00 -0.66750329986E+02  0.66750329986E+02  0.00000000000E+00 0.  1.
         23    2    1    2    0    0 -0.42007667130E+02  0.64345152993E+01 -0.11742853943E+02  0.10327452870E+03  0.93389970422E+02 0.  0.
         24    2    1    2    0    0  0.21768477147E+02  0.36905092601E+02  0.38175353545E+03  0.39295695912E+03  0.82725796661E+02 0.  0.
        -13    1    4    4    0    0  0.32916678689E+02  0.34642989341E+02  0.98550385599E+02  0.10952544430E+03  0.00000000000E+00 0.  1.
         14    1    4    4    0    0 -0.11148201542E+02  0.22621032601E+01  0.28320314985E+03  0.28343151482E+03  0.00000000000E+00 0. -1.
        -13    1    3    3    0    0 -0.26712846812E+02  0.47362060068E+02 -0.21558170114E+02  0.58493551930E+02  0.00000000000E+00 0.  1.
         13    1    3    3    0    0 -0.15294820317E+02 -0.40927544768E+02  0.98153161712E+01  0.44780976774E+02  0.00000000000E+00 0. -1.
         21    1    1    2  502  501  0.20239189982E+02 -0.43339607900E+02  0.15350240952E+03  0.16078226317E+03  0.00000000000E+00 0.  1.
<scales pt_clust_5="13000.00000" pt_clust_6="13000.00000" pt_clust_7="13000.00000" pt_clust_8="13000.00000" pt_clust_9="47.83248"></scales>
<clustering>
<clus scale="   47.832">  1  9  2 -1</clus>
<clus scale="   82.726">  5  6 -1 -1</clus>
<clus scale="   91.851">  1  5  2 -1</clus>
<clus scale="   93.390">  7  8 -1 -1</clus>
<clus scale="   47.832">  1  5  2 -1</clus>
</clustering>
</event>
<event>
 9    2  0.2984928E-005  0.3352227E+03  0.7546771E-02  0.1074325E+00
         -1   -1    0    0    0  501 -0.00000000000E+00  0.00000000000E+00  0.44555949034E+03  0.44555949034E+03  0.00000000000E+00 0.  1.
          2   -1    0    0  502    0  0.00000000000E+00 -0.00000000000E+00 -0.20361920147E+04  0.20361920147E+04  0.00000000000E+00 0. -1.
         23    2    1    2    0    0 -0.13900649123E+03  0.23518155560E+03 -0.11705456840E+03  0.31140008645E+03  0.92925094356E+02 0.  0.
         24    2    1    2    0    0 -0.19237128847E+03 -0.25131994368E+03  0.25280130567E+03  0.41238184109E+03  0.77342459158E+02 0.  0.
        -11    1    4    4    0    0 -0.14984765210E+03 -0.13473394565E+03  0.16334471946E+03  0.25940133447E+03  0.00000000000E+00 0.  1.
         12    1    4    4    0    0 -0.42523636369E+02 -0.11658599803E+03  0.89456586210E+02  0.15298050661E+03  0.00000000000E+00 0. -1.
        -13    1    3    3    0    0 -0.77968132610E+02  0.19584879959E+03 -0.60343652148E+02  0.21926499574E+03  0.00000000000E+00 0.  1.
         13    1    3    3    0    0 -0.61038358618E+02  0.39332756013E+02 -0.56710916252E+02  0.92135090712E+02  0.00000000000E+00 0. -1.
         21    1    1    2  502  501  0.33137777970E+03  0.16138388081E+02 -0.17263792616E+04  0.17579695775E+04  0.00000000000E+00 0. -1.
<scales pt_clust_5="13000.00000" pt_clust_6="13000.00000" pt_clust_7="13000.00000" pt_clust_8="13000.00000" pt_clust_9="326.17845"></scales>
<clustering>
<clus scale="   77.342">  5  6 -1 -1</clus>
<clus scale="   92.925">  7  8 -1 -1</clus>
<clus scale="  288.562">  1  7  2 -1</clus>
<clus scale="  326.178">  2  9  1 -1</clus>
<clus scale="  326.178">  2  5  1 -1</clus>
</clustering>
</event>
<event>
 9    2  0.2984928E-005  0.1163255E+03  0.7546771E-02  0.1252564E+00
          2   -1    0    0  502    0  0.00000000000E+00  0.00000000000E+00  0.31735074216E+03  0.31735074216E+03  0.00000000000E+00 0. -1.
         -1   -1    0    0    0  501 -0.00000000000E+00 -0.00000000000E+00 -0.10611834062E+03  0.10611834062E+03  0.00000000000E+00 0.  1.
         24    2    1    2    0    0 -0.79845409993E+02 -0.84773657458E+01 -0.39574937606E+02  0.12175297167E+03  0.82525482104E+02 0.  0.
         23    2    1    2    0    0  0.30970283607E+02  0.41800143308E+02  0.13305707635E+03  0.16994240406E+03  0.92031650439E+02 0.  0.
        -13    1    3    3    0    0 -0.92736415110E+02 -0.61582932725E+01 -0.49517473881E+02  0.10530881959E+03  0.00000000000E+00 0.  1.
         14    1    3    3    0    0  0.12891005116E+02 -0.23190724732E+01  0.99425362752E+01  0.16444152080E+02  0.00000000000E+00 0. -1.
        -13    1    4    4    0    0  0.62170531532E+02  0.26594587548E+02  0.10685920086E+03  0.12645685385E+03  0.00000000000E+00 0. -1.
         13    1    4    4    0    0 -0.31200247924E+02  0.15205555760E+02  0.26197875495E+02  0.43485550209E+02  0.00000000000E+00 0.  1.
         21    1    1    2  502  501  0.48875126386E+02 -0.33322777562E+02  0.11775026280E+03  0.13177370706E+03  0.00000000000E+00 0. -1.
<scales pt_clust_5="13000.00000" pt_clust_6="13000.00000" pt_clust_7="13000.00000" pt_clust_8="13000.00000" pt_clust_9="59.15391"></scales>
<clustering>
<clus scale="   59.154">  1  9  2 -1</clus>
<clus scale="   82.525">  5  6 -1 -1</clus>
<clus scale="   92.032">  7  8 -1 -1</clus>
<clus scale="  108.960">  2  5  1 -1</clus>
<clus scale="   59.154">  1  5  2 -1</clus>
</clustering>
</event>
<event>
 9    2  0.2984928E-005  0.1175256E+03  0.7546771E-02  0.1252340E+00
          2   -1    0    0  502    0  0.00000000000E+00  0.00000000000E+00  0.16243021977E+03  0.16243021977E+03  0.00000000000E+00 0. -1.
         -1   -1    0    0    0  501 -0.00000000000E+00 -0.00000000000E+00 -0.23386978100E+03  0.23386978100E+03  0.00000000000E+00 0.  1.
         23    2    1    2    0    0  0.66817136996E+02 -0.88882397221E+01 -0.18536167268E+03  0.21941483701E+03  0.96126949393E+02 0.  0.
         24    2    1    2    0    0 -0.64718878061E+02  0.32000753400E+02  0.77999183335E+02  0.13411779601E+03  0.81799322798E+02 0.  0.
        -11    1    4    4    0    0  0.18365271111E+02  0.16106651350E+02  0.15293327624E+02  0.28820015103E+02  0.00000000000E+00 0.  1.
         12    1    4    4    0    0 -0.83084149173E+02  0.15894102050E+02  0.62705855711E+02  0.10529778091E+03  0.00000000000E+00 0. -1.
        -13    1    3    3    0    0  0.67416940548E+02  0.24687308282E+02 -0.16549576717E+03  0.18039777165E+03  0.00000000000E+00 0.  1.
         13    1    3    3    0    0 -0.59980355153E+00 -0.33575548004E+02 -0.19865905512E+02  0.39017065367E+02  0.00000000000E+00 0. -1.
         21    1    1    2  502  501 -0.20982589349E+01 -0.23112513678E+02  0.35922928123E+02  0.42767367747E+02  0.00000000000E+00 0. -1.
<scales pt_clust_5="13000.00000" pt_clust_6="13000.00000" pt_clust_7="13000.00000" pt_clust_8="13000.00000" pt_clust_9="23.20756"></scales>
<clustering>
<clus scale="   23.208">  1  9  2 -1</clus>
<clus scale="   81.799">  5  6 -1 -1</clus>
<clus scale="   96.127">  7  8 -1 -1</clus>
<clus scale="  106.127">  1  5  2 -1</clus>
<clus scale="   23.208">  1  5  2 -1</clus>
</clustering>
</event>
<event>
 9    2  0.2984928E-005  0.1565444E+03  0.7546771E-02  0.1201508E+00
         -1   -1    0    0    0  501 -0.00000000000E+00  0.00000000000E+00  0.18268886115E+03  0.18268886115E+03  0.00000000000E+00 0.  1.
          2   -1    0    0  502    0  0.00000000000E+00 -0.00000000000E+00 -0.30384948263E+03  0.30384948263E+03  0.00000000000E+00 0. -1.
         24    2    1    2    0    0  0.90646639084E+02 -0.50085872407E+02  0.12681387370E+03  0.18160352763E+03  0.78566372549E+02 0.  0.
         23    2    1    2    0    0 -0.91438449275E+02  0.24219759492E+02 -0.21081749581E+03  0.25965429756E+03  0.11844302829E+03 0.  0.
        -13    1    3    3    0    0  0.58815714935E+02 -0.32298789116E+02  0.12864592211E+03  0.14509401565E+03  0.00000000000E+00 0.  1.
         14    1    3    3    0    0  0.31830924149E+02 -0.17787083290E+02 -0.18320484114E+01  0.36509511987E+02  0.00000000000E+00 0. -1.
        -11    1    4    4    0    0 -0.21051098141E+02  0.62701994371E+02 -0.62330664258E+02  0.90883444795E+02  0.00000000000E+00 0.  1.
         11    1    4    4    0    0 -0.70387351134E+02 -0.38482234879E+02 -0.14848683155E+03  0.16877085277E+03  0.00000000000E+00 0. -1.
         21    1    1    2  502  501  0.79181019053E+00  0.25866112915E+02 -0.37156999368E+02  0.45280518579E+02  0.00000000000E+00 0. -1.
<scales pt_clust_5="13000.00000" pt_clust_6="13000.00000" pt_clust_7="13000.00000" pt_clust_8="13000.00000" pt_clust_9="25.87823"></scales>
<clustering>
<clus scale="   25.878">  2  9  1 -1</clus>
<clus scale="   78.566">  5  6 -1 -1</clus>
<clus scale="  118.443">  7  8 -1 -1</clus>
<clus scale="  129.035">  1  5  2 -1</clus>
<clus scale="   25.878">  2  5  1 -1</clus>
</clustering>
</event>
<event>
 9    2  0.2984928E-005  0.1322330E+03  0.7546771E-02  0.1227225E+00
          2   -1    0    0  502    0  0.00000000000E+00  0.00000000000E+00  0.46258191015E+03  0.46258191015E+03  0.00000000000E+00 0. -1.
         -1   -1    0    0    0  501 -0.00000000000E+00 -0.00000000000E+00 -0.10215285284E+03  0.10215285284E+03  0.00000000000E+00 0.  1.
         24    2    1    2    0    0 -0.24615349230E+02  0.10502435515E+03 -0.74951334406E+01  0.13439824014E+03  0.79816535476E+02 0.  0.
         23    2    1    2    0    0  0.62092787832E+02 -0.50434231043E+02  0.11039609349E+03  0.16443172610E+03  0.91931328336E+02 0.  0.
        -11    1    3    3    0    0 -0.12718456625E+02  0.10806626770E+03 -0.26294160020E+02  0.11194400477E+03  0.00000000000E+00 0.  1.
         12    1    3    3    0    0 -0.11896892605E+02 -0.30419125500E+01  0.18799026579E+02  0.22454235368E+02  0.00000000000E+00 0. -1.
        -11    1    4    4    0    0  0.77867493207E+02 -0.16062295451E+02  0.94261296559E+02  0.12331478363E+03  0.00000000000E+00 0.  1.
         11    1    4    4    0    0 -0.15774705375E+02 -0.34371935592E+02  0.16134796931E+02  0.41116942469E+02  0.00000000000E+00 0. -1.
         21    1    1    2  502  501 -0.37477438602E+02 -0.54590124106E+02  0.25752809726E+03  0.26590479675E+03  0.00000000000E+00 0. -1.
<scales pt_clust_5="13000.00000" pt_clust_6="13000.00000" pt_clust_7="13000.00000" pt_clust_8="13000.00000" pt_clust_9="66.21661"></scales>
<clustering>
<clus scale="   66.217">  1  9  2 -1</clus>
<clus scale="   79.817">  5  6 -1 -1</clus>
<clus scale="   91.931">  7  8 -1 -1</clus>
<clus scale="  124.116">  2  5  1 -1</clus>
<clus scale="   66.217">  1  5  2 -1</clus>
</clustering>
</event>
<event>
 9    2  0.2984928E-005  0.9511620E+02  0.7546771E-02  0.1297713E+00
         -1   -1    0    0    0  501 -0.00000000000E+00  0.00000000000E+00  0.16618517470E+03  0.16618517470E+03  0.00000000000E+00 0.  1.
          2   -1    0    0  502    0  0.00000000000E+00 -0.00000000000E+00 -0.14677966544E+03  0.14677966544E+03  0.00000000000E+00 0. -1.
         23    2    1    2    0    0  0.26649234281E+02 -0.13488007265E+02  0.11036362407E+03  0.14658575825E+03  0.91734110208E+02 0.  0.
         24    2    1    2    0    0 -0.11982268271E+02 -0.32251836780E+02 -0.77368169101E+02  0.11645974846E+03  0.79958012059E+02 0.  0.
        -11    1    4    4    0    0 -0.42160041494E+02 -0.74756862234E+01 -0.60035020357E+02  0.73739803720E+02  0.00000000000E+00 0.  1.
         12    1    4    4    0    0  0.30177773223E+02 -0.24776150556E+02 -0.17333148744E+02  0.42719944739E+02  0.00000000000E+00 0. -1.
        -13    1    3    3    0    0  0.39107227999E+02 -0.45775914480E+02  0.56520180579E+02  0.82579297896E+02  0.00000000000E+00 0. -1.
         13    1    3    3    0    0 -0.12457993718E+02  0.32287907216E+02  0.53843443495E+02  0.64006460356E+02  0.00000000000E+00 0.  1.
         21    1    1    2  502  501 -0.14666966010E+02  0.45739844044E+02 -0.13589945713E+02  0.49919333425E+02  0.00000000000E+00 0.  1.
<scales pt_clust_5="13000.00000" pt_clust_6="13000.00000" pt_clust_7="13000.00000" pt_clust_8="13000.00000" pt_clust_9="48.03388"></scales>
<clustering>
<clus scale="   48.034">  2  9  1 -1</clus>
<clus scale="   79.958">  5  6 -1 -1</clus>
<clus scale="   83.817">  2  5  1 -1</clus>
<clus scale="   91.734">  7  8 -1 -1</clus>
<clus scale="   48.034">  2  5  1 -1</clus>
</clustering>
</event>
<event>
 9    2  0.2984928E-005  0.1604001E+03  0.7546771E-02  0.1190642E+00
          4   -1    0    0  502    0  0.00000000000E+00  0.00000000000E+00  0.64446284890E+03  0.64446284890E+03  0.00000000000E+00 0. -1.
         -3   -1    0    0    0  501 -0.00000000000E+00 -0.00000000000E+00 -0.54571940100E+02  0.54571940100E+02  0.00000000000E+00 0.  1.
         23    2    1    2    0    0  0.13283406791E+03  0.49415730841E+01  0.13662322312E+03  0.21306749940E+03  0.95197402621E+02 0.  0.
         24    2    1    2    0    0 -0.12135757831E+03  0.17007138260E+02  0.34413898060E+03  0.37406317879E+03  0.80465639811E+02 0.  0.
        -11    1    4    4    0    0 -0.87794516849E+01  0.29711477368E+02  0.49530302403E+02  0.58421755498E+02  0.00000000000E+00 0.  1.
         12    1    4    4    0    0 -0.11257812663E+03 -0.12704339108E+02  0.29460867820E+03  0.31564142329E+03  0.00000000000E+00 0. -1.
        -11    1    3    3    0    0  0.13105003601E+03 -0.24866785914E+02  0.10695438629E+03  0.17097283330E+03  0.00000000000E+00 0.  1.
         11    1    3    3    0    0  0.17840319021E+01  0.29808358998E+02  0.29668836830E+02  0.42094666109E+02  0.00000000000E+00 0. -1.
         21    1    1    2  502  501 -0.11476489594E+02 -0.21948711344E+02  0.10912870508E+03  0.11190411081E+03  0.00000000000E+00 0. -1.
<scales pt_clust_5="13000.00000" pt_clust_6="13000.00000" pt_clust_7="13000.00000" pt_clust_8="13000.00000" pt_clust_9="24.76804"></scales>
<clustering>
<clus scale="   24.768">  1  9  2 -1</clus>
<clus scale="   80.466">  5  6 -1 -1</clus>
<clus scale="   95.197">  7  8 -1 -1</clus>
<clus scale="  152.120">  1  5  2 -1</clus>
<clus scale="   24.768">  1  5  2 -1</clus>
</clustering>
</event>
<event>
 9    2  0.2984928E-005  0.1093777E+03  0.7546771E-02  0.1268930E+00
         -1   -1    0    0    0  501 -0.00000000000E+00  0.00000000000E+00  0.98506479784E+02  0.98506479784E+02  0.00000000000E+00 0.  1.
          2   -1    0    0  502    0  0.00000000000E+00 -0.00000000000E+00 -0.28085653460E+03  0.28085653460E+03  0.00000000000E+00 0. -1.
         23    2    1    2    0    0  0.73604085514E+02  0.22659789145E+02 -0.25002972061E+02  0.12225632132E+03  0.91599301539E+02 0.  0.
         24    2    1    2    0    0 -0.36862326084E+02  0.59332645559E+02 -0.12606574505E+03  0.16196869685E+03  0.73905972509E+02 0.  0.
        -11    1    4    4    0    0 -0.11780759094E+02 -0.16651977148E+02 -0.16177915643E+02  0.26034584351E+02  0.00000000000E+00 0.  1.
         12    1    4    4    0    0 -0.25081566990E+02  0.75984622707E+02 -0.10988782941E+03  0.13593411250E+03  0.00000000000E+00 0. -1.
        -13    1    3    3    0    0  0.40428239144E+02  0.11689054287E+02 -0.59680977442E+02  0.73026677173E+02  0.00000000000E+00 0. -1.
         13    1    3    3    0    0  0.33175846369E+02  0.10970734857E+02  0.34678005381E+02  0.49229644147E+02  0.00000000000E+00 0.  1.
         21    1    1    2  502  501 -0.36741759430E+02 -0.81992434704E+02 -0.31281337709E+02  0.95137996214E+02  0.00000000000E+00 0. -1.
<scales pt_clust_5="13000.00000" pt_clust_6="13000.00000" pt_clust_7="13000.00000" pt_clust_8="13000.00000" pt_clust_9="89.84830"></scales>
<clustering>
<clus scale="   73.906">  5  6 -1 -1</clus>
<clus scale="   89.848">  1  9  2 -1</clus>
<clus scale="   91.599">  7  8 -1 -1</clus>
<clus scale="   95.053">  2  5  1 -1</clus>
<clus scale="   95.053">  2  5  1 -1</clus>
</clustering>
</event>
<event>
 9    2  0.2984928E-005  0.9814652E+02  0.7546771E-02  0.1290835E+00
         -3   -1    0    0    0  501 -0.00000000000E+00  0.00000000000E+00  0.14878853616E+03  0.14878853616E+03  0.00000000000E+00 0.  1.
          4   -1    0    0  502    0  0.00000000000E+00 -0.00000000000E+00 -0.10227658920E+03  0.10227658920E+03  0.00000000000E+00 0. -1.
         23    2    1    2    0    0  0.18522591566E+02  0.43772856123E+02  0.77114174570E+02  0.12898351850E+03  0.91820492228E+02 0.  0.
         24    2    1    2    0    0 -0.81713487711E+01 -0.77597461357E+01 -0.15886939876E+02  0.81824532809E+02  0.79472477688E+02 0.  0.
        -11    1    4    4    0    0 -0.33163980463E+02  0.22134938134E+02 -0.34553039879E+00  0.39873857069E+02  0.00000000000E+00 0.  1.
         12    1    4    4    0    0  0.24992631692E+02 -0.29894684270E+02 -0.15541409477E+02  0.41950675739E+02  0.00000000000E+00 0. -1.
        -13    1    3    3    0    0  0.53527057290E+02  0.14076669624E+02  0.55010788605E+02  0.78035154595E+02  0.00000000000E+00 0. -1.
         13    1    3    3    0    0 -0.35004465724E+02  0.29696186499E+02  0.22103385966E+02  0.50948363903E+02  0.00000000000E+00 0.  1.
         21    1    1    2  502  501 -0.10351242795E+02 -0.36013109987E+02 -0.14715287730E+02  0.40257074053E+02  0.00000000000E+00 0. -1.
<scales pt_clust_5="13000.00000" pt_clust_6="13000.00000" pt_clust_7="13000.00000" pt_clust_8="13000.00000" pt_clust_9="37.47122"></scales>
<clustering>
<clus scale="   37.471">  2  9  1 -1</clus>
<clus scale="   79.472">  5  6 -1 -1</clus>
<clus scale="   86.704">  2  5  1 -1</clus>
<clus scale="   91.820">  7  8 -1 -1</clus>
<clus scale="   37.471">  2  5  1 -1</clus>
</clustering>
</event>
<event>
 9    2  0.2984928E-005  0.1730951E+03  0.7546771E-02  0.1206974E+00
          2   -1    0    0  502    0  0.00000000000E+00  0.00000000000E+00  0.54857443605E+02  0.54857443605E+02  0.00000000000E+00 0. -1.
         -1   -1    0    0    0  501 -0.00000000000E+00 -0.00000000000E+00 -0.83477033672E+03  0.83477033672E+03  0.00000000000E+00 0.  1.
         23    2    1    2    0    0  0.11622023110E+03 -0.70181073556E+02 -0.27224784314E+03  0.31780914466E+03  0.91930621289E+02 0.  0.
         24    2    1    2    0    0  0.81192177372E+01 -0.19219345486E+02 -0.76389079440E+02  0.11415970565E+03  0.82230420159E+02 0.  0.
        -13    1    4    4    0    0  0.42458709484E+01  0.22245696522E+02 -0.68007242743E+02  0.71679031100E+02  0.00000000000E+00 0.  1.
         14    1    4    4    0    0  0.38733467889E+01 -0.41465042008E+02 -0.83818366970E+01  0.42480674553E+02  0.00000000000E+00 0. -1.
        -13    1    3    3    0    0  0.21309337218E+01 -0.44736434968E+02 -0.53360880261E+02  0.69665436441E+02  0.00000000000E+00 0.  1.
         13    1    3    3    0    0  0.11408929738E+03 -0.25444638588E+02 -0.21888696288E+03  0.24814370822E+03  0.00000000000E+00 0. -1.
         21    1    1    2  502  501 -0.12433944884E+03  0.89400419042E+02 -0.43127597053E+03  0.45765893001E+03  0.00000000000E+00 0.  1.
<scales pt_clust_5="13000.00000" pt_clust_6="13000.00000" pt_clust_7="13000.00000" pt_clust_8="13000.00000" pt_clust_9="146.66513"></scales>
<clustering>
<clus scale="   82.230">  5  6 -1 -1</clus>
<clus scale="   84.836">  1  5  2 -1</clus>
<clus scale="   91.931">  7  8 -1 -1</clus>
<clus scale="  146.665">  2  9  1 -1</clus>
<clus scale="   84.836">  1  5  2 -1</clus>
</clustering>
</event>
<event>
 9    2  0.2984928E-005  0.1090277E+03  0.7546771E-02  0.1267638E+00
          2   -1    0    0  502    0  0.00000000000E+00  0.00000000000E+00  0.19401901939E+03  0.19401901939E+03  0.00000000000E+00 0. -1.
         -1   -1    0    0    0  501 -0.00000000000E+00 -0.00000000000E+00 -0.17877962245E+03  0.17877962245E+03  0.00000000000E+00 0.  1.
         23    2    1    2    0    0  0.51809296634E+02  0.17090943743E+02 -0.10609491780E+03  0.14968173878E+03  0.90400153576E+02 0.  0.
         24    2    1    2    0    0 -0.77373685310E+02 -0.17799711851E+02  0.12694289873E+02  0.11150733661E+03  0.77260754602E+02 0.  0.
        -11    1    4    4    0    0 -0.84326667909E+02 -0.35705148276E+02  0.10553340677E+02  0.92180353294E+02  0.00000000000E+00 0.  1.
         12    1    4    4    0    0  0.69529825988E+01  0.17905436425E+02  0.21409491962E+01  0.19326983314E+02  0.00000000000E+00 0. -1.
        -13    1    3    3    0    0 -0.23636250613E+02 -0.89260740676E+00 -0.45416901312E+02  0.51207069979E+02  0.00000000000E+00 0.  1.
         13    1    3    3    0    0  0.75445547247E+02  0.17983551149E+02 -0.60678016488E+02  0.98474668805E+02  0.00000000000E+00 0. -1.
         21    1    1    2  502  501  0.25564388676E+02  0.70876810835E+00  0.10864002486E+03  0.11160956645E+03  0.00000000000E+00 0. -1.
<scales pt_clust_5="13000.00000" pt_clust_6="13000.00000" pt_clust_7="13000.00000" pt_clust_8="13000.00000" pt_clust_9="25.57421"></scales>
<clustering>
<clus scale="   25.574">  1  9  2 -1</clus>
<clus scale="   77.261">  5  6 -1 -1</clus>
<clus scale="   90.400">  7  8 -1 -1</clus>
<clus scale="   98.408">  1  5  2 -1</clus>
<clus scale="   25.574">  1  5  2 -1</clus>
</clustering>
</event>
<event>
 9    2  0.2984928E-005  0.1340365E+03  0.7546771E-02  0.1222861E+00
         -3   -1    0    0    0  501 -0.00000000000E+00  0.00000000000E+00  0.19821090640E+03  0.19821090640E+03  0.00000000000E+00 0.  1.
          4   -1    0    0  502    0  0.00000000000E+00 -0.00000000000E+00 -0.17403656798E+03  0.17403656798E+03  0.00000000000E+00 0. -1.
         23    2    1    2    0    0  0.74558055536E+02 -0.82127181459E+02  0.12070680030E+03  0.18509392498E+03  0.85940978849E+02 0.  0.
         24    2    1    2    0    0 -0.37256775591E+02  0.74849306794E+02 -0.47943615827E+02  0.12546701192E+03  0.80329911777E+02 0.  0.
        -13    1    4    4    0    0 -0.60588027449E+02  0.39060732189E+02 -0.38457482247E+02  0.81704515237E+02  0.00000000000E+00 0.  1.
         14    1    4    4    0    0  0.23331251858E+02  0.35788574605E+02 -0.94861335799E+01  0.43762496682E+02  0.00000000000E+00 0. -1.
        -11    1    3    3    0    0  0.32618892877E+02 -0.63539713285E+02  0.11948420739E+03  0.13920403425E+03  0.00000000000E+00 0.  1.
         11    1    3    3    0    0  0.41939162659E+02 -0.18587468175E+02  0.12225929154E+01  0.45889890729E+02  0.00000000000E+00 0. -1.
         21    1    1    2  502  501 -0.37301279945E+02  0.72778746651E+01 -0.48588846059E+02  0.61686537482E+02  0.00000000000E+00 0.  1.
<scales pt_clust_5="13000.00000" pt_clust_6="13000.00000" pt_clust_7="13000.00000" pt_clust_8="13000.00000" pt_clust_9="38.00464"></scales>
<clustering>
<clus scale="   38.005">  2  9  1 -1</clus>
<clus scale="   80.330">  5  6 -1 -1</clus>
<clus scale="   85.941">  7  8 -1 -1</clus>
<clus scale="  130.510">  2  5  1 -1</clus>
<clus scale="   38.005">  2  5  1 -1</clus>
</clustering>
</event>
<event>
 9    2  0.2984928E-005  0.1649069E+03  0.7546771E-02  0.1184945E+00
         -1   -1    0    0    0  501 -0.00000000000E+00  0.00000000000E+00  0.55341793292E+02  0.55341793292E+02  0.00000000000E+00 0.  1.
          2   -1    0    0  502    0  0.00000000000E+00 -0.00000000000E+00 -0.72705015641E+03  0.72705015641E+03  0.00000000000E+00 0. -1.
         24    2    1    2    0    0  0.15467427728E+03 -0.25822756030E+02 -0.34187916176E+03  0.38444407368E+03  0.79529477276E+02 0.  0.
         23    2    1    2    0    0 -0.11670289514E+03  0.37631636619E+02 -0.32342399931E+03  0.35767006406E+03  0.91044415462E+02 0.  0.
        -13    1    3    3    0    0  0.11242392706E+03 -0.48121710150E+02 -0.28522706297E+03  0.31033742251E+03  0.00000000000E+00 0.  1.
         14    1    3    3    0    0  0.42250350223E+02  0.22298954120E+02 -0.56652098797E+02  0.74106651165E+02  0.00000000000E+00 0. -1.
        -11    1    4    4    0    0 -0.26206828981E+02 -0.29600817491E+02 -0.72361989458E+02  0.82457648522E+02  0.00000000000E+00 0.  1.
         11    1    4    4    0    0 -0.90496066155E+02  0.67232454110E+02 -0.25106200986E+03  0.27521241554E+03  0.00000000000E+00 0. -1.
         21    1    1    2  502  501 -0.37971382149E+02 -0.11808880589E+02 -0.64052020383E+01  0.40277811959E+02  0.00000000000E+00 0.  1.
<scales pt_clust_5="13000.00000" pt_clust_6="13000.00000" pt_clust_7="13000.00000" pt_clust_8="13000.00000" pt_clust_9="39.76526"></scales>
<clustering>
<clus scale="   39.765">  1  9  2 -1</clus>
<clus scale="   79.529">  5  6 -1 -1</clus>
<clus scale="   91.044">  7  8 -1 -1</clus>
<clus scale="  158.840">  1  5  2 -1</clus>
<clus scale="  164.907">  2  5  1 -1</clus>
</clustering>
</event>
<event>
 9    2  0.2984928E-005  0.1437422E+03  0.7546771E-02  0.1210502E+00
         -1   -1    0    0    0  501 -0.00000000000E+00  0.00000000000E+00  0.11398631628E+03  0.11398631628E+03  0.00000000000E+00 0.  1.
          2   -1    0    0  502    0  0.00000000000E+00 -0.00000000000E+00 -0.29672270125E+03  0.29672270125E+03  0.00000000000E+00 0. -1.
         23    2    1    2    0    0  0.65300002727E+02  0.87751936412E+02  0.18659196125E+02  0.14362814603E+03  0.91194221476E+02 0.  0.
         24    2    1    2    0    0 -0.45013593829E+02 -0.10993753807E+03 -0.15114828581E+03  0.20852722098E+03  0.80779401326E+02 0.  0.
        -13    1    4    4    0    0 -0.21314559909E+02 -0.11031082521E+03 -0.14608202096E+03  0.18428984093E+03  0.00000000000E+00 0.  1.
         14    1    4    4    0    0 -0.23699033920E+02  0.37328713522E+00 -0.50662648485E+01  0.24237380047E+02  0.00000000000E+00 0. -1.
        -11    1    3    3    0    0  0.39027856378E+02  0.10399974026E+03  0.99108395384E+01  0.11152284200E+03  0.00000000000E+00 0. -1.
         11    1    3    3    0    0  0.26272146349E+02 -0.16247803847E+02  0.87483565865E+01  0.32105304026E+02  0.00000000000E+00 0.  1.
         21    1    1    2  502  501 -0.20286408897E+02  0.22185601659E+02 -0.50247295289E+02  0.58553650533E+02  0.00000000000E+00 0.  1.
<scales pt_clust_5="13000.00000" pt_clust_6="13000.00000" pt_clust_7="13000.00000" pt_clust_8="13000.00000" pt_clust_9="30.06226"></scales>
<clustering>
<clus scale="   30.062">  2  9  1 -1</clus>
<clus scale="   80.779">  5  6 -1 -1</clus>
<clus scale="   91.194">  7  8 -1 -1</clus>
<clus scale="  137.371">  2  5  1 -1</clus>
<clus scale="   30.062">  2  5  1 -1</clus>
</clustering>
</event>
<event>
 9    2  0.2984928E-005  0.2394481E+03  0.7546771E-02  0.1120802E+00
          4   -1    0    0  502    0  0.00000000000E+00  0.00000000000E+00  0.60169218435E+03  0.60169218435E+03  0.00000000000E+00 0. -1.
         -3   -1    0    0    0  501 -0.00000000000E+00 -0.00000000000E+00 -0.14007822297E+03  0.14007822297E+03  0.00000000000E+00 0.  1.
         23    2    1    2    0    0 -0.18702927567E+03 -0.14940411903E+03  0.78425075224E+02  0.26786670876E+03  0.91107302113E+02 0.  0.
         24    2    1    2    0    0  0.18725350727E+03  0.10709428701E+03  0.35471192078E+03  0.42290262286E+03  0.80579273960E+02 0.  0.
        -11    1    4    4    0    0  0.10655577017E+03  0.10428832552E+03  0.24222878325E+03  0.28443799048E+03  0.00000000000E+00 0.  1.
         12    1    4    4    0    0  0.80697737095E+02  0.28059614868E+01  0.11248313753E+03  0.13846463238E+03  0.00000000000E+00 0. -1.
        -11    1    3    3    0    0 -0.94918565696E+02 -0.12121478384E+03  0.20113924867E+02  0.15526470271E+03  0.00000000000E+00 0. -1.
         11    1    3    3    0    0 -0.92110709971E+02 -0.28189335189E+02  0.58311150357E+02  0.11260200605E+03  0.00000000000E+00 0.  1.
         21    1    1    2  502  501 -0.22423159862E+00  0.42309832017E+02  0.28476965378E+02  0.51001075697E+02  0.00000000000E+00 0.  1.
<scales pt_clust_5="13000.00000" pt_clust_6="13000.00000" pt_clust_7="13000.00000" pt_clust_8="13000.00000" pt_clust_9="42.31043"></scales>
<clustering>
<clus scale="   42.310">  2  9  1 -1</clus>
<clus scale="   80.579">  5  6 -1 -1</clus>
<clus scale="   91.107">  7  8 -1 -1</clus>
<clus scale="  235.644">  1  5  2 -1</clus>
<clus scale="  235.644">  1  5  2 -1</clus>
</clustering>
</event>
<event>
 9    2  0.2984928E-005  0.9311977E+02  0.7546771E-02  0.1298717E+00
          2   -1    0    0  502    0  0.00000000000E+00  0.00000000000E+00  0.16376768223E+03  0.16376768223E+03  0.00000000000E+00 0. -1.
         -1   -1    0    0    0  501 -0.00000000000E+00 -0.00000000000E+00 -0.30605370710E+03  0.30605370710E+03  0.00000000000E+00 0.  1.
         24    2    1    2    0    0  0.22241094135E+02 -0.55411980142E+01 -0.27797378287E+03  0.29153168484E+03  0.84828816798E+02 0.  0.
         23    2    1    2    0    0 -0.49156444260E+01  0.18572422523E+02  0.97426680394E+02  0.13431364190E+03  0.90438365256E+02 0.  0.
        -11    1    3    3    0    0 -0.25569547382E+02 -0.49939417554E+01 -0.33562463994E+02  0.42487412217E+02  0.00000000000E+00 0.  1.
         12    1    3    3    0    0  0.47810641517E+02 -0.54725625878E+00 -0.24441131888E+03  0.24904427263E+03  0.00000000000E+00 0. -1.
        -13    1    4    4    0    0 -0.25295653656E+02 -0.25355616393E+01 -0.65696052982E+01  0.26257549019E+02  0.00000000000E+00 0.  1.
         13    1    4    4    0    0  0.20380009230E+02  0.21107984162E+02  0.10399628569E+03  0.10805609288E+03  0.00000000000E+00 0. -1.
         21    1    1    2  502  501 -0.17325449709E+02 -0.13031224509E+02  0.38261077612E+02  0.43976062578E+02  0.00000000000E+00 0. -1.
<scales pt_clust_5="13000.00000" pt_clust_6="13000.00000" pt_clust_7="13000.00000" pt_clust_8="13000.00000" pt_clust_9="21.67911"></scales>
<clustering>
<clus scale="   21.679">  1  9  2 -1</clus>
<clus scale="   84.829">  5  6 -1 -1</clus>
<clus scale="   87.682">  2  5  1 -1</clus>
<clus scale="   90.438">  7  8 -1 -1</clus>
<clus scale="   21.679">  1  5  2 -1</clus>
</clustering>
</event>
<event>
 9    2  0.2984928E-005  0.1317973E+03  0.7546771E-02  0.1227137E+00
          2   -1    0    0  502    0  0.00000000000E+00  0.00000000000E+00  0.10436412718E+04  0.10436412718E+04  0.00000000000E+00 0. -1.
         -1   -1    0    0    0  501 -0.00000000000E+00 -0.00000000000E+00 -0.27448551783E+02  0.27448551783E+02  0.00000000000E+00 0.  1.
         24    2    1    2    0    0 -0.34016522138E+02  0.92860125984E+02  0.20829935624E+03  0.24435530460E+03  0.80875004186E+02 0.  0.
         23    2    1    2    0    0  0.67820108455E+02 -0.66346407086E+02  0.65285147101E+03  0.66585056002E+03  0.90224787262E+02 0.  0.
        -11    1    3    3    0    0 -0.27220272718E+02  0.10736721987E+03  0.17072672432E+03  0.20350989545E+03  0.00000000000E+00 0.  1.
         12    1    3    3    0    0 -0.67962494194E+01 -0.14507093890E+02  0.37572631923E+02  0.40845409154E+02  0.00000000000E+00 0. -1.
        -13    1    4    4    0    0  0.54334873442E+02  0.73179551976E+01  0.32155156835E+03  0.32619203247E+03  0.00000000000E+00 0. -1.
         13    1    4    4    0    0  0.13485235013E+02 -0.73664362284E+02  0.33129990267E+03  0.33965852756E+03  0.00000000000E+00 0.  1.
         21    1    1    2  502  501 -0.33803586318E+02 -0.26513718898E+02  0.15504189281E+03  0.16088395900E+03  0.00000000000E+00 0.  1.
<scales pt_clust_5="13000.00000" pt_clust_6="13000.00000" pt_clust_7="13000.00000" pt_clust_8="13000.00000" pt_clust_9="42.96114"></scales>
<clustering>
<clus scale="   42.961">  1  9  2 -1</clus>
<clus scale="   80.875">  5  6 -1 -1</clus>
<clus scale="   90.225">  7  8 -1 -1</clus>
<clus scale="  125.582">  2  5  1 -1</clus>
<clus scale="   42.961">  1  5  2 -1</clus>
</clustering>
</event>
<event>
 9    2  0.2984928E-005  0.1221053E+03  0.7546771E-02  0.1240311E+00
          2   -1    0    0  502    0  0.00000000000E+00  0.00000000000E+00  0.81803728468E+02  0.81803728468E+02  0.00000000000E+00 0. -1.
         -1   -1    0    0    0  501 -0.00000000000E+00 -0.00000000000E+00 -0.49220650905E+03  0.49220650905E+03  0.00000000000E+00 0.  1.
         23    2    1    2    0    0 -0.44298896392E+02 -0.79462282516E+02 -0.31652570605E+03  0.34096411809E+03  0.88268684564E+02 0.  0.
         24    2    1    2    0    0  0.84990169476E+02  0.13471639831E+01 -0.43111781710E+02  0.13138557445E+03  0.90434504990E+02 0.  0.
        -13    1    4    4    0    0  0.98137119452E+02 -0.17468416619E+02 -0.26778850284E+02  0.10321408148E+03  0.00000000000E+00 0.  1.
         14    1    4    4    0    0 -0.13146949976E+02  0.18815580602E+02 -0.16332931426E+02  0.28171492968E+02  0.00000000000E+00 0. -1.
        -11    1    3    3    0    0 -0.51607464314E+02 -0.39676994033E+02 -0.27649300710E+03  0.28405277186E+03  0.00000000000E+00 0.  1.
         11    1    3    3    0    0  0.73085679227E+01 -0.39785288483E+02 -0.40032698949E+02  0.56911346232E+02  0.00000000000E+00 0. -1.
         21    1    1    2  502  501 -0.40691273084E+02  0.78115118533E+02 -0.50765292822E+02  0.10166054497E+03  0.00000000000E+00 0. -1.
<scales pt_clust_5="13000.00000" pt_clust_6="13000.00000" pt_clust_7="13000.00000" pt_clust_8="13000.00000" pt_clust_9="88.07810"></scales>
<clustering>
<clus scale="   88.078">  1  9  2 -1</clus>
<clus scale="   88.269">  7  8 -1 -1</clus>
<clus scale="   90.435">  5  6 -1 -1</clus>
<clus scale="  120.510">  2  7  1 -1</clus>
<clus scale="   88.078">  1  5  2 -1</clus>
</clustering>
</event>
<event>
 9    2  0.2984928E-005  0.9177442E+02  0.7546771E-02  0.1305813E+00
          2   -1    0    0  502    0  0.00000000000E+00  0.00000000000E+00  0.40253171084E+03  0.40253171084E+03  0.00000000000E+00 0. -1.
         -1   -1    0    0    0  501 -0.00000000000E+00 -0.00000000000E+00 -0.34891305676E+02  0.34891305676E+02  0.00000000000E+00 0.  1.
         23    2    1    2    0    0  0.13015293587E+02 -0.11568410511E+02  0.64421177923E+02  0.11338323280E+03  0.91664842364E+02 0.  0.
         24    2    1    2    0    0 -0.17284209814E+01 -0.55132195457E+01  0.28655137636E+03  0.29763916191E+03  0.80274506434E+02 0.  0.
        -11    1    4    4    0    0  0.33293165421E+02  0.43072697763E+01  0.65361115056E+02  0.73478315155E+02  0.00000000000E+00 0.  1.
         12    1    4    4    0    0 -0.35021586402E+02 -0.98204893220E+01  0.22119026130E+03  0.22416084676E+03  0.00000000000E+00 0. -1.
        -11    1    3    3    0    0  0.33461780625E+02  0.28649247467E+02  0.48551102204E+02  0.65556690492E+02  0.00000000000E+00 0.  1.
         11    1    3    3    0    0 -0.20446487039E+02 -0.40217657979E+02  0.15870075718E+02  0.47826542305E+02  0.00000000000E+00 0. -1.
         21    1    1    2  502  501 -0.11286872605E+02  0.17081630057E+02  0.16667850880E+02  0.26400621803E+02  0.00000000000E+00 0.  1.
<scales pt_clust_5="13000.00000" pt_clust_6="13000.00000" pt_clust_7="13000.00000" pt_clust_8="13000.00000" pt_clust_9="20.47378"></scales>
<clustering>
<clus scale="   20.474">  2  9  1 -1</clus>
<clus scale="   80.275">  5  6 -1 -1</clus>
<clus scale="   80.400">  1  5  2 -1</clus>
<clus scale="   91.665">  7  8 -1 -1</clus>
<clus scale="   80.400">  1  5  2 -1</clus>
</clustering>
</event>
