<event>
 9    2  0.5555611E-005  0.4200705E+03  0.7546771E-02  0.1058465E+00
         21   -1    0    0  501  502  0.00000000000E+00  0.00000000000E+00  0.15949569990E+03  0.15949569990E+03  0.00000000000E+00 0. -1.
          2   -1    0    0  502    0 -0.00000000000E+00 -0.00000000000E+00 -0.67274795550E+03  0.67274795550E+03  0.00000000000E+00 0. -1.
         24    2    1    2    0    0 -0.48167992789E+02  0.20804086241E+03 -0.12116040126E+03  0.25761749830E+03  0.78011387833E+02 0.  0.
         23    2    1    2    0    0 -0.18674743933E+02  0.87447000375E+01 -0.32489947062E+03  0.33802787315E+03  0.90983301634E+02 0.  0.
        -13    1    3    3    0    0  0.18614562827E+02  0.77901442445E+02 -0.31599269268E+02  0.86102558049E+02  0.00000000000E+00 0.  1.
         14    1    3    3    0    0 -0.66782555616E+02  0.13013941997E+03 -0.89561131994E+02  0.17151494025E+03  0.00000000000E+00 0. -1.
        -13    1    4    4    0    0 -0.54983564692E+02  0.12968491760E+02 -0.20903383702E+03  0.21653295172E+03  0.00000000000E+00 0.  1.
         13    1    4    4    0    0  0.36308820759E+02 -0.42237917226E+01 -0.11586563361E+03  0.12149492143E+03  0.00000000000E+00 0. -1.
          1    1    1    2  501    0  0.66842736723E+02 -0.21678556245E+03 -0.67192383715E+02  0.23659828395E+03  0.00000000000E+00 0. -1.
<scales pt_clust_5="13000.00000" pt_clust_6="13000.00000" pt_clust_7="13000.00000" pt_clust_8="13000.00000" pt_clust_9="13000.00000"></scales>
<clustering>
<clus scale="   78.011">  5  6 -1 -1</clus>
<clus scale="   90.983">  7  8 -1 -1</clus>
<clus scale="  226.857">  7  9 -1 -1</clus>
<clus scale="  227.348">  2  5  1 -1</clus>
<clus scale="  420.070">  1  5  2 -1</clus>
</clustering>
</event>
<event>
 9    2  0.3897980E-005  0.3101799E+03  0.7546771E-02  0.1120017E+00
         21   -1    0    0  501  502  0.00000000000E+00  0.00000000000E+00  0.43367182844E+02  0.43367182844E+02  0.00000000000E+00 0.  1.
          2   -1    0    0  502    0 -0.00000000000E+00 -0.00000000000E+00 -0.11499669098E+04  0.11499669098E+04  0.00000000000E+00 0. -1.
         24    2    1    2    0    0 -0.76265850359E+02 -0.93898310952E+01 -0.49946831431E+03  0.51155690495E+03  0.79480948339E+02 0.  0.
         23    2    1    2    0    0  0.53026647538E+02 -0.13080230930E+03 -0.33965853148E+03  0.37889826975E+03  0.90966539703E+02 0.  0.
        -13    1    3    3    0    0 -0.67203634328E+02  0.72856034438E+01 -0.19288951675E+03  0.20439122818E+03  0.00000000000E+00 0.  1.
         14    1    3    3    0    0 -0.90622160310E+01 -0.16675434539E+02 -0.30657879755E+03  0.30716567677E+03  0.00000000000E+00 0. -1.
        -11    1    4    4    0    0  0.18366272709E+02 -0.11585008922E+03 -0.30817932713E+03  0.32974696483E+03  0.00000000000E+00 0. -1.
         11    1    4    4    0    0  0.34660374828E+02 -0.14952220077E+02 -0.31479204345E+02  0.49151304913E+02  0.00000000000E+00 0.  1.
          1    1    1    2  501    0  0.23239202821E+02  0.14019214039E+03 -0.26747288120E+03  0.30287891798E+03  0.00000000000E+00 0. -1.
<scales pt_clust_5="13000.00000" pt_clust_6="13000.00000" pt_clust_7="13000.00000" pt_clust_8="13000.00000" pt_clust_9="13000.00000"></scales>
<clustering>
<clus scale="   79.481">  5  6 -1 -1</clus>
<clus scale="   90.967">  7  8 -1 -1</clus>
<clus scale="  110.553">  2  5  1 -1</clus>
<clus scale="  136.442">  7  9 -1 -1</clus>
<clus scale="  310.180">  1  5  2 -1</clus>
</clustering>
</event>
<event>
 9    2  0.3897980E-005  0.2211510E+03  0.7546771E-02  0.1175560E+00
         21   -1    0    0  501  502  0.00000000000E+00  0.00000000000E+00  0.17807030620E+03  0.17807030620E+03  0.00000000000E+00 0. -1.
          2   -1    0    0  502    0 -0.00000000000E+00 -0.00000000000E+00 -0.19083728113E+03  0.19083728113E+03  0.00000000000E+00 0. -1.
         24    2    1    2    0    0  0.54167252015E+01  0.39968566220E+01 -0.10198600900E+03  0.13043791846E+03  0.81040661181E+02 0.  0.
         23    2    1    2    0    0  0.66174051734E+02 -0.35513864959E+02 -0.21449960715E+01  0.11819520291E+03  0.91242891530E+02 0.  0.
        -11    1    3    3    0    0 -0.15986965491E+02  0.37944981327E+02 -0.50513748199E+02  0.65169344255E+02  0.00000000000E+00 0.  1.
         12    1    3    3    0    0  0.21403690693E+02 -0.33948124705E+02 -0.51472260805E+02  0.65268574204E+02  0.00000000000E+00 0. -1.
        -13    1    4    4    0    0 -0.21875414441E+02 -0.44433243541E+01  0.91882798584E+01  0.24139208252E+02  0.00000000000E+00 0.  1.
         13    1    4    4    0    0  0.88049466175E+02 -0.31070540604E+02 -0.11333275930E+02  0.94055994654E+02  0.00000000000E+00 0. -1.
          1    1    1    2  501    0 -0.71590776936E+02  0.31517008337E+02  0.91364030152E+02  0.12027446596E+03  0.00000000000E+00 0. -1.
<scales pt_clust_5="13000.00000" pt_clust_6="13000.00000" pt_clust_7="13000.00000" pt_clust_8="13000.00000" pt_clust_9="13000.00000"></scales>
<clustering>
<clus scale="   81.041">  5  6 -1 -1</clus>
<clus scale="   81.320">  2  5  1 -1</clus>
<clus scale="   91.243">  7  8 -1 -1</clus>
<clus scale="   77.581">  7  9 -1 -1</clus>
<clus scale="  221.151">  1  5  2 -1</clus>
</clustering>
</event>
<event>
 9    2  0.3897980E-005  0.2340914E+03  0.7546771E-02  0.1159412E+00
         21   -1    0    0  501  502  0.00000000000E+00  0.00000000000E+00  0.41309642676E+02  0.41309642676E+02  0.00000000000E+00 0. -1.
          2   -1    0    0  502    0 -0.00000000000E+00 -0.00000000000E+00 -0.79368477904E+03  0.79368477904E+03  0.00000000000E+00 0. -1.
         24    2    1    2    0    0 -0.10875331740E+02 -0.55411217911E+02 -0.39848725341E+03  0.41068863336E+03  0.81758097663E+02 0.  0.
         23    2    1    2    0    0 -0.81779952950E+02 -0.28560069814E+00 -0.15039712344E+03  0.19388090559E+03  0.91008068566E+02 0.  0.
        -11    1    3    3    0    0 -0.29266774222E+02  0.78912814607E+01 -0.17783956644E+03  0.18040434526E+03  0.00000000000E+00 0.  1.
         12    1    3    3    0    0  0.18391442482E+02 -0.63302499372E+02 -0.22064768697E+03  0.23028428810E+03  0.00000000000E+00 0. -1.
        -11    1    4    4    0    0  0.12124720526E+02  0.22013121696E+02 -0.40029248429E+02  0.47264438053E+02  0.00000000000E+00 0.  1.
         11    1    4    4    0    0 -0.93904673476E+02 -0.22298722394E+02 -0.11036787501E+03  0.14661646754E+03  0.00000000000E+00 0. -1.
          1    1    1    2  501    0  0.92655284690E+02  0.55696818609E+02 -0.20349075952E+03  0.23042488276E+03  0.00000000000E+00 0. -1.
<scales pt_clust_5="13000.00000" pt_clust_6="13000.00000" pt_clust_7="13000.00000" pt_clust_8="13000.00000" pt_clust_9="13000.00000"></scales>
<clustering>
<clus scale="   81.758">  5  6 -1 -1</clus>
<clus scale="   91.008">  7  8 -1 -1</clus>
<clus scale="   99.363">  2  5  1 -1</clus>
<clus scale="   90.073">  7  9 -1 -1</clus>
<clus scale="  234.091">  1  5  2 -1</clus>
</clustering>
</event>
<event>
 9    2  0.3897980E-005  0.3985066E+03  0.7546771E-02  0.1056059E+00
         21   -1    0    0  501  502  0.00000000000E+00  0.00000000000E+00  0.10996082380E+04  0.10996082380E+04  0.00000000000E+00 0. -1.
          4   -1    0    0  502    0 -0.00000000000E+00 -0.00000000000E+00 -0.10678037102E+03  0.10678037102E+03  0.00000000000E+00 0. -1.
         24    2    1    2    0    0 -0.26913200165E+03 -0.49876302754E+02  0.45839820252E+03  0.53973833150E+03  0.79176224480E+02 0.  0.
         23    2    1    2    0    0 -0.58746281003E+01 -0.38811543989E+02  0.19955512548E+03  0.22434366733E+03  0.94694169620E+02 0.  0.
        -13    1    3    3    0    0 -0.18147408275E+03  0.48940607983E+01  0.29608528368E+03  0.34730863760E+03  0.00000000000E+00 0.  1.
         14    1    3    3    0    0 -0.87657918906E+02 -0.54770363552E+02  0.16231291884E+03  0.19242969390E+03  0.00000000000E+00 0. -1.
        -11    1    4    4    0    0  0.29727007533E+02 -0.40008699626E+02  0.49982764370E+02  0.70588014257E+02  0.00000000000E+00 0.  1.
         11    1    4    4    0    0 -0.35601635633E+02  0.11971556373E+01  0.14957236111E+03  0.15375565307E+03  0.00000000000E+00 0. -1.
          3    1    1    2  501    0  0.27500662975E+03  0.88687846743E+02  0.33487453895E+03  0.44230661018E+03  0.00000000000E+00 0. -1.
<scales pt_clust_5="13000.00000" pt_clust_6="13000.00000" pt_clust_7="13000.00000" pt_clust_8="13000.00000" pt_clust_9="13000.00000"></scales>
<clustering>
<clus scale="   79.176">  5  6 -1 -1</clus>
<clus scale="   94.694">  7  8 -1 -1</clus>
<clus scale="  284.936">  2  5  1 -1</clus>
<clus scale="   74.113">  7  9 -1 -1</clus>
<clus scale="  398.507">  1  5  2 -1</clus>
</clustering>
</event>
<event>
 9    2  0.3897980E-005  0.1851868E+03  0.7546771E-02  0.1194301E+00
         21   -1    0    0  501  502  0.00000000000E+00  0.00000000000E+00  0.23473786290E+03  0.23473786290E+03  0.00000000000E+00 0. -1.
          2   -1    0    0  502    0 -0.00000000000E+00 -0.00000000000E+00 -0.11182718765E+03  0.11182718765E+03  0.00000000000E+00 0. -1.
         24    2    1    2    0    0 -0.40220374885E+02  0.93526027038E+01 -0.40310310161E+02  0.99714435158E+02  0.81319725408E+02 0.  0.
         23    2    1    2    0    0 -0.32031632776E+02  0.33108228086E+02  0.95681133399E+02  0.13921741246E+03  0.90024598744E+02 0.  0.
        -11    1    3    3    0    0 -0.20494816024E+02  0.44940385274E+02 -0.29813597702E+02  0.57693381946E+02  0.00000000000E+00 0.  1.
         12    1    3    3    0    0 -0.19725558860E+02 -0.35587782570E+02 -0.10496712460E+02  0.42021053212E+02  0.00000000000E+00 0. -1.
        -13    1    4    4    0    0 -0.16471268310E+02 -0.24979757670E+02  0.48924974845E+01  0.30318764893E+02  0.00000000000E+00 0.  1.
         13    1    4    4    0    0 -0.15560364466E+02  0.58087985756E+02  0.90788635914E+02  0.10889864757E+03  0.00000000000E+00 0. -1.
          1    1    1    2  501    0  0.72252007660E+02 -0.42460830790E+02  0.67539852016E+02  0.10763320293E+03  0.00000000000E+00 0. -1.
<scales pt_clust_5="13000.00000" pt_clust_6="13000.00000" pt_clust_7="13000.00000" pt_clust_8="13000.00000" pt_clust_9="13000.00000"></scales>
<clustering>
<clus scale="   81.320">  5  6 -1 -1</clus>
<clus scale="   90.025">  7  8 -1 -1</clus>
<clus scale="   83.805">  7  9 -1 -1</clus>
<clus scale="   91.203">  2  5  1 -1</clus>
<clus scale="  185.187">  1  5  2 -1</clus>
</clustering>
</event>
<event>
 9    2  0.3897980E-005  0.4197838E+03  0.7546771E-02  0.1085171E+00
         21   -1    0    0  501  502  0.00000000000E+00  0.00000000000E+00  0.57001869392E+02  0.57001869392E+02  0.00000000000E+00 0.  1.
          2   -1    0    0  502    0 -0.00000000000E+00 -0.00000000000E+00 -0.12302717725E+04  0.12302717725E+04  0.00000000000E+00 0. -1.
         24    2    1    2    0    0 -0.41704513242E+02  0.43022687550E+02 -0.25553906973E+03  0.27809162369E+03  0.91894052782E+02 0.  0.
         23    2    1    2    0    0 -0.44797772346E+02  0.10994780926E+03 -0.11314797282E+03  0.18563104965E+03  0.86954365463E+02 0.  0.
        -11    1    3    3    0    0 -0.63626336705E+02  0.30949317576E+02 -0.23589104965E+03  0.24627374664E+03  0.00000000000E+00 0.  1.
         12    1    3    3    0    0  0.21921823463E+02  0.12073369974E+02 -0.19648020084E+02  0.31817877046E+02  0.00000000000E+00 0. -1.
        -11    1    4    4    0    0  0.22752389376E+01  0.55538071023E+02 -0.97149819247E+02  0.11192739354E+03  0.00000000000E+00 0. -1.
         11    1    4    4    0    0 -0.47073011284E+02  0.54409738236E+02 -0.15998153575E+02  0.73703656111E+02  0.00000000000E+00 0.  1.
          1    1    1    2  501    0  0.86502285588E+02 -0.15297049681E+03 -0.80458286052E+03  0.82355096852E+03  0.00000000000E+00 0. -1.
<scales pt_clust_5="13000.00000" pt_clust_6="13000.00000" pt_clust_7="13000.00000" pt_clust_8="13000.00000" pt_clust_9="13000.00000"></scales>
<clustering>
<clus scale="   86.954">  7  8 -1 -1</clus>
<clus scale="   91.894">  5  6 -1 -1</clus>
<clus scale="  109.703">  2  5  1 -1</clus>
<clus scale="  127.389">  7  9 -1 -1</clus>
<clus scale="  419.784">  1  5  2 -1</clus>
</clustering>
</event>
<event>
 9    2  0.3897980E-005  0.2775483E+03  0.7546771E-02  0.1141170E+00
          2   -1    0    0  502    0 -0.00000000000E+00  0.00000000000E+00  0.48228914217E+03  0.48228914217E+03  0.00000000000E+00 0. -1.
         21   -1    0    0  501  502  0.00000000000E+00 -0.00000000000E+00 -0.22689758684E+03  0.22689758684E+03  0.00000000000E+00 0. -1.
         24    2    1    2    0    0 -0.26090110258E+02  0.26259050797E+02  0.39003723665E+03  0.40070253187E+03  0.84043092912E+02 0.  0.
         23    2    1    2    0    0 -0.24993190871E+02  0.99946765813E+02 -0.36934428341E+02  0.14089869431E+03  0.88737108780E+02 0.  0.
        -13    1    3    3    0    0  0.12466776077E+02  0.43462380642E+02  0.26230068544E+03  0.26616921050E+03  0.00000000000E+00 0.  1.
         14    1    3    3    0    0 -0.38556886335E+02 -0.17203329845E+02  0.12773655122E+03  0.13453332137E+03  0.00000000000E+00 0. -1.
        -13    1    4    4    0    0 -0.27156134435E+02  0.25549406960E+02  0.24310512895E+02  0.44510997188E+02  0.00000000000E+00 0.  1.
         13    1    4    4    0    0  0.21629435643E+01  0.74397358853E+02 -0.61244941236E+02  0.96387697121E+02  0.00000000000E+00 0. -1.
          1    1    1    2  501    0  0.51083301128E+02 -0.12620581661E+03 -0.97711252986E+02  0.16758550284E+03  0.00000000000E+00 0. -1.
<scales pt_clust_5="13000.00000" pt_clust_6="13000.00000" pt_clust_7="13000.00000" pt_clust_8="13000.00000" pt_clust_9="13000.00000"></scales>
<clustering>
<clus scale="   84.043">  5  6 -1 -1</clus>
<clus scale="   88.737">  7  8 -1 -1</clus>
<clus scale="   91.834">  1  5  2 -1</clus>
<clus scale="  122.569">  7  9 -1 -1</clus>
<clus scale="  277.548">  2  5  1 -1</clus>
</clustering>
</event>
<event>
 9    2  0.3897980E-005  0.2313169E+03  0.7546771E-02  0.1142843E+00
          2   -1    0    0  502    0 -0.00000000000E+00  0.00000000000E+00  0.68191650265E+03  0.68191650265E+03  0.00000000000E+00 0. -1.
         21   -1    0    0  501  502  0.00000000000E+00 -0.00000000000E+00 -0.53980058615E+02  0.53980058615E+02  0.00000000000E+00 0. -1.
         24    2    1    2    0    0 -0.12481674045E+03 -0.29472215041E+02  0.25295951601E+03  0.29531148672E+03  0.82295366178E+02 0.  0.
         23    2    1    2    0    0 -0.55469531507E+01 -0.13077123908E+02  0.17435577728E+03  0.19757481760E+03  0.91837310611E+02 0.  0.
        -11    1    3    3    0    0 -0.34819214419E+02 -0.28713447093E+02  0.15866860165E+03  0.16496231353E+03  0.00000000000E+00 0.  1.
         12    1    3    3    0    0 -0.89997526029E+02 -0.75876794838E+00  0.94290914362E+02  0.13034917319E+03  0.00000000000E+00 0. -1.
        -13    1    4    4    0    0 -0.43156343322E+02  0.82170739632E+01  0.12209506606E+03  0.12975821913E+03  0.00000000000E+00 0. -1.
         13    1    4    4    0    0  0.37609390171E+02 -0.21294197871E+02  0.52260711216E+02  0.67816598476E+02  0.00000000000E+00 0.  1.
          1    1    1    2  501    0  0.13036369360E+03  0.42549338949E+02  0.20062115075E+03  0.24301025694E+03  0.00000000000E+00 0. -1.
<scales pt_clust_5="13000.00000" pt_clust_6="13000.00000" pt_clust_7="13000.00000" pt_clust_8="13000.00000" pt_clust_9="13000.00000"></scales>
<clustering>
<clus scale="   82.295">  5  6 -1 -1</clus>
<clus scale="   91.837">  7  8 -1 -1</clus>
<clus scale="  137.132">  7  9 -1 -1</clus>
<clus scale="  152.382">  1  5  2 -1</clus>
<clus scale="  231.317">  2  5  1 -1</clus>
</clustering>
</event>
<event>
 9    2  0.3897980E-005  0.8662165E+03  0.7546771E-02  0.9715483E-01
         21   -1    0    0  501  502  0.00000000000E+00  0.00000000000E+00  0.50500321166E+03  0.50500321166E+03  0.00000000000E+00 0.  1.
          2   -1    0    0  502    0 -0.00000000000E+00 -0.00000000000E+00 -0.76029750693E+03  0.76029750693E+03  0.00000000000E+00 0. -1.
         24    2    1    2    0    0  0.11704206261E+03 -0.34344251485E+03 -0.10512785531E+03  0.38616419252E+03  0.80120610315E+02 0.  0.
         23    2    1    2    0    0  0.61324361999E+02 -0.21846412573E+03  0.62959398366E+02  0.25225832648E+03  0.90460631380E+02 0.  0.
        -11    1    3    3    0    0  0.10939844446E+03 -0.22881407648E+03 -0.95021315143E+02  0.27083750032E+03  0.00000000000E+00 0.  1.
         12    1    3    3    0    0  0.76436181576E+01 -0.11462843837E+03 -0.10106540164E+02  0.11532669221E+03  0.00000000000E+00 0. -1.
        -13    1    4    4    0    0 -0.37567374867E+01 -0.83078371525E+02 -0.12594996218E+02  0.84111609315E+02  0.00000000000E+00 0. -1.
         13    1    4    4    0    0  0.65081099486E+02 -0.13538575420E+03  0.75554394585E+02  0.16814671716E+03  0.00000000000E+00 0.  1.
          1    1    1    2  501    0 -0.17836642461E+03  0.56190664058E+03 -0.21312583832E+03  0.62687819959E+03  0.00000000000E+00 0. -1.
<scales pt_clust_5="13000.00000" pt_clust_6="13000.00000" pt_clust_7="13000.00000" pt_clust_8="13000.00000" pt_clust_9="13000.00000"></scales>
<clustering>
<clus scale="   80.121">  5  6 -1 -1</clus>
<clus scale="   90.461">  7  8 -1 -1</clus>
<clus scale="  371.579">  2  5  1 -1</clus>
<clus scale="  293.560">  7  9 -1 -1</clus>
<clus scale="  866.217">  1  5  2 -1</clus>
</clustering>
</event>
<event>
 9    2  0.3897980E-005  0.4744558E+03  0.7546771E-02  0.1074143E+00
         21   -1    0    0  501  502  0.00000000000E+00  0.00000000000E+00  0.10842673629E+03  0.10842673629E+03  0.00000000000E+00 0. -1.
         -3   -1    0    0    0  501 -0.00000000000E+00 -0.00000000000E+00 -0.78625602359E+03  0.78625602359E+03  0.00000000000E+00 0.  1.
         24    2    1    2    0    0 -0.25459361974E+02  0.58793641366E+02 -0.17961175569E+03  0.20669367312E+03  0.79730924654E+02 0.  0.
         23    2    1    2    0    0  0.11499501314E+02  0.10097846348E+03  0.26127842678E+02  0.13966429731E+03  0.92165954460E+02 0.  0.
        -13    1    3    3    0    0  0.20426641173E+02 -0.53208664572E+01 -0.22156549572E+02  0.30601829658E+02  0.00000000000E+00 0.  1.
         14    1    3    3    0    0 -0.45886003147E+02  0.64114507823E+02 -0.15745520612E+03  0.17609184346E+03  0.00000000000E+00 0. -1.
        -11    1    4    4    0    0 -0.20045351667E+02  0.71082673723E+02 -0.19769415265E+02  0.76455165993E+02  0.00000000000E+00 0.  1.
         11    1    4    4    0    0  0.31544852981E+02  0.29895789761E+02  0.45897257943E+02  0.63209131315E+02  0.00000000000E+00 0. -1.
         -4    1    1    2    0  502  0.13959860661E+02 -0.15977210485E+03 -0.52434537428E+03  0.54832478946E+03  0.00000000000E+00 0.  1.
<scales pt_clust_5="13000.00000" pt_clust_6="13000.00000" pt_clust_7="13000.00000" pt_clust_8="13000.00000" pt_clust_9="13000.00000"></scales>
<clustering>
<clus scale="   79.731">  5  6 -1 -1</clus>
<clus scale="   92.166">  7  8 -1 -1</clus>
<clus scale="  102.283">  2  5  1 -1</clus>
<clus scale="  106.990">  7  9 -1 -1</clus>
<clus scale="  474.456">  1  5  2 -1</clus>
</clustering>
</event>
<event>
 9    2  0.3897980E-005  0.5220111E+03  0.7546771E-02  0.1070819E+00
          2   -1    0    0  502    0 -0.00000000000E+00  0.00000000000E+00  0.58470197703E+03  0.58470197703E+03  0.00000000000E+00 0. -1.
         21   -1    0    0  501  502  0.00000000000E+00 -0.00000000000E+00 -0.17186869522E+03  0.17186869522E+03  0.00000000000E+00 0. -1.
         24    2    1    2    0    0  0.64949917542E+01 -0.21974969394E+02  0.15037110106E+03  0.17229164260E+03  0.80918835122E+02 0.  0.
         23    2    1    2    0    0 -0.10505770690E+03 -0.13917905960E+03 -0.64858659920E+02  0.20635818793E+03  0.89269947609E+02 0.  0.
        -11    1    3    3    0    0  0.18184716436E+02  0.23874932894E+02  0.27816641042E+02  0.40920188799E+02  0.00000000000E+00 0.  1.
         12    1    3    3    0    0 -0.11689724681E+02 -0.45849902288E+02  0.12255446002E+03  0.13137145380E+03  0.00000000000E+00 0. -1.
        -13    1    4    4    0    0 -0.92023064372E+02 -0.48249437160E+02 -0.38265632928E+02  0.11072719280E+03  0.00000000000E+00 0. -1.
         13    1    4    4    0    0 -0.13034642528E+02 -0.90929622443E+02 -0.26593026992E+02  0.95630995122E+02  0.00000000000E+00 0.  1.
          1    1    1    2  501    0  0.98562715146E+02  0.16115402900E+03  0.32732084066E+03  0.37792084173E+03  0.00000000000E+00 0. -1.
<scales pt_clust_5="13000.00000" pt_clust_6="13000.00000" pt_clust_7="13000.00000" pt_clust_8="13000.00000" pt_clust_9="13000.00000"></scales>
<clustering>
<clus scale="   80.919">  5  6 -1 -1</clus>
<clus scale="   84.101">  1  5  2 -1</clus>
<clus scale="   89.270">  7  8 -1 -1</clus>
<clus scale="  176.683">  7  9 -1 -1</clus>
<clus scale="  522.011">  2  5  1 -1</clus>
</clustering>
</event>
<event>
 9    2  0.3897980E-005  0.2745240E+03  0.7546771E-02  0.1144619E+00
         21   -1    0    0  501  502  0.00000000000E+00  0.00000000000E+00  0.49017172954E+02  0.49017172954E+02  0.00000000000E+00 0. -1.
          2   -1    0    0  502    0 -0.00000000000E+00 -0.00000000000E+00 -0.70704232330E+03  0.70704232330E+03  0.00000000000E+00 0. -1.
         24    2    1    2    0    0  0.35067587754E+02  0.17181483793E+02 -0.24511692993E+03  0.26022018752E+03  0.78149200621E+02 0.  0.
         23    2    1    2    0    0  0.56635976350E+02 -0.92403864546E+02 -0.29834480157E+03  0.33093713418E+03  0.93614412114E+02 0.  0.
        -13    1    3    3    0    0  0.76235269437E+00 -0.24345685004E+02 -0.30959216959E+02  0.39392469771E+02  0.00000000000E+00 0.  1.
         14    1    3    3    0    0  0.34305235060E+02  0.41527168796E+02 -0.21415771297E+03  0.22082771775E+03  0.00000000000E+00 0. -1.
        -13    1    4    4    0    0 -0.16797079942E+02 -0.17613078135E+02 -0.13271821342E+03  0.13493141439E+03  0.00000000000E+00 0.  1.
         13    1    4    4    0    0  0.73433056292E+02 -0.74790786411E+02 -0.16562658815E+03  0.19600571979E+03  0.00000000000E+00 0. -1.
          1    1    1    2  501    0 -0.91703564104E+02  0.75222380754E+02 -0.11456341885E+03  0.16490217456E+03  0.00000000000E+00 0. -1.
<scales pt_clust_5="13000.00000" pt_clust_6="13000.00000" pt_clust_7="13000.00000" pt_clust_8="13000.00000" pt_clust_9="13000.00000"></scales>
<clustering>
<clus scale="   78.149">  5  6 -1 -1</clus>
<clus scale="   87.363">  2  5  1 -1</clus>
<clus scale="   93.614">  7  8 -1 -1</clus>
<clus scale="  114.145">  7  9 -1 -1</clus>
<clus scale="  274.524">  1  5  2 -1</clus>
</clustering>
</event>
<event>
 9    2  0.3897980E-005  0.1541334E+03  0.7546771E-02  0.1217967E+00
         21   -1    0    0  501  502  0.00000000000E+00  0.00000000000E+00  0.13898588528E+03  0.13898588528E+03  0.00000000000E+00 0. -1.
          2   -1    0    0  502    0 -0.00000000000E+00 -0.00000000000E+00 -0.11336105866E+03  0.11336105866E+03  0.00000000000E+00 0. -1.
         24    2    1    2    0    0  0.91051771383E+01 -0.34000624364E+02  0.24485359167E+02  0.98209375612E+02  0.88354976865E+02 0.  0.
         23    2    1    2    0    0  0.23636985228E+02 -0.11493491506E+02 -0.15386891247E+02  0.95700556879E+02  0.90725039251E+02 0.  0.
        -11    1    3    3    0    0  0.23394612373E+02  0.17102413713E+02 -0.14461375242E+02  0.32387216873E+02  0.00000000000E+00 0.  1.
         12    1    3    3    0    0 -0.14289435235E+02 -0.51103038077E+02  0.38946734409E+02  0.65822158739E+02  0.00000000000E+00 0. -1.
        -13    1    4    4    0    0 -0.15896459391E+02  0.26197403889E+02  0.13984130686E+02  0.33683190211E+02  0.00000000000E+00 0.  1.
         13    1    4    4    0    0  0.39533444619E+02 -0.37690895395E+02 -0.29371021932E+02  0.62017366669E+02  0.00000000000E+00 0. -1.
          1    1    1    2  501    0 -0.32742162367E+02  0.45494115869E+02  0.16526358692E+02  0.58437011446E+02  0.00000000000E+00 0. -1.
<scales pt_clust_5="13000.00000" pt_clust_6="13000.00000" pt_clust_7="13000.00000" pt_clust_8="13000.00000" pt_clust_9="13000.00000"></scales>
<clustering>
<clus scale="   88.355">  5  6 -1 -1</clus>
<clus scale="   90.725">  7  8 -1 -1</clus>
<clus scale="   56.051">  7  9 -1 -1</clus>
<clus scale="   95.108">  2  5  1 -1</clus>
<clus scale="  154.133">  1  5  2 -1</clus>
</clustering>
</event>
<event>
 9    2  0.3897980E-005  0.2059474E+03  0.7546771E-02  0.1179680E+00
          2   -1    0    0  502    0 -0.00000000000E+00  0.00000000000E+00  0.33326579978E+03  0.33326579978E+03  0.00000000000E+00 0. -1.
         21   -1    0    0  501  502  0.00000000000E+00 -0.00000000000E+00 -0.67048963139E+02  0.67048963139E+02  0.00000000000E+00 0. -1.
         24    2    1    2    0    0 -0.43092249257E+02  0.11263692911E+02  0.65456527229E+02  0.11270562609E+03  0.80213393347E+02 0.  0.
         23    2    1    2    0    0 -0.43734559552E+02 -0.28383943281E+02  0.17144677377E+03  0.19438209637E+03  0.75312968450E+02 0.  0.
        -13    1    3    3    0    0 -0.65071166488E+01 -0.21449451561E+02  0.59112563891E+02  0.63219591497E+02  0.00000000000E+00 0.  1.
         14    1    3    3    0    0 -0.36585132608E+02  0.32713144472E+02  0.63439633378E+01  0.49486034595E+02  0.00000000000E+00 0. -1.
        -13    1    4    4    0    0  0.62004376456E+00  0.23049039229E+02  0.53910352376E+02  0.58634194434E+02  0.00000000000E+00 0.  1.
         13    1    4    4    0    0 -0.44354603316E+02 -0.51432982510E+02  0.11753642139E+03  0.13574790193E+03  0.00000000000E+00 0. -1.
          1    1    1    2  501    0  0.86826808808E+02  0.17120250370E+02  0.29313535640E+02  0.93227040457E+02  0.00000000000E+00 0. -1.
<scales pt_clust_5="13000.00000" pt_clust_6="13000.00000" pt_clust_7="13000.00000" pt_clust_8="13000.00000" pt_clust_9="13000.00000"></scales>
<clustering>
<clus scale="   75.313">  7  8 -1 -1</clus>
<clus scale="   80.213">  5  6 -1 -1</clus>
<clus scale="   88.499">  7  9 -1 -1</clus>
<clus scale="   91.750">  1  5  2 -1</clus>
<clus scale="  205.947">  2  5  1 -1</clus>
</clustering>
</event>
<event>
 9    2  0.3897980E-005  0.1998716E+03  0.7546771E-02  0.1176822E+00
         21   -1    0    0  501  502  0.00000000000E+00  0.00000000000E+00  0.82103710554E+02  0.82103710554E+02  0.00000000000E+00 0. -1.
         -3   -1    0    0    0  501 -0.00000000000E+00 -0.00000000000E+00 -0.28687632962E+03  0.28687632962E+03  0.00000000000E+00 0.  1.
         24    2    1    2    0    0  0.56715975697E+02 -0.40333130677E+02 -0.73374850533E+02  0.12978548170E+03  0.81344571055E+02 0.  0.
         23    2    1    2    0    0 -0.86112842152E+02  0.32137851332E+02 -0.29136678727E+02  0.13247685212E+03  0.90845512981E+02 0.  0.
        -13    1    3    3    0    0  0.40943644692E+02 -0.28704174036E+01 -0.78730256738E+02  0.88786680661E+02  0.00000000000E+00 0.  1.
         14    1    3    3    0    0  0.15772331006E+02 -0.37462713273E+02  0.53554062047E+01  0.40998801041E+02  0.00000000000E+00 0. -1.
        -13    1    4    4    0    0 -0.12231426735E+02 -0.29171565345E+02 -0.16394387604E+02  0.35628134522E+02  0.00000000000E+00 0.  1.
         13    1    4    4    0    0 -0.73881415418E+02  0.61309416677E+02 -0.12742291123E+02  0.96848717598E+02  0.00000000000E+00 0. -1.
         -4    1    1    2    0  502  0.29396866455E+02  0.81952793449E+01 -0.10226108980E+03  0.10671770635E+03  0.00000000000E+00 0.  1.
<scales pt_clust_5="13000.00000" pt_clust_6="13000.00000" pt_clust_7="13000.00000" pt_clust_8="13000.00000" pt_clust_9="13000.00000"></scales>
<clustering>
<clus scale="   81.345">  5  6 -1 -1</clus>
<clus scale="   90.846">  7  8 -1 -1</clus>
<clus scale="   30.518">  7  9 -1 -1</clus>
<clus scale="  107.053">  2  5  1 -1</clus>
<clus scale="  199.872">  1  5  2 -1</clus>
</clustering>
</event>
<event>
 9    2  0.3897980E-005  0.4894337E+03  0.7546771E-02  0.1053152E+00
         21   -1    0    0  501  502  0.00000000000E+00  0.00000000000E+00  0.29130378574E+03  0.29130378574E+03  0.00000000000E+00 0.  1.
          2   -1    0    0  502    0 -0.00000000000E+00 -0.00000000000E+00 -0.36983039093E+03  0.36983039093E+03  0.00000000000E+00 0. -1.
         24    2    1    2    0    0  0.49640472093E+01  0.14667778386E+03 -0.16859348287E+02  0.16783083219E+03  0.79648832804E+02 0.  0.
         23    2    1    2    0    0  0.11255161841E+03  0.10914517199E+03  0.52423655033E+02  0.18954019236E+03  0.92718442275E+02 0.  0.
        -11    1    3    3    0    0 -0.13524461395E+02  0.14761401259E+03 -0.12152254156E+02  0.14872957020E+03  0.00000000000E+00 0.  1.
         12    1    3    3    0    0  0.18488508605E+02 -0.93622873355E+00 -0.47070941315E+01  0.19101261996E+02  0.00000000000E+00 0. -1.
        -11    1    4    4    0    0  0.53435490085E+02  0.64880877200E+02 -0.19680958284E+02  0.86326241351E+02  0.00000000000E+00 0.  1.
         11    1    4    4    0    0  0.59116128323E+02  0.44264294788E+02  0.72104613317E+02  0.10321395101E+03  0.00000000000E+00 0. -1.
          1    1    1    2  501    0 -0.11751566562E+03 -0.25582295585E+03 -0.11409091193E+03  0.30376315212E+03  0.00000000000E+00 0. -1.
<scales pt_clust_5="13000.00000" pt_clust_6="13000.00000" pt_clust_7="13000.00000" pt_clust_8="13000.00000" pt_clust_9="13000.00000"></scales>
<clustering>
<clus scale="   79.649">  5  6 -1 -1</clus>
<clus scale="   92.718">  7  8 -1 -1</clus>
<clus scale="  166.982">  2  5  1 -1</clus>
<clus scale="  184.614">  7  9 -1 -1</clus>
<clus scale="  489.434">  1  5  2 -1</clus>
</clustering>
</event>
<event>
 9    2  0.3897980E-005  0.3175815E+03  0.7546771E-02  0.1128234E+00
         21   -1    0    0  501  502  0.00000000000E+00  0.00000000000E+00  0.27194983064E+03  0.27194983064E+03  0.00000000000E+00 0.  1.
         -1   -1    0    0    0  501 -0.00000000000E+00 -0.00000000000E+00 -0.16863839617E+03  0.16863839617E+03  0.00000000000E+00 0.  1.
         24    2    1    2    0    0  0.19318985605E+02 -0.93026151604E+01  0.89448066290E+02  0.12270429454E+03  0.81213456291E+02 0.  0.
         23    2    1    2    0    0  0.81287814578E+02  0.82169316401E+02  0.89661695638E+02  0.17236186920E+03  0.91158592206E+02 0.  0.
        -13    1    3    3    0    0  0.43865512386E+02 -0.22720772867E+02  0.78318607900E+02  0.92597089803E+02  0.00000000000E+00 0.  1.
         14    1    3    3    0    0 -0.24546526781E+02  0.13418157706E+02  0.11129458390E+02  0.30107204741E+02  0.00000000000E+00 0. -1.
        -11    1    4    4    0    0  0.39805445512E+02  0.71910767885E+02  0.11111089731E+02  0.82940269744E+02  0.00000000000E+00 0.  1.
         11    1    4    4    0    0  0.41482369066E+02  0.10258548516E+02  0.78550605907E+02  0.89421599457E+02  0.00000000000E+00 0. -1.
         -2    1    1    2    0  502 -0.10060680018E+03 -0.72866701240E+02 -0.75798327464E+02  0.14552206307E+03  0.00000000000E+00 0.  1.
<scales pt_clust_5="13000.00000" pt_clust_6="13000.00000" pt_clust_7="13000.00000" pt_clust_8="13000.00000" pt_clust_9="13000.00000"></scales>
<clustering>
<clus scale="   81.213">  5  6 -1 -1</clus>
<clus scale="   83.996">  2  5  1 -1</clus>
<clus scale="   91.159">  7  8 -1 -1</clus>
<clus scale="  117.610">  7  9 -1 -1</clus>
<clus scale="  317.581">  1  5  2 -1</clus>
</clustering>
</event>
<event>
 9    2  0.3897980E-005  0.2199257E+03  0.7546771E-02  0.1173504E+00
          2   -1    0    0  502    0 -0.00000000000E+00  0.00000000000E+00  0.85616085365E+03  0.85616085365E+03  0.00000000000E+00 0. -1.
         21   -1    0    0  501  502  0.00000000000E+00 -0.00000000000E+00 -0.36326643035E+02  0.36326643035E+02  0.00000000000E+00 0. -1.
         24    2    1    2    0    0  0.19349492256E+02 -0.27130757059E+02  0.47960010912E+03  0.48736211674E+03  0.79969289974E+02 0.  0.
         23    2    1    2    0    0  0.14585441364E+02 -0.58370582683E+02  0.26334200224E+03  0.28523186992E+03  0.91587932903E+02 0.  0.
        -11    1    3    3    0    0  0.15900082715E+02  0.27569314402E+02  0.17667235628E+03  0.17951601934E+03  0.00000000000E+00 0.  1.
         12    1    3    3    0    0  0.34494095413E+01 -0.54700071461E+02  0.30292775284E+03  0.30784609740E+03  0.00000000000E+00 0. -1.
        -11    1    4    4    0    0  0.53186719865E+02 -0.28193632149E+02  0.13315766081E+03  0.14613237388E+03  0.00000000000E+00 0. -1.
         11    1    4    4    0    0 -0.38601278502E+02 -0.30176950534E+02  0.13018434143E+03  0.13909949604E+03  0.00000000000E+00 0.  1.
          1    1    1    2  501    0 -0.33934933620E+02  0.85501339742E+02  0.76892099262E+02  0.11989351003E+03  0.00000000000E+00 0. -1.
<scales pt_clust_5="13000.00000" pt_clust_6="13000.00000" pt_clust_7="13000.00000" pt_clust_8="13000.00000" pt_clust_9="13000.00000"></scales>
<clustering>
<clus scale="   79.969">  5  6 -1 -1</clus>
<clus scale="   86.635">  1  5  2 -1</clus>
<clus scale="   91.588">  7  8 -1 -1</clus>
<clus scale="   83.474">  7  9 -1 -1</clus>
<clus scale="  219.926">  2  5  1 -1</clus>
</clustering>
</event>
<event>
 9    2  0.3897980E-005  0.2807402E+03  0.7546771E-02  0.1108805E+00
          2   -1    0    0  502    0 -0.00000000000E+00  0.00000000000E+00  0.13653735635E+03  0.13653735635E+03  0.00000000000E+00 0. -1.
         21   -1    0    0  501  502  0.00000000000E+00 -0.00000000000E+00 -0.43865131094E+03  0.43865131094E+03  0.00000000000E+00 0. -1.
         24    2    1    2    0    0 -0.12415946634E+02 -0.18083209760E+03 -0.66910146828E+02  0.20894302387E+03  0.79534999976E+02 0.  0.
         23    2    1    2    0    0  0.77261134431E+02  0.11957518480E+03 -0.76030733593E+02  0.18378092003E+03  0.87904757554E+02 0.  0.
        -11    1    3    3    0    0  0.24558092789E+02 -0.17012885527E+02 -0.74782524506E+01  0.30797117642E+02  0.00000000000E+00 0.  1.
         12    1    3    3    0    0 -0.36974039423E+02 -0.16381921207E+03 -0.59431894377E+02  0.17814590623E+03  0.00000000000E+00 0. -1.
        -11    1    4    4    0    0 -0.17910603875E+02  0.37023802625E+02 -0.22650621707E+02  0.46953193242E+02  0.00000000000E+00 0.  1.
         11    1    4    4    0    0  0.95171738306E+02  0.82551382179E+02 -0.53380111886E+02  0.13682772678E+03  0.00000000000E+00 0. -1.
          1    1    1    2  501    0 -0.64845187797E+02  0.61256912797E+02 -0.15917307416E+03  0.18246472340E+03  0.00000000000E+00 0. -1.
<scales pt_clust_5="13000.00000" pt_clust_6="13000.00000" pt_clust_7="13000.00000" pt_clust_8="13000.00000" pt_clust_9="13000.00000"></scales>
<clustering>
<clus scale="   79.535">  5  6 -1 -1</clus>
<clus scale="   87.905">  7  8 -1 -1</clus>
<clus scale="   89.204">  7  9 -1 -1</clus>
<clus scale="  197.940">  1  5  2 -1</clus>
<clus scale="  280.740">  2  5  1 -1</clus>
</clustering>
</event>
<event>
 9    2  0.3897980E-005  0.1858329E+03  0.7546771E-02  0.1197003E+00
         21   -1    0    0  501  502  0.00000000000E+00  0.00000000000E+00  0.27139566251E+03  0.27139566251E+03  0.00000000000E+00 0. -1.
          2   -1    0    0  502    0 -0.00000000000E+00 -0.00000000000E+00 -0.24020685673E+03  0.24020685673E+03  0.00000000000E+00 0. -1.
         24    2    1    2    0    0  0.63488573818E+01  0.21892635201E+02 -0.19861191761E+03  0.21606534593E+03  0.81963067475E+02 0.  0.
         23    2    1    2    0    0 -0.99546980866E+01  0.50083924957E+02  0.18103235822E+03  0.20852004430E+03  0.90002214421E+02 0.  0.
        -11    1    3    3    0    0 -0.28712257339E+02  0.16269929755E+02 -0.16096864513E+03  0.16431679479E+03  0.00000000000E+00 0.  1.
         12    1    3    3    0    0  0.35061114721E+02  0.56227054456E+01 -0.37643272477E+02  0.51748551137E+02  0.00000000000E+00 0. -1.
        -11    1    4    4    0    0 -0.44932771232E+02  0.45970911075E+02  0.14243669417E+03  0.15627056806E+03  0.00000000000E+00 0. -1.
         11    1    4    4    0    0  0.34978073145E+02  0.41130138824E+01  0.38595664041E+02  0.52249476236E+02  0.00000000000E+00 0.  1.
          1    1    1    2  501    0  0.36058407048E+01 -0.71976560158E+02  0.48768365173E+02  0.87017129009E+02  0.00000000000E+00 0. -1.
<scales pt_clust_5="13000.00000" pt_clust_6="13000.00000" pt_clust_7="13000.00000" pt_clust_8="13000.00000" pt_clust_9="13000.00000"></scales>
<clustering>
<clus scale="   81.963">  5  6 -1 -1</clus>
<clus scale="   85.074">  2  5  1 -1</clus>
<clus scale="   90.002">  7  8 -1 -1</clus>
<clus scale="   59.686">  7  9 -1 -1</clus>
<clus scale="  185.833">  1  5  2 -1</clus>
</clustering>
</event>
<event>
 9    2  0.3897980E-005  0.3144837E+03  0.7546771E-02  0.1117553E+00
         21   -1    0    0  501  502  0.00000000000E+00  0.00000000000E+00  0.71809478361E+02  0.71809478361E+02  0.00000000000E+00 0. -1.
         -1   -1    0    0    0  501 -0.00000000000E+00 -0.00000000000E+00 -0.64020143323E+03  0.64020143323E+03  0.00000000000E+00 0.  1.
         24    2    1    2    0    0 -0.74375408701E+02 -0.26065702793E+02 -0.12470286529E+03  0.16817268644E+03  0.80747294511E+02 0.  0.
         23    2    1    2    0    0 -0.60178575172E+01 -0.89748051493E+02 -0.70908257782E+02  0.14528904188E+03  0.89386784885E+02 0.  0.
        -11    1    3    3    0    0  0.84582320837E+01 -0.27753456874E+02 -0.23196011260E+02  0.37146345672E+02  0.00000000000E+00 0.  1.
         12    1    3    3    0    0 -0.82833640785E+02  0.16877540811E+01 -0.10150685403E+03  0.13102634077E+03  0.00000000000E+00 0. -1.
        -11    1    4    4    0    0  0.21428208755E+02 -0.14675538907E+02  0.13304669084E+02  0.29181394622E+02  0.00000000000E+00 0. -1.
         11    1    4    4    0    0 -0.27446066272E+02 -0.75072512587E+02 -0.84212926866E+02  0.11610764726E+03  0.00000000000E+00 0.  1.
         -2    1    1    2    0  502  0.80393266218E+02  0.11581375429E+03 -0.37278083179E+03  0.39854918327E+03  0.00000000000E+00 0.  1.
<scales pt_clust_5="13000.00000" pt_clust_6="13000.00000" pt_clust_7="13000.00000" pt_clust_8="13000.00000" pt_clust_9="13000.00000"></scales>
<clustering>
<clus scale="   80.747">  5  6 -1 -1</clus>
<clus scale="   89.387">  7  8 -1 -1</clus>
<clus scale="  112.833">  2  5  1 -1</clus>
<clus scale="   98.025">  7  9 -1 -1</clus>
<clus scale="  314.484">  1  5  2 -1</clus>
</clustering>
</event>
<event>
 9    2  0.3897980E-005  0.2073354E+03  0.7546771E-02  0.1161540E+00
         21   -1    0    0  501  502  0.00000000000E+00  0.00000000000E+00  0.47479998766E+02  0.47479998766E+02  0.00000000000E+00 0.  1.
          2   -1    0    0  502    0 -0.00000000000E+00 -0.00000000000E+00 -0.81383299012E+03  0.81383299012E+03  0.00000000000E+00 0. -1.
         24    2    1    2    0    0 -0.47063472488E+02  0.99495829048E+02 -0.11639324114E+03  0.17908454138E+03  0.80059327614E+02 0.  0.
         23    2    1    2    0    0  0.37139768633E+02 -0.38632272025E+02 -0.18468981810E+03  0.21288959102E+03  0.91322692695E+02 0.  0.
        -11    1    3    3    0    0 -0.11359351616E+02  0.93666698343E+02 -0.10498042405E+03  0.14115018484E+03  0.00000000000E+00 0.  1.
         12    1    3    3    0    0 -0.35704120872E+02  0.58291307053E+01 -0.11412817090E+02  0.37934356538E+02  0.00000000000E+00 0. -1.
        -11    1    4    4    0    0  0.24132687185E+02  0.24726773503E+02 -0.10332173862E+03  0.10894577362E+03  0.00000000000E+00 0. -1.
         11    1    4    4    0    0  0.13007081449E+02 -0.63359045528E+02 -0.81368079476E+02  0.10394381740E+03  0.00000000000E+00 0.  1.
          1    1    1    2  501    0  0.99237038549E+01 -0.60863557023E+02 -0.46526993212E+03  0.46933885648E+03  0.00000000000E+00 0. -1.
<scales pt_clust_5="13000.00000" pt_clust_6="13000.00000" pt_clust_7="13000.00000" pt_clust_8="13000.00000" pt_clust_9="13000.00000"></scales>
<clustering>
<clus scale="   80.059">  5  6 -1 -1</clus>
<clus scale="   91.323">  7  8 -1 -1</clus>
<clus scale="   61.667">  7  9 -1 -1</clus>
<clus scale="  136.103">  2  5  1 -1</clus>
<clus scale="  207.335">  1  5  2 -1</clus>
</clustering>
</event>
<event>
 9    2  0.3897980E-005  0.4263970E+03  0.7546771E-02  0.1088176E+00
          2   -1    0    0  502    0 -0.00000000000E+00  0.00000000000E+00  0.29561787107E+03  0.29561787107E+03  0.00000000000E+00 0. -1.
         21   -1    0    0  501  502  0.00000000000E+00 -0.00000000000E+00 -0.42629260372E+03  0.42629260372E+03  0.00000000000E+00 0. -1.
         24    2    1    2    0    0  0.51409597616E+02 -0.15625741401E+02 -0.25914798511E+03  0.27657935818E+03  0.80320312925E+02 0.  0.
         23    2    1    2    0    0  0.30772422870E+02 -0.11774891885E+03 -0.86869132272E+02  0.17903236117E+03  0.98461110625E+02 0.  0.
        -13    1    3    3    0    0  0.13835088493E+02 -0.38227073770E+02 -0.58775321807E+02  0.71465077458E+02  0.00000000000E+00 0.  1.
         14    1    3    3    0    0  0.37574509124E+02  0.22601332368E+02 -0.20037266330E+03  0.20511428073E+03  0.00000000000E+00 0. -1.
        -13    1    4    4    0    0  0.43822520925E+02 -0.17242141345E+02 -0.24963709408E+01  0.47158632786E+02  0.00000000000E+00 0.  1.
         13    1    4    4    0    0 -0.13050098055E+02 -0.10050677750E+03 -0.84372761331E+02  0.13187372838E+03  0.00000000000E+00 0. -1.
          1    1    1    2  501    0 -0.82182020487E+02  0.13337466025E+03  0.21534238473E+03  0.26629875544E+03  0.00000000000E+00 0. -1.
<scales pt_clust_5="13000.00000" pt_clust_6="13000.00000" pt_clust_7="13000.00000" pt_clust_8="13000.00000" pt_clust_9="13000.00000"></scales>
<clustering>
<clus scale="   80.320">  5  6 -1 -1</clus>
<clus scale="   96.636">  1  5  2 -1</clus>
<clus scale="   98.461">  7  8 -1 -1</clus>
<clus scale="  126.434">  7  9 -1 -1</clus>
<clus scale="  426.397">  2  5  1 -1</clus>
</clustering>
</event>
<event>
 9    2  0.3897980E-005  0.5827457E+03  0.7546771E-02  0.1035399E+00
         -1   -1    0    0    0  501 -0.00000000000E+00  0.00000000000E+00  0.16882988034E+03  0.16882988034E+03  0.00000000000E+00 0.  1.
         21   -1    0    0  501  502  0.00000000000E+00 -0.00000000000E+00 -0.95533822909E+03  0.95533822909E+03  0.00000000000E+00 0.  1.
         24    2    1    2    0    0  0.13819748357E+02 -0.14499527669E+03 -0.27712773461E+02  0.16742189746E+03  0.77765533694E+02 0.  0.
         23    2    1    2    0    0 -0.44254416481E+01 -0.19622883222E+03 -0.16504467136E+03  0.27186499495E+03  0.90252383938E+02 0.  0.
        -13    1    3    3    0    0 -0.17494107906E+02 -0.85835966663E+02  0.13767035276E+02  0.88675747782E+02  0.00000000000E+00 0.  1.
         14    1    3    3    0    0  0.31313856263E+02 -0.59159310025E+02 -0.41479808737E+02  0.78746149681E+02  0.00000000000E+00 0. -1.
        -11    1    4    4    0    0 -0.25643073483E+02 -0.29218023674E+02 -0.65830297097E+02  0.76451868132E+02  0.00000000000E+00 0. -1.
         11    1    4    4    0    0  0.21217631834E+02 -0.16701080855E+03 -0.99214374261E+02  0.19541312682E+03  0.00000000000E+00 0.  1.
         -2    1    1    2    0  502 -0.93943067087E+01  0.34122410891E+03 -0.59375090393E+03  0.68488121702E+03  0.00000000000E+00 0.  1.
<scales pt_clust_5="13000.00000" pt_clust_6="13000.00000" pt_clust_7="13000.00000" pt_clust_8="13000.00000" pt_clust_9="13000.00000"></scales>
<clustering>
<clus scale="   77.766">  5  6 -1 -1</clus>
<clus scale="   90.252">  7  8 -1 -1</clus>
<clus scale="  165.112">  1  5  2 -1</clus>
<clus scale="  274.490">  7  9 -1 -1</clus>
<clus scale="  582.746">  2  5  1 -1</clus>
</clustering>
</event>
<event>
 9    2  0.3897980E-005  0.1335229E+03  0.7546771E-02  0.1239955E+00
         21   -1    0    0  501  502  0.00000000000E+00  0.00000000000E+00  0.78872544500E+02  0.78872544500E+02  0.00000000000E+00 0. -1.
          2   -1    0    0  502    0 -0.00000000000E+00 -0.00000000000E+00 -0.17765404405E+03  0.17765404405E+03  0.00000000000E+00 0. -1.
         24    2    1    2    0    0  0.95765583585E+00  0.27260357404E+02 -0.78295218667E+02  0.12144125611E+03  0.88734397104E+02 0.  0.
         23    2    1    2    0    0  0.25729627125E+02 -0.46817259811E+01 -0.30458507519E+02  0.98733565318E+02  0.90203458747E+02 0.  0.
        -11    1    3    3    0    0 -0.32843291817E+02 -0.39316453156E+01 -0.30050972124E+01  0.33214007008E+02  0.00000000000E+00 0.  1.
         12    1    3    3    0    0  0.33800947653E+02  0.31192002720E+02 -0.75290121454E+02  0.88227249104E+02  0.00000000000E+00 0. -1.
        -13    1    4    4    0    0  0.16129749295E+02  0.39034670527E+02 -0.33447461180E+02  0.53875847788E+02  0.00000000000E+00 0.  1.
         13    1    4    4    0    0  0.95998778301E+01 -0.43716396508E+02  0.29889536609E+01  0.44857717530E+02  0.00000000000E+00 0. -1.
          1    1    1    2  501    0 -0.26687282961E+02 -0.22578631423E+02  0.99722266353E+01  0.36351767121E+02  0.00000000000E+00 0. -1.
<scales pt_clust_5="13000.00000" pt_clust_6="13000.00000" pt_clust_7="13000.00000" pt_clust_8="13000.00000" pt_clust_9="13000.00000"></scales>
<clustering>
<clus scale="   88.734">  5  6 -1 -1</clus>
<clus scale="   90.203">  7  8 -1 -1</clus>
<clus scale="   34.957">  7  9 -1 -1</clus>
<clus scale="   92.832">  2  5  1 -1</clus>
<clus scale="  133.523">  1  5  2 -1</clus>
</clustering>
</event>
<event>
 9    2  0.3897980E-005  0.3450744E+03  0.7546771E-02  0.1102768E+00
          2   -1    0    0  502    0 -0.00000000000E+00  0.00000000000E+00  0.77770902924E+03  0.77770902924E+03  0.00000000000E+00 0. -1.
         21   -1    0    0  501  502  0.00000000000E+00 -0.00000000000E+00 -0.75070936878E+02  0.75070936878E+02  0.00000000000E+00 0. -1.
         24    2    1    2    0    0  0.78535799609E+02 -0.52549370362E+02  0.28525318406E+03  0.31122064475E+03  0.80991373362E+02 0.  0.
         23    2    1    2    0    0 -0.79494923555E+01  0.16255664141E+03  0.13427310758E+03  0.22973193616E+03  0.90882555951E+02 0.  0.
        -13    1    3    3    0    0  0.35518687006E+01 -0.42316669010E+02  0.59347301651E+02  0.72975464785E+02  0.00000000000E+00 0.  1.
         14    1    3    3    0    0  0.74983930908E+02 -0.10232701352E+02  0.22590588240E+03  0.23824517996E+03  0.00000000000E+00 0. -1.
        -11    1    4    4    0    0  0.74652826661E+01  0.70789715799E+02  0.11415431256E+03  0.13452925847E+03  0.00000000000E+00 0.  1.
         11    1    4    4    0    0 -0.15414775022E+02  0.91766925613E+02  0.20118795013E+02  0.95202677684E+02  0.00000000000E+00 0. -1.
          1    1    1    2  501    0 -0.70586307253E+02 -0.11000727105E+03  0.28311180073E+03  0.31182738521E+03  0.00000000000E+00 0. -1.
<scales pt_clust_5="13000.00000" pt_clust_6="13000.00000" pt_clust_7="13000.00000" pt_clust_8="13000.00000" pt_clust_9="13000.00000"></scales>
<clustering>
<clus scale="   80.991">  5  6 -1 -1</clus>
<clus scale="   90.883">  7  8 -1 -1</clus>
<clus scale="  124.454">  1  5  2 -1</clus>
<clus scale="  144.275">  7  9 -1 -1</clus>
<clus scale="  345.074">  2  5  1 -1</clus>
</clustering>
</event>
<event>
 9    2  0.3897980E-005  0.2196859E+03  0.7546771E-02  0.1159081E+00
          2   -1    0    0  502    0 -0.00000000000E+00  0.00000000000E+00  0.31409331805E+03  0.31409331805E+03  0.00000000000E+00 0. -1.
         21   -1    0    0  501  502  0.00000000000E+00 -0.00000000000E+00 -0.13756400512E+03  0.13756400512E+03  0.00000000000E+00 0.  1.
         24    2    1    2    0    0 -0.65826961306E+02 -0.62831984066E+02 -0.54506225395E+02  0.13284807523E+03  0.79978968670E+02 0.  0.
         23    2    1    2    0    0  0.13444196828E+02 -0.21143455703E+02  0.43884748795E+02  0.10709895882E+03  0.94427345907E+02 0.  0.
        -13    1    3    3    0    0 -0.22779036636E+02 -0.65003035387E+02 -0.57382628287E+02  0.89649568592E+02  0.00000000000E+00 0.  1.
         14    1    3    3    0    0 -0.43047924670E+02  0.21710513216E+01  0.28764028927E+01  0.43198506639E+02  0.00000000000E+00 0. -1.
        -13    1    4    4    0    0  0.20266460579E+02  0.31709770127E+02 -0.66525411228E+00  0.37638829803E+02  0.00000000000E+00 0.  1.
         13    1    4    4    0    0 -0.68222637505E+01 -0.52853225830E+02  0.44550002907E+02  0.69460129012E+02  0.00000000000E+00 0. -1.
          1    1    1    2  501    0  0.52382764477E+02  0.83975439768E+02  0.18715078953E+03  0.21171028912E+03  0.00000000000E+00 0. -1.
<scales pt_clust_5="13000.00000" pt_clust_6="13000.00000" pt_clust_7="13000.00000" pt_clust_8="13000.00000" pt_clust_9="13000.00000"></scales>
<clustering>
<clus scale="   79.979">  5  6 -1 -1</clus>
<clus scale="   94.427">  7  8 -1 -1</clus>
<clus scale="   98.974">  7  9 -1 -1</clus>
<clus scale="  121.152">  1  5  2 -1</clus>
<clus scale="  219.686">  2  5  1 -1</clus>
</clustering>
</event>
<event>
 9    2  0.3897980E-005  0.1467234E+03  0.7546771E-02  0.1230024E+00
          2   -1    0    0  502    0 -0.00000000000E+00  0.00000000000E+00  0.77210258476E+03  0.77210258476E+03  0.00000000000E+00 0. -1.
         21   -1    0    0  501  502  0.00000000000E+00 -0.00000000000E+00 -0.22620597459E+02  0.22620597459E+02  0.00000000000E+00 0. -1.
         24    2    1    2    0    0  0.43440235755E+01  0.27707398996E+02  0.48269645228E+03  0.49025270235E+03  0.81026394573E+02 0.  0.
         23    2    1    2    0    0 -0.41283546780E+02 -0.19794712302E+02  0.14853721932E+03  0.18033425167E+03  0.91438366851E+02 0.  0.
        -11    1    3    3    0    0  0.38083195857E+02  0.11646966076E+02  0.14090451523E+03  0.14642426041E+03  0.00000000000E+00 0.  1.
         12    1    3    3    0    0 -0.33739172281E+02  0.16060432920E+02  0.34179193705E+03  0.34382844194E+03  0.00000000000E+00 0. -1.
        -13    1    4    4    0    0 -0.61341857913E+02  0.13968771982E+02  0.88050965846E+02  0.10821701673E+03  0.00000000000E+00 0. -1.
         13    1    4    4    0    0  0.20058311133E+02 -0.33763484285E+02  0.60486253476E+02  0.72117234945E+02  0.00000000000E+00 0.  1.
          1    1    1    2  501    0  0.36939523204E+02 -0.79126866933E+01  0.11824831570E+03  0.12413622820E+03  0.00000000000E+00 0. -1.
<scales pt_clust_5="13000.00000" pt_clust_6="13000.00000" pt_clust_7="13000.00000" pt_clust_8="13000.00000" pt_clust_9="13000.00000"></scales>
<clustering>
<clus scale="   81.026">  5  6 -1 -1</clus>
<clus scale="   85.743">  1  5  2 -1</clus>
<clus scale="   91.438">  7  8 -1 -1</clus>
<clus scale="   38.973">  7  9 -1 -1</clus>
<clus scale="  146.723">  2  5  1 -1</clus>
</clustering>
</event>
<event>
 9    2  0.3897980E-005  0.2657080E+03  0.7546771E-02  0.1127615E+00
          2   -1    0    0  502    0 -0.00000000000E+00  0.00000000000E+00  0.10964048008E+04  0.10964048008E+04  0.00000000000E+00 0. -1.
         21   -1    0    0  501  502  0.00000000000E+00 -0.00000000000E+00 -0.39863804567E+02  0.39863804567E+02  0.00000000000E+00 0. -1.
         24    2    1    2    0    0 -0.81199305487E+02 -0.96520158699E+02  0.47669621656E+03  0.49844361010E+03  0.72782424501E+02 0.  0.
         23    2    1    2    0    0 -0.32106065464E+02 -0.22673909792E+02  0.22724813369E+03  0.24876236817E+03  0.93252860148E+02 0.  0.
        -11    1    3    3    0    0 -0.42991985166E+02 -0.45170254875E+02  0.11214789685E+03  0.12831918594E+03  0.00000000000E+00 0.  1.
         12    1    3    3    0    0 -0.38207320321E+02 -0.51349903824E+02  0.36454831971E+03  0.37012442415E+03  0.00000000000E+00 0. -1.
        -13    1    4    4    0    0 -0.49306233422E+02  0.11289784507E+02  0.66408410383E+02  0.83478385574E+02  0.00000000000E+00 0. -1.
         13    1    4    4    0    0  0.17200167958E+02 -0.33963694300E+02  0.16083972331E+03  0.16528398260E+03  0.00000000000E+00 0.  1.
          1    1    1    2  501    0  0.11330537095E+03  0.11919406849E+03  0.35259664597E+03  0.38906262709E+03  0.00000000000E+00 0. -1.
<scales pt_clust_5="13000.00000" pt_clust_6="13000.00000" pt_clust_7="13000.00000" pt_clust_8="13000.00000" pt_clust_9="13000.00000"></scales>
<clustering>
<clus scale="   72.782">  5  6 -1 -1</clus>
<clus scale="   93.253">  7  8 -1 -1</clus>
<clus scale="  145.625">  1  5  2 -1</clus>
<clus scale="   87.895">  7  9 -1 -1</clus>
<clus scale="  265.708">  2  5  1 -1</clus>
</clustering>
</event>
<event>
 9    2  0.3897980E-005  0.1684802E+03  0.7546771E-02  0.1213259E+00
         -1   -1    0    0    0  501 -0.00000000000E+00  0.00000000000E+00  0.21324057013E+03  0.21324057013E+03  0.00000000000E+00 0.  1.
         21   -1    0    0  501  502  0.00000000000E+00 -0.00000000000E+00 -0.73238421770E+02  0.73238421770E+02  0.00000000000E+00 0.  1.
         24    2    1    2    0    0 -0.14141494691E+02  0.39715378802E+01  0.33398047027E+02  0.87104922885E+02  0.79095404799E+02 0.  0.
         23    2    1    2    0    0 -0.34075012217E+02 -0.35514627792E+02  0.35466433558E+02  0.10782973093E+03  0.89145878858E+02 0.  0.
        -13    1    3    3    0    0 -0.16644206130E+02 -0.34597663990E+02  0.41123857748E+01  0.38612687915E+02  0.00000000000E+00 0.  1.
         14    1    3    3    0    0  0.25027114393E+01  0.38569201870E+02  0.29285661253E+02  0.48492234971E+02  0.00000000000E+00 0. -1.
        -11    1    4    4    0    0 -0.60162517298E+01 -0.25925921597E+02 -0.27475811302E+02  0.38252697973E+02  0.00000000000E+00 0. -1.
         11    1    4    4    0    0 -0.28058760487E+02 -0.95887061955E+01  0.62942244859E+02  0.69577032953E+02  0.00000000000E+00 0.  1.
         -2    1    1    2    0  502  0.48216506907E+02  0.31543089912E+02  0.71137667770E+02  0.91544338085E+02  0.00000000000E+00 0.  1.
<scales pt_clust_5="13000.00000" pt_clust_6="13000.00000" pt_clust_7="13000.00000" pt_clust_8="13000.00000" pt_clust_9="13000.00000"></scales>
<clustering>
<clus scale="   79.095">  5  6 -1 -1</clus>
<clus scale="   80.448">  1  5  2 -1</clus>
<clus scale="   89.146">  7  8 -1 -1</clus>
<clus scale="   52.810">  7  9 -1 -1</clus>
<clus scale="  168.480">  2  5  1 -1</clus>
</clustering>
</event>
<event>
 9    2  0.3897980E-005  0.3823689E+03  0.7546771E-02  0.1088778E+00
          2   -1    0    0  502    0 -0.00000000000E+00  0.00000000000E+00  0.67810139435E+03  0.67810139435E+03  0.00000000000E+00 0. -1.
         21   -1    0    0  501  502  0.00000000000E+00 -0.00000000000E+00 -0.97589827852E+02  0.97589827852E+02  0.00000000000E+00 0. -1.
         24    2    1    2    0    0  0.94479676197E+02  0.47498536558E+02  0.13866635704E+03  0.19136838367E+03  0.78809767827E+02 0.  0.
         23    2    1    2    0    0  0.85112811350E+02  0.83292879969E+02  0.24634242972E+03  0.28838163980E+03  0.91090520826E+02 0.  0.
        -13    1    3    3    0    0  0.80928941841E+02  0.15627491672E+02  0.13271684173E+03  0.15622890963E+03  0.00000000000E+00 0.  1.
         14    1    3    3    0    0  0.13550734356E+02  0.31871044886E+02  0.59495153051E+01  0.35139474044E+02  0.00000000000E+00 0. -1.
        -13    1    4    4    0    0  0.55503221020E+02  0.79795677266E+02  0.23850827789E+03  0.25755418124E+03  0.00000000000E+00 0. -1.
         13    1    4    4    0    0  0.29609590329E+02  0.34972027029E+01  0.78341518308E+01  0.30827458558E+02  0.00000000000E+00 0.  1.
          1    1    1    2  501    0 -0.17959248755E+03 -0.13079141653E+03  0.19550277974E+03  0.29594119873E+03  0.00000000000E+00 0. -1.
<scales pt_clust_5="13000.00000" pt_clust_6="13000.00000" pt_clust_7="13000.00000" pt_clust_8="13000.00000" pt_clust_9="13000.00000"></scales>
<clustering>
<clus scale="   78.810">  5  6 -1 -1</clus>
<clus scale="   91.091">  7  8 -1 -1</clus>
<clus scale="  131.884">  1  5  2 -1</clus>
<clus scale="  172.401">  7  9 -1 -1</clus>
<clus scale="  382.369">  2  5  1 -1</clus>
</clustering>
</event>
<event>
 9    2  0.3897980E-005  0.1576199E+03  0.7546771E-02  0.1217669E+00
          2   -1    0    0  502    0 -0.00000000000E+00  0.00000000000E+00  0.37775194501E+02  0.37775194501E+02  0.00000000000E+00 0. -1.
         21   -1    0    0  501  502  0.00000000000E+00 -0.00000000000E+00 -0.40747510523E+03  0.40747510523E+03  0.00000000000E+00 0. -1.
         24    2    1    2    0    0 -0.17430082827E+02  0.25671066215E+02 -0.15367160662E+03  0.17783255957E+03  0.83944297803E+02 0.  0.
         23    2    1    2    0    0 -0.12109611545E+02  0.19879505458E+02 -0.17899801066E+03  0.20170099377E+03  0.90006475530E+02 0.  0.
        -11    1    3    3    0    0  0.13430866534E+02 -0.25762758959E+02 -0.41969482193E+02  0.51044542907E+02  0.00000000000E+00 0.  1.
         12    1    3    3    0    0 -0.30860949361E+02  0.51433825175E+02 -0.11170212443E+03  0.12678801666E+03  0.00000000000E+00 0. -1.
        -13    1    4    4    0    0 -0.10750249936E+00 -0.35837826179E+02 -0.63881847633E+02  0.73247879144E+02  0.00000000000E+00 0. -1.
         13    1    4    4    0    0 -0.12002109046E+02  0.55717331637E+02 -0.11511616303E+03  0.12845311463E+03  0.00000000000E+00 0.  1.
          1    1    1    2  501    0  0.29539694373E+02 -0.45550571674E+02 -0.37030293440E+02  0.65716746387E+02  0.00000000000E+00 0. -1.
<scales pt_clust_5="13000.00000" pt_clust_6="13000.00000" pt_clust_7="13000.00000" pt_clust_8="13000.00000" pt_clust_9="13000.00000"></scales>
<clustering>
<clus scale="   83.944">  5  6 -1 -1</clus>
<clus scale="   89.496">  1  5  2 -1</clus>
<clus scale="   90.006">  7  8 -1 -1</clus>
<clus scale="   36.975">  7  9 -1 -1</clus>
<clus scale="  157.620">  2  5  1 -1</clus>
</clustering>
</event>
<event>
 9    2  0.3897980E-005  0.8870969E+03  0.7546771E-02  0.9788990E-01
         -1   -1    0    0    0  501 -0.00000000000E+00  0.00000000000E+00  0.25727837043E+03  0.25727837043E+03  0.00000000000E+00 0.  1.
         21   -1    0    0  501  502  0.00000000000E+00 -0.00000000000E+00 -0.17481693780E+04  0.17481693780E+04  0.00000000000E+00 0.  1.
         24    2    1    2    0    0  0.23322738317E+03 -0.11209021848E+03 -0.57919323307E+00  0.27109766882E+03  0.80835519642E+02 0.  0.
         23    2    1    2    0    0  0.28567746310E+03 -0.29040334992E+02 -0.28426850002E+03  0.41384996654E+03  0.89488886012E+02 0.  0.
        -13    1    3    3    0    0  0.18158186301E+03 -0.50537028992E+02  0.15626969368E+02  0.18913002523E+03  0.00000000000E+00 0.  1.
         14    1    3    3    0    0  0.51645520165E+02 -0.61553189493E+02 -0.16206162601E+02  0.81967643592E+02  0.00000000000E+00 0. -1.
        -11    1    4    4    0    0  0.22135773448E+02 -0.26748678866E+02 -0.17618987287E+02  0.38934727432E+02  0.00000000000E+00 0. -1.
         11    1    4    4    0    0  0.26354168966E+03 -0.22916561259E+01 -0.26664951273E+03  0.37491523911E+03  0.00000000000E+00 0.  1.
         -2    1    1    2    0  502 -0.51890484627E+03  0.14113055348E+03 -0.12060433143E+04  0.13205001131E+04  0.00000000000E+00 0.  1.
<scales pt_clust_5="13000.00000" pt_clust_6="13000.00000" pt_clust_7="13000.00000" pt_clust_8="13000.00000" pt_clust_9="13000.00000"></scales>
<clustering>
<clus scale="   80.836">  5  6 -1 -1</clus>
<clus scale="   89.489">  7  8 -1 -1</clus>
<clus scale="  271.097">  1  5  2 -1</clus>
<clus scale="  418.985">  7  9 -1 -1</clus>
<clus scale="  887.097">  2  5  1 -1</clus>
</clustering>
</event>
<event>
 9    2  0.3897980E-005  0.2370752E+03  0.7546771E-02  0.1155536E+00
         21   -1    0    0  501  502  0.00000000000E+00  0.00000000000E+00  0.20055510183E+03  0.20055510183E+03  0.00000000000E+00 0. -1.
         -1   -1    0    0    0  501 -0.00000000000E+00 -0.00000000000E+00 -0.15013234493E+03  0.15013234493E+03  0.00000000000E+00 0.  1.
         24    2    1    2    0    0 -0.44212439355E+02  0.51110570025E+02 -0.12303444248E+02  0.10545441143E+03  0.80013923708E+02 0.  0.
         23    2    1    2    0    0 -0.41708280057E+02 -0.98472988839E+02  0.48649834961E+02  0.14611839048E+03  0.86875010430E+02 0.  0.
        -13    1    3    3    0    0 -0.50366221502E+02  0.64726051073E+02 -0.25114399217E+02  0.85772670496E+02  0.00000000000E+00 0.  1.
         14    1    3    3    0    0  0.61537821473E+01 -0.13615481048E+02  0.12810954969E+02  0.19681740932E+02  0.00000000000E+00 0. -1.
        -13    1    4    4    0    0  0.16094033628E+02 -0.62962158765E+02  0.43254135577E+02  0.78065175330E+02  0.00000000000E+00 0.  1.
         13    1    4    4    0    0 -0.57802313685E+02 -0.35510830074E+02  0.53956993844E+01  0.68053215146E+02  0.00000000000E+00 0. -1.
         -2    1    1    2    0  502  0.85920719412E+02  0.47362418814E+02  0.14076366185E+02  0.99114644857E+02  0.00000000000E+00 0.  1.
<scales pt_clust_5="13000.00000" pt_clust_6="13000.00000" pt_clust_7="13000.00000" pt_clust_8="13000.00000" pt_clust_9="13000.00000"></scales>
<clustering>
<clus scale="   80.014">  5  6 -1 -1</clus>
<clus scale="   86.875">  7  8 -1 -1</clus>
<clus scale="   98.110">  7  9 -1 -1</clus>
<clus scale="  104.734">  2  5  1 -1</clus>
<clus scale="  237.075">  1  5  2 -1</clus>
</clustering>
</event>
<event>
 9    2  0.3897980E-005  0.5829931E+03  0.7546771E-02  0.1033411E+00
          2   -1    0    0  502    0 -0.00000000000E+00  0.00000000000E+00  0.11781476263E+04  0.11781476263E+04  0.00000000000E+00 0. -1.
         21   -1    0    0  501  502  0.00000000000E+00 -0.00000000000E+00 -0.14670021627E+03  0.14670021627E+03  0.00000000000E+00 0. -1.
         24    2    1    2    0    0 -0.63764490775E+02 -0.14139726518E+03  0.47530064217E+02  0.18118080678E+03  0.80673916838E+02 0.  0.
         23    2    1    2    0    0  0.19453366214E+03 -0.12376028254E+02  0.89917865437E+03  0.92474365246E+03  0.92908872076E+02 0.  0.
        -13    1    3    3    0    0  0.18495069751E+02 -0.41260641527E+02  0.13704177410E+02  0.47247355723E+02  0.00000000000E+00 0.  1.
         14    1    3    3    0    0 -0.82259560527E+02 -0.10013662366E+03  0.33825886807E+02  0.13393345106E+03  0.00000000000E+00 0. -1.
        -11    1    4    4    0    0  0.73427829841E+02  0.24315529090E+02  0.20461637507E+03  0.21874814764E+03  0.00000000000E+00 0.  1.
         11    1    4    4    0    0  0.12110583230E+03 -0.36691557345E+02  0.69456227930E+03  0.70599550482E+03  0.00000000000E+00 0. -1.
          1    1    1    2  501    0 -0.13076917136E+03  0.15377329344E+03  0.84738691480E+02  0.21892338337E+03  0.00000000000E+00 0. -1.
<scales pt_clust_5="13000.00000" pt_clust_6="13000.00000" pt_clust_7="13000.00000" pt_clust_8="13000.00000" pt_clust_9="13000.00000"></scales>
<clustering>
<clus scale="   80.674">  5  6 -1 -1</clus>
<clus scale="   92.909">  7  8 -1 -1</clus>
<clus scale="  174.835">  1  5  2 -1</clus>
<clus scale="  193.418">  7  9 -1 -1</clus>
<clus scale="  582.993">  2  5  1 -1</clus>
</clustering>
</event>
<event>
 9    2  0.3897980E-005  0.1512481E+03  0.7546771E-02  0.1227159E+00
          2   -1    0    0  502    0 -0.00000000000E+00  0.00000000000E+00  0.39746728018E+03  0.39746728018E+03  0.00000000000E+00 0. -1.
         21   -1    0    0  501  502  0.00000000000E+00 -0.00000000000E+00 -0.34904179526E+02  0.34904179526E+02  0.00000000000E+00 0.  1.
         24    2    1    2    0    0  0.94901921429E+01 -0.21743725271E+02  0.15049258686E+03  0.17189133929E+03  0.79597490456E+02 0.  0.
         23    2    1    2    0    0 -0.23832392693E+02  0.36426682547E+02  0.21635567559E+03  0.23951227449E+03  0.93066992702E+02 0.  0.
        -13    1    3    3    0    0  0.31855232960E+02 -0.14624949934E+02  0.22247515723E+02  0.41516225543E+02  0.00000000000E+00 0.  1.
         14    1    3    3    0    0 -0.22365040817E+02 -0.71187753366E+01  0.12824507114E+03  0.13037511374E+03  0.00000000000E+00 0. -1.
        -13    1    4    4    0    0  0.16958637905E+02  0.39689540369E+02  0.41300024910E+02  0.59737317247E+02  0.00000000000E+00 0.  1.
         13    1    4    4    0    0 -0.40791030599E+02 -0.32628578216E+01  0.17505565068E+03  0.17977495724E+03  0.00000000000E+00 0. -1.
          1    1    1    2  501    0  0.14342200550E+02 -0.14682957276E+02 -0.42851617967E+01  0.20967845922E+02  0.00000000000E+00 0. -1.
<scales pt_clust_5="13000.00000" pt_clust_6="13000.00000" pt_clust_7="13000.00000" pt_clust_8="13000.00000" pt_clust_9="13000.00000"></scales>
<clustering>
<clus scale="   79.597">  5  6 -1 -1</clus>
<clus scale="   83.058">  1  5  2 -1</clus>
<clus scale="   93.067">  7  8 -1 -1</clus>
<clus scale="   21.311">  7  9 -1 -1</clus>
<clus scale="  151.248">  2  5  1 -1</clus>
</clustering>
</event>
<event>
 9    2  0.3897980E-005  0.3873350E+03  0.7546771E-02  0.1100592E+00
          2   -1    0    0  502    0 -0.00000000000E+00  0.00000000000E+00  0.95430258757E+03  0.95430258757E+03  0.00000000000E+00 0. -1.
         21   -1    0    0  501  502  0.00000000000E+00 -0.00000000000E+00 -0.63274881088E+02  0.63274881088E+02  0.00000000000E+00 0. -1.
         24    2    1    2    0    0 -0.32654228090E+02  0.34203921264E+02  0.27062613286E+03  0.28619076555E+03  0.80190047124E+02 0.  0.
         23    2    1    2    0    0  0.79223220450E+02  0.11915882929E+03  0.50664435548E+03  0.53484279201E+03  0.94303573490E+02 0.  0.
        -11    1    3    3    0    0 -0.42551275680E+02  0.75835234359E+01  0.61639180945E+02  0.75282863371E+02  0.00000000000E+00 0.  1.
         12    1    3    3    0    0  0.98970475895E+01  0.26620397828E+02  0.20898695191E+03  0.21090790218E+03  0.00000000000E+00 0. -1.
        -11    1    4    4    0    0  0.83887536439E+02  0.70913928260E+02  0.24154213717E+03  0.26534601564E+03  0.00000000000E+00 0. -1.
         11    1    4    4    0    0 -0.46643159891E+01  0.48244901034E+02  0.26510221831E+03  0.26949677637E+03  0.00000000000E+00 0.  1.
          1    1    1    2  501    0 -0.46568992360E+02 -0.15336275056E+03  0.11375721814E+03  0.19654391109E+03  0.00000000000E+00 0. -1.
<scales pt_clust_5="13000.00000" pt_clust_6="13000.00000" pt_clust_7="13000.00000" pt_clust_8="13000.00000" pt_clust_9="13000.00000"></scales>
<clustering>
<clus scale="   80.190">  5  6 -1 -1</clus>
<clus scale="   93.095">  1  5  2 -1</clus>
<clus scale="   94.304">  7  8 -1 -1</clus>
<clus scale="  155.231">  7  9 -1 -1</clus>
<clus scale="  387.335">  2  5  1 -1</clus>
</clustering>
</event>
<event>
 9    2  0.3897980E-005  0.3292751E+03  0.7546771E-02  0.1107035E+00
          2   -1    0    0  502    0 -0.00000000000E+00  0.00000000000E+00  0.73323882650E+03  0.73323882650E+03  0.00000000000E+00 0. -1.
         21   -1    0    0  501  502  0.00000000000E+00 -0.00000000000E+00 -0.77429875137E+02  0.77429875137E+02  0.00000000000E+00 0. -1.
         24    2    1    2    0    0 -0.94639319409E+02  0.36301769921E+02  0.29767139463E+03  0.32416631068E+03  0.78747181051E+02 0.  0.
         23    2    1    2    0    0 -0.70364920942E+02 -0.31667474557E+02  0.27935689022E+03  0.30359730780E+03  0.90426777824E+02 0.  0.
        -13    1    3    3    0    0 -0.11393496479E+02 -0.21913726574E+02  0.37877364284E+02  0.45218557026E+02  0.00000000000E+00 0.  1.
         14    1    3    3    0    0 -0.83245822930E+02  0.58215496495E+02  0.25979403034E+03  0.27894775365E+03  0.00000000000E+00 0. -1.
        -11    1    4    4    0    0 -0.35901506731E+02  0.29507572773E+02  0.83889165397E+02  0.95901027667E+02  0.00000000000E+00 0.  1.
         11    1    4    4    0    0 -0.34463414211E+02 -0.61175047330E+02  0.19546772482E+03  0.20769628013E+03  0.00000000000E+00 0. -1.
          1    1    1    2  501    0  0.16500424035E+03 -0.46342953638E+01  0.78780666518E+02  0.18290508316E+03  0.00000000000E+00 0. -1.
<scales pt_clust_5="13000.00000" pt_clust_6="13000.00000" pt_clust_7="13000.00000" pt_clust_8="13000.00000" pt_clust_9="13000.00000"></scales>
<clustering>
<clus scale="   78.747">  5  6 -1 -1</clus>
<clus scale="   90.427">  7  8 -1 -1</clus>
<clus scale="  128.357">  1  5  2 -1</clus>
<clus scale="  135.844">  7  9 -1 -1</clus>
<clus scale="  329.275">  2  5  1 -1</clus>
</clustering>
</event>
<event>
 9    2  0.3897980E-005  0.1945367E+03  0.7546771E-02  0.1180913E+00
          4   -1    0    0  502    0 -0.00000000000E+00  0.00000000000E+00  0.40608467733E+03  0.40608467733E+03  0.00000000000E+00 0. -1.
         21   -1    0    0  501  502  0.00000000000E+00 -0.00000000000E+00 -0.56776595629E+02  0.56776595629E+02  0.00000000000E+00 0. -1.
         24    2    1    2    0    0  0.10327224095E+02 -0.67883264897E+02  0.91860301683E+02  0.14017894212E+03  0.80604166014E+02 0.  0.
         23    2    1    2    0    0  0.47027797127E+02  0.24541840342E+02  0.95588269470E+02  0.14557620814E+03  0.96132197968E+02 0.  0.
        -13    1    3    3    0    0 -0.30568245316E+02 -0.87706778461E+01  0.15738909315E+02  0.35483174576E+02  0.00000000000E+00 0.  1.
         14    1    3    3    0    0  0.40895469411E+02 -0.59112587051E+02  0.76121392368E+02  0.10469576755E+03  0.00000000000E+00 0. -1.
        -11    1    4    4    0    0  0.35761154239E+02  0.14823967460E+01  0.11032216315E+03  0.11598291829E+03  0.00000000000E+00 0.  1.
         11    1    4    4    0    0  0.11266642887E+02  0.23059443596E+02 -0.14733893684E+02  0.29593289847E+02  0.00000000000E+00 0. -1.
          3    1    1    2  501    0 -0.57355021222E+02  0.43341424555E+02  0.16185951054E+03  0.17710612269E+03  0.00000000000E+00 0. -1.
<scales pt_clust_5="13000.00000" pt_clust_6="13000.00000" pt_clust_7="13000.00000" pt_clust_8="13000.00000" pt_clust_9="13000.00000"></scales>
<clustering>
<clus scale="   80.604">  5  6 -1 -1</clus>
<clus scale="   96.132">  7  8 -1 -1</clus>
<clus scale="   71.889">  7  9 -1 -1</clus>
<clus scale="  105.886">  1  5  2 -1</clus>
<clus scale="  194.537">  2  5  1 -1</clus>
</clustering>
</event>
<event>
 9    2  0.3897980E-005  0.2531313E+03  0.7546771E-02  0.1147546E+00
          2   -1    0    0  502    0 -0.00000000000E+00  0.00000000000E+00  0.17681612201E+03  0.17681612201E+03  0.00000000000E+00 0. -1.
         21   -1    0    0  501  502  0.00000000000E+00 -0.00000000000E+00 -0.18617194784E+03  0.18617194784E+03  0.00000000000E+00 0. -1.
         24    2    1    2    0    0  0.56872648582E+02  0.27402621303E+02 -0.32283906815E+02  0.10882054410E+03  0.82548521295E+02 0.  0.
         23    2    1    2    0    0  0.18484039290E+02 -0.75645401903E+01  0.85539840652E+02  0.15420547136E+03  0.12674139451E+03 0.  0.
        -11    1    3    3    0    0  0.33925078385E+02 -0.25586976665E+02 -0.28060089835E+02  0.50921242717E+02  0.00000000000E+00 0.  1.
         12    1    3    3    0    0  0.22947570197E+02  0.52989597968E+02 -0.42238169799E+01  0.57899301383E+02  0.00000000000E+00 0. -1.
        -13    1    4    4    0    0  0.62794723932E+02 -0.32289048960E+02  0.73769943275E+02  0.10211642653E+03  0.00000000000E+00 0. -1.
         13    1    4    4    0    0 -0.44310684642E+02  0.24724508770E+02  0.11769897377E+02  0.52089044834E+02  0.00000000000E+00 0.  1.
          1    1    1    2  501    0 -0.75356687872E+02 -0.19838081113E+02 -0.62611759661E+02  0.99962054386E+02  0.00000000000E+00 0. -1.
<scales pt_clust_5="13000.00000" pt_clust_6="13000.00000" pt_clust_7="13000.00000" pt_clust_8="13000.00000" pt_clust_9="13000.00000"></scales>
<clustering>
<clus scale="   82.549">  5  6 -1 -1</clus>
<clus scale="  103.921">  1  5  2 -1</clus>
<clus scale="  126.741">  7  8 -1 -1</clus>
<clus scale="   69.589">  7  9 -1 -1</clus>
<clus scale="  253.131">  2  5  1 -1</clus>
</clustering>
</event>
<event>
 9    2  0.3897980E-005  0.1778601E+03  0.7546771E-02  0.1198414E+00
         -3   -1    0    0    0  501 -0.00000000000E+00  0.00000000000E+00  0.11234598251E+03  0.11234598251E+03  0.00000000000E+00 0.  1.
         21   -1    0    0  501  502  0.00000000000E+00 -0.00000000000E+00 -0.19330998880E+03  0.19330998880E+03  0.00000000000E+00 0. -1.
         24    2    1    2    0    0  0.17701770875E+02 -0.45680690195E+02  0.26619914552E+02  0.97789399669E+02  0.80337218574E+02 0.  0.
         23    2    1    2    0    0 -0.20925654428E+02  0.87020328615E+02 -0.70258443894E+02  0.15207633629E+03  0.10089867450E+03 0.  0.
        -11    1    3    3    0    0  0.37067344657E+02 -0.55778508023E+02  0.33510833027E+02  0.74887955823E+02  0.00000000000E+00 0.  1.
         12    1    3    3    0    0 -0.19365573782E+02  0.10097817828E+02 -0.68909184752E+01  0.22901443846E+02  0.00000000000E+00 0. -1.
        -11    1    4    4    0    0 -0.23658822595E+02  0.33138460746E+02  0.21188686606E+02  0.45900521863E+02  0.00000000000E+00 0.  1.
         11    1    4    4    0    0  0.27331681672E+01  0.53881867870E+02 -0.91447130501E+02  0.10617581443E+03  0.00000000000E+00 0. -1.
         -4    1    1    2    0  502  0.32238835529E+01 -0.41339638421E+02 -0.37325476947E+02  0.55790235340E+02  0.00000000000E+00 0.  1.
<scales pt_clust_5="13000.00000" pt_clust_6="13000.00000" pt_clust_7="13000.00000" pt_clust_8="13000.00000" pt_clust_9="13000.00000"></scales>
<clustering>
<clus scale="   80.337">  5  6 -1 -1</clus>
<clus scale="   94.096">  1  5  2 -1</clus>
<clus scale="  100.899">  7  8 -1 -1</clus>
<clus scale="   50.171">  7  9 -1 -1</clus>
<clus scale="  177.860">  2  5  1 -1</clus>
</clustering>
</event>
<event>
 9    2  0.3897980E-005  0.3166021E+03  0.7546771E-02  0.1109984E+00
         -1   -1    0    0    0  501 -0.00000000000E+00  0.00000000000E+00  0.73122249841E+02  0.73122249841E+02  0.00000000000E+00 0.  1.
         21   -1    0    0  501  502  0.00000000000E+00 -0.00000000000E+00 -0.69883892641E+03  0.69883892641E+03  0.00000000000E+00 0.  1.
         24    2    1    2    0    0  0.76039332837E+01  0.10945905509E+03 -0.21644407234E+03  0.25452428191E+03  0.76781958086E+02 0.  0.
         23    2    1    2    0    0  0.37822507238E+01  0.83248886374E+02 -0.16784548948E+03  0.20832033440E+03  0.90997642197E+02 0.  0.
        -13    1    3    3    0    0  0.27286992420E+02  0.24125902355E+02 -0.25519445846E+02  0.44473376711E+02  0.00000000000E+00 0.  1.
         14    1    3    3    0    0 -0.19683059137E+02  0.85333152739E+02 -0.19092462649E+03  0.21005090520E+03  0.00000000000E+00 0. -1.
        -13    1    4    4    0    0 -0.34653585728E+02  0.67337752253E+02 -0.75013444405E+02  0.10659390566E+03  0.00000000000E+00 0.  1.
         13    1    4    4    0    0  0.38435836452E+02  0.15911134120E+02 -0.92832045071E+02  0.10172642874E+03  0.00000000000E+00 0. -1.
         -2    1    1    2    0  502 -0.11386184008E+02 -0.19270794147E+03 -0.24142711476E+03  0.30911655994E+03  0.00000000000E+00 0.  1.
<scales pt_clust_5="13000.00000" pt_clust_6="13000.00000" pt_clust_7="13000.00000" pt_clust_8="13000.00000" pt_clust_9="13000.00000"></scales>
<clustering>
<clus scale="   76.782">  5  6 -1 -1</clus>
<clus scale="   90.998">  7  8 -1 -1</clus>
<clus scale="  133.920">  1  5  2 -1</clus>
<clus scale="  124.385">  7  9 -1 -1</clus>
<clus scale="  316.602">  2  5  1 -1</clus>
</clustering>
</event>
<event>
 9    2  0.3897980E-005  0.1769372E+03  0.7546771E-02  0.1205308E+00
         21   -1    0    0  501  502  0.00000000000E+00  0.00000000000E+00  0.66652792716E+03  0.66652792716E+03  0.00000000000E+00 0.  1.
         -1   -1    0    0    0  501 -0.00000000000E+00 -0.00000000000E+00 -0.13088747337E+03  0.13088747337E+03  0.00000000000E+00 0.  1.
         24    2    1    2    0    0  0.15143051766E+02 -0.75759062904E+01 -0.10463739011E+03  0.13313947347E+03  0.80563202595E+02 0.  0.
         23    2    1    2    0    0  0.36797701018E+02 -0.33092505961E+02  0.46956259862E+03  0.48125828713E+03  0.93119923561E+02 0.  0.
        -11    1    3    3    0    0 -0.26896703296E+01 -0.26736540680E+02 -0.10350893369E+03  0.10694005932E+03  0.00000000000E+00 0.  1.
         12    1    3    3    0    0  0.17832722096E+02  0.19160634390E+02 -0.11284564210E+01  0.26199414143E+02  0.00000000000E+00 0. -1.
        -11    1    4    4    0    0  0.33545417157E+02 -0.61952840337E+02  0.39510231628E+03  0.40133438648E+03  0.00000000000E+00 0.  1.
         11    1    4    4    0    0  0.32522838605E+01  0.28860334377E+02  0.74460282332E+02  0.79923900653E+02  0.00000000000E+00 0. -1.
         -2    1    1    2    0  502 -0.51940752783E+02  0.40668412251E+02  0.17071524529E+03  0.18301763994E+03  0.00000000000E+00 0.  1.
<scales pt_clust_5="13000.00000" pt_clust_6="13000.00000" pt_clust_7="13000.00000" pt_clust_8="13000.00000" pt_clust_9="13000.00000"></scales>
<clustering>
<clus scale="   80.563">  5  6 -1 -1</clus>
<clus scale="   82.323">  2  5  1 -1</clus>
<clus scale="   93.120">  7  8 -1 -1</clus>
<clus scale="   57.487">  7  9 -1 -1</clus>
<clus scale="  176.937">  1  5  2 -1</clus>
</clustering>
</event>
<event>
 9    2  0.3897980E-005  0.2512839E+03  0.7546771E-02  0.1142775E+00
          2   -1    0    0  502    0 -0.00000000000E+00  0.00000000000E+00  0.97826743614E+03  0.97826743614E+03  0.00000000000E+00 0. -1.
         21   -1    0    0  501  502  0.00000000000E+00 -0.00000000000E+00 -0.41219505335E+02  0.41219505335E+02  0.00000000000E+00 0. -1.
         24    2    1    2    0    0  0.24834233008E+02 -0.83779957443E+02  0.51249058394E+03  0.52613863355E+03  0.80866820726E+02 0.  0.
         23    2    1    2    0    0  0.64776168745E+02  0.10638279509E+03  0.21902389970E+03  0.26799323193E+03  0.91299795137E+02 0.  0.
        -11    1    3    3    0    0 -0.27124852685E+02 -0.10770656164E+02  0.14157096780E+03  0.14454792835E+03  0.00000000000E+00 0.  1.
         12    1    3    3    0    0  0.51959085693E+02 -0.73009301280E+02  0.37091961614E+03  0.38159070520E+03  0.00000000000E+00 0. -1.
        -13    1    4    4    0    0  0.33104075735E+02  0.85954687811E+02  0.74002057677E+02  0.11815410584E+03  0.00000000000E+00 0. -1.
         13    1    4    4    0    0  0.31672093010E+02  0.20428107275E+02  0.14502184203E+03  0.14983912609E+03  0.00000000000E+00 0.  1.
          1    1    1    2  501    0 -0.89610401753E+02 -0.22602837642E+02  0.20553344716E+03  0.22535507599E+03  0.00000000000E+00 0. -1.
<scales pt_clust_5="13000.00000" pt_clust_6="13000.00000" pt_clust_7="13000.00000" pt_clust_8="13000.00000" pt_clust_9="13000.00000"></scales>
<clustering>
<clus scale="   80.867">  5  6 -1 -1</clus>
<clus scale="   91.300">  7  8 -1 -1</clus>
<clus scale="   92.417">  7  9 -1 -1</clus>
<clus scale="  119.060">  1  5  2 -1</clus>
<clus scale="  251.284">  2  5  1 -1</clus>
</clustering>
</event>
<event>
 9    2  0.3897980E-005  0.5381918E+03  0.7546771E-02  0.1043076E+00
          2   -1    0    0  502    0 -0.00000000000E+00  0.00000000000E+00  0.37881719432E+03  0.37881719432E+03  0.00000000000E+00 0. -1.
         21   -1    0    0  501  502  0.00000000000E+00 -0.00000000000E+00 -0.32929797046E+03  0.32929797046E+03  0.00000000000E+00 0. -1.
         24    2    1    2    0    0 -0.41453150589E+02 -0.14002117227E+03  0.24137058174E+02  0.16932518063E+03  0.82244311904E+02 0.  0.
         23    2    1    2    0    0  0.42319108991E+02 -0.17321088902E+03 -0.69019113165E+02  0.21164066726E+03  0.90748085339E+02 0.  0.
        -11    1    3    3    0    0 -0.58866384036E+02 -0.10281549856E+03 -0.56085708116E+01  0.11860747860E+03  0.00000000000E+00 0.  1.
         12    1    3    3    0    0  0.17413233447E+02 -0.37205673707E+02  0.29745628985E+02  0.50717702026E+02  0.00000000000E+00 0. -1.
        -11    1    4    4    0    0  0.24974912336E+02 -0.11584828886E+03  0.22418229303E+01  0.11853100037E+03  0.00000000000E+00 0.  1.
         11    1    4    4    0    0  0.17344196655E+02 -0.57362600162E+02 -0.71260936095E+02  0.93109666888E+02  0.00000000000E+00 0. -1.
          1    1    1    2  501    0 -0.86595840219E+00  0.31323206129E+03  0.94401278850E+02  0.32714931691E+03  0.00000000000E+00 0. -1.
<scales pt_clust_5="13000.00000" pt_clust_6="13000.00000" pt_clust_7="13000.00000" pt_clust_8="13000.00000" pt_clust_9="13000.00000"></scales>
<clustering>
<clus scale="   82.244">  5  6 -1 -1</clus>
<clus scale="   90.748">  7  8 -1 -1</clus>
<clus scale="  167.596">  1  5  2 -1</clus>
<clus scale="  211.024">  7  9 -1 -1</clus>
<clus scale="  538.192">  2  5  1 -1</clus>
</clustering>
</event>
<event>
 9    2  0.3897980E-005  0.2358429E+03  0.7546771E-02  0.1148531E+00
         21   -1    0    0  501  502  0.00000000000E+00  0.00000000000E+00  0.33367143996E+02  0.33367143996E+02  0.00000000000E+00 0. -1.
          2   -1    0    0  502    0 -0.00000000000E+00 -0.00000000000E+00 -0.11477507633E+04  0.11477507633E+04  0.00000000000E+00 0. -1.
         24    2    1    2    0    0 -0.84691073438E+02  0.45666528457E+02 -0.62985067744E+03  0.64223569118E+03  0.80602713464E+02 0.  0.
         23    2    1    2    0    0 -0.48938499309E+02 -0.36331474234E+02 -0.26882791123E+03  0.28496753322E+03  0.72270992794E+02 0.  0.
        -13    1    3    3    0    0 -0.39763447528E+01 -0.20514014599E+02 -0.90917284512E+02  0.93287666578E+02  0.00000000000E+00 0.  1.
         14    1    3    3    0    0 -0.80714728685E+02  0.66180543056E+02 -0.53893339292E+03  0.54894802460E+03  0.00000000000E+00 0. -1.
        -11    1    4    4    0    0 -0.50134395737E+02  0.74030498348E+01 -0.13732519434E+03  0.14637783912E+03  0.00000000000E+00 0.  1.
         11    1    4    4    0    0  0.11958964276E+01 -0.43734524069E+02 -0.13150271689E+03  0.13858969411E+03  0.00000000000E+00 0. -1.
          1    1    1    2  501    0  0.13362957275E+03 -0.93350542230E+01 -0.21570503068E+03  0.25391468293E+03  0.00000000000E+00 0. -1.
<scales pt_clust_5="13000.00000" pt_clust_6="13000.00000" pt_clust_7="13000.00000" pt_clust_8="13000.00000" pt_clust_9="13000.00000"></scales>
<clustering>
<clus scale="   72.271">  7  8 -1 -1</clus>
<clus scale="   80.603">  5  6 -1 -1</clus>
<clus scale="  125.518">  2  5  1 -1</clus>
<clus scale="   95.477">  7  9 -1 -1</clus>
<clus scale="  235.843">  1  5  2 -1</clus>
</clustering>
</event>
<event>
 9    2  0.3897980E-005  0.1662687E+03  0.7546771E-02  0.1196931E+00
         21   -1    0    0  501  502  0.00000000000E+00  0.00000000000E+00  0.29866810547E+02  0.29866810547E+02  0.00000000000E+00 0.  1.
          2   -1    0    0  502    0 -0.00000000000E+00 -0.00000000000E+00 -0.99918669481E+03  0.99918669481E+03  0.00000000000E+00 0. -1.
         24    2    1    2    0    0  0.31054124931E+02 -0.78662907516E+02 -0.71749327702E+03  0.72728882331E+03  0.83667306894E+02 0.  0.
         23    2    1    2    0    0 -0.21638485433E+02  0.40721077345E+02 -0.91860893648E+02  0.13709147151E+03  0.90715035066E+02 0.  0.
        -13    1    3    3    0    0  0.29833316659E+02  0.64145361643E+01 -0.12255055262E+03  0.12629256116E+03  0.00000000000E+00 0.  1.
         14    1    3    3    0    0  0.12208082721E+01 -0.85077443680E+02 -0.59494272440E+03  0.60099626215E+03  0.00000000000E+00 0. -1.
        -13    1    4    4    0    0  0.58165773393E+01  0.29974221794E+02 -0.10156241566E+03  0.10605286804E+03  0.00000000000E+00 0. -1.
         13    1    4    4    0    0 -0.27455062772E+02  0.10746855550E+02  0.97015220141E+01  0.31038603471E+02  0.00000000000E+00 0.  1.
          1    1    1    2  501    0 -0.94156394982E+01  0.37941830171E+02 -0.15996571360E+03  0.16467321055E+03  0.00000000000E+00 0. -1.
<scales pt_clust_5="13000.00000" pt_clust_6="13000.00000" pt_clust_7="13000.00000" pt_clust_8="13000.00000" pt_clust_9="13000.00000"></scales>
<clustering>
<clus scale="   83.667">  5  6 -1 -1</clus>
<clus scale="   90.715">  7  8 -1 -1</clus>
<clus scale="   39.093">  7  9 -1 -1</clus>
<clus scale="  118.964">  2  5  1 -1</clus>
<clus scale="  166.269">  1  5  2 -1</clus>
</clustering>
</event>
<event>
 9    2  0.3897980E-005  0.4412597E+03  0.7546771E-02  0.1046954E+00
         21   -1    0    0  501  502  0.00000000000E+00  0.00000000000E+00  0.88261889622E+02  0.88261889622E+02  0.00000000000E+00 0. -1.
          4   -1    0    0  502    0 -0.00000000000E+00 -0.00000000000E+00 -0.20938748127E+04  0.20938748127E+04  0.00000000000E+00 0. -1.
         24    2    1    2    0    0  0.16205653963E+03 -0.20300115097E+03 -0.14364213736E+04  0.14619359350E+04  0.80489292063E+02 0.  0.
         23    2    1    2    0    0 -0.46746090373E+02 -0.69987711523E+02 -0.77259677374E+02  0.14590434080E+03  0.90749888080E+02 0.  0.
        -13    1    3    3    0    0  0.20486401235E+02 -0.49305752741E+02 -0.16404841495E+03  0.17251849853E+03  0.00000000000E+00 0.  1.
         14    1    3    3    0    0  0.14157013839E+03 -0.15369539823E+03 -0.12723729586E+04  0.12894174364E+04  0.00000000000E+00 0. -1.
        -11    1    4    4    0    0 -0.64367364991E+02 -0.47298737177E+02 -0.84499959422E+02  0.11627799171E+03  0.00000000000E+00 0.  1.
         11    1    4    4    0    0  0.17621274618E+02 -0.22688974347E+02  0.72402820476E+01  0.29626349087E+02  0.00000000000E+00 0. -1.
          3    1    1    2  501    0 -0.11531044925E+03  0.27298886249E+03 -0.49193187215E+03  0.57429642658E+03  0.00000000000E+00 0. -1.
<scales pt_clust_5="13000.00000" pt_clust_6="13000.00000" pt_clust_7="13000.00000" pt_clust_8="13000.00000" pt_clust_9="13000.00000"></scales>
<clustering>
<clus scale="   80.489">  5  6 -1 -1</clus>
<clus scale="   90.750">  7  8 -1 -1</clus>
<clus scale="  271.938">  2  5  1 -1</clus>
<clus scale="  106.772">  7  9 -1 -1</clus>
<clus scale="  441.260">  1  5  2 -1</clus>
</clustering>
</event>
<event>
 9    2  0.3897980E-005  0.1462063E+03  0.7546771E-02  0.1232351E+00
         21   -1    0    0  501  502  0.00000000000E+00  0.00000000000E+00  0.76408095066E+02  0.76408095066E+02  0.00000000000E+00 0.  1.
          4   -1    0    0  502    0 -0.00000000000E+00 -0.00000000000E+00 -0.60045891081E+03  0.60045891081E+03  0.00000000000E+00 0. -1.
         24    2    1    2    0    0 -0.38324000798E+02 -0.25857369107E+02 -0.52419313109E+03  0.53066068373E+03  0.68446986727E+02 0.  0.
         23    2    1    2    0    0  0.64342266304E+02  0.14626964808E+02 -0.12274402748E+02  0.11526691348E+03  0.93711925856E+02 0.  0.
        -11    1    3    3    0    0 -0.25881986188E+02 -0.41899710927E+01 -0.56352525575E+02  0.62153360372E+02  0.00000000000E+00 0.  1.
         12    1    3    3    0    0 -0.12442014610E+02 -0.21667398014E+02 -0.46784060552E+03  0.46850732335E+03  0.00000000000E+00 0. -1.
        -13    1    4    4    0    0 -0.20011432556E+02 -0.12808688523E+02  0.64273586756E+01  0.24613631877E+02  0.00000000000E+00 0. -1.
         13    1    4    4    0    0  0.84353698860E+02  0.27435653330E+02 -0.18701761423E+02  0.90653281603E+02  0.00000000000E+00 0.  1.
          3    1    1    2  501    0 -0.26018265506E+02  0.11230404299E+02  0.12416718097E+02  0.30939408672E+02  0.00000000000E+00 0. -1.
<scales pt_clust_5="13000.00000" pt_clust_6="13000.00000" pt_clust_7="13000.00000" pt_clust_8="13000.00000" pt_clust_9="13000.00000"></scales>
<clustering>
<clus scale="   68.447">  5  6 -1 -1</clus>
<clus scale="   82.597">  2  5  1 -1</clus>
<clus scale="   93.712">  7  8 -1 -1</clus>
<clus scale="   31.886">  7  9 -1 -1</clus>
<clus scale="  146.206">  1  5  2 -1</clus>
</clustering>
</event>
<event>
 9    2  0.3897980E-005  0.1625627E+03  0.7546771E-02  0.1201742E+00
          2   -1    0    0  502    0 -0.00000000000E+00  0.00000000000E+00  0.39421229904E+03  0.39421229904E+03  0.00000000000E+00 0. -1.
         21   -1    0    0  501  502  0.00000000000E+00 -0.00000000000E+00 -0.51596108260E+02  0.51596108260E+02  0.00000000000E+00 0. -1.
         24    2    1    2    0    0  0.10413292666E+02 -0.71095614709E+02  0.91576962649E+02  0.14673093986E+03  0.89334234915E+02 0.  0.
         23    2    1    2    0    0 -0.13670218983E+01  0.26347134072E+01  0.10554416124E+03  0.13802609517E+03  0.88897820626E+02 0.  0.
        -13    1    3    3    0    0 -0.34401440395E+02 -0.54937076913E+02  0.38416938356E+02  0.75348541284E+02  0.00000000000E+00 0.  1.
         14    1    3    3    0    0  0.44814733061E+02 -0.16158537796E+02  0.53160024293E+02  0.71382398572E+02  0.00000000000E+00 0. -1.
        -13    1    4    4    0    0  0.42439891541E+02  0.11729456789E+02  0.48020114362E+02  0.65151024043E+02  0.00000000000E+00 0.  1.
         13    1    4    4    0    0 -0.43806913439E+02 -0.90947433821E+01  0.57524046874E+02  0.72875071122E+02  0.00000000000E+00 0. -1.
          1    1    1    2  501    0 -0.90462707679E+01  0.68460901302E+02  0.14549506689E+03  0.16105137228E+03  0.00000000000E+00 0. -1.
<scales pt_clust_5="13000.00000" pt_clust_6="13000.00000" pt_clust_7="13000.00000" pt_clust_8="13000.00000" pt_clust_9="13000.00000"></scales>
<clustering>
<clus scale="   88.898">  7  8 -1 -1</clus>
<clus scale="   69.056">  7  9 -1 -1</clus>
<clus scale="   89.334">  5  6 -1 -1</clus>
<clus scale="  114.646">  1  5  2 -1</clus>
<clus scale="  162.563">  2  5  1 -1</clus>
</clustering>
</event>
<event>
 9    2  0.3897980E-005  0.1983232E+03  0.7546771E-02  0.1164639E+00
         -1   -1    0    0    0  501 -0.00000000000E+00  0.00000000000E+00  0.60377264263E+03  0.60377264263E+03  0.00000000000E+00 0.  1.
         21   -1    0    0  501  502  0.00000000000E+00 -0.00000000000E+00 -0.58271746078E+02  0.58271746078E+02  0.00000000000E+00 0. -1.
         24    2    1    2    0    0  0.11856476653E+03  0.28474919120E+02  0.10458098631E+03  0.17857518706E+03  0.77996729758E+02 0.  0.
         23    2    1    2    0    0 -0.23694277842E+02  0.26738766869E+01  0.15491758418E+03  0.18053688641E+03  0.89585384115E+02 0.  0.
        -13    1    3    3    0    0  0.31013682705E+02  0.43722386827E+02  0.55040689953E+02  0.76830808764E+02  0.00000000000E+00 0.  1.
         14    1    3    3    0    0  0.87551083829E+02 -0.15247467708E+02  0.49540296355E+02  0.10174437829E+03  0.00000000000E+00 0. -1.
        -13    1    4    4    0    0 -0.21740424797E+02  0.45114042198E+02  0.88739192871E+02  0.10189488321E+03  0.00000000000E+00 0.  1.
         13    1    4    4    0    0 -0.19538530457E+01 -0.42440165511E+02  0.66178391312E+02  0.78642003197E+02  0.00000000000E+00 0. -1.
         -2    1    1    2    0  502 -0.94870488691E+02 -0.31148795807E+02  0.28600232606E+03  0.30293231524E+03  0.00000000000E+00 0.  1.
<scales pt_clust_5="13000.00000" pt_clust_6="13000.00000" pt_clust_7="13000.00000" pt_clust_8="13000.00000" pt_clust_9="13000.00000"></scales>
<clustering>
<clus scale="   77.997">  5  6 -1 -1</clus>
<clus scale="   89.585">  7  8 -1 -1</clus>
<clus scale="   99.853">  7  9 -1 -1</clus>
<clus scale="  144.748">  1  5  2 -1</clus>
<clus scale="  198.323">  2  5  1 -1</clus>
</clustering>
</event>
<event>
 9    2  0.3897980E-005  0.1634206E+03  0.7546771E-02  0.1217029E+00
         21   -1    0    0  501  502  0.00000000000E+00  0.00000000000E+00  0.19923653267E+03  0.19923653267E+03  0.00000000000E+00 0.  1.
          2   -1    0    0  502    0 -0.00000000000E+00 -0.00000000000E+00 -0.84002220798E+02  0.84002220798E+02  0.00000000000E+00 0. -1.
         24    2    1    2    0    0  0.15763849611E+02  0.98824322018E+01 -0.31370037680E+01  0.81451558052E+02  0.79236065625E+02 0.  0.
         23    2    1    2    0    0  0.25251588774E+02  0.34066566522E+02  0.80245490665E+02  0.13060180924E+03  0.93911235298E+02 0.  0.
        -13    1    3    3    0    0 -0.31674318730E+02  0.99140019007E+01  0.41821892264E+01  0.33452064322E+02  0.00000000000E+00 0.  1.
         14    1    3    3    0    0  0.47438168341E+02 -0.31569698851E-01 -0.73191929944E+01  0.47999493730E+02  0.00000000000E+00 0. -1.
        -13    1    4    4    0    0 -0.35586520347E+02  0.62030369450E+01  0.28598088287E+02  0.46073080551E+02  0.00000000000E+00 0. -1.
         13    1    4    4    0    0  0.60838109121E+02  0.27863529577E+02  0.51647402378E+02  0.84528728692E+02  0.00000000000E+00 0.  1.
          1    1    1    2  501    0 -0.41015438385E+02 -0.43948998724E+02  0.38125824978E+02  0.71185386176E+02  0.00000000000E+00 0. -1.
<scales pt_clust_5="13000.00000" pt_clust_6="13000.00000" pt_clust_7="13000.00000" pt_clust_8="13000.00000" pt_clust_9="13000.00000"></scales>
<clustering>
<clus scale="   79.236">  5  6 -1 -1</clus>
<clus scale="   81.391">  2  5  1 -1</clus>
<clus scale="   93.911">  7  8 -1 -1</clus>
<clus scale="   53.023">  7  9 -1 -1</clus>
<clus scale="  163.421">  1  5  2 -1</clus>
</clustering>
</event>
<event>
 9    2  0.3897980E-005  0.5497164E+03  0.7546771E-02  0.1066797E+00
         21   -1    0    0  501  502  0.00000000000E+00  0.00000000000E+00  0.25345663585E+03  0.25345663585E+03  0.00000000000E+00 0. -1.
          2   -1    0    0  502    0 -0.00000000000E+00 -0.00000000000E+00 -0.39197729010E+03  0.39197729010E+03  0.00000000000E+00 0. -1.
         24    2    1    2    0    0  0.14122367101E+01  0.24814082882E+02 -0.23619389647E+02  0.83837641590E+02  0.76505826303E+02 0.  0.
         23    2    1    2    0    0 -0.88166501365E+02  0.18043902735E+03  0.10866151027E+03  0.24594543927E+03  0.91379761036E+02 0.  0.
        -11    1    3    3    0    0 -0.28069138334E+02 -0.13744238282E+02 -0.14489414343E+02  0.34448856886E+02  0.00000000000E+00 0.  1.
         12    1    3    3    0    0  0.29481375044E+02  0.38558321164E+02 -0.91299753043E+01  0.49388784704E+02  0.00000000000E+00 0. -1.
        -11    1    4    4    0    0 -0.24860794338E+02  0.14669829454E+03  0.76993489555E+02  0.16753043350E+03  0.00000000000E+00 0. -1.
         11    1    4    4    0    0 -0.63305707027E+02  0.33740732814E+02  0.31668020715E+02  0.78415005765E+02  0.00000000000E+00 0.  1.
          1    1    1    2  501    0  0.86754264655E+02 -0.20525311023E+03 -0.22356277488E+03  0.31565084509E+03  0.00000000000E+00 0. -1.
<scales pt_clust_5="13000.00000" pt_clust_6="13000.00000" pt_clust_7="13000.00000" pt_clust_8="13000.00000" pt_clust_9="13000.00000"></scales>
<clustering>
<clus scale="   76.506">  5  6 -1 -1</clus>
<clus scale="   80.442">  2  5  1 -1</clus>
<clus scale="   91.380">  7  8 -1 -1</clus>
<clus scale="  205.241">  7  9 -1 -1</clus>
<clus scale="  549.716">  1  5  2 -1</clus>
</clustering>
</event>
<event>
 9    2  0.3897980E-005  0.2031241E+03  0.7546771E-02  0.1168490E+00
         21   -1    0    0  501  502  0.00000000000E+00  0.00000000000E+00  0.39032332639E+02  0.39032332639E+02  0.00000000000E+00 0. -1.
          2   -1    0    0  502    0 -0.00000000000E+00 -0.00000000000E+00 -0.10109650013E+04  0.10109650013E+04  0.00000000000E+00 0. -1.
         24    2    1    2    0    0 -0.79807260285E+02  0.47835836592E+02 -0.69890799494E+03  0.70970058953E+03  0.80901639846E+02 0.  0.
         23    2    1    2    0    0 -0.57317643787E+00 -0.60182194454E+01 -0.65050270421E+02  0.11344198880E+03  0.92741574525E+02 0.  0.
        -11    1    3    3    0    0 -0.31401456967E+02 -0.21908003926E+02 -0.20335211085E+03  0.20692533224E+03  0.00000000000E+00 0.  1.
         12    1    3    3    0    0 -0.48405803317E+02  0.69743840518E+02 -0.49555588409E+03  0.50277525729E+03  0.00000000000E+00 0. -1.
        -13    1    4    4    0    0 -0.26468816850E+02 -0.17187329758E+02 -0.76692190237E+02  0.82931867295E+02  0.00000000000E+00 0.  1.
         13    1    4    4    0    0  0.25895640412E+02  0.11169110313E+02  0.11641919815E+02  0.30510121509E+02  0.00000000000E+00 0. -1.
          1    1    1    2  501    0  0.80380436723E+02 -0.41817617146E+02 -0.20797440326E+03  0.22685475557E+03  0.00000000000E+00 0. -1.
<scales pt_clust_5="13000.00000" pt_clust_6="13000.00000" pt_clust_7="13000.00000" pt_clust_8="13000.00000" pt_clust_9="13000.00000"></scales>
<clustering>
<clus scale="   80.902">  5  6 -1 -1</clus>
<clus scale="   92.742">  7  8 -1 -1</clus>
<clus scale="   90.608">  7  9 -1 -1</clus>
<clus scale="  123.299">  2  5  1 -1</clus>
<clus scale="  203.124">  1  5  2 -1</clus>
</clustering>
</event>
<event>
 9    2  0.3897980E-005  0.3280538E+03  0.7546771E-02  0.1090182E+00
          2   -1    0    0  502    0 -0.00000000000E+00  0.00000000000E+00  0.18408044783E+04  0.18408044783E+04  0.00000000000E+00 0. -1.
         21   -1    0    0  501  502  0.00000000000E+00 -0.00000000000E+00 -0.18100660882E+03  0.18100660882E+03  0.00000000000E+00 0. -1.
         24    2    1    2    0    0 -0.17664012315E+03  0.51456135058E+02  0.16810682407E+04  0.16930684814E+04  0.81492242846E+02 0.  0.
         23    2    1    2    0    0  0.93850568745E+02 -0.53630106341E+02  0.10661363690E+03  0.17638396303E+03  0.89781497443E+02 0.  0.
        -13    1    3    3    0    0 -0.14273044529E+02  0.28107381444E+02  0.15252920136E+03  0.15575269487E+03  0.00000000000E+00 0.  1.
         14    1    3    3    0    0 -0.16236707862E+03  0.23348753615E+02  0.15285390394E+04  0.15373157865E+04  0.00000000000E+00 0. -1.
        -13    1    4    4    0    0  0.10308978461E+03 -0.21059345481E+02  0.69246854903E+02  0.12596081389E+03  0.00000000000E+00 0.  1.
         13    1    4    4    0    0 -0.92392158617E+01 -0.32570760860E+02  0.37366781996E+02  0.50423149143E+02  0.00000000000E+00 0. -1.
          1    1    1    2  501    0  0.82789554406E+02  0.21739712828E+01 -0.12788400815E+03  0.15235864272E+03  0.00000000000E+00 0. -1.
<scales pt_clust_5="13000.00000" pt_clust_6="13000.00000" pt_clust_7="13000.00000" pt_clust_8="13000.00000" pt_clust_9="13000.00000"></scales>
<clustering>
<clus scale="   81.492">  5  6 -1 -1</clus>
<clus scale="   89.781">  7  8 -1 -1</clus>
<clus scale="   82.818">  7  9 -1 -1</clus>
<clus scale="  201.222">  1  5  2 -1</clus>
<clus scale="  328.054">  2  5  1 -1</clus>
</clustering>
</event>
<event>
 9    2  0.3897980E-005  0.1775489E+03  0.7546771E-02  0.1184024E+00
          2   -1    0    0  502    0 -0.00000000000E+00  0.00000000000E+00  0.51150351522E+03  0.51150351522E+03  0.00000000000E+00 0. -1.
         21   -1    0    0  501  502  0.00000000000E+00 -0.00000000000E+00 -0.10964824642E+03  0.10964824642E+03  0.00000000000E+00 0.  1.
         24    2    1    2    0    0  0.42759615568E+02  0.92033685409E+02  0.42285895356E+03  0.44236485090E+03  0.81107229870E+02 0.  0.
         23    2    1    2    0    0 -0.53888137354E+02 -0.10897103076E+03 -0.32016512291E+02  0.15572178480E+03  0.91899947282E+02 0.  0.
        -11    1    3    3    0    0  0.19308766661E+01  0.44468471890E+02  0.63300135503E+02  0.77382688191E+02  0.00000000000E+00 0.  1.
         12    1    3    3    0    0  0.40828738902E+02  0.47565213520E+02  0.35955881805E+03  0.36498216271E+03  0.00000000000E+00 0. -1.
        -13    1    4    4    0    0 -0.37214403413E+02 -0.63398478517E+02 -0.64110474123E+02  0.97541948884E+02  0.00000000000E+00 0.  1.
         13    1    4    4    0    0 -0.16673733941E+02 -0.45572552239E+02  0.32093961833E+02  0.58179835916E+02  0.00000000000E+00 0. -1.
          1    1    1    2  501    0  0.11128521786E+02  0.16937345347E+02  0.11012827531E+02  0.23065125943E+02  0.00000000000E+00 0. -1.
<scales pt_clust_5="13000.00000" pt_clust_6="13000.00000" pt_clust_7="13000.00000" pt_clust_8="13000.00000" pt_clust_9="13000.00000"></scales>
<clustering>
<clus scale="   81.107">  5  6 -1 -1</clus>
<clus scale="   91.900">  7  8 -1 -1</clus>
<clus scale="   20.266">  7  9 -1 -1</clus>
<clus scale="  129.911">  1  5  2 -1</clus>
<clus scale="  177.549">  2  5  1 -1</clus>
</clustering>
</event>
<event>
 9    2  0.3897980E-005  0.2284509E+03  0.7546771E-02  0.1137264E+00
          4   -1    0    0  502    0 -0.00000000000E+00  0.00000000000E+00  0.21090975887E+03  0.21090975887E+03  0.00000000000E+00 0. -1.
         21   -1    0    0  501  502  0.00000000000E+00 -0.00000000000E+00 -0.26771650355E+03  0.26771650355E+03  0.00000000000E+00 0. -1.
         24    2    1    2    0    0 -0.63671937648E+00 -0.16180951953E+03  0.94945801353E+02  0.20436609589E+03  0.81043629812E+02 0.  0.
         23    2    1    2    0    0  0.52287921087E+02  0.11957157425E+03 -0.93568984841E+02  0.18573210627E+03  0.93326696701E+02 0.  0.
        -13    1    3    3    0    0  0.28931589604E+02 -0.42900201005E+02  0.42446183443E+01  0.51918021035E+02  0.00000000000E+00 0.  1.
         14    1    3    3    0    0 -0.29568308981E+02 -0.11890931852E+03  0.90701183009E+02  0.15244807486E+03  0.00000000000E+00 0. -1.
        -13    1    4    4    0    0 -0.13564963485E+02  0.48591965804E+02  0.90010695491E+00  0.50457879143E+02  0.00000000000E+00 0.  1.
         13    1    4    4    0    0  0.65852884572E+02  0.70979608443E+02 -0.94469091796E+02  0.13527422713E+03  0.00000000000E+00 0. -1.
          3    1    1    2  501    0 -0.51651201710E+02  0.42237945282E+02 -0.58183561187E+02  0.88528060253E+02  0.00000000000E+00 0. -1.
<scales pt_clust_5="13000.00000" pt_clust_6="13000.00000" pt_clust_7="13000.00000" pt_clust_8="13000.00000" pt_clust_9="13000.00000"></scales>
<clustering>
<clus scale="   81.044">  5  6 -1 -1</clus>
<clus scale="   93.327">  7  8 -1 -1</clus>
<clus scale="   66.723">  7  9 -1 -1</clus>
<clus scale="  180.972">  1  5  2 -1</clus>
<clus scale="  228.451">  2  5  1 -1</clus>
</clustering>
</event>
<event>
 9    2  0.3897980E-005  0.3865078E+03  0.7546771E-02  0.1095934E+00
         21   -1    0    0  501  502  0.00000000000E+00  0.00000000000E+00  0.64541196238E+02  0.64541196238E+02  0.00000000000E+00 0.  1.
          2   -1    0    0  502    0 -0.00000000000E+00 -0.00000000000E+00 -0.93920530302E+03  0.93920530302E+03  0.00000000000E+00 0. -1.
         24    2    1    2    0    0  0.25399550096E+01 -0.69785414581E+02 -0.19756554915E+03  0.22409867427E+03  0.79445667859E+02 0.  0.
         23    2    1    2    0    0 -0.16703381438E+02 -0.82969123999E+02 -0.48553049154E+02  0.13265168285E+03  0.89867635400E+02 0.  0.
        -11    1    3    3    0    0 -0.37520335054E+02 -0.22485155364E+02 -0.85032940138E+02  0.95624048559E+02  0.00000000000E+00 0.  1.
         12    1    3    3    0    0  0.40060290064E+02 -0.47300259218E+02 -0.11253260901E+03  0.12847462572E+03  0.00000000000E+00 0. -1.
        -11    1    4    4    0    0  0.72574547638E+01 -0.30858097750E+02  0.24291460408E+02  0.39937049154E+02  0.00000000000E+00 0.  1.
         11    1    4    4    0    0 -0.23960836202E+02 -0.52111026250E+02 -0.72844509562E+02  0.92714633697E+02  0.00000000000E+00 0. -1.
          1    1    1    2  501    0  0.14163426428E+02  0.15275453858E+03 -0.62854550848E+03  0.64699614213E+03  0.00000000000E+00 0. -1.
<scales pt_clust_5="13000.00000" pt_clust_6="13000.00000" pt_clust_7="13000.00000" pt_clust_8="13000.00000" pt_clust_9="13000.00000"></scales>
<clustering>
<clus scale="   79.446">  5  6 -1 -1</clus>
<clus scale="   89.868">  7  8 -1 -1</clus>
<clus scale="  105.774">  2  5  1 -1</clus>
<clus scale="   93.103">  7  9 -1 -1</clus>
<clus scale="  386.508">  1  5  2 -1</clus>
</clustering>
</event>
<event>
 9    2  0.3897980E-005  0.2437543E+03  0.7546771E-02  0.1139607E+00
          2   -1    0    0  502    0 -0.00000000000E+00  0.00000000000E+00  0.98312883904E+03  0.98312883904E+03  0.00000000000E+00 0. -1.
         21   -1    0    0  501  502  0.00000000000E+00 -0.00000000000E+00 -0.48056327674E+02  0.48056327674E+02  0.00000000000E+00 0. -1.
         24    2    1    2    0    0  0.11482585163E+03  0.65075446494E+01  0.60322822397E+03  0.61943672317E+03  0.81180290005E+02 0.  0.
         23    2    1    2    0    0  0.19466971204E+02 -0.18902217182E+02  0.20400635697E+03  0.22592399243E+03  0.93203003657E+02 0.  0.
        -13    1    3    3    0    0  0.87275923928E+02 -0.10801459573E+02  0.25592783678E+03  0.27061562420E+03  0.00000000000E+00 0.  1.
         14    1    3    3    0    0  0.27549927707E+02  0.17309004223E+02  0.34730038719E+03  0.34882109897E+03  0.00000000000E+00 0. -1.
        -11    1    4    4    0    0  0.44247347375E+02  0.17088079168E+02  0.66797066539E+02  0.81924833217E+02  0.00000000000E+00 0. -1.
         11    1    4    4    0    0 -0.24780376171E+02 -0.35990296350E+02  0.13720929043E+03  0.14399915921E+03  0.00000000000E+00 0.  1.
          1    1    1    2  501    0 -0.13429282284E+03  0.12394672532E+02  0.12783793044E+03  0.18582445111E+03  0.00000000000E+00 0. -1.
<scales pt_clust_5="13000.00000" pt_clust_6="13000.00000" pt_clust_7="13000.00000" pt_clust_8="13000.00000" pt_clust_9="13000.00000"></scales>
<clustering>
<clus scale="   81.180">  5  6 -1 -1</clus>
<clus scale="   93.203">  7  8 -1 -1</clus>
<clus scale="  134.864">  7  9 -1 -1</clus>
<clus scale="  140.775">  1  5  2 -1</clus>
<clus scale="  243.754">  2  5  1 -1</clus>
</clustering>
</event>
<event>
 9    2  0.3897980E-005  0.3012696E+03  0.7546771E-02  0.1127959E+00
         21   -1    0    0  501  502  0.00000000000E+00  0.00000000000E+00  0.43555058308E+03  0.43555058308E+03  0.00000000000E+00 0. -1.
          4   -1    0    0  502    0 -0.00000000000E+00 -0.00000000000E+00 -0.92570890059E+02  0.92570890059E+02  0.00000000000E+00 0. -1.
         24    2    1    2    0    0  0.22850810276E+02 -0.56508646892E+02  0.10348350353E+03  0.14325554404E+03  0.78089235450E+02 0.  0.
         23    2    1    2    0    0  0.86938118701E+02  0.16339608512E+02  0.11466216302E+02  0.12861443301E+03  0.92655161614E+02 0.  0.
        -11    1    3    3    0    0 -0.24478210393E+02 -0.61584093933E+01  0.10338253706E+02  0.27276148555E+02  0.00000000000E+00 0.  1.
         12    1    3    3    0    0  0.47329020669E+02 -0.50350237499E+02  0.93145249822E+02  0.11597939549E+03  0.00000000000E+00 0. -1.
        -13    1    4    4    0    0  0.32038509498E+02  0.53073900997E+02  0.37193259620E+01  0.62105864807E+02  0.00000000000E+00 0.  1.
         13    1    4    4    0    0  0.54899609204E+02 -0.36734292485E+02  0.77468903403E+01  0.66508568208E+02  0.00000000000E+00 0. -1.
          3    1    1    2  501    0 -0.10978892898E+03  0.40169038380E+02  0.22802997319E+03  0.25625149608E+03  0.00000000000E+00 0. -1.
<scales pt_clust_5="13000.00000" pt_clust_6="13000.00000" pt_clust_7="13000.00000" pt_clust_8="13000.00000" pt_clust_9="13000.00000"></scales>
<clustering>
<clus scale="   78.089">  5  6 -1 -1</clus>
<clus scale="   92.655">  7  8 -1 -1</clus>
<clus scale="   99.062">  2  5  1 -1</clus>
<clus scale="  109.324">  7  9 -1 -1</clus>
<clus scale="  301.270">  1  5  2 -1</clus>
</clustering>
</event>
<event>
 9    2  0.3897980E-005  0.2000317E+03  0.7546771E-02  0.1181942E+00
         21   -1    0    0  501  502  0.00000000000E+00  0.00000000000E+00  0.12909210350E+03  0.12909210350E+03  0.00000000000E+00 0. -1.
          2   -1    0    0  502    0 -0.00000000000E+00 -0.00000000000E+00 -0.47047396570E+03  0.47047396570E+03  0.00000000000E+00 0. -1.
         24    2    1    2    0    0  0.15292214039E+02  0.33980384989E+02 -0.38351238774E+03  0.39514572371E+03  0.87577811355E+02 0.  0.
         23    2    1    2    0    0 -0.48741140686E+01 -0.52314819707E+02 -0.46399959230E+02  0.11341301042E+03  0.89156925510E+02 0.  0.
        -11    1    3    3    0    0  0.15350987065E+02  0.52428154901E+02 -0.13065142826E+03  0.14161271107E+03  0.00000000000E+00 0.  1.
         12    1    3    3    0    0 -0.58773026672E-01 -0.18447769912E+02 -0.25286095948E+03  0.25353301264E+03  0.00000000000E+00 0. -1.
        -11    1    4    4    0    0  0.40128931280E+02 -0.99505215805E+01 -0.23107058770E+02  0.47363278713E+02  0.00000000000E+00 0. -1.
         11    1    4    4    0    0 -0.45003045349E+02 -0.42364298127E+02 -0.23292900459E+02  0.66049731704E+02  0.00000000000E+00 0.  1.
          1    1    1    2  501    0 -0.10418099970E+02  0.18334434718E+02  0.88530484773E+02  0.91007335075E+02  0.00000000000E+00 0. -1.
<scales pt_clust_5="13000.00000" pt_clust_6="13000.00000" pt_clust_7="13000.00000" pt_clust_8="13000.00000" pt_clust_9="13000.00000"></scales>
<clustering>
<clus scale="   87.578">  5  6 -1 -1</clus>
<clus scale="   89.157">  7  8 -1 -1</clus>
<clus scale="   21.088">  7  9 -1 -1</clus>
<clus scale="   95.176">  2  5  1 -1</clus>
<clus scale="  200.032">  1  5  2 -1</clus>
</clustering>
</event>
<event>
 9    2  0.3897980E-005  0.2981999E+03  0.7546771E-02  0.1138271E+00
         21   -1    0    0  501  502  0.00000000000E+00  0.00000000000E+00  0.23630179897E+03  0.23630179897E+03  0.00000000000E+00 0. -1.
          2   -1    0    0  502    0 -0.00000000000E+00 -0.00000000000E+00 -0.31053274620E+03  0.31053274620E+03  0.00000000000E+00 0. -1.
         24    2    1    2    0    0  0.73892611207E+01  0.16539590570E+02 -0.20603232085E+03  0.22080570124E+03  0.77315465644E+02 0.  0.
         23    2    1    2    0    0  0.18696874547E+01  0.92207442941E+02 -0.27093172306E+02  0.13326182872E+03  0.92298248870E+02 0.  0.
        -13    1    3    3    0    0 -0.21447531595E+02 -0.19883371332E+02 -0.49187526149E+02  0.57225499523E+02  0.00000000000E+00 0.  1.
         14    1    3    3    0    0  0.28836792715E+02  0.36422961902E+02 -0.15684479470E+03  0.16358020172E+03  0.00000000000E+00 0. -1.
        -11    1    4    4    0    0 -0.22142583812E+02  0.10210926400E+03 -0.20710425280E+02  0.10651533940E+03  0.00000000000E+00 0.  1.
         11    1    4    4    0    0  0.24012271267E+02 -0.99018210569E+01 -0.63827470254E+01  0.26746489325E+02  0.00000000000E+00 0. -1.
          1    1    1    2  501    0 -0.92589485753E+01 -0.10874703351E+03  0.15889454593E+03  0.19276701521E+03  0.00000000000E+00 0. -1.
<scales pt_clust_5="13000.00000" pt_clust_6="13000.00000" pt_clust_7="13000.00000" pt_clust_8="13000.00000" pt_clust_9="13000.00000"></scales>
<clustering>
<clus scale="   77.315">  5  6 -1 -1</clus>
<clus scale="   79.409">  2  5  1 -1</clus>
<clus scale="   92.298">  7  8 -1 -1</clus>
<clus scale="  106.162">  7  9 -1 -1</clus>
<clus scale="  298.200">  1  5  2 -1</clus>
</clustering>
</event>
<event>
 9    2  0.3897980E-005  0.2880356E+03  0.7546771E-02  0.1138882E+00
         21   -1    0    0  501  502  0.00000000000E+00  0.00000000000E+00  0.13989289670E+03  0.13989289670E+03  0.00000000000E+00 0. -1.
          2   -1    0    0  502    0 -0.00000000000E+00 -0.00000000000E+00 -0.63579928412E+03  0.63579928412E+03  0.00000000000E+00 0. -1.
         24    2    1    2    0    0  0.35152656357E+01  0.33674574904E+02 -0.47938364003E+03  0.48718308686E+03  0.79952183895E+02 0.  0.
         23    2    1    2    0    0  0.47051826948E+02 -0.16256260716E+02 -0.12732118548E+03  0.16547770607E+03  0.93241870978E+02 0.  0.
        -13    1    3    3    0    0  0.21603923493E+02  0.15833164527E+02 -0.47332177243E+02  0.54385233399E+02  0.00000000000E+00 0.  1.
         14    1    3    3    0    0 -0.18088657858E+02  0.17841410377E+02 -0.43205146278E+03  0.43279785346E+03  0.00000000000E+00 0. -1.
        -13    1    4    4    0    0  0.36623852877E+02 -0.54641246942E+02 -0.83465186620E+02  0.10627045612E+03  0.00000000000E+00 0.  1.
         13    1    4    4    0    0  0.10427974071E+02  0.38384986225E+02 -0.43855998861E+02  0.59207249951E+02  0.00000000000E+00 0. -1.
          1    1    1    2  501    0 -0.50567092584E+02 -0.17418314188E+02  0.11079843809E+03  0.12303138789E+03  0.00000000000E+00 0. -1.
<scales pt_clust_5="13000.00000" pt_clust_6="13000.00000" pt_clust_7="13000.00000" pt_clust_8="13000.00000" pt_clust_9="13000.00000"></scales>
<clustering>
<clus scale="   79.952">  5  6 -1 -1</clus>
<clus scale="   86.826">  2  5  1 -1</clus>
<clus scale="   93.242">  7  8 -1 -1</clus>
<clus scale="   52.924">  7  9 -1 -1</clus>
<clus scale="  288.036">  1  5  2 -1</clus>
</clustering>
</event>
<event>
 9    2  0.3897980E-005  0.1426315E+03  0.7546771E-02  0.1231997E+00
         21   -1    0    0  501  502  0.00000000000E+00  0.00000000000E+00  0.28558798862E+02  0.28558798862E+02  0.00000000000E+00 0. -1.
         -1   -1    0    0    0  501 -0.00000000000E+00 -0.00000000000E+00 -0.67538329236E+03  0.67538329236E+03  0.00000000000E+00 0.  1.
         24    2    1    2    0    0 -0.16492728427E+02  0.36610739481E+02 -0.46131469629E+03  0.46993860769E+03  0.80116725149E+02 0.  0.
         23    2    1    2    0    0  0.29692975150E+02  0.49714920340E+00 -0.90606953104E+02  0.13125236804E+03  0.90197806150E+02 0.  0.
        -13    1    3    3    0    0 -0.45239468079E+02  0.32123048288E+02 -0.22053986042E+03  0.22741224623E+03  0.00000000000E+00 0.  1.
         14    1    3    3    0    0  0.28746739652E+02  0.44876911931E+01 -0.24077483587E+03  0.24252636146E+03  0.00000000000E+00 0. -1.
        -13    1    4    4    0    0  0.49557017756E+02  0.17664952712E+02 -0.90864073087E+02  0.10499632537E+03  0.00000000000E+00 0.  1.
         13    1    4    4    0    0 -0.19864042605E+02 -0.17167803509E+02  0.25711998227E+00  0.26256042669E+02  0.00000000000E+00 0. -1.
         -2    1    1    2    0  502 -0.13200246723E+02 -0.37107888684E+02 -0.94902844103E+02  0.10275111549E+03  0.00000000000E+00 0.  1.
<scales pt_clust_5="13000.00000" pt_clust_6="13000.00000" pt_clust_7="13000.00000" pt_clust_8="13000.00000" pt_clust_9="13000.00000"></scales>
<clustering>
<clus scale="   80.117">  5  6 -1 -1</clus>
<clus scale="   89.616">  2  5  1 -1</clus>
<clus scale="   90.198">  7  8 -1 -1</clus>
<clus scale="   28.882">  7  9 -1 -1</clus>
<clus scale="  142.632">  1  5  2 -1</clus>
</clustering>
</event>
<event>
 9    2  0.3897980E-005  0.4521722E+03  0.7546771E-02  0.1059001E+00
         21   -1    0    0  501  502  0.00000000000E+00  0.00000000000E+00  0.14731175209E+03  0.14731175209E+03  0.00000000000E+00 0. -1.
          2   -1    0    0  502    0 -0.00000000000E+00 -0.00000000000E+00 -0.67792917515E+03  0.67792917515E+03  0.00000000000E+00 0. -1.
         24    2    1    2    0    0  0.12443970692E+03 -0.99382820137E+02 -0.16240793085E+03  0.24211324326E+03  0.82947579583E+02 0.  0.
         23    2    1    2    0    0 -0.22673962178E+03 -0.46216708410E+02 -0.30685714823E+03  0.39490280411E+03  0.90774859152E+02 0.  0.
        -13    1    3    3    0    0  0.45872775222E+02  0.15550272159E+01 -0.72342511925E+02  0.85674784201E+02  0.00000000000E+00 0.  1.
         14    1    3    3    0    0  0.78566931701E+02 -0.10093784735E+03 -0.90065418930E+02  0.15643845906E+03  0.00000000000E+00 0. -1.
        -11    1    4    4    0    0 -0.10615925242E+03 -0.19340484835E+01 -0.20537643190E+03  0.23119906184E+03  0.00000000000E+00 0.  1.
         11    1    4    4    0    0 -0.12058036936E+03 -0.44282659927E+02 -0.10148071633E+03  0.16370374227E+03  0.00000000000E+00 0. -1.
          1    1    1    2  501    0  0.10229991486E+03  0.14559952855E+03 -0.61352343972E+02  0.18822487987E+03  0.00000000000E+00 0. -1.
<scales pt_clust_5="13000.00000" pt_clust_6="13000.00000" pt_clust_7="13000.00000" pt_clust_8="13000.00000" pt_clust_9="13000.00000"></scales>
<clustering>
<clus scale="   82.948">  5  6 -1 -1</clus>
<clus scale="   90.775">  7  8 -1 -1</clus>
<clus scale="  177.945">  7  9 -1 -1</clus>
<clus scale="  179.562">  2  5  1 -1</clus>
<clus scale="  452.172">  1  5  2 -1</clus>
</clustering>
</event>
<event>
 9    2  0.3897980E-005  0.2432849E+03  0.7546771E-02  0.1163334E+00
          2   -1    0    0  502    0 -0.00000000000E+00  0.00000000000E+00  0.36298165070E+03  0.36298165070E+03  0.00000000000E+00 0. -1.
         21   -1    0    0  501  502  0.00000000000E+00 -0.00000000000E+00 -0.79801599112E+02  0.79801599112E+02  0.00000000000E+00 0. -1.
         24    2    1    2    0    0  0.42453743417E+01 -0.11364592139E+02  0.13671044320E+03  0.15880988550E+03  0.79897792795E+02 0.  0.
         23    2    1    2    0    0 -0.47569292213E+02 -0.13883849151E+02 -0.23249201644E+02  0.10700184083E+03  0.91941664844E+02 0.  0.
        -13    1    3    3    0    0  0.36868240955E+02 -0.11696985703E+02  0.35607726984E+02  0.52573728103E+02  0.00000000000E+00 0.  1.
         14    1    3    3    0    0 -0.32622866613E+02  0.33239356365E+00  0.10110271621E+03  0.10623615739E+03  0.00000000000E+00 0. -1.
        -11    1    4    4    0    0  0.74237501381E+00  0.29621503319E+02 -0.29345851462E+02  0.41703280178E+02  0.00000000000E+00 0.  1.
         11    1    4    4    0    0 -0.48311667227E+02 -0.43505352470E+02  0.60966498189E+01  0.65298560649E+02  0.00000000000E+00 0. -1.
          1    1    1    2  501    0  0.43323917871E+02  0.25248441290E+02  0.16971881003E+03  0.17697152349E+03  0.00000000000E+00 0. -1.
<scales pt_clust_5="13000.00000" pt_clust_6="13000.00000" pt_clust_7="13000.00000" pt_clust_8="13000.00000" pt_clust_9="13000.00000"></scales>
<clustering>
<clus scale="   79.898">  5  6 -1 -1</clus>
<clus scale="   80.814">  1  5  2 -1</clus>
<clus scale="   91.942">  7  8 -1 -1</clus>
<clus scale="   49.437">  7  9 -1 -1</clus>
<clus scale="  243.285">  2  5  1 -1</clus>
</clustering>
</event>
<event>
 9    2  0.3897980E-005  0.3804384E+03  0.7546771E-02  0.1074125E+00
         21   -1    0    0  501  502  0.00000000000E+00  0.00000000000E+00  0.92468572602E+02  0.92468572602E+02  0.00000000000E+00 0. -1.
          2   -1    0    0  502    0 -0.00000000000E+00 -0.00000000000E+00 -0.10472023459E+04  0.10472023459E+04  0.00000000000E+00 0. -1.
         24    2    1    2    0    0  0.65570411938E+02 -0.16935814642E+03 -0.54753971990E+03  0.58240944189E+03  0.80120861523E+02 0.  0.
         23    2    1    2    0    0  0.68758099560E+02  0.86973023632E+01 -0.30310745687E+03  0.32340238359E+03  0.88947467519E+02 0.  0.
        -11    1    3    3    0    0 -0.13317237777E+02 -0.42836998811E+02 -0.80601781392E+02  0.92244265148E+02  0.00000000000E+00 0.  1.
         12    1    3    3    0    0  0.78887649715E+02 -0.12652114761E+03 -0.46693793851E+03  0.49016517674E+03  0.00000000000E+00 0. -1.
        -11    1    4    4    0    0  0.29275514275E+02 -0.28263135854E+02 -0.49434793942E+02  0.64028582965E+02  0.00000000000E+00 0. -1.
         11    1    4    4    0    0  0.39482585285E+02  0.36960438217E+02 -0.25367266293E+03  0.25937380063E+03  0.00000000000E+00 0.  1.
          1    1    1    2  501    0 -0.13432851150E+03  0.16066084405E+03 -0.10408659652E+03  0.23385909302E+03  0.00000000000E+00 0. -1.
<scales pt_clust_5="13000.00000" pt_clust_6="13000.00000" pt_clust_7="13000.00000" pt_clust_8="13000.00000" pt_clust_9="13000.00000"></scales>
<clustering>
<clus scale="   80.121">  5  6 -1 -1</clus>
<clus scale="   88.947">  7  8 -1 -1</clus>
<clus scale="  198.497">  2  5  1 -1</clus>
<clus scale="  150.548">  7  9 -1 -1</clus>
<clus scale="  380.438">  1  5  2 -1</clus>
</clustering>
</event>
<event>
 9    2  0.3897980E-005  0.1976053E+03  0.7546771E-02  0.1172887E+00
         21   -1    0    0  501  502  0.00000000000E+00  0.00000000000E+00  0.22520183605E+03  0.22520183605E+03  0.00000000000E+00 0. -1.
          2   -1    0    0  502    0 -0.00000000000E+00 -0.00000000000E+00 -0.11302183971E+03  0.11302183971E+03  0.00000000000E+00 0. -1.
         24    2    1    2    0    0 -0.86613144853E+02  0.25599222468E+02  0.34950999139E+02  0.12606294859E+03  0.80704012380E+02 0.  0.
         23    2    1    2    0    0  0.27664018608E+01  0.23694084591E+02  0.17089455060E+02  0.97806580064E+02  0.93300669911E+02 0.  0.
        -13    1    3    3    0    0 -0.68454396323E+02 -0.16152055397E+02  0.29190749023E+01  0.70394703407E+02  0.00000000000E+00 0.  1.
         14    1    3    3    0    0 -0.18158748530E+02  0.41751277865E+02  0.32031924236E+02  0.55668245184E+02  0.00000000000E+00 0. -1.
        -13    1    4    4    0    0 -0.21830083442E+02  0.53248415451E+02  0.64413881296E+01  0.57908874727E+02  0.00000000000E+00 0. -1.
         13    1    4    4    0    0  0.24596485303E+02 -0.29554330860E+02  0.10648066930E+02  0.39897705337E+02  0.00000000000E+00 0.  1.
          1    1    1    2  501    0  0.83846742992E+02 -0.49293307059E+02  0.60139542141E+02  0.11435414711E+03  0.00000000000E+00 0. -1.
<scales pt_clust_5="13000.00000" pt_clust_6="13000.00000" pt_clust_7="13000.00000" pt_clust_8="13000.00000" pt_clust_9="13000.00000"></scales>
<clustering>
<clus scale="   80.704">  5  6 -1 -1</clus>
<clus scale="   93.301">  7  8 -1 -1</clus>
<clus scale="   97.263">  7  9 -1 -1</clus>
<clus scale="  121.121">  2  5  1 -1</clus>
<clus scale="  197.605">  1  5  2 -1</clus>
</clustering>
</event>
<event>
 9    2  0.3897980E-005  0.2302172E+03  0.7546771E-02  0.1155448E+00
          2   -1    0    0  502    0 -0.00000000000E+00  0.00000000000E+00  0.64237207715E+03  0.64237207715E+03  0.00000000000E+00 0. -1.
         21   -1    0    0  501  502  0.00000000000E+00 -0.00000000000E+00 -0.70191459081E+02  0.70191459081E+02  0.00000000000E+00 0. -1.
         24    2    1    2    0    0  0.21453358774E+02 -0.78442148227E+02  0.22746011284E+02  0.11684688170E+03  0.80761349128E+02 0.  0.
         23    2    1    2    0    0 -0.46112758575E+02 -0.91767258285E+01  0.12332470675E+03  0.15999334784E+03  0.90433894399E+02 0.  0.
        -11    1    3    3    0    0 -0.11123084144E+02 -0.25885624645E+02  0.43323586714E+02  0.51679026016E+02  0.00000000000E+00 0.  1.
         12    1    3    3    0    0  0.32576442918E+02 -0.52556523582E+02 -0.20577575430E+02  0.65167855686E+02  0.00000000000E+00 0. -1.
        -13    1    4    4    0    0  0.14967371205E+02 -0.25607615972E+02  0.12085039261E+02  0.32028430659E+02  0.00000000000E+00 0.  1.
         13    1    4    4    0    0 -0.61080129779E+02  0.16430890144E+02  0.11123966749E+03  0.12796491718E+03  0.00000000000E+00 0. -1.
          1    1    1    2  501    0  0.24659399800E+02  0.87618874056E+02  0.42610990003E+03  0.43572330669E+03  0.00000000000E+00 0. -1.
<scales pt_clust_5="13000.00000" pt_clust_6="13000.00000" pt_clust_7="13000.00000" pt_clust_8="13000.00000" pt_clust_9="13000.00000"></scales>
<clustering>
<clus scale="   80.761">  5  6 -1 -1</clus>
<clus scale="   90.434">  7  8 -1 -1</clus>
<clus scale="   91.023">  7  9 -1 -1</clus>
<clus scale="  114.612">  1  5  2 -1</clus>
<clus scale="  230.217">  2  5  1 -1</clus>
</clustering>
</event>
<event>
 9    2  0.3897980E-005  0.3892133E+03  0.7546771E-02  0.1080803E+00
         21   -1    0    0  501  502  0.00000000000E+00  0.00000000000E+00  0.26875951053E+03  0.26875951053E+03  0.00000000000E+00 0. -1.
          2   -1    0    0  502    0 -0.00000000000E+00 -0.00000000000E+00 -0.27806562147E+03  0.27806562147E+03  0.00000000000E+00 0. -1.
         24    2    1    2    0    0 -0.99923001169E+02  0.84752253838E+02 -0.27698726220E+02  0.15717753654E+03  0.82280057516E+02 0.  0.
         23    2    1    2    0    0 -0.12310176171E+03 -0.26280619560E+02  0.12443952768E+02  0.15900856264E+03  0.96354327000E+02 0.  0.
        -11    1    3    3    0    0 -0.31841737420E+00  0.32709072353E+02 -0.30552730543E+02  0.44759961432E+02  0.00000000000E+00 0.  1.
         12    1    3    3    0    0 -0.99604583795E+02  0.52043181485E+02  0.28540043234E+01  0.11241757511E+03  0.00000000000E+00 0. -1.
        -13    1    4    4    0    0 -0.76677827182E+02  0.17412908635E+02 -0.28049719725E+02  0.83483443539E+02  0.00000000000E+00 0.  1.
         13    1    4    4    0    0 -0.46423934531E+02 -0.43693528196E+02  0.40493672493E+02  0.75525119103E+02  0.00000000000E+00 0. -1.
          1    1    1    2  501    0  0.22302476288E+03 -0.58471634277E+02  0.59486625035E+01  0.23063903282E+03  0.00000000000E+00 0. -1.
<scales pt_clust_5="13000.00000" pt_clust_6="13000.00000" pt_clust_7="13000.00000" pt_clust_8="13000.00000" pt_clust_9="13000.00000"></scales>
<clustering>
<clus scale="   82.280">  5  6 -1 -1</clus>
<clus scale="   96.354">  7  8 -1 -1</clus>
<clus scale="  154.718">  2  5  1 -1</clus>
<clus scale="  162.708">  7  9 -1 -1</clus>
<clus scale="  389.213">  1  5  2 -1</clus>
</clustering>
</event>
<event>
 9    2  0.3897980E-005  0.1622635E+03  0.7546771E-02  0.1213841E+00
         21   -1    0    0  501  502  0.00000000000E+00  0.00000000000E+00  0.84786219123E+02  0.84786219123E+02  0.00000000000E+00 0.  1.
          2   -1    0    0  502    0 -0.00000000000E+00 -0.00000000000E+00 -0.24012285945E+03  0.24012285945E+03  0.00000000000E+00 0. -1.
         24    2    1    2    0    0 -0.34616960022E+02  0.12893998516E+01 -0.13458880149E+03  0.16132449013E+03  0.81923434723E+02 0.  0.
         23    2    1    2    0    0  0.14001490862E+02 -0.15859491684E+02 -0.64743089857E+02  0.11286114951E+03  0.89991144901E+02 0.  0.
        -11    1    3    3    0    0 -0.46650634852E+02 -0.24802793353E+02 -0.53052294947E+02  0.74873268190E+02  0.00000000000E+00 0.  1.
         12    1    3    3    0    0  0.12033674830E+02  0.26092193205E+02 -0.81536506544E+02  0.86451221944E+02  0.00000000000E+00 0. -1.
        -13    1    4    4    0    0 -0.66832703065E+01 -0.48607434976E+02 -0.18253284801E+02  0.52350083504E+02  0.00000000000E+00 0.  1.
         13    1    4    4    0    0  0.20684761169E+02  0.32747943292E+02 -0.46489805056E+02  0.60511066001E+02  0.00000000000E+00 0. -1.
          1    1    1    2  501    0  0.20615469160E+02  0.14570091832E+02  0.43995251022E+02  0.50723438933E+02  0.00000000000E+00 0. -1.
<scales pt_clust_5="13000.00000" pt_clust_6="13000.00000" pt_clust_7="13000.00000" pt_clust_8="13000.00000" pt_clust_9="13000.00000"></scales>
<clustering>
<clus scale="   81.923">  5  6 -1 -1</clus>
<clus scale="   88.946">  2  5  1 -1</clus>
<clus scale="   89.991">  7  8 -1 -1</clus>
<clus scale="   24.252">  7  9 -1 -1</clus>
<clus scale="  162.264">  1  5  2 -1</clus>
</clustering>
</event>
<event>
 9    2  0.3897980E-005  0.3679004E+03  0.7546771E-02  0.1088288E+00
          4   -1    0    0  502    0 -0.00000000000E+00  0.00000000000E+00  0.11572764096E+03  0.11572764096E+03  0.00000000000E+00 0. -1.
         21   -1    0    0  501  502  0.00000000000E+00 -0.00000000000E+00 -0.66885745679E+03  0.66885745679E+03  0.00000000000E+00 0. -1.
         24    2    1    2    0    0 -0.10471688707E+03 -0.71738953316E+02 -0.43770450061E+02  0.15625582876E+03  0.79924513526E+02 0.  0.
         23    2    1    2    0    0 -0.59460180192E+02 -0.81584009582E+02 -0.13855046587E+03  0.19478425332E+03  0.92483566651E+02 0.  0.
        -11    1    3    3    0    0 -0.72811878962E+02 -0.37956567266E+02  0.12740542352E+02  0.83093875443E+02  0.00000000000E+00 0.  1.
         12    1    3    3    0    0 -0.31905008105E+02 -0.33782386049E+02 -0.56510992413E+02  0.73161953315E+02  0.00000000000E+00 0. -1.
        -13    1    4    4    0    0 -0.22418168302E+02 -0.80051402660E+02 -0.13364063093E+03  0.15738684688E+03  0.00000000000E+00 0.  1.
         13    1    4    4    0    0 -0.37042011891E+02 -0.15326069219E+01 -0.49098349433E+01  0.37397406435E+02  0.00000000000E+00 0. -1.
          3    1    1    2  501    0  0.16417706726E+03  0.15332296290E+03 -0.37080889991E+03  0.43354501567E+03  0.00000000000E+00 0. -1.
<scales pt_clust_5="13000.00000" pt_clust_6="13000.00000" pt_clust_7="13000.00000" pt_clust_8="13000.00000" pt_clust_9="13000.00000"></scales>
<clustering>
<clus scale="   79.925">  5  6 -1 -1</clus>
<clus scale="   92.484">  7  8 -1 -1</clus>
<clus scale="  150.000">  1  5  2 -1</clus>
<clus scale="  158.777">  7  9 -1 -1</clus>
<clus scale="  367.900">  2  5  1 -1</clus>
</clustering>
</event>
<event>
 9    2  0.3897980E-005  0.1998285E+03  0.7546771E-02  0.1178126E+00
         21   -1    0    0  501  502  0.00000000000E+00  0.00000000000E+00  0.58355333733E+02  0.58355333733E+02  0.00000000000E+00 0. -1.
          2   -1    0    0  502    0 -0.00000000000E+00 -0.00000000000E+00 -0.44998373281E+03  0.44998373281E+03  0.00000000000E+00 0. -1.
         24    2    1    2    0    0 -0.55300835768E+02 -0.47873959015E+02 -0.57065242825E+02  0.11864182139E+03  0.73954996145E+02 0.  0.
         23    2    1    2    0    0  0.44349826227E+01 -0.31937152277E+02 -0.10515591103E+03  0.14153432959E+03  0.89076091416E+02 0.  0.
        -11    1    3    3    0    0  0.60162397253E+01 -0.28375096982E+02 -0.44445766661E+02  0.53073227180E+02  0.00000000000E+00 0.  1.
         12    1    3    3    0    0 -0.61317075493E+02 -0.19498862033E+02 -0.12619476164E+02  0.65568594207E+02  0.00000000000E+00 0. -1.
        -11    1    4    4    0    0 -0.31683816234E+02 -0.28234321267E+02 -0.94662617396E+02  0.10374031155E+03  0.00000000000E+00 0. -1.
         11    1    4    4    0    0  0.36118798857E+02 -0.37028310105E+01 -0.10493293635E+02  0.37794018041E+02  0.00000000000E+00 0.  1.
          1    1    1    2  501    0  0.50865853145E+02  0.79811111292E+02 -0.22940724522E+03  0.24816291556E+03  0.00000000000E+00 0. -1.
<scales pt_clust_5="13000.00000" pt_clust_6="13000.00000" pt_clust_7="13000.00000" pt_clust_8="13000.00000" pt_clust_9="13000.00000"></scales>
<clustering>
<clus scale="   73.955">  5  6 -1 -1</clus>
<clus scale="   89.076">  7  8 -1 -1</clus>
<clus scale="   94.642">  7  9 -1 -1</clus>
<clus scale="  104.017">  2  5  1 -1</clus>
<clus scale="  199.829">  1  5  2 -1</clus>
</clustering>
</event>
<event>
 9    2  0.3897980E-005  0.6090937E+03  0.7546771E-02  0.1025312E+00
          2   -1    0    0  502    0 -0.00000000000E+00  0.00000000000E+00  0.69510356965E+03  0.69510356965E+03  0.00000000000E+00 0. -1.
         21   -1    0    0  501  502  0.00000000000E+00 -0.00000000000E+00 -0.23710182123E+03  0.23710182123E+03  0.00000000000E+00 0. -1.
         24    2    1    2    0    0 -0.11961050099E+03  0.11887247822E+03  0.16888248979E+03  0.25797610138E+03  0.97944042700E+02 0.  0.
         23    2    1    2    0    0 -0.19718128822E+03 -0.10344484719E+03 -0.81793779444E+01  0.23950923150E+03  0.87843456880E+02 0.  0.
        -13    1    3    3    0    0 -0.32844033238E+02  0.59647369380E+02  0.11958211306E+02  0.69134202903E+02  0.00000000000E+00 0.  1.
         14    1    3    3    0    0 -0.86766467754E+02  0.59225108843E+02  0.15692427848E+03  0.18884189848E+03  0.00000000000E+00 0. -1.
        -11    1    4    4    0    0 -0.15903993181E+03 -0.11813238724E+03 -0.11887126367E+02  0.19846980777E+03  0.00000000000E+00 0. -1.
         11    1    4    4    0    0 -0.38141356413E+02  0.14687540047E+02  0.37077484226E+01  0.41039423729E+02  0.00000000000E+00 0.  1.
          1    1    1    2  501    0  0.31679178921E+03 -0.15427631028E+02  0.29729863658E+03  0.43472005799E+03  0.00000000000E+00 0. -1.
<scales pt_clust_5="13000.00000" pt_clust_6="13000.00000" pt_clust_7="13000.00000" pt_clust_8="13000.00000" pt_clust_9="13000.00000"></scales>
<clustering>
<clus scale="   87.843">  7  8 -1 -1</clus>
<clus scale="   97.944">  5  6 -1 -1</clus>
<clus scale="  195.014">  1  5  2 -1</clus>
<clus scale="  237.997">  7  9 -1 -1</clus>
<clus scale="  609.094">  2  5  1 -1</clus>
</clustering>
</event>
<event>
 9    2  0.3897980E-005  0.2311362E+03  0.7546771E-02  0.1156339E+00
          2   -1    0    0  502    0 -0.00000000000E+00  0.00000000000E+00  0.49954951225E+03  0.49954951225E+03  0.00000000000E+00 0. -1.
         21   -1    0    0  501  502  0.00000000000E+00 -0.00000000000E+00 -0.27489371915E+03  0.27489371915E+03  0.00000000000E+00 0. -1.
         24    2    1    2    0    0 -0.75082563198E+02  0.44059357466E+01  0.44288634429E+03  0.45656195395E+03  0.81508896859E+02 0.  0.
         23    2    1    2    0    0  0.31862701862E+02  0.52038165674E+02 -0.22020214198E+03  0.24676320542E+03  0.93165947412E+02 0.  0.
        -11    1    3    3    0    0 -0.29184528620E+02 -0.67086977396E+01  0.35481927999E+02  0.46429630094E+02  0.00000000000E+00 0.  1.
         12    1    3    3    0    0 -0.45898034578E+02  0.11114633486E+02  0.40740441629E+03  0.41013232385E+03  0.00000000000E+00 0. -1.
        -13    1    4    4    0    0 -0.26237514793E+02  0.43727427728E+02 -0.12392184020E+03  0.13400417007E+03  0.00000000000E+00 0. -1.
         13    1    4    4    0    0  0.58100216655E+02  0.83107379454E+01 -0.96280301789E+02  0.11275903535E+03  0.00000000000E+00 0.  1.
          1    1    1    2  501    0  0.43219861336E+02 -0.56444101420E+02  0.19715907919E+01  0.71118072030E+02  0.00000000000E+00 0. -1.
<scales pt_clust_5="13000.00000" pt_clust_6="13000.00000" pt_clust_7="13000.00000" pt_clust_8="13000.00000" pt_clust_9="13000.00000"></scales>
<clustering>
<clus scale="   81.509">  5  6 -1 -1</clus>
<clus scale="   93.166">  7  8 -1 -1</clus>
<clus scale="   71.091">  7  9 -1 -1</clus>
<clus scale="  110.908">  1  5  2 -1</clus>
<clus scale="  231.136">  2  5  1 -1</clus>
</clustering>
</event>
<event>
 9    2  0.3897980E-005  0.4120567E+03  0.7546771E-02  0.1093402E+00
         21   -1    0    0  501  502  0.00000000000E+00  0.00000000000E+00  0.78699603292E+02  0.78699603292E+02  0.00000000000E+00 0. -1.
          2   -1    0    0  502    0 -0.00000000000E+00 -0.00000000000E+00 -0.88097293282E+03  0.88097293282E+03  0.00000000000E+00 0. -1.
         24    2    1    2    0    0  0.24835322158E+02  0.41516595560E+02 -0.60647943511E+02  0.11126290527E+03  0.79754875112E+02 0.  0.
         23    2    1    2    0    0 -0.48721688706E+02 -0.16248851504E+03 -0.68698979829E+03  0.71354002249E+03  0.91695475698E+02 0.  0.
        -11    1    3    3    0    0 -0.25643188939E+02  0.10316954139E+02 -0.39612241834E+02  0.48302612609E+02  0.00000000000E+00 0.  1.
         12    1    3    3    0    0  0.50478511097E+02  0.31199641421E+02 -0.21035701677E+02  0.62960292664E+02  0.00000000000E+00 0. -1.
        -13    1    4    4    0    0 -0.11560198222E+02 -0.13091444507E+03 -0.59588354033E+03  0.61020441145E+03  0.00000000000E+00 0. -1.
         13    1    4    4    0    0 -0.37161490484E+02 -0.31574069974E+02 -0.91106257958E+02  0.10333561104E+03  0.00000000000E+00 0.  1.
          1    1    1    2  501    0  0.23886366549E+02  0.12097191948E+03 -0.54635587721E+02  0.13486960835E+03  0.00000000000E+00 0. -1.
<scales pt_clust_5="13000.00000" pt_clust_6="13000.00000" pt_clust_7="13000.00000" pt_clust_8="13000.00000" pt_clust_9="13000.00000"></scales>
<clustering>
<clus scale="   79.755">  5  6 -1 -1</clus>
<clus scale="   91.695">  7  8 -1 -1</clus>
<clus scale="   93.281">  2  5  1 -1</clus>
<clus scale="  128.750">  7  9 -1 -1</clus>
<clus scale="  412.057">  1  5  2 -1</clus>
</clustering>
</event>
<event>
 9    2  0.3897980E-005  0.3396677E+03  0.7546771E-02  0.1116896E+00
          2   -1    0    0  502    0 -0.00000000000E+00  0.00000000000E+00  0.40649690099E+03  0.40649690099E+03  0.00000000000E+00 0. -1.
         21   -1    0    0  501  502  0.00000000000E+00 -0.00000000000E+00 -0.20775048708E+03  0.20775048708E+03  0.00000000000E+00 0. -1.
         24    2    1    2    0    0 -0.34848662418E+02  0.21573595355E+02  0.25426491820E+03  0.27007240341E+03  0.81293327965E+02 0.  0.
         23    2    1    2    0    0 -0.12864075606E+02 -0.38882290609E+02  0.12348596498E+03  0.15811398305E+03  0.89855056207E+02 0.  0.
        -11    1    3    3    0    0 -0.34879286995E+02 -0.25930810970E+02  0.12693912450E+03  0.13417344353E+03  0.00000000000E+00 0.  1.
         12    1    3    3    0    0  0.30624577766E-01  0.47504406325E+02  0.12732579369E+03  0.13589895989E+03  0.00000000000E+00 0. -1.
        -13    1    4    4    0    0 -0.41370918898E+02  0.92264353952E+01  0.45928343447E+02  0.62498742166E+02  0.00000000000E+00 0.  1.
         13    1    4    4    0    0  0.28506843292E+02 -0.48108726004E+02  0.77557621529E+02  0.95615240885E+02  0.00000000000E+00 0. -1.
          1    1    1    2  501    0  0.47712738023E+02  0.17308695254E+02 -0.17900446926E+03  0.18606100160E+03  0.00000000000E+00 0. -1.
<scales pt_clust_5="13000.00000" pt_clust_6="13000.00000" pt_clust_7="13000.00000" pt_clust_8="13000.00000" pt_clust_9="13000.00000"></scales>
<clustering>
<clus scale="   81.293">  5  6 -1 -1</clus>
<clus scale="   89.855">  7  8 -1 -1</clus>
<clus scale="   50.755">  7  9 -1 -1</clus>
<clus scale="   91.041">  1  5  2 -1</clus>
<clus scale="  339.668">  2  5  1 -1</clus>
</clustering>
</event>
<event>
 9    2  0.3897980E-005  0.5456794E+03  0.7546771E-02  0.1046962E+00
          2   -1    0    0  502    0 -0.00000000000E+00  0.00000000000E+00  0.12247343736E+04  0.12247343736E+04  0.00000000000E+00 0. -1.
         21   -1    0    0  501  502  0.00000000000E+00 -0.00000000000E+00 -0.98474676570E+02  0.98474676570E+02  0.00000000000E+00 0. -1.
         24    2    1    2    0    0 -0.10658968302E+03 -0.51289326950E+02  0.17424816718E+03  0.22589782240E+03  0.81703407590E+02 0.  0.
         23    2    1    2    0    0  0.25194484693E+02  0.21103927348E+03  0.15113212406E+03  0.27660845189E+03  0.92189911170E+02 0.  0.
        -11    1    3    3    0    0 -0.35198663350E+02 -0.51131017068E+02  0.39997227306E+02  0.73845142022E+02  0.00000000000E+00 0.  1.
         12    1    3    3    0    0 -0.71391019673E+02 -0.15830988188E+00  0.13425093988E+03  0.15205268038E+03  0.00000000000E+00 0. -1.
        -13    1    4    4    0    0  0.37589798364E+02  0.19049379800E+03  0.96258104087E+02  0.21671756417E+03  0.00000000000E+00 0. -1.
         13    1    4    4    0    0 -0.12395313671E+02  0.20545475489E+02  0.54874019974E+02  0.59890887723E+02  0.00000000000E+00 0.  1.
          1    1    1    2  501    0  0.81395198330E+02 -0.15974994653E+03  0.80087940576E+03  0.82070277585E+03  0.00000000000E+00 0. -1.
<scales pt_clust_5="13000.00000" pt_clust_6="13000.00000" pt_clust_7="13000.00000" pt_clust_8="13000.00000" pt_clust_9="13000.00000"></scales>
<clustering>
<clus scale="   81.703">  5  6 -1 -1</clus>
<clus scale="   92.190">  7  8 -1 -1</clus>
<clus scale="  143.762">  1  5  2 -1</clus>
<clus scale="  200.356">  7  9 -1 -1</clus>
<clus scale="  545.679">  2  5  1 -1</clus>
</clustering>
</event>
<event>
 9    2  0.3897980E-005  0.2889030E+03  0.7546771E-02  0.1094644E+00
         21   -1    0    0  501  502  0.00000000000E+00  0.00000000000E+00  0.12473456715E+03  0.12473456715E+03  0.00000000000E+00 0. -1.
         -1   -1    0    0    0  501 -0.00000000000E+00 -0.00000000000E+00 -0.84339662389E+03  0.84339662389E+03  0.00000000000E+00 0.  1.
         24    2    1    2    0    0  0.24901533419E+03 -0.16658611842E+01 -0.60205729454E+03  0.65658407018E+03  0.81352587891E+02 0.  0.
         23    2    1    2    0    0 -0.11208406182E+03  0.32485492477E+02 -0.51758454078E+02  0.15693448650E+03  0.91276236506E+02 0.  0.
        -11    1    3    3    0    0  0.23858802359E+03  0.16586020991E+02 -0.57118709073E+03  0.61923665404E+03  0.00000000000E+00 0.  1.
         12    1    3    3    0    0  0.10427310601E+02 -0.18251882175E+02 -0.30870203811E+02  0.37347416144E+02  0.00000000000E+00 0. -1.
        -13    1    4    4    0    0 -0.23293954369E+02  0.19296253116E+02 -0.59591628484E+02  0.66829004780E+02  0.00000000000E+00 0.  1.
         13    1    4    4    0    0 -0.88790107446E+02  0.13189239361E+02  0.78331744058E+01  0.90105481723E+02  0.00000000000E+00 0. -1.
         -2    1    1    2    0  502 -0.13693127237E+03 -0.30819631293E+02 -0.64846308127E+02  0.15461263436E+03  0.00000000000E+00 0.  1.
<scales pt_clust_5="13000.00000" pt_clust_6="13000.00000" pt_clust_7="13000.00000" pt_clust_8="13000.00000" pt_clust_9="13000.00000"></scales>
<clustering>
<clus scale="   81.353">  5  6 -1 -1</clus>
<clus scale="   91.276">  7  8 -1 -1</clus>
<clus scale="  140.357">  7  9 -1 -1</clus>
<clus scale="  261.973">  2  5  1 -1</clus>
<clus scale="  288.903">  1  5  2 -1</clus>
</clustering>
</event>
<event>
 9    2  0.3897980E-005  0.2544757E+03  0.7546771E-02  0.1148719E+00
         21   -1    0    0  501  502  0.00000000000E+00  0.00000000000E+00  0.80407473019E+03  0.80407473019E+03  0.00000000000E+00 0.  1.
         -3   -1    0    0    0  501 -0.00000000000E+00 -0.00000000000E+00 -0.67319612835E+02  0.67319612835E+02  0.00000000000E+00 0.  1.
         24    2    1    2    0    0  0.36042980364E+02  0.38170461775E+02  0.83541997557E+01  0.99820769216E+02  0.84488536073E+02 0.  0.
         23    2    1    2    0    0  0.83179821821E+02  0.67161861406E+01  0.42075127449E+03  0.43859130608E+03  0.91469715551E+02 0.  0.
        -13    1    3    3    0    0  0.34346195405E+02  0.66890032209E+01 -0.32811881658E+02  0.47968984572E+02  0.00000000000E+00 0.  1.
         14    1    3    3    0    0  0.16967849587E+01  0.31481458554E+02  0.41166081413E+02  0.51851784645E+02  0.00000000000E+00 0. -1.
        -13    1    4    4    0    0  0.45967240396E+02  0.43750568793E+02  0.30438696631E+03  0.31093170427E+03  0.00000000000E+00 0.  1.
         13    1    4    4    0    0  0.37212581424E+02 -0.37034382653E+02  0.11636430818E+03  0.12765960181E+03  0.00000000000E+00 0. -1.
         -4    1    1    2    0  502 -0.11922280218E+03 -0.44886647916E+02  0.30764964310E+03  0.33298226773E+03  0.00000000000E+00 0.  1.
<scales pt_clust_5="13000.00000" pt_clust_6="13000.00000" pt_clust_7="13000.00000" pt_clust_8="13000.00000" pt_clust_9="13000.00000"></scales>
<clustering>
<clus scale="   84.489">  5  6 -1 -1</clus>
<clus scale="   91.470">  7  8 -1 -1</clus>
<clus scale="   99.471">  2  5  1 -1</clus>
<clus scale="  100.619">  7  9 -1 -1</clus>
<clus scale="  254.476">  1  5  2 -1</clus>
</clustering>
</event>
<event>
 9    2  0.3897980E-005  0.3938988E+03  0.7546771E-02  0.1102366E+00
          2   -1    0    0  502    0 -0.00000000000E+00  0.00000000000E+00  0.21488991000E+03  0.21488991000E+03  0.00000000000E+00 0. -1.
         21   -1    0    0  501  502  0.00000000000E+00 -0.00000000000E+00 -0.28415815340E+03  0.28415815340E+03  0.00000000000E+00 0. -1.
         24    2    1    2    0    0  0.18150567669E+02 -0.15957182368E+02  0.35121140468E+02  0.91551524435E+02  0.81019209715E+02 0.  0.
         23    2    1    2    0    0  0.11674153932E+03  0.76100600676E+02  0.55616899940E+02  0.18974640199E+03  0.11614890909E+03 0.  0.
        -13    1    3    3    0    0  0.13944226357E+02 -0.45791837771E+02  0.36872053230E+01  0.48009679631E+02  0.00000000000E+00 0.  1.
         14    1    3    3    0    0  0.42063413114E+01  0.29834655403E+02  0.31433935145E+02  0.43541844804E+02  0.00000000000E+00 0. -1.
        -11    1    4    4    0    0 -0.16787039356E+02  0.39476147711E+02  0.15149157507E+02  0.45493602864E+02  0.00000000000E+00 0.  1.
         11    1    4    4    0    0  0.13352857867E+03  0.36624452965E+02  0.40467742433E+02  0.14425279913E+03  0.00000000000E+00 0. -1.
          1    1    1    2  501    0 -0.13489210699E+03 -0.60143418308E+02 -0.16000628381E+03  0.21775013698E+03  0.00000000000E+00 0. -1.
<scales pt_clust_5="13000.00000" pt_clust_6="13000.00000" pt_clust_7="13000.00000" pt_clust_8="13000.00000" pt_clust_9="13000.00000"></scales>
<clustering>
<clus scale="   81.019">  5  6 -1 -1</clus>
<clus scale="   84.547">  1  5  2 -1</clus>
<clus scale="  116.149">  7  8 -1 -1</clus>
<clus scale="  145.833">  7  9 -1 -1</clus>
<clus scale="  393.899">  2  5  1 -1</clus>
</clustering>
</event>
<event>
 9    2  0.3897980E-005  0.2039936E+03  0.7546771E-02  0.1158779E+00
         21   -1    0    0  501  502  0.00000000000E+00  0.00000000000E+00  0.39283378197E+02  0.39283378197E+02  0.00000000000E+00 0. -1.
          2   -1    0    0  502    0 -0.00000000000E+00 -0.00000000000E+00 -0.12319678897E+04  0.12319678897E+04  0.00000000000E+00 0. -1.
         24    2    1    2    0    0  0.54425006393E+02  0.11772352576E+03 -0.90987345721E+03  0.92254586083E+03  0.80001545917E+02 0.  0.
         23    2    1    2    0    0 -0.29444113581E+02 -0.18913661466E+02 -0.16849638207E+03  0.19555424458E+03  0.92874912578E+02 0.  0.
        -11    1    3    3    0    0  0.63960878521E+02  0.10621453610E+03 -0.61935577488E+03  0.63164396423E+03  0.00000000000E+00 0.  1.
         12    1    3    3    0    0 -0.95358721284E+01  0.11508989659E+02 -0.29051768233E+03  0.29090189660E+03  0.00000000000E+00 0. -1.
        -13    1    4    4    0    0  0.14018754429E+02  0.25433622524E+02 -0.21974809435E+02  0.36418221815E+02  0.00000000000E+00 0. -1.
         13    1    4    4    0    0 -0.43462868010E+02 -0.44347283990E+02 -0.14652157264E+03  0.15913602276E+03  0.00000000000E+00 0.  1.
          1    1    1    2  501    0 -0.24980892812E+02 -0.98809864293E+02 -0.11431467220E+03  0.15315116248E+03  0.00000000000E+00 0. -1.
<scales pt_clust_5="13000.00000" pt_clust_6="13000.00000" pt_clust_7="13000.00000" pt_clust_8="13000.00000" pt_clust_9="13000.00000"></scales>
<clustering>
<clus scale="   80.002">  5  6 -1 -1</clus>
<clus scale="   92.875">  7  8 -1 -1</clus>
<clus scale="  101.919">  7  9 -1 -1</clus>
<clus scale="  152.385">  2  5  1 -1</clus>
<clus scale="  203.994">  1  5  2 -1</clus>
</clustering>
</event>
<event>
 9    2  0.3897980E-005  0.4329388E+03  0.7546771E-02  0.1086025E+00
          2   -1    0    0  502    0 -0.00000000000E+00  0.00000000000E+00  0.12234833173E+04  0.12234833173E+04  0.00000000000E+00 0. -1.
         21   -1    0    0  501  502  0.00000000000E+00 -0.00000000000E+00 -0.60369130116E+02  0.60369130116E+02  0.00000000000E+00 0.  1.
         24    2    1    2    0    0 -0.54615721408E+02  0.10049552645E+02  0.34067024772E+03  0.35441712963E+03  0.80445096551E+02 0.  0.
         23    2    1    2    0    0 -0.16808010874E+03  0.20988142311E+02  0.25515005151E+03  0.31920656840E+03  0.89999219169E+02 0.  0.
        -13    1    3    3    0    0 -0.31602009395E+02  0.39738581458E+02  0.26631716999E+03  0.27111377111E+03  0.00000000000E+00 0.  1.
         14    1    3    3    0    0 -0.23013712012E+02 -0.29689028813E+02  0.74353077727E+02  0.83303358516E+02  0.00000000000E+00 0. -1.
        -11    1    4    4    0    0 -0.52707508937E+02  0.45697012167E+02  0.12780207992E+03  0.14560106473E+03  0.00000000000E+00 0. -1.
         11    1    4    4    0    0 -0.11537259980E+03 -0.24708869855E+02  0.12734797159E+03  0.17360550366E+03  0.00000000000E+00 0.  1.
          1    1    1    2  501    0  0.22269583015E+03 -0.31037694956E+02  0.56729388797E+03  0.61022874941E+03  0.00000000000E+00 0. -1.
<scales pt_clust_5="13000.00000" pt_clust_6="13000.00000" pt_clust_7="13000.00000" pt_clust_8="13000.00000" pt_clust_9="13000.00000"></scales>
<clustering>
<clus scale="   80.445">  5  6 -1 -1</clus>
<clus scale="   89.999">  7  8 -1 -1</clus>
<clus scale="   97.751">  1  5  2 -1</clus>
<clus scale="  187.565">  7  9 -1 -1</clus>
<clus scale="  432.939">  2  5  1 -1</clus>
</clustering>
</event>
<event>
 9    2  0.3897980E-005  0.4417173E+03  0.7546771E-02  0.1073818E+00
          2   -1    0    0  502    0 -0.00000000000E+00  0.00000000000E+00  0.20810141191E+04  0.20810141191E+04  0.00000000000E+00 0. -1.
         21   -1    0    0  501  502  0.00000000000E+00 -0.00000000000E+00 -0.42144477888E+02  0.42144477888E+02  0.00000000000E+00 0. -1.
         24    2    1    2    0    0  0.94159532919E+02  0.33100998577E+02  0.25312598814E+03  0.28359489821E+03  0.79947524496E+02 0.  0.
         23    2    1    2    0    0  0.63535093387E+02  0.12164633198E+03  0.35697192700E+03  0.39381027004E+03  0.93931006314E+02 0.  0.
        -13    1    3    3    0    0  0.53804141668E+02 -0.85020146044E+01  0.55992328325E+02  0.78117288382E+02  0.00000000000E+00 0.  1.
         14    1    3    3    0    0  0.40355391251E+02  0.41603013182E+02  0.19713365982E+03  0.20547760983E+03  0.00000000000E+00 0. -1.
        -11    1    4    4    0    0  0.16560912120E+02 -0.11545494438E+02  0.84878122990E+02  0.87245962740E+02  0.00000000000E+00 0.  1.
         11    1    4    4    0    0  0.46974181268E+02  0.13319182642E+03  0.27209380401E+03  0.30656430730E+03  0.00000000000E+00 0. -1.
          1    1    1    2  501    0 -0.15769462631E+03 -0.15474733056E+03  0.14287717261E+04  0.14457534287E+04  0.00000000000E+00 0. -1.
<scales pt_clust_5="13000.00000" pt_clust_6="13000.00000" pt_clust_7="13000.00000" pt_clust_8="13000.00000" pt_clust_9="13000.00000"></scales>
<clustering>
<clus scale="   79.948">  5  6 -1 -1</clus>
<clus scale="   93.931">  7  8 -1 -1</clus>
<clus scale="  127.880">  1  5  2 -1</clus>
<clus scale="  152.995">  7  9 -1 -1</clus>
<clus scale="  441.717">  2  5  1 -1</clus>
</clustering>
</event>
<event>
 9    2  0.3897980E-005  0.3137564E+03  0.7546771E-02  0.1116866E+00
          2   -1    0    0  502    0 -0.00000000000E+00  0.00000000000E+00  0.99066682683E+03  0.99066682683E+03  0.00000000000E+00 0. -1.
         21   -1    0    0  501  502  0.00000000000E+00 -0.00000000000E+00 -0.50033991559E+02  0.50033991559E+02  0.00000000000E+00 0. -1.
         24    2    1    2    0    0  0.27834935836E+02 -0.75758167971E+02  0.39197273292E+03  0.40866363047E+03  0.82760231088E+02 0.  0.
         23    2    1    2    0    0 -0.11350129550E+03  0.27584114622E+02  0.50172945740E+03  0.52312460816E+03  0.91013624147E+02 0.  0.
        -11    1    3    3    0    0  0.96604291739E+01  0.17634315619E+02  0.57093787321E+02  0.60530930357E+02  0.00000000000E+00 0.  1.
         12    1    3    3    0    0  0.18174506662E+02 -0.93392483590E+02  0.33487894560E+03  0.34813270011E+03  0.00000000000E+00 0. -1.
        -11    1    4    4    0    0 -0.44116558100E+02  0.54907360559E+02  0.29698125184E+03  0.30521951590E+03  0.00000000000E+00 0.  1.
         11    1    4    4    0    0 -0.69384737400E+02 -0.27323245937E+02  0.20474820555E+03  0.21790509225E+03  0.00000000000E+00 0. -1.
          1    1    1    2  501    0  0.85666359664E+02  0.48174053349E+02  0.46930644955E+02  0.10891257976E+03  0.00000000000E+00 0. -1.
<scales pt_clust_5="13000.00000" pt_clust_6="13000.00000" pt_clust_7="13000.00000" pt_clust_8="13000.00000" pt_clust_9="13000.00000"></scales>
<clustering>
<clus scale="   82.760">  5  6 -1 -1</clus>
<clus scale="   91.014">  7  8 -1 -1</clus>
<clus scale="   98.283">  7  9 -1 -1</clus>
<clus scale="  115.600">  1  5  2 -1</clus>
<clus scale="  313.756">  2  5  1 -1</clus>
</clustering>
</event>
<event>
 9    2  0.3897980E-005  0.1938602E+03  0.7546771E-02  0.1191534E+00
         21   -1    0    0  501  502  0.00000000000E+00  0.00000000000E+00  0.13239123411E+03  0.13239123411E+03  0.00000000000E+00 0.  1.
          4   -1    0    0  502    0 -0.00000000000E+00 -0.00000000000E+00 -0.14630767642E+03  0.14630767642E+03  0.00000000000E+00 0. -1.
         24    2    1    2    0    0 -0.15996630329E+02 -0.84645617213E+01 -0.47731412529E+01  0.84623245524E+02  0.82527388294E+02 0.  0.
         23    2    1    2    0    0  0.34165359275E+02  0.30905954800E+02 -0.73124788507E+02  0.12388058276E+03  0.88750855058E+02 0.  0.
        -13    1    3    3    0    0 -0.21242907271E+02  0.27132248131E+02 -0.25710477524E+02  0.42993588504E+02  0.00000000000E+00 0.  1.
         14    1    3    3    0    0  0.52462769418E+01 -0.35596809853E+02  0.20937336271E+02  0.41629657020E+02  0.00000000000E+00 0. -1.
        -13    1    4    4    0    0  0.30910824869E+02 -0.22024862688E+02 -0.56948306528E+02  0.68437440680E+02  0.00000000000E+00 0. -1.
         13    1    4    4    0    0  0.32545344058E+01  0.52930817488E+02 -0.16176481979E+02  0.55443142077E+02  0.00000000000E+00 0.  1.
          3    1    1    2  501    0 -0.18168728946E+02 -0.22441393079E+02  0.63981487452E+02  0.70195082245E+02  0.00000000000E+00 0. -1.
<scales pt_clust_5="13000.00000" pt_clust_6="13000.00000" pt_clust_7="13000.00000" pt_clust_8="13000.00000" pt_clust_9="13000.00000"></scales>
<clustering>
<clus scale="   82.527">  5  6 -1 -1</clus>
<clus scale="   84.489">  2  5  1 -1</clus>
<clus scale="   88.751">  7  8 -1 -1</clus>
<clus scale="   29.384">  7  9 -1 -1</clus>
<clus scale="  193.860">  1  5  2 -1</clus>
</clustering>
</event>
<event>
 9    2  0.3897980E-005  0.3347741E+03  0.7546771E-02  0.1098737E+00
         21   -1    0    0  501  502  0.00000000000E+00  0.00000000000E+00  0.97009651877E+02  0.97009651877E+02  0.00000000000E+00 0. -1.
          2   -1    0    0  502    0 -0.00000000000E+00 -0.00000000000E+00 -0.12495051439E+04  0.12495051439E+04  0.00000000000E+00 0. -1.
         24    2    1    2    0    0 -0.12775612592E+03  0.14276553079E+02 -0.93529298377E+03  0.94745258369E+03  0.79799656449E+02 0.  0.
         23    2    1    2    0    0 -0.60040192220E+02 -0.59180795945E+02 -0.26432461541E+02  0.12762702854E+03  0.92102074361E+02 0.  0.
        -13    1    3    3    0    0 -0.80996620921E+02  0.44849052057E+02 -0.49014762000E+03  0.49881517566E+03  0.00000000000E+00 0.  1.
         14    1    3    3    0    0 -0.46759505003E+02 -0.30572498978E+02 -0.44514536377E+03  0.44863740803E+03  0.00000000000E+00 0. -1.
        -11    1    4    4    0    0 -0.21346371215E+02  0.10948150259E+02 -0.39753543267E+02  0.46431387665E+02  0.00000000000E+00 0.  1.
         11    1    4    4    0    0 -0.38693821004E+02 -0.70128946204E+02  0.13321081726E+02  0.81195640880E+02  0.00000000000E+00 0. -1.
          1    1    1    2  501    0  0.18779631814E+03  0.44904242866E+02 -0.19077004667E+03  0.27143518350E+03  0.00000000000E+00 0. -1.
<scales pt_clust_5="13000.00000" pt_clust_6="13000.00000" pt_clust_7="13000.00000" pt_clust_8="13000.00000" pt_clust_9="13000.00000"></scales>
<clustering>
<clus scale="   79.800">  5  6 -1 -1</clus>
<clus scale="   92.102">  7  8 -1 -1</clus>
<clus scale="  151.306">  2  5  1 -1</clus>
<clus scale="  107.483">  7  9 -1 -1</clus>
<clus scale="  334.774">  1  5  2 -1</clus>
</clustering>
</event>
<event>
 9    2  0.3897980E-005  0.1697233E+03  0.7546771E-02  0.1195434E+00
          2   -1    0    0  502    0 -0.00000000000E+00  0.00000000000E+00  0.56865114311E+02  0.56865114311E+02  0.00000000000E+00 0. -1.
         21   -1    0    0  501  502  0.00000000000E+00 -0.00000000000E+00 -0.35783493922E+03  0.35783493922E+03  0.00000000000E+00 0. -1.
         24    2    1    2    0    0  0.49345059255E+02 -0.67604444757E+02 -0.12282051707E+03  0.16864484445E+03  0.79692586379E+02 0.  0.
         23    2    1    2    0    0  0.93715607510E+01  0.20638583699E+02 -0.90540121928E+02  0.13060477371E+03  0.91358173965E+02 0.  0.
        -13    1    3    3    0    0 -0.21987667879E+02 -0.14387546176E+02 -0.33232328002E+02  0.42365630505E+02  0.00000000000E+00 0.  1.
         14    1    3    3    0    0  0.71332727133E+02 -0.53216898581E+02 -0.89588189065E+02  0.12627921395E+03  0.00000000000E+00 0. -1.
        -13    1    4    4    0    0 -0.30836569941E+02 -0.96381015724E+01 -0.68343524564E+02  0.75595134747E+02  0.00000000000E+00 0.  1.
         13    1    4    4    0    0  0.40208130692E+02  0.30276685271E+02 -0.22196597364E+02  0.55009638967E+02  0.00000000000E+00 0. -1.
          1    1    1    2  501    0 -0.58716620006E+02  0.46965861058E+02 -0.87609185914E+02  0.11545043537E+03  0.00000000000E+00 0. -1.
<scales pt_clust_5="13000.00000" pt_clust_6="13000.00000" pt_clust_7="13000.00000" pt_clust_8="13000.00000" pt_clust_9="13000.00000"></scales>
<clustering>
<clus scale="   79.693">  5  6 -1 -1</clus>
<clus scale="   91.358">  7  8 -1 -1</clus>
<clus scale="   75.189">  7  9 -1 -1</clus>
<clus scale="  115.569">  1  5  2 -1</clus>
<clus scale="  169.723">  2  5  1 -1</clus>
</clustering>
</event>
<event>
 9    2  0.3897980E-005  0.2952804E+03  0.7546771E-02  0.1135083E+00
         21   -1    0    0  501  502  0.00000000000E+00  0.00000000000E+00  0.10545808060E+03  0.10545808060E+03  0.00000000000E+00 0. -1.
          2   -1    0    0  502    0 -0.00000000000E+00 -0.00000000000E+00 -0.37722996930E+03  0.37722996930E+03  0.00000000000E+00 0. -1.
         24    2    1    2    0    0 -0.35768533583E+02  0.48851927898E+01 -0.12462327873E+03  0.15277403644E+03  0.80657866976E+02 0.  0.
         23    2    1    2    0    0  0.10638451688E+03 -0.10075081322E+03 -0.59571742985E+02  0.18210825611E+03  0.90256482215E+02 0.  0.
        -11    1    3    3    0    0  0.23359435899E+02 -0.11295472816E+02 -0.48803962097E+02  0.55272757015E+02  0.00000000000E+00 0.  1.
         12    1    3    3    0    0 -0.59127969482E+02  0.16180665606E+02 -0.75819316629E+02  0.97501279420E+02  0.00000000000E+00 0. -1.
        -13    1    4    4    0    0  0.69112000905E+02 -0.27810807036E+02  0.93189320008E+01  0.75078306792E+02  0.00000000000E+00 0. -1.
         13    1    4    4    0    0  0.37272515976E+02 -0.72940006188E+02 -0.68890674986E+02  0.10702994931E+03  0.00000000000E+00 0.  1.
          1    1    1    2  501    0 -0.70615983299E+02  0.95865620435E+02 -0.87576866989E+02  0.14780575737E+03  0.00000000000E+00 0. -1.
<scales pt_clust_5="13000.00000" pt_clust_6="13000.00000" pt_clust_7="13000.00000" pt_clust_8="13000.00000" pt_clust_9="13000.00000"></scales>
<clustering>
<clus scale="   80.658">  5  6 -1 -1</clus>
<clus scale="   88.368">  2  5  1 -1</clus>
<clus scale="   90.256">  7  8 -1 -1</clus>
<clus scale="  132.094">  7  9 -1 -1</clus>
<clus scale="  295.280">  1  5  2 -1</clus>
</clustering>
</event>
<event>
 9    2  0.3897980E-005  0.4102424E+03  0.7546771E-02  0.1070215E+00
          2   -1    0    0  502    0 -0.00000000000E+00  0.00000000000E+00  0.14523685888E+04  0.14523685888E+04  0.00000000000E+00 0. -1.
         21   -1    0    0  501  502  0.00000000000E+00 -0.00000000000E+00 -0.59222164822E+02  0.59222164822E+02  0.00000000000E+00 0. -1.
         24    2    1    2    0    0 -0.14235228562E+03 -0.63991723667E+02  0.43452773043E+03  0.46887859542E+03  0.81692562747E+02 0.  0.
         23    2    1    2    0    0 -0.53478626210E+02 -0.68562839464E+02  0.12834933731E+03  0.17942329453E+03  0.90323528584E+02 0.  0.
        -11    1    3    3    0    0 -0.57874532683E+02 -0.63073592232E+02  0.27963815197E+03  0.29244697914E+03  0.00000000000E+00 0.  1.
         12    1    3    3    0    0 -0.84477752939E+02 -0.91813143442E+00  0.15488957846E+03  0.17643161627E+03  0.00000000000E+00 0. -1.
        -11    1    4    4    0    0 -0.24423729194E+02  0.19312091668E+02  0.45943548631E+02  0.55500316153E+02  0.00000000000E+00 0.  1.
         11    1    4    4    0    0 -0.29054897016E+02 -0.87874931133E+02  0.82405788680E+02  0.12392297838E+03  0.00000000000E+00 0. -1.
          1    1    1    2  501    0  0.19583091183E+03  0.13255456313E+03  0.83026935626E+03  0.86328886369E+03  0.00000000000E+00 0. -1.
<scales pt_clust_5="13000.00000" pt_clust_6="13000.00000" pt_clust_7="13000.00000" pt_clust_8="13000.00000" pt_clust_9="13000.00000"></scales>
<clustering>
<clus scale="   81.693">  5  6 -1 -1</clus>
<clus scale="   90.324">  7  8 -1 -1</clus>
<clus scale="  176.161">  1  5  2 -1</clus>
<clus scale="  108.756">  7  9 -1 -1</clus>
<clus scale="  410.242">  2  5  1 -1</clus>
</clustering>
</event>
<event>
 9    2  0.3897980E-005  0.1509630E+03  0.7546771E-02  0.1228432E+00
          2   -1    0    0  502    0 -0.00000000000E+00  0.00000000000E+00  0.43355235345E+03  0.43355235345E+03  0.00000000000E+00 0. -1.
         21   -1    0    0  501  502  0.00000000000E+00 -0.00000000000E+00 -0.31598852427E+02  0.31598852427E+02  0.00000000000E+00 0.  1.
         24    2    1    2    0    0 -0.17993221659E+02  0.27278096058E+02  0.16896593431E+03  0.18753088020E+03  0.74501634362E+02 0.  0.
         23    2    1    2    0    0 -0.14524953703E+02  0.17416193068E+02  0.13378768470E+03  0.16406140793E+03  0.92210102109E+02 0.  0.
        -11    1    3    3    0    0 -0.40455383153E+02 -0.62871845237E+01  0.87351707705E+02  0.96470138148E+02  0.00000000000E+00 0.  1.
         12    1    3    3    0    0  0.22462161494E+02  0.33565280581E+02  0.81614226601E+02  0.91060742053E+02  0.00000000000E+00 0. -1.
        -13    1    4    4    0    0  0.20387913370E+02 -0.95862573370E+01 -0.67593583408E+00  0.22539304128E+02  0.00000000000E+00 0.  1.
         13    1    4    4    0    0 -0.34912867073E+02  0.27002450405E+02  0.13446362054E+03  0.14152210380E+03  0.00000000000E+00 0. -1.
          1    1    1    2  501    0  0.32518175362E+02 -0.44694289125E+02  0.99199882012E+02  0.11355891775E+03  0.00000000000E+00 0. -1.
<scales pt_clust_5="13000.00000" pt_clust_6="13000.00000" pt_clust_7="13000.00000" pt_clust_8="13000.00000" pt_clust_9="13000.00000"></scales>
<clustering>
<clus scale="   74.502">  5  6 -1 -1</clus>
<clus scale="   81.353">  1  5  2 -1</clus>
<clus scale="   92.210">  7  8 -1 -1</clus>
<clus scale="   41.675">  7  9 -1 -1</clus>
<clus scale="  150.963">  2  5  1 -1</clus>
</clustering>
</event>
<event>
 9    2  0.3897980E-005  0.2363192E+03  0.7546771E-02  0.1151341E+00
          4   -1    0    0  502    0 -0.00000000000E+00  0.00000000000E+00  0.31886631326E+03  0.31886631326E+03  0.00000000000E+00 0. -1.
         21   -1    0    0  501  502  0.00000000000E+00 -0.00000000000E+00 -0.10123039566E+03  0.10123039566E+03  0.00000000000E+00 0.  1.
         24    2    1    2    0    0  0.78825440121E+02 -0.32517885864E+02  0.11011675309E+03  0.16046784938E+03  0.79708020062E+02 0.  0.
         23    2    1    2    0    0 -0.31195577253E+02 -0.59911759891E+02  0.10721255445E+03  0.15564839378E+03  0.90384222308E+02 0.  0.
        -13    1    3    3    0    0  0.29999565368E+02 -0.53177841097E+02  0.41806011816E+02  0.73997292721E+02  0.00000000000E+00 0.  1.
         14    1    3    3    0    0  0.48825874754E+02  0.20659955233E+02  0.68310741270E+02  0.86470556657E+02  0.00000000000E+00 0. -1.
        -13    1    4    4    0    0 -0.11865276763E+02  0.22099799817E+02  0.42723768657E+02  0.49542974809E+02  0.00000000000E+00 0.  1.
         13    1    4    4    0    0 -0.19330300489E+02 -0.82011559708E+02  0.64488785788E+02  0.10610541897E+03  0.00000000000E+00 0. -1.
          3    1    1    2  501    0 -0.47629862869E+02  0.92429645755E+02  0.30661006678E+00  0.10398046577E+03  0.00000000000E+00 0. -1.
<scales pt_clust_5="13000.00000" pt_clust_6="13000.00000" pt_clust_7="13000.00000" pt_clust_8="13000.00000" pt_clust_9="13000.00000"></scales>
<clustering>
<clus scale="   79.708">  5  6 -1 -1</clus>
<clus scale="   90.384">  7  8 -1 -1</clus>
<clus scale="  103.980">  7  9 -1 -1</clus>
<clus scale="  116.723">  1  5  2 -1</clus>
<clus scale="  236.319">  2  5  1 -1</clus>
</clustering>
</event>
<event>
 9    2  0.3897980E-005  0.2402978E+03  0.7546771E-02  0.1150582E+00
         21   -1    0    0  501  502  0.00000000000E+00  0.00000000000E+00  0.67028788522E+02  0.67028788522E+02  0.00000000000E+00 0. -1.
          2   -1    0    0  502    0 -0.00000000000E+00 -0.00000000000E+00 -0.58341412271E+03  0.58341412271E+03  0.00000000000E+00 0. -1.
         24    2    1    2    0    0 -0.73787379905E+02 -0.23371304690E+02 -0.45611454462E+02  0.12188726974E+03  0.82372971480E+02 0.  0.
         23    2    1    2    0    0 -0.51690860867E+02 -0.21675646276E+02 -0.22913400134E+03  0.25257765772E+03  0.90284571618E+02 0.  0.
        -11    1    3    3    0    0 -0.12760863472E+00  0.24505302259E+02 -0.45970469187E+01  0.24933089723E+02  0.00000000000E+00 0.  1.
         12    1    3    3    0    0 -0.73659771270E+02 -0.47876606949E+02 -0.41014407543E+02  0.96954180017E+02  0.00000000000E+00 0. -1.
        -11    1    4    4    0    0 -0.59076764677E+02  0.16874098346E+02 -0.17672211928E+03  0.18709758620E+03  0.00000000000E+00 0.  1.
         11    1    4    4    0    0  0.73859038098E+01 -0.38549744622E+02 -0.52411882066E+02  0.65480071527E+02  0.00000000000E+00 0. -1.
          1    1    1    2  501    0  0.12547824077E+03  0.45046950967E+02 -0.24163987838E+03  0.27597798377E+03  0.00000000000E+00 0. -1.
<scales pt_clust_5="13000.00000" pt_clust_6="13000.00000" pt_clust_7="13000.00000" pt_clust_8="13000.00000" pt_clust_9="13000.00000"></scales>
<clustering>
<clus scale="   82.373">  5  6 -1 -1</clus>
<clus scale="   90.285">  7  8 -1 -1</clus>
<clus scale="  113.031">  2  5  1 -1</clus>
<clus scale="   93.270">  7  9 -1 -1</clus>
<clus scale="  240.298">  1  5  2 -1</clus>
</clustering>
</event>
<event>
 9    2  0.3897980E-005  0.4501993E+03  0.7546771E-02  0.1082924E+00
         21   -1    0    0  501  502  0.00000000000E+00  0.00000000000E+00  0.63763247267E+03  0.63763247267E+03  0.00000000000E+00 0.  1.
         -3   -1    0    0    0  501 -0.00000000000E+00 -0.00000000000E+00 -0.16841322233E+03  0.16841322233E+03  0.00000000000E+00 0.  1.
         24    2    1    2    0    0  0.96403487136E+01 -0.47207257993E+02 -0.59501033812E+02  0.11162179654E+03  0.81225555755E+02 0.  0.
         23    2    1    2    0    0  0.20238620252E+03 -0.61770558564E+01  0.33898472967E+03  0.40493344261E+03  0.89789281139E+02 0.  0.
        -11    1    3    3    0    0 -0.85696799356E+01 -0.50695219096E+02 -0.72570251799E+02  0.88937540440E+02  0.00000000000E+00 0.  1.
         12    1    3    3    0    0  0.18210028649E+02  0.34879611025E+01  0.13069217987E+02  0.22684256101E+02  0.00000000000E+00 0. -1.
        -11    1    4    4    0    0  0.13675364323E+03 -0.13068831046E+02  0.29558240026E+03  0.32594678803E+03  0.00000000000E+00 0.  1.
         11    1    4    4    0    0  0.65632559289E+02  0.68917751896E+01  0.43402329403E+02  0.78986654580E+02  0.00000000000E+00 0. -1.
         -4    1    1    2    0  502 -0.21202655124E+03  0.53384313850E+02  0.18973555448E+03  0.28949045585E+03  0.00000000000E+00 0.  1.
<scales pt_clust_5="13000.00000" pt_clust_6="13000.00000" pt_clust_7="13000.00000" pt_clust_8="13000.00000" pt_clust_9="13000.00000"></scales>
<clustering>
<clus scale="   81.226">  5  6 -1 -1</clus>
<clus scale="   89.789">  7  8 -1 -1</clus>
<clus scale="   94.441">  2  5  1 -1</clus>
<clus scale="  207.729">  7  9 -1 -1</clus>
<clus scale="  450.199">  1  5  2 -1</clus>
</clustering>
</event>
<event>
 9    2  0.3897980E-005  0.4487677E+03  0.7546771E-02  0.1084956E+00
         21   -1    0    0  501  502  0.00000000000E+00  0.00000000000E+00  0.75697175912E+02  0.75697175912E+02  0.00000000000E+00 0.  1.
          2   -1    0    0  502    0 -0.00000000000E+00 -0.00000000000E+00 -0.99672861296E+03  0.99672861296E+03  0.00000000000E+00 0. -1.
         24    2    1    2    0    0  0.15556910689E+02  0.40151890172E+02 -0.87381199234E+02  0.12566016587E+03  0.79377651460E+02 0.  0.
         23    2    1    2    0    0  0.56224063645E+02  0.15870083510E+03 -0.20781889937E+03  0.28619028377E+03  0.10182869534E+03 0.  0.
        -11    1    3    3    0    0  0.37675029798E+02 -0.37817169114E+01 -0.21828566520E+02  0.43705784164E+02  0.00000000000E+00 0.  1.
         12    1    3    3    0    0 -0.22118119110E+02  0.43933607083E+02 -0.65552632714E+02  0.81954381701E+02  0.00000000000E+00 0. -1.
        -13    1    4    4    0    0  0.20663990329E+02  0.34878786162E+02 -0.12887036919E+03  0.13509664051E+03  0.00000000000E+00 0. -1.
         13    1    4    4    0    0  0.35560073317E+02  0.12382204894E+03 -0.78948530178E+02  0.15109364327E+03  0.00000000000E+00 0.  1.
          1    1    1    2  501    0 -0.71780974334E+02 -0.19885272528E+03 -0.62583133845E+03  0.66057533924E+03  0.00000000000E+00 0. -1.
<scales pt_clust_5="13000.00000" pt_clust_6="13000.00000" pt_clust_7="13000.00000" pt_clust_8="13000.00000" pt_clust_9="13000.00000"></scales>
<clustering>
<clus scale="   79.378">  5  6 -1 -1</clus>
<clus scale="   90.305">  2  5  1 -1</clus>
<clus scale="  101.829">  7  8 -1 -1</clus>
<clus scale="  180.309">  7  9 -1 -1</clus>
<clus scale="  448.768">  1  5  2 -1</clus>
</clustering>
</event>
<event>
 9    2  0.3897980E-005  0.2444909E+03  0.7546771E-02  0.1138794E+00
         21   -1    0    0  501  502  0.00000000000E+00  0.00000000000E+00  0.24496189969E+02  0.24496189969E+02  0.00000000000E+00 0. -1.
          2   -1    0    0  502    0 -0.00000000000E+00 -0.00000000000E+00 -0.15605207687E+04  0.15605207687E+04  0.00000000000E+00 0. -1.
         24    2    1    2    0    0 -0.11541087739E+03 -0.26000987907E+02 -0.45667276462E+03  0.47832090937E+03  0.79026301931E+02 0.  0.
         23    2    1    2    0    0  0.40006705588E+02 -0.69628149093E+02 -0.58401294006E+03  0.59660652666E+03  0.91758475643E+02 0.  0.
        -13    1    3    3    0    0 -0.58069457285E+02  0.26944542926E+02 -0.19299599591E+03  0.20333598968E+03  0.00000000000E+00 0.  1.
         14    1    3    3    0    0 -0.57341420108E+02 -0.52945530833E+02 -0.26367676871E+03  0.27498491968E+03  0.00000000000E+00 0. -1.
        -11    1    4    4    0    0 -0.20728979767E+02 -0.52988777934E+02 -0.33227201842E+03  0.33710858105E+03  0.00000000000E+00 0. -1.
         11    1    4    4    0    0  0.60735685355E+02 -0.16639371159E+02 -0.25174092164E+03  0.25949794561E+03  0.00000000000E+00 0.  1.
          1    1    1    2  501    0  0.75404171804E+02  0.95629136999E+02 -0.49533887401E+03  0.51008952261E+03  0.00000000000E+00 0. -1.
<scales pt_clust_5="13000.00000" pt_clust_6="13000.00000" pt_clust_7="13000.00000" pt_clust_8="13000.00000" pt_clust_9="13000.00000"></scales>
<clustering>
<clus scale="   79.026">  5  6 -1 -1</clus>
<clus scale="   91.758">  7  8 -1 -1</clus>
<clus scale="  121.782">  7  9 -1 -1</clus>
<clus scale="  142.271">  2  5  1 -1</clus>
<clus scale="  244.491">  1  5  2 -1</clus>
</clustering>
</event>
<event>
 9    2  0.3897980E-005  0.2140358E+03  0.7546771E-02  0.1167848E+00
         21   -1    0    0  501  502  0.00000000000E+00  0.00000000000E+00  0.14485927373E+03  0.14485927373E+03  0.00000000000E+00 0.  1.
          2   -1    0    0  502    0 -0.00000000000E+00 -0.00000000000E+00 -0.42014516312E+03  0.42014516312E+03  0.00000000000E+00 0. -1.
         24    2    1    2    0    0  0.66215251920E+02  0.24704204672E+02 -0.32764370586E+03  0.34465777111E+03  0.80273431995E+02 0.  0.
         23    2    1    2    0    0 -0.10423978921E+02  0.88239403543E+01  0.10350589767E+03  0.13756424693E+03  0.89576391534E+02 0.  0.
        -11    1    3    3    0    0 -0.62727591667E+01  0.29539828318E+02 -0.14468787215E+03  0.14780571475E+03  0.00000000000E+00 0.  1.
         12    1    3    3    0    0  0.72488011086E+02 -0.48356236452E+01 -0.18295583371E+03  0.19685205636E+03  0.00000000000E+00 0. -1.
        -11    1    4    4    0    0 -0.47238849296E+02  0.12419092213E+02  0.80016292081E+02  0.93746198497E+02  0.00000000000E+00 0.  1.
         11    1    4    4    0    0  0.36814870375E+02 -0.35951518586E+01  0.23489605594E+02  0.43818048434E+02  0.00000000000E+00 0. -1.
          1    1    1    2  501    0 -0.55791272998E+02 -0.33528145027E+02 -0.51148081205E+02  0.82782418802E+02  0.00000000000E+00 0. -1.
<scales pt_clust_5="13000.00000" pt_clust_6="13000.00000" pt_clust_7="13000.00000" pt_clust_8="13000.00000" pt_clust_9="13000.00000"></scales>
<clustering>
<clus scale="   80.273">  5  6 -1 -1</clus>
<clus scale="   89.576">  7  8 -1 -1</clus>
<clus scale="   65.091">  7  9 -1 -1</clus>
<clus scale="  106.951">  2  5  1 -1</clus>
<clus scale="  214.036">  1  5  2 -1</clus>
</clustering>
</event>
<event>
 9    2  0.3897980E-005  0.1894427E+03  0.7546771E-02  0.1200296E+00
          2   -1    0    0  502    0 -0.00000000000E+00  0.00000000000E+00  0.99715141549E+03  0.99715141549E+03  0.00000000000E+00 0. -1.
         21   -1    0    0  501  502  0.00000000000E+00 -0.00000000000E+00 -0.84778879147E+02  0.84778879147E+02  0.00000000000E+00 0. -1.
         24    2    1    2    0    0  0.63068311031E+01  0.57283030323E+01  0.88775317926E+03  0.89089452914E+03  0.74261465122E+02 0.  0.
         23    2    1    2    0    0  0.31345323824E+02 -0.37882436894E+02  0.70889679393E+02  0.12326766223E+03  0.88045224490E+02 0.  0.
        -13    1    3    3    0    0  0.30538384460E+01  0.23736063826E+02  0.96275468745E+02  0.99205304985E+02  0.00000000000E+00 0.  1.
         14    1    3    3    0    0  0.32529926571E+01 -0.18007760793E+02  0.79147771051E+03  0.79168922416E+03  0.00000000000E+00 0. -1.
        -11    1    4    4    0    0  0.14732963387E+02 -0.64274072056E+02  0.31643945222E+02  0.73140657763E+02  0.00000000000E+00 0.  1.
         11    1    4    4    0    0  0.16612360437E+02  0.26391635162E+02  0.39245734171E+02  0.50127004463E+02  0.00000000000E+00 0. -1.
          1    1    1    2  501    0 -0.37652154927E+02  0.32154133862E+02 -0.46270322303E+02  0.67768103272E+02  0.00000000000E+00 0. -1.
<scales pt_clust_5="13000.00000" pt_clust_6="13000.00000" pt_clust_7="13000.00000" pt_clust_8="13000.00000" pt_clust_9="13000.00000"></scales>
<clustering>
<clus scale="   74.261">  5  6 -1 -1</clus>
<clus scale="   74.749">  1  5  2 -1</clus>
<clus scale="   88.045">  7  8 -1 -1</clus>
<clus scale="   49.413">  7  9 -1 -1</clus>
<clus scale="  189.443">  2  5  1 -1</clus>
</clustering>
</event>
<event>
 9    2  0.3897980E-005  0.4133422E+03  0.7546771E-02  0.1094703E+00
         21   -1    0    0  501  502  0.00000000000E+00  0.00000000000E+00  0.51004658517E+03  0.51004658517E+03  0.00000000000E+00 0. -1.
          2   -1    0    0  502    0 -0.00000000000E+00 -0.00000000000E+00 -0.12638231994E+03  0.12638231994E+03  0.00000000000E+00 0. -1.
         24    2    1    2    0    0  0.42121912158E+02 -0.11828289872E+01  0.10538880890E+03  0.13814284993E+03  0.78746373736E+02 0.  0.
         23    2    1    2    0    0  0.33007970433E+02 -0.18009014825E+03  0.20378662713E+03  0.28839804407E+03  0.90124662636E+02 0.  0.
        -13    1    3    3    0    0  0.41357071748E+02 -0.15233508675E+02  0.14836362670E+02  0.46503600155E+02  0.00000000000E+00 0.  1.
         14    1    3    3    0    0  0.76484040981E+00  0.14050679687E+02  0.90552446234E+02  0.91639249776E+02  0.00000000000E+00 0. -1.
        -13    1    4    4    0    0  0.99887463691E+01 -0.77483726311E+02  0.15261996287E+03  0.17145365544E+03  0.00000000000E+00 0.  1.
         13    1    4    4    0    0  0.23019224064E+02 -0.10260642194E+03  0.51166664260E+02  0.11694438863E+03  0.00000000000E+00 0. -1.
          1    1    1    2  501    0 -0.75129882591E+02  0.18127297724E+03  0.74488829194E+02  0.20988801112E+03  0.00000000000E+00 0. -1.
<scales pt_clust_5="13000.00000" pt_clust_6="13000.00000" pt_clust_7="13000.00000" pt_clust_8="13000.00000" pt_clust_9="13000.00000"></scales>
<clustering>
<clus scale="   78.746">  5  6 -1 -1</clus>
<clus scale="   89.312">  2  5  1 -1</clus>
<clus scale="   90.125">  7  8 -1 -1</clus>
<clus scale="  187.131">  7  9 -1 -1</clus>
<clus scale="  413.342">  1  5  2 -1</clus>
</clustering>
</event>
<event>
 9    2  0.3897980E-005  0.4231740E+03  0.7546771E-02  0.1081395E+00
          2   -1    0    0  502    0 -0.00000000000E+00  0.00000000000E+00  0.15070588536E+04  0.15070588536E+04  0.00000000000E+00 0. -1.
         21   -1    0    0  501  502  0.00000000000E+00 -0.00000000000E+00 -0.50611923260E+02  0.50611923260E+02  0.00000000000E+00 0.  1.
         24    2    1    2    0    0 -0.76220695288E+02 -0.41513638198E+02  0.46158791925E+03  0.47655066078E+03  0.80648301561E+02 0.  0.
         23    2    1    2    0    0 -0.87340150498E+02 -0.32519440065E+02  0.90609065234E+02  0.15921935595E+03  0.91950990942E+02 0.  0.
        -13    1    3    3    0    0 -0.65885101942E+02 -0.16041571347E+01  0.37378959612E+03  0.37955511081E+03  0.00000000000E+00 0.  1.
         14    1    3    3    0    0 -0.10335593347E+02 -0.39909481063E+02  0.87798323138E+02  0.96995549972E+02  0.00000000000E+00 0. -1.
        -11    1    4    4    0    0 -0.11379764211E+02 -0.35278348877E+02  0.71972689282E+02  0.80957574911E+02  0.00000000000E+00 0.  1.
         11    1    4    4    0    0 -0.75960386287E+02  0.27589088119E+01  0.18636375952E+02  0.78261781039E+02  0.00000000000E+00 0. -1.
          1    1    1    2  501    0  0.16356084579E+03  0.74033078263E+02  0.90424994590E+03  0.92190076017E+03  0.00000000000E+00 0. -1.
<scales pt_clust_5="13000.00000" pt_clust_6="13000.00000" pt_clust_7="13000.00000" pt_clust_8="13000.00000" pt_clust_9="13000.00000"></scales>
<clustering>
<clus scale="   80.648">  5  6 -1 -1</clus>
<clus scale="   91.951">  7  8 -1 -1</clus>
<clus scale="  118.478">  1  5  2 -1</clus>
<clus scale="  103.548">  7  9 -1 -1</clus>
<clus scale="  423.174">  2  5  1 -1</clus>
</clustering>
</event>
<event>
 9    2  0.3897980E-005  0.5841823E+03  0.7546771E-02  0.1051187E+00
         21   -1    0    0  501  502  0.00000000000E+00  0.00000000000E+00  0.31916876591E+03  0.31916876591E+03  0.00000000000E+00 0.  1.
          4   -1    0    0  502    0 -0.00000000000E+00 -0.00000000000E+00 -0.38908666812E+03  0.38908666812E+03  0.00000000000E+00 0. -1.
         24    2    1    2    0    0  0.52401661508E+02 -0.38568260368E+02  0.44503578227E+02  0.11297290343E+03  0.80925049266E+02 0.  0.
         23    2    1    2    0    0 -0.13701726313E+03 -0.22739010139E+03  0.16842265304E+02  0.28686103138E+03  0.10735735102E+03 0.  0.
        -13    1    3    3    0    0  0.53872241901E+02  0.28454856296E+01  0.46872078557E+02  0.71465425095E+02  0.00000000000E+00 0.  1.
         14    1    3    3    0    0 -0.14705803925E+01 -0.41413745998E+02 -0.23685003295E+01  0.41507478339E+02  0.00000000000E+00 0. -1.
        -11    1    4    4    0    0  0.14227557640E+02 -0.46799814791E+02  0.15455617040E+02  0.51298364096E+02  0.00000000000E+00 0. -1.
         11    1    4    4    0    0 -0.15124482077E+03 -0.18059028660E+03  0.13866482644E+01  0.23556266729E+03  0.00000000000E+00 0.  1.
          3    1    1    2  501    0  0.84615601623E+02  0.26595836176E+03 -0.13126374575E+03  0.30842149921E+03  0.00000000000E+00 0. -1.
<scales pt_clust_5="13000.00000" pt_clust_6="13000.00000" pt_clust_7="13000.00000" pt_clust_8="13000.00000" pt_clust_9="13000.00000"></scales>
<clustering>
<clus scale="   80.925">  5  6 -1 -1</clus>
<clus scale="  103.838">  2  5  1 -1</clus>
<clus scale="  107.357">  7  8 -1 -1</clus>
<clus scale="  268.892">  7  9 -1 -1</clus>
<clus scale="  584.182">  1  5  2 -1</clus>
</clustering>
</event>
<event>
 9    2  0.3897980E-005  0.2389771E+03  0.7546771E-02  0.1162808E+00
         21   -1    0    0  501  502  0.00000000000E+00  0.00000000000E+00  0.27617930029E+03  0.27617930029E+03  0.00000000000E+00 0. -1.
          2   -1    0    0  502    0 -0.00000000000E+00 -0.00000000000E+00 -0.12544865599E+03  0.12544865599E+03  0.00000000000E+00 0. -1.
         24    2    1    2    0    0 -0.15145519845E+02  0.17753478671E+02 -0.40708518609E+02  0.95427043640E+02  0.83093708512E+02 0.  0.
         23    2    1    2    0    0  0.16109176392E+02  0.84496265169E+02  0.54532797990E+02  0.13532291083E+03  0.89102972720E+02 0.  0.
        -13    1    3    3    0    0  0.15146857953E+02 -0.18423084463E+02 -0.41916807303E+02  0.48227130140E+02  0.00000000000E+00 0.  1.
         14    1    3    3    0    0 -0.30292377798E+02  0.36176563134E+02  0.12082886946E+01  0.47199913500E+02  0.00000000000E+00 0. -1.
        -11    1    4    4    0    0 -0.36703357681E+02  0.42241918644E+02  0.29003315804E+02  0.63029425536E+02  0.00000000000E+00 0.  1.
         11    1    4    4    0    0  0.52812534072E+02  0.42254346524E+02  0.25529482186E+02  0.72293485294E+02  0.00000000000E+00 0. -1.
          1    1    1    2  501    0 -0.96365654664E+00 -0.10224974384E+03  0.13690636492E+03  0.17087800182E+03  0.00000000000E+00 0. -1.
<scales pt_clust_5="13000.00000" pt_clust_6="13000.00000" pt_clust_7="13000.00000" pt_clust_8="13000.00000" pt_clust_9="13000.00000"></scales>
<clustering>
<clus scale="   83.094">  5  6 -1 -1</clus>
<clus scale="   86.308">  2  5  1 -1</clus>
<clus scale="   89.103">  7  8 -1 -1</clus>
<clus scale="   97.147">  7  9 -1 -1</clus>
<clus scale="  238.977">  1  5  2 -1</clus>
</clustering>
</event>
<event>
 9    2  0.3897980E-005  0.2545376E+03  0.7546771E-02  0.1156796E+00
         21   -1    0    0  501  502  0.00000000000E+00  0.00000000000E+00  0.86344827722E+02  0.86344827722E+02  0.00000000000E+00 0. -1.
          2   -1    0    0  502    0 -0.00000000000E+00 -0.00000000000E+00 -0.33779589329E+03  0.33779589329E+03  0.00000000000E+00 0. -1.
         24    2    1    2    0    0  0.12602687073E+02 -0.33365947581E+01 -0.93981464319E+02  0.12483143086E+03  0.81119725774E+02 0.  0.
         23    2    1    2    0    0  0.52832182775E+02  0.84194811288E+02 -0.38501249267E+02  0.14128004556E+03  0.92723779546E+02 0.  0.
        -11    1    3    3    0    0 -0.18675616702E+02  0.22297826413E+02 -0.85573946964E+01  0.30318323271E+02  0.00000000000E+00 0.  1.
         12    1    3    3    0    0  0.31278303776E+02 -0.25634421171E+02 -0.85424069622E+02  0.94513107592E+02  0.00000000000E+00 0. -1.
        -11    1    4    4    0    0  0.39521013197E+02  0.10444550300E+03 -0.30567512541E+02  0.11578059598E+03  0.00000000000E+00 0. -1.
         11    1    4    4    0    0  0.13311169578E+02 -0.20250691716E+02 -0.79337367265E+01  0.25499449581E+02  0.00000000000E+00 0.  1.
          1    1    1    2  501    0 -0.65434869848E+02 -0.80858216530E+02 -0.11896835198E+03  0.15802924459E+03  0.00000000000E+00 0. -1.
<scales pt_clust_5="13000.00000" pt_clust_6="13000.00000" pt_clust_7="13000.00000" pt_clust_8="13000.00000" pt_clust_9="13000.00000"></scales>
<clustering>
<clus scale="   81.120">  5  6 -1 -1</clus>
<clus scale="   82.161">  2  5  1 -1</clus>
<clus scale="   92.724">  7  8 -1 -1</clus>
<clus scale="  101.041">  7  9 -1 -1</clus>
<clus scale="  254.538">  1  5  2 -1</clus>
</clustering>
</event>
<event>
 9    2  0.3897980E-005  0.3358786E+03  0.7546771E-02  0.1076125E+00
          2   -1    0    0  502    0 -0.00000000000E+00  0.00000000000E+00  0.44453319339E+03  0.44453319339E+03  0.00000000000E+00 0. -1.
         21   -1    0    0  501  502  0.00000000000E+00 -0.00000000000E+00 -0.53942467688E+03  0.53942467688E+03  0.00000000000E+00 0. -1.
         24    2    1    2    0    0 -0.25103735853E+03 -0.11024141885E+02  0.33892690172E+03  0.43531153534E+03  0.10716063181E+03 0.  0.
         23    2    1    2    0    0  0.37895088850E+02 -0.91403368149E+01 -0.50071602501E+02  0.10921735709E+03  0.88891406764E+02 0.  0.
        -11    1    3    3    0    0 -0.76311563507E+02 -0.46754120848E+02  0.15591575794E+03  0.17977520996E+03  0.00000000000E+00 0.  1.
         12    1    3    3    0    0 -0.17472579502E+03  0.35729978963E+02  0.18301114378E+03  0.25553632538E+03  0.00000000000E+00 0. -1.
        -13    1    4    4    0    0 -0.51989095809E+01 -0.36664583387E+02  0.86640744006E+00  0.37041476721E+02  0.00000000000E+00 0. -1.
         13    1    4    4    0    0  0.43093998431E+02  0.27524246572E+02 -0.50938009941E+02  0.72175880368E+02  0.00000000000E+00 0.  1.
          1    1    1    2  501    0  0.21314226968E+03  0.20164478700E+02 -0.38374678271E+03  0.43942897784E+03  0.00000000000E+00 0. -1.
<scales pt_clust_5="13000.00000" pt_clust_6="13000.00000" pt_clust_7="13000.00000" pt_clust_8="13000.00000" pt_clust_9="13000.00000"></scales>
<clustering>
<clus scale="   88.891">  7  8 -1 -1</clus>
<clus scale="  107.161">  5  6 -1 -1</clus>
<clus scale="  214.094">  7  9 -1 -1</clus>
<clus scale="  273.175">  1  5  2 -1</clus>
<clus scale="  335.879">  2  5  1 -1</clus>
</clustering>
</event>
<event>
 9    2  0.3897980E-005  0.2533761E+03  0.7546771E-02  0.1153073E+00
          2   -1    0    0  502    0 -0.00000000000E+00  0.00000000000E+00  0.75895142920E+03  0.75895142920E+03  0.00000000000E+00 0. -1.
         21   -1    0    0  501  502  0.00000000000E+00 -0.00000000000E+00 -0.42669554197E+02  0.42669554197E+02  0.00000000000E+00 0.  1.
         24    2    1    2    0    0 -0.11830563872E+02  0.38986399973E+02  0.99247487507E+02  0.13458959341E+03  0.81267418160E+02 0.  0.
         23    2    1    2    0    0 -0.96310372255E+02 -0.30689746453E+01  0.23469472119E+03  0.26807256512E+03  0.86580492056E+02 0.  0.
        -13    1    3    3    0    0  0.14001857569E+02  0.30106725125E+02  0.16531426422E+01  0.33244545323E+02  0.00000000000E+00 0.  1.
         14    1    3    3    0    0 -0.25832421441E+02  0.88796748482E+01  0.97594344865E+02  0.10134504809E+03  0.00000000000E+00 0. -1.
        -11    1    4    4    0    0 -0.70903107495E+02 -0.34100739160E+02  0.98328656761E+02  0.12593107561E+03  0.00000000000E+00 0.  1.
         11    1    4    4    0    0 -0.25407264760E+02  0.31031764514E+02  0.13636606443E+03  0.14214148951E+03  0.00000000000E+00 0. -1.
          1    1    1    2  501    0  0.10814093613E+03 -0.35917425328E+02  0.38233966630E+03  0.39895882486E+03  0.00000000000E+00 0. -1.
<scales pt_clust_5="13000.00000" pt_clust_6="13000.00000" pt_clust_7="13000.00000" pt_clust_8="13000.00000" pt_clust_9="13000.00000"></scales>
<clustering>
<clus scale="   81.267">  5  6 -1 -1</clus>
<clus scale="   86.580">  7  8 -1 -1</clus>
<clus scale="   90.908">  1  5  2 -1</clus>
<clus scale="  101.677">  7  9 -1 -1</clus>
<clus scale="  253.376">  2  5  1 -1</clus>
</clustering>
</event>
<event>
 9    2  0.3897980E-005  0.2073878E+03  0.7546771E-02  0.1179131E+00
         -3   -1    0    0    0  501 -0.00000000000E+00  0.00000000000E+00  0.23510208193E+03  0.23510208193E+03  0.00000000000E+00 0.  1.
         21   -1    0    0  501  502  0.00000000000E+00 -0.00000000000E+00 -0.15413307177E+03  0.15413307177E+03  0.00000000000E+00 0.  1.
         24    2    1    2    0    0 -0.33437696520E+02 -0.25830123901E+02 -0.84320338618E+02  0.12403659509E+03  0.80559807398E+02 0.  0.
         23    2    1    2    0    0 -0.12945788683E+02  0.75296598928E+02  0.15683218347E+03  0.19686201277E+03  0.91220321456E+02 0.  0.
        -13    1    3    3    0    0 -0.46463106187E+02 -0.46423944209E+02 -0.53277801880E+02  0.84572613804E+02  0.00000000000E+00 0.  1.
         14    1    3    3    0    0  0.13025409668E+02  0.20593820308E+02 -0.31042536737E+02  0.39463981287E+02  0.00000000000E+00 0. -1.
        -11    1    4    4    0    0  0.31038770031E+02  0.55294917781E+02  0.54174843410E+02  0.83401719622E+02  0.00000000000E+00 0.  1.
         11    1    4    4    0    0 -0.43984558714E+02  0.20001681147E+02  0.10265734006E+03  0.11346029315E+03  0.00000000000E+00 0. -1.
         -4    1    1    2    0  502  0.46383485203E+02 -0.49466475028E+02  0.84571653128E+01  0.68336545833E+02  0.00000000000E+00 0.  1.
<scales pt_clust_5="13000.00000" pt_clust_6="13000.00000" pt_clust_7="13000.00000" pt_clust_8="13000.00000" pt_clust_9="13000.00000"></scales>
<clustering>
<clus scale="   80.560">  5  6 -1 -1</clus>
<clus scale="   90.968">  1  5  2 -1</clus>
<clus scale="   91.220">  7  8 -1 -1</clus>
<clus scale="   67.511">  7  9 -1 -1</clus>
<clus scale="  207.388">  2  5  1 -1</clus>
</clustering>
</event>
<event>
 9    2  0.3897980E-005  0.1756924E+03  0.7546771E-02  0.1190331E+00
         -1   -1    0    0    0  501 -0.00000000000E+00  0.00000000000E+00  0.20413300884E+03  0.20413300884E+03  0.00000000000E+00 0.  1.
         21   -1    0    0  501  502  0.00000000000E+00 -0.00000000000E+00 -0.12378172764E+03  0.12378172764E+03  0.00000000000E+00 0.  1.
         24    2    1    2    0    0 -0.39443181289E+02  0.72992141464E+02  0.96725404988E+02  0.15146101836E+03  0.81859751085E+02 0.  0.
         23    2    1    2    0    0 -0.17135998535E+02 -0.72974689635E+02 -0.17187608362E+02  0.11986868784E+03  0.91946401073E+02 0.  0.
        -11    1    3    3    0    0 -0.38993473265E+02  0.82712728282E+02  0.10460548170E+03  0.13893953066E+03  0.00000000000E+00 0.  1.
         12    1    3    3    0    0 -0.44970802354E+00 -0.97205868188E+01 -0.78800767117E+01  0.12521487707E+02  0.00000000000E+00 0. -1.
        -11    1    4    4    0    0 -0.10406438334E+02 -0.93767261587E+02 -0.41787128735E+01  0.94435453859E+02  0.00000000000E+00 0.  1.
         11    1    4    4    0    0 -0.67295602003E+01  0.20792571952E+02 -0.13008895489E+02  0.25433233981E+02  0.00000000000E+00 0. -1.
         -2    1    1    2    0  502  0.56579179824E+02 -0.17451828818E-01  0.81348457952E+00  0.56585030275E+02  0.00000000000E+00 0.  1.
<scales pt_clust_5="13000.00000" pt_clust_6="13000.00000" pt_clust_7="13000.00000" pt_clust_8="13000.00000" pt_clust_9="13000.00000"></scales>
<clustering>
<clus scale="   81.860">  5  6 -1 -1</clus>
<clus scale="   91.946">  7  8 -1 -1</clus>
<clus scale="   56.579">  7  9 -1 -1</clus>
<clus scale="  116.553">  1  5  2 -1</clus>
<clus scale="  175.692">  2  5  1 -1</clus>
</clustering>
</event>
<event>
 9    2  0.3897980E-005  0.3774293E+03  0.7546771E-02  0.1079518E+00
          2   -1    0    0  502    0 -0.00000000000E+00  0.00000000000E+00  0.87307860997E+03  0.87307860997E+03  0.00000000000E+00 0. -1.
         21   -1    0    0  501  502  0.00000000000E+00 -0.00000000000E+00 -0.95012129432E+02  0.95012129432E+02  0.00000000000E+00 0.  1.
         24    2    1    2    0    0 -0.13948563465E+02 -0.15518737952E+03  0.13145299147E+03  0.21938392200E+03  0.81066214177E+02 0.  0.
         23    2    1    2    0    0  0.10606401180E+01 -0.71316499333E+02  0.87265880468E+02  0.14510110757E+03  0.91388344383E+02 0.  0.
        -13    1    3    3    0    0 -0.20820640006E+02 -0.16265625899E+03  0.11587885443E+03  0.20079458793E+03  0.00000000000E+00 0.  1.
         14    1    3    3    0    0  0.68720765403E+01  0.74688794709E+01  0.15574137044E+02  0.18589334071E+02  0.00000000000E+00 0. -1.
        -13    1    4    4    0    0 -0.18851367447E+02  0.13784649052E+02  0.27388742141E+01  0.23513656374E+02  0.00000000000E+00 0.  1.
         13    1    4    4    0    0  0.19912007565E+02 -0.85101148385E+02  0.84527006254E+02  0.12158745119E+03  0.00000000000E+00 0. -1.
          1    1    1    2  501    0  0.12887923347E+02  0.22650387885E+03  0.55934760860E+03  0.60360570984E+03  0.00000000000E+00 0. -1.
<scales pt_clust_5="13000.00000" pt_clust_6="13000.00000" pt_clust_7="13000.00000" pt_clust_8="13000.00000" pt_clust_9="13000.00000"></scales>
<clustering>
<clus scale="   81.066">  5  6 -1 -1</clus>
<clus scale="   91.388">  7  8 -1 -1</clus>
<clus scale="  175.640">  1  5  2 -1</clus>
<clus scale="   97.169">  7  9 -1 -1</clus>
<clus scale="  377.429">  2  5  1 -1</clus>
</clustering>
</event>
<event>
 9    2  0.3897980E-005  0.2072366E+03  0.7546771E-02  0.1156809E+00
         -1   -1    0    0    0  501 -0.00000000000E+00  0.00000000000E+00  0.57790824736E+03  0.57790824736E+03  0.00000000000E+00 0.  1.
         21   -1    0    0  501  502  0.00000000000E+00 -0.00000000000E+00 -0.73475714465E+02  0.73475714465E+02  0.00000000000E+00 0. -1.
         24    2    1    2    0    0 -0.94879599892E+02  0.87371302731E+02  0.64910396145E+02  0.16545523143E+03  0.80784844267E+02 0.  0.
         23    2    1    2    0    0 -0.75498088017E+00 -0.44134822454E+02  0.18915431372E+03  0.21445237217E+03  0.90895615853E+02 0.  0.
        -13    1    3    3    0    0 -0.38451720705E+02 -0.97386075105E+01  0.13156810327E+02  0.41790871723E+02  0.00000000000E+00 0.  1.
         14    1    3    3    0    0 -0.56427879187E+02  0.97109910241E+02  0.51753585817E+02  0.12366435971E+03  0.00000000000E+00 0. -1.
        -13    1    4    4    0    0  0.98676581190E+01  0.26902367388E+02  0.64631349181E+02  0.70698793092E+02  0.00000000000E+00 0.  1.
         13    1    4    4    0    0 -0.10622638999E+02 -0.71037189842E+02  0.12452296454E+03  0.14375357908E+03  0.00000000000E+00 0. -1.
         -2    1    1    2    0  502  0.95634580772E+02 -0.43236480276E+02  0.25036782303E+03  0.27147635822E+03  0.00000000000E+00 0.  1.
<scales pt_clust_5="13000.00000" pt_clust_6="13000.00000" pt_clust_7="13000.00000" pt_clust_8="13000.00000" pt_clust_9="13000.00000"></scales>
<clustering>
<clus scale="   80.785">  5  6 -1 -1</clus>
<clus scale="   90.896">  7  8 -1 -1</clus>
<clus scale="  104.954">  7  9 -1 -1</clus>
<clus scale="  152.191">  1  5  2 -1</clus>
<clus scale="  207.237">  2  5  1 -1</clus>
</clustering>
</event>
<event>
 9    2  0.3897980E-005  0.2155311E+03  0.7546771E-02  0.1151279E+00
          2   -1    0    0  502    0 -0.00000000000E+00  0.00000000000E+00  0.11816939312E+04  0.11816939312E+04  0.00000000000E+00 0. -1.
         21   -1    0    0  501  502  0.00000000000E+00 -0.00000000000E+00 -0.29406332434E+02  0.29406332434E+02  0.00000000000E+00 0. -1.
         24    2    1    2    0    0 -0.32773227589E+02  0.12777780583E+03  0.56019113390E+03  0.58099560831E+03  0.79627496931E+02 0.  0.
         23    2    1    2    0    0 -0.26166230649E+02 -0.43077527063E+02  0.31713967546E+03  0.33642245804E+03  0.10031027643E+03 0.  0.
        -11    1    3    3    0    0  0.54302206716E+01  0.27552186608E+02  0.34552763130E+02  0.44525315534E+02  0.00000000000E+00 0.  1.
         12    1    3    3    0    0 -0.38203448260E+02  0.10022561922E+03  0.52563837077E+03  0.53647029278E+03  0.00000000000E+00 0. -1.
        -13    1    4    4    0    0  0.25941320874E+02 -0.36392649135E+02  0.65090768841E+02  0.78956856752E+02  0.00000000000E+00 0.  1.
         13    1    4    4    0    0 -0.52107551523E+02 -0.66848779286E+01  0.25204890662E+03  0.25746560129E+03  0.00000000000E+00 0. -1.
          1    1    1    2  501    0  0.58939458238E+02 -0.84700278767E+02  0.27495678941E+03  0.29368219729E+03  0.00000000000E+00 0. -1.
<scales pt_clust_5="13000.00000" pt_clust_6="13000.00000" pt_clust_7="13000.00000" pt_clust_8="13000.00000" pt_clust_9="13000.00000"></scales>
<clustering>
<clus scale="   79.627">  5  6 -1 -1</clus>
<clus scale="  100.310">  7  8 -1 -1</clus>
<clus scale="  103.189">  7  9 -1 -1</clus>
<clus scale="  154.084">  1  5  2 -1</clus>
<clus scale="  215.531">  2  5  1 -1</clus>
</clustering>
</event>
<event>
 9    2  0.3897980E-005  0.5299274E+03  0.7546771E-02  0.1046876E+00
         -3   -1    0    0    0  501 -0.00000000000E+00  0.00000000000E+00  0.16453261800E+03  0.16453261800E+03  0.00000000000E+00 0.  1.
         21   -1    0    0  501  502  0.00000000000E+00 -0.00000000000E+00 -0.72770168377E+03  0.72770168377E+03  0.00000000000E+00 0.  1.
         24    2    1    2    0    0  0.97319618568E+02  0.93680568558E+02 -0.17506985776E+03  0.23539027555E+03  0.80696775937E+02 0.  0.
         23    2    1    2    0    0  0.43719987609E+02 -0.24454814512E+03 -0.35615409727E+03  0.44786152391E+03  0.10963106766E+03 0.  0.
        -13    1    3    3    0    0  0.29104486457E+02  0.83316029840E+02 -0.10238454466E+03  0.13517110248E+03  0.00000000000E+00 0.  1.
         14    1    3    3    0    0  0.68215132110E+02  0.10364538718E+02 -0.72685313095E+02  0.10021917307E+03  0.00000000000E+00 0. -1.
        -13    1    4    4    0    0  0.36800641804E+02 -0.60090537687E+02 -0.38050594229E+02  0.80081256720E+02  0.00000000000E+00 0. -1.
         13    1    4    4    0    0  0.69193458054E+01 -0.18445760744E+03 -0.31810350304E+03  0.36778026719E+03  0.00000000000E+00 0.  1.
         -4    1    1    2    0  502 -0.14103960618E+03  0.15086757656E+03 -0.31945110750E+02  0.20898250231E+03  0.00000000000E+00 0.  1.
<scales pt_clust_5="13000.00000" pt_clust_6="13000.00000" pt_clust_7="13000.00000" pt_clust_8="13000.00000" pt_clust_9="13000.00000"></scales>
<clustering>
<clus scale="   80.697">  5  6 -1 -1</clus>
<clus scale="  109.631">  7  8 -1 -1</clus>
<clus scale="  157.350">  1  5  2 -1</clus>
<clus scale="  226.072">  7  9 -1 -1</clus>
<clus scale="  529.927">  2  5  1 -1</clus>
</clustering>
</event>
<event>
 9    2  0.3897980E-005  0.1796156E+03  0.7546771E-02  0.1188411E+00
          4   -1    0    0  502    0 -0.00000000000E+00  0.00000000000E+00  0.72715813531E+03  0.72715813531E+03  0.00000000000E+00 0. -1.
         21   -1    0    0  501  502  0.00000000000E+00 -0.00000000000E+00 -0.47210820833E+02  0.47210820833E+02  0.00000000000E+00 0. -1.
         24    2    1    2    0    0  0.79254065885E+02 -0.13809358218E+02  0.59463732725E+02  0.12841103383E+03  0.80508091306E+02 0.  0.
         23    2    1    2    0    0 -0.15522717460E+01 -0.34824527085E+02  0.33759197372E+03  0.34858528486E+03  0.79550002296E+02 0.  0.
        -13    1    3    3    0    0  0.34683573737E+02 -0.46764556010E+02  0.33860648152E+02  0.67352932225E+02  0.00000000000E+00 0.  1.
         14    1    3    3    0    0  0.44570492148E+02  0.32955197792E+02  0.25603084573E+02  0.61058101604E+02  0.00000000000E+00 0. -1.
        -13    1    4    4    0    0 -0.10970457730E+01  0.25959936054E+02  0.10821172550E+03  0.11128746256E+03  0.00000000000E+00 0. -1.
         13    1    4    4    0    0 -0.45522597301E+00 -0.60784463139E+02  0.22938024823E+03  0.23729782230E+03  0.00000000000E+00 0.  1.
          3    1    1    2  501    0 -0.77701794139E+02  0.48633885303E+02  0.28289160803E+03  0.29737263746E+03  0.00000000000E+00 0. -1.
<scales pt_clust_5="13000.00000" pt_clust_6="13000.00000" pt_clust_7="13000.00000" pt_clust_8="13000.00000" pt_clust_9="13000.00000"></scales>
<clustering>
<clus scale="   79.550">  7  8 -1 -1</clus>
<clus scale="   80.508">  5  6 -1 -1</clus>
<clus scale="   91.667">  7  9 -1 -1</clus>
<clus scale="  113.813">  1  5  2 -1</clus>
<clus scale="  179.616">  2  5  1 -1</clus>
</clustering>
</event>
<event>
 9    2  0.3897980E-005  0.6271982E+03  0.7546771E-02  0.1035655E+00
          2   -1    0    0  502    0 -0.00000000000E+00  0.00000000000E+00  0.56620145747E+03  0.56620145747E+03  0.00000000000E+00 0. -1.
         21   -1    0    0  501  502  0.00000000000E+00 -0.00000000000E+00 -0.27492205309E+03  0.27492205309E+03  0.00000000000E+00 0. -1.
         24    2    1    2    0    0  0.98178261941E+02 -0.30440431640E+02  0.14766392555E+03  0.19769287152E+03  0.81928295151E+02 0.  0.
         23    2    1    2    0    0  0.31581502006E+01 -0.25696484773E+03  0.19455499023E+03  0.33445540240E+03  0.89262898710E+02 0.  0.
        -13    1    3    3    0    0  0.30561352444E+02  0.24450981991E+02  0.22301427023E+02  0.45046647276E+02  0.00000000000E+00 0.  1.
         14    1    3    3    0    0  0.67616909498E+02 -0.54891413630E+02  0.12536249853E+03  0.15264622425E+03  0.00000000000E+00 0. -1.
        -13    1    4    4    0    0  0.33970652187E+02 -0.38771873691E+02  0.41137867830E+02  0.65951403087E+02  0.00000000000E+00 0.  1.
         13    1    4    4    0    0 -0.30812501987E+02 -0.21819297404E+03  0.15341712240E+03  0.26850399931E+03  0.00000000000E+00 0. -1.
          1    1    1    2  501    0 -0.10133641214E+03  0.28740527937E+03 -0.50939511392E+02  0.30897523664E+03  0.00000000000E+00 0. -1.
<scales pt_clust_5="13000.00000" pt_clust_6="13000.00000" pt_clust_7="13000.00000" pt_clust_8="13000.00000" pt_clust_9="13000.00000"></scales>
<clustering>
<clus scale="   81.928">  5  6 -1 -1</clus>
<clus scale="   89.263">  7  8 -1 -1</clus>
<clus scale="  131.445">  1  5  2 -1</clus>
<clus scale="  285.913">  7  9 -1 -1</clus>
<clus scale="  627.198">  2  5  1 -1</clus>
</clustering>
</event>
<event>
 9    2  0.3897980E-005  0.2252291E+03  0.7546771E-02  0.1171659E+00
          2   -1    0    0  502    0 -0.00000000000E+00  0.00000000000E+00  0.52900318963E+03  0.52900318963E+03  0.00000000000E+00 0. -1.
         21   -1    0    0  501  502  0.00000000000E+00 -0.00000000000E+00 -0.50330739516E+02  0.50330739516E+02  0.00000000000E+00 0. -1.
         24    2    1    2    0    0 -0.18156072514E+02 -0.16216488354E+02  0.22442976570E+03  0.23967600059E+03  0.80518619375E+02 0.  0.
         23    2    1    2    0    0  0.13668444985E+02 -0.83906171285E+02  0.12459729556E+03  0.17579026052E+03  0.90280992824E+02 0.  0.
        -11    1    3    3    0    0  0.30098193187E+02 -0.17109600201E+02  0.11446720659E+03  0.11958838170E+03  0.00000000000E+00 0.  1.
         12    1    3    3    0    0 -0.48254265701E+02  0.89311184630E+00  0.10996255911E+03  0.12008761890E+03  0.00000000000E+00 0. -1.
        -13    1    4    4    0    0  0.20216273606E+02  0.88594511393E+01  0.56113182890E+02  0.60298232868E+02  0.00000000000E+00 0.  1.
         13    1    4    4    0    0 -0.65478286206E+01 -0.92765622424E+02  0.68484112674E+02  0.11549202766E+03  0.00000000000E+00 0. -1.
          1    1    1    2  501    0  0.44876275288E+01  0.10012265964E+03  0.12964538885E+03  0.16386766802E+03  0.00000000000E+00 0. -1.
<scales pt_clust_5="13000.00000" pt_clust_6="13000.00000" pt_clust_7="13000.00000" pt_clust_8="13000.00000" pt_clust_9="13000.00000"></scales>
<clustering>
<clus scale="   80.519">  5  6 -1 -1</clus>
<clus scale="   84.118">  1  5  2 -1</clus>
<clus scale="   90.281">  7  8 -1 -1</clus>
<clus scale="   92.217">  7  9 -1 -1</clus>
<clus scale="  225.229">  2  5  1 -1</clus>
</clustering>
</event>
<event>
 9    2  0.3897980E-005  0.2803385E+03  0.7546771E-02  0.1139133E+00
         21   -1    0    0  501  502  0.00000000000E+00  0.00000000000E+00  0.14946106794E+03  0.14946106794E+03  0.00000000000E+00 0.  1.
         -1   -1    0    0    0  501 -0.00000000000E+00 -0.00000000000E+00 -0.24284577728E+03  0.24284577728E+03  0.00000000000E+00 0.  1.
         24    2    1    2    0    0 -0.45474652997E+02  0.70881193971E+01 -0.57060004739E+02  0.10962473827E+03  0.81507997146E+02 0.  0.
         23    2    1    2    0    0 -0.11080862531E+02  0.95181164091E+02 -0.83829522246E+02  0.15653045066E+03  0.91061263292E+02 0.  0.
        -13    1    3    3    0    0 -0.66955631714E+02  0.58565310440E+01 -0.56971193070E+02  0.88108299348E+02  0.00000000000E+00 0.  1.
         14    1    3    3    0    0  0.21480978717E+02  0.12315883531E+01 -0.88811668252E-01  0.21516438925E+02  0.00000000000E+00 0. -1.
        -11    1    4    4    0    0 -0.41323015506E+02  0.64084041138E+02 -0.19095309330E+02  0.78606531392E+02  0.00000000000E+00 0.  1.
         11    1    4    4    0    0  0.30242152975E+02  0.31097122954E+02 -0.64734212916E+02  0.77923919270E+02  0.00000000000E+00 0. -1.
         -2    1    1    2    0  502  0.56555515528E+02 -0.10226928349E+03  0.47504817644E+02  0.12615165628E+03  0.00000000000E+00 0.  1.
<scales pt_clust_5="13000.00000" pt_clust_6="13000.00000" pt_clust_7="13000.00000" pt_clust_8="13000.00000" pt_clust_9="13000.00000"></scales>
<clustering>
<clus scale="   81.508">  5  6 -1 -1</clus>
<clus scale="   91.061">  7  8 -1 -1</clus>
<clus scale="   93.604">  2  5  1 -1</clus>
<clus scale="  110.276">  7  9 -1 -1</clus>
<clus scale="  280.339">  1  5  2 -1</clus>
</clustering>
</event>
<event>
 9    2  0.3897980E-005  0.2729574E+03  0.7546771E-02  0.1143904E+00
         21   -1    0    0  501  502  0.00000000000E+00  0.00000000000E+00  0.57748198514E+03  0.57748198514E+03  0.00000000000E+00 0.  1.
          4   -1    0    0  502    0 -0.00000000000E+00 -0.00000000000E+00 -0.69951513801E+02  0.69951513801E+02  0.00000000000E+00 0. -1.
         24    2    1    2    0    0 -0.38296826404E+02 -0.20775147025E+02  0.26261414478E+02  0.94147260470E+02  0.79219890918E+02 0.  0.
         23    2    1    2    0    0  0.63302552235E+02  0.78472841565E+02  0.47084659197E+03  0.48954505826E+03  0.88275992868E+02 0.  0.
        -11    1    3    3    0    0 -0.33343578806E+02 -0.50165650964E+02  0.13529585633E+02  0.61736832375E+02  0.00000000000E+00 0.  1.
         12    1    3    3    0    0 -0.49532475979E+01  0.29390503939E+02  0.12731828845E+02  0.32410428095E+02  0.00000000000E+00 0. -1.
        -13    1    4    4    0    0  0.57376424444E+02  0.23330363629E+02  0.36328484422E+03  0.36852711975E+03  0.00000000000E+00 0.  1.
         13    1    4    4    0    0  0.59261277916E+01  0.55142477936E+02  0.10756174775E+03  0.12101793851E+03  0.00000000000E+00 0. -1.
          3    1    1    2  501    0 -0.25005725831E+02 -0.57697694541E+02  0.10422464886E+02  0.63741180205E+02  0.00000000000E+00 0. -1.
<scales pt_clust_5="13000.00000" pt_clust_6="13000.00000" pt_clust_7="13000.00000" pt_clust_8="13000.00000" pt_clust_9="13000.00000"></scales>
<clustering>
<clus scale="   79.220">  5  6 -1 -1</clus>
<clus scale="   88.276">  7  8 -1 -1</clus>
<clus scale="   62.883">  7  9 -1 -1</clus>
<clus scale="   90.410">  2  5  1 -1</clus>
<clus scale="  272.957">  1  5  2 -1</clus>
</clustering>
</event>
<event>
 9    2  0.3897980E-005  0.8410566E+03  0.7546771E-02  0.9631178E-01
         21   -1    0    0  501  502  0.00000000000E+00  0.00000000000E+00  0.49792277681E+03  0.49792277681E+03  0.00000000000E+00 0. -1.
          2   -1    0    0  502    0 -0.00000000000E+00 -0.00000000000E+00 -0.17170194126E+04  0.17170194126E+04  0.00000000000E+00 0. -1.
         24    2    1    2    0    0 -0.42535708344E+03  0.31868862677E+03 -0.12623504255E+04  0.13727741054E+04  0.92136086508E+02 0.  0.
         23    2    1    2    0    0 -0.72443313977E+02  0.14022354797E+01 -0.17205205978E+03  0.21239034176E+03  0.10128053118E+03 0.  0.
        -11    1    3    3    0    0 -0.12245972373E+03  0.65487300683E+02 -0.24681221757E+03  0.28319823663E+03  0.00000000000E+00 0.  1.
         12    1    3    3    0    0 -0.30289735971E+03  0.25320132608E+03 -0.10155382079E+04  0.10895758688E+04  0.00000000000E+00 0. -1.
        -11    1    4    4    0    0 -0.14292945644E+02 -0.43951629934E+02 -0.95497597096E+02  0.10609347350E+03  0.00000000000E+00 0. -1.
         11    1    4    4    0    0 -0.58150368333E+02  0.45353865414E+02 -0.76554462684E+02  0.10629686826E+03  0.00000000000E+00 0.  1.
          1    1    1    2  501    0  0.49780039742E+03 -0.32009086225E+03  0.21530584951E+03  0.62977774222E+03  0.00000000000E+00 0. -1.
<scales pt_clust_5="13000.00000" pt_clust_6="13000.00000" pt_clust_7="13000.00000" pt_clust_8="13000.00000" pt_clust_9="13000.00000"></scales>
<clustering>
<clus scale="   92.136">  5  6 -1 -1</clus>
<clus scale="  101.281">  7  8 -1 -1</clus>
<clus scale="  539.426">  2  5  1 -1</clus>
<clus scale="  317.411">  7  9 -1 -1</clus>
<clus scale="  841.057">  1  5  2 -1</clus>
</clustering>
</event>
<event>
 9    2  0.3897980E-005  0.1729869E+03  0.7546771E-02  0.1190600E+00
         21   -1    0    0  501  502  0.00000000000E+00  0.00000000000E+00  0.69906450449E+02  0.69906450449E+02  0.00000000000E+00 0. -1.
          2   -1    0    0  502    0 -0.00000000000E+00 -0.00000000000E+00 -0.81102255963E+03  0.81102255963E+03  0.00000000000E+00 0. -1.
         24    2    1    2    0    0 -0.22901462062E+01  0.86447710635E+02 -0.68993173378E+03  0.70052860511E+03  0.85182614698E+02 0.  0.
         23    2    1    2    0    0  0.14972988908E+01 -0.41018257660E+02 -0.77156792453E+02  0.12806465952E+03  0.93609011485E+02 0.  0.
        -11    1    3    3    0    0 -0.12118193836E+01  0.95588667595E+02 -0.43278685008E+03  0.44321904233E+03  0.00000000000E+00 0.  1.
         12    1    3    3    0    0 -0.10783268226E+01 -0.91409569604E+01 -0.25714488370E+03  0.25730956278E+03  0.00000000000E+00 0. -1.
        -13    1    4    4    0    0  0.25998058606E+02 -0.63713595356E+02 -0.51599455574E+02  0.86010610392E+02  0.00000000000E+00 0.  1.
         13    1    4    4    0    0 -0.24500759715E+02  0.22695337697E+02 -0.25557336879E+02  0.42054049129E+02  0.00000000000E+00 0. -1.
          1    1    1    2  501    0  0.79284731543E+00 -0.45429452975E+02  0.25972417055E+02  0.52335745453E+02  0.00000000000E+00 0. -1.
<scales pt_clust_5="13000.00000" pt_clust_6="13000.00000" pt_clust_7="13000.00000" pt_clust_8="13000.00000" pt_clust_9="13000.00000"></scales>
<clustering>
<clus scale="   85.183">  5  6 -1 -1</clus>
<clus scale="   93.609">  7  8 -1 -1</clus>
<clus scale="   45.436">  7  9 -1 -1</clus>
<clus scale="  121.386">  2  5  1 -1</clus>
<clus scale="  172.987">  1  5  2 -1</clus>
</clustering>
</event>
<event>
 9    2  0.3897980E-005  0.3197038E+03  0.7546771E-02  0.1110835E+00
          2   -1    0    0  502    0 -0.00000000000E+00  0.00000000000E+00  0.75028400091E+03  0.75028400091E+03  0.00000000000E+00 0. -1.
         21   -1    0    0  501  502  0.00000000000E+00 -0.00000000000E+00 -0.73528076021E+02  0.73528076021E+02  0.00000000000E+00 0.  1.
         24    2    1    2    0    0  0.72479132846E-01 -0.87945899512E+02  0.32206909309E+03  0.34630475983E+03  0.91999997093E+02 0.  0.
         23    2    1    2    0    0 -0.12066558834E+03 -0.15824760764E+02  0.22742161476E+03  0.27377346279E+03  0.91764431060E+02 0.  0.
        -13    1    3    3    0    0  0.41101913529E+02 -0.28178612551E+02  0.86445550052E+02  0.99780933173E+02  0.00000000000E+00 0.  1.
         14    1    3    3    0    0 -0.41029434396E+02 -0.59767286962E+02  0.23562354304E+03  0.24652382666E+03  0.00000000000E+00 0. -1.
        -13    1    4    4    0    0 -0.10077434788E+03  0.13364296172E+02  0.10413742951E+03  0.14552895873E+03  0.00000000000E+00 0.  1.
         13    1    4    4    0    0 -0.19891240460E+02 -0.29189056936E+02  0.12328418524E+03  0.12824450406E+03  0.00000000000E+00 0. -1.
          1    1    1    2  501    0  0.12059310920E+03  0.10377066028E+03  0.12726521704E+03  0.20373385431E+03  0.00000000000E+00 0. -1.
<scales pt_clust_5="13000.00000" pt_clust_6="13000.00000" pt_clust_7="13000.00000" pt_clust_8="13000.00000" pt_clust_9="13000.00000"></scales>
<clustering>
<clus scale="   91.764">  7  8 -1 -1</clus>
<clus scale="   92.000">  5  6 -1 -1</clus>
<clus scale="  127.273">  1  5  2 -1</clus>
<clus scale="  138.859">  7  9 -1 -1</clus>
<clus scale="  319.704">  2  5  1 -1</clus>
</clustering>
</event>
<event>
 9    2  0.3897980E-005  0.3131511E+03  0.7546771E-02  0.1122273E+00
         21   -1    0    0  501  502  0.00000000000E+00  0.00000000000E+00  0.14120532981E+03  0.14120532981E+03  0.00000000000E+00 0. -1.
          2   -1    0    0  502    0 -0.00000000000E+00 -0.00000000000E+00 -0.31942809144E+03  0.31942809144E+03  0.00000000000E+00 0. -1.
         24    2    1    2    0    0  0.42022998999E+02  0.45437417534E+02 -0.88963904381E+02  0.13500981986E+03  0.80514494465E+02 0.  0.
         23    2    1    2    0    0 -0.41369789992E+02 -0.14008780942E+03  0.26473940031E+02  0.17611372300E+03  0.94758218939E+02 0.  0.
        -13    1    3    3    0    0 -0.89755765069E+01  0.49373682556E+02 -0.48501676664E+02  0.69790645089E+02  0.00000000000E+00 0.  1.
         14    1    3    3    0    0  0.50998575506E+02 -0.39362650224E+01 -0.40462227717E+02  0.65219174771E+02  0.00000000000E+00 0. -1.
        -13    1    4    4    0    0  0.21695062125E+02 -0.85527730270E+02 -0.12200608495E+01  0.88244869053E+02  0.00000000000E+00 0.  1.
         13    1    4    4    0    0 -0.63064852117E+02 -0.54560079152E+02  0.27694000881E+02  0.87868853950E+02  0.00000000000E+00 0. -1.
          1    1    1    2  501    0 -0.65320900677E+00  0.94650391889E+02 -0.11573279728E+03  0.14950987838E+03  0.00000000000E+00 0. -1.
<scales pt_clust_5="13000.00000" pt_clust_6="13000.00000" pt_clust_7="13000.00000" pt_clust_8="13000.00000" pt_clust_9="13000.00000"></scales>
<clustering>
<clus scale="   80.514">  5  6 -1 -1</clus>
<clus scale="   94.758">  7  8 -1 -1</clus>
<clus scale="   94.653">  7  9 -1 -1</clus>
<clus scale="  101.553">  2  5  1 -1</clus>
<clus scale="  313.151">  1  5  2 -1</clus>
</clustering>
</event>
<event>
 9    2  0.3897980E-005  0.2509561E+03  0.7546771E-02  0.1147234E+00
         -1   -1    0    0    0  501 -0.00000000000E+00  0.00000000000E+00  0.67598686735E+02  0.67598686735E+02  0.00000000000E+00 0.  1.
         21   -1    0    0  501  502  0.00000000000E+00 -0.00000000000E+00 -0.55703501744E+03  0.55703501744E+03  0.00000000000E+00 0.  1.
         24    2    1    2    0    0  0.50093832302E+02 -0.49919532171E+02 -0.27247956381E+03  0.29289701978E+03  0.80883865990E+02 0.  0.
         23    2    1    2    0    0  0.30515907710E+01 -0.64841539411E+02 -0.63943225546E+02  0.13322299877E+03  0.97189988518E+02 0.  0.
        -13    1    3    3    0    0  0.70377803170E+02 -0.24363760732E+02 -0.19982899925E+03  0.21325631750E+03  0.00000000000E+00 0.  1.
         14    1    3    3    0    0 -0.20283970869E+02 -0.25555771439E+02 -0.72650564563E+02  0.79640702278E+02  0.00000000000E+00 0. -1.
        -11    1    4    4    0    0 -0.41302429325E+02 -0.56743284825E+02 -0.28001471337E+02  0.75563042805E+02  0.00000000000E+00 0. -1.
         11    1    4    4    0    0  0.44354020096E+02 -0.80982545858E+01 -0.35941754209E+02  0.57659955963E+02  0.00000000000E+00 0.  1.
         -2    1    1    2    0  502 -0.53145423073E+02  0.11476107158E+03 -0.15301354135E+03  0.19851368563E+03  0.00000000000E+00 0.  1.
<scales pt_clust_5="13000.00000" pt_clust_6="13000.00000" pt_clust_7="13000.00000" pt_clust_8="13000.00000" pt_clust_9="13000.00000"></scales>
<clustering>
<clus scale="   80.884">  5  6 -1 -1</clus>
<clus scale="   97.190">  7  8 -1 -1</clus>
<clus scale="  107.441">  1  5  2 -1</clus>
<clus scale="  100.637">  7  9 -1 -1</clus>
<clus scale="  250.956">  2  5  1 -1</clus>
</clustering>
</event>
<event>
 9    2  0.3897980E-005  0.2256242E+03  0.7546771E-02  0.1155019E+00
         -3   -1    0    0    0  501 -0.00000000000E+00  0.00000000000E+00  0.37874613176E+03  0.37874613176E+03  0.00000000000E+00 0.  1.
         21   -1    0    0  501  502  0.00000000000E+00 -0.00000000000E+00 -0.80425882994E+02  0.80425882994E+02  0.00000000000E+00 0. -1.
         24    2    1    2    0    0 -0.73819345272E+02  0.59994857023E+02  0.94214481167E+02  0.15492630751E+03  0.77955844491E+02 0.  0.
         23    2    1    2    0    0  0.86597431276E+02 -0.97873870599E+02  0.20967750840E+03  0.26388305809E+03  0.92688732700E+02 0.  0.
        -11    1    3    3    0    0 -0.27441048838E+02 -0.10969855747E+02  0.19332500114E+01  0.29615643705E+02  0.00000000000E+00 0.  1.
         12    1    3    3    0    0 -0.46378296434E+02  0.70964712770E+02  0.92281231156E+02  0.12531066380E+03  0.00000000000E+00 0. -1.
        -11    1    4    4    0    0  0.10635105155E+03 -0.87062671664E+02  0.17472213917E+03  0.22230222869E+03  0.00000000000E+00 0.  1.
         11    1    4    4    0    0 -0.19753620270E+02 -0.10811198935E+02  0.34955369226E+02  0.41580829403E+02  0.00000000000E+00 0. -1.
         -4    1    1    2    0  502 -0.12778086004E+02  0.37879013576E+02 -0.55717408003E+01  0.40362649157E+02  0.00000000000E+00 0.  1.
<scales pt_clust_5="13000.00000" pt_clust_6="13000.00000" pt_clust_7="13000.00000" pt_clust_8="13000.00000" pt_clust_9="13000.00000"></scales>
<clustering>
<clus scale="   77.956">  5  6 -1 -1</clus>
<clus scale="   92.689">  7  8 -1 -1</clus>
<clus scale="   39.976">  7  9 -1 -1</clus>
<clus scale="  122.987">  1  5  2 -1</clus>
<clus scale="  225.624">  2  5  1 -1</clus>
</clustering>
</event>
<event>
 9    2  0.3897980E-005  0.2847600E+03  0.7546771E-02  0.1132007E+00
         21   -1    0    0  501  502  0.00000000000E+00  0.00000000000E+00  0.32125992767E+03  0.32125992767E+03  0.00000000000E+00 0. -1.
          2   -1    0    0  502    0 -0.00000000000E+00 -0.00000000000E+00 -0.11895934018E+03  0.11895934018E+03  0.00000000000E+00 0. -1.
         24    2    1    2    0    0  0.54712115683E+02  0.42655008368E+02  0.56641954863E+02  0.12036820668E+03  0.80419703969E+02 0.  0.
         23    2    1    2    0    0  0.73168766382E+02  0.24860564794E+02  0.84235892607E+01  0.12048875344E+03  0.92059039714E+02 0.  0.
        -11    1    3    3    0    0  0.41725957703E+02  0.40844026775E+02 -0.38074470974E+01  0.58513132909E+02  0.00000000000E+00 0.  1.
         12    1    3    3    0    0  0.12986157980E+02  0.18109815930E+01  0.60449401960E+02  0.61855073767E+02  0.00000000000E+00 0. -1.
        -13    1    4    4    0    0  0.14081260364E+02  0.31103607641E+02 -0.33451535564E+02  0.47798760793E+02  0.00000000000E+00 0. -1.
         13    1    4    4    0    0  0.59087506018E+02 -0.62430428471E+01  0.41875124825E+02  0.72689992644E+02  0.00000000000E+00 0.  1.
          1    1    1    2  501    0 -0.12788088206E+03 -0.67515573163E+02  0.13723504337E+03  0.19936230773E+03  0.00000000000E+00 0. -1.
<scales pt_clust_5="13000.00000" pt_clust_6="13000.00000" pt_clust_7="13000.00000" pt_clust_8="13000.00000" pt_clust_9="13000.00000"></scales>
<clustering>
<clus scale="   80.420">  5  6 -1 -1</clus>
<clus scale="   92.059">  7  8 -1 -1</clus>
<clus scale="  106.208">  2  5  1 -1</clus>
<clus scale="  120.329">  7  9 -1 -1</clus>
<clus scale="  284.760">  1  5  2 -1</clus>
</clustering>
</event>
<event>
 9    2  0.3897980E-005  0.2931965E+03  0.7546771E-02  0.1132498E+00
         21   -1    0    0  501  502  0.00000000000E+00  0.00000000000E+00  0.13076331491E+03  0.13076331491E+03  0.00000000000E+00 0. -1.
          2   -1    0    0  502    0 -0.00000000000E+00 -0.00000000000E+00 -0.57704109090E+03  0.57704109090E+03  0.00000000000E+00 0. -1.
         24    2    1    2    0    0 -0.21837113080E+02 -0.48140252926E+02 -0.39949340371E+03  0.41089878746E+03  0.80302493531E+02 0.  0.
         23    2    1    2    0    0  0.38406466117E+01  0.13382805409E+03 -0.10352555192E+03  0.19257042035E+03  0.91875612992E+02 0.  0.
        -11    1    3    3    0    0  0.29704895002E+02 -0.85372273127E+01 -0.14243560091E+03  0.14575035315E+03  0.00000000000E+00 0.  1.
         12    1    3    3    0    0 -0.51542008081E+02 -0.39603025614E+02 -0.25705780281E+03  0.26514843431E+03  0.00000000000E+00 0. -1.
        -13    1    4    4    0    0 -0.12878601634E+02  0.63532614402E+02 -0.10131683320E+03  0.12028030663E+03  0.00000000000E+00 0. -1.
         13    1    4    4    0    0  0.16719248245E+02  0.70295439691E+02 -0.22087187247E+01  0.72290113720E+02  0.00000000000E+00 0.  1.
          1    1    1    2  501    0  0.17996466468E+02 -0.85687801167E+02  0.56741179647E+02  0.10433519800E+03  0.00000000000E+00 0. -1.
<scales pt_clust_5="13000.00000" pt_clust_6="13000.00000" pt_clust_7="13000.00000" pt_clust_8="13000.00000" pt_clust_9="13000.00000"></scales>
<clustering>
<clus scale="   80.302">  5  6 -1 -1</clus>
<clus scale="   91.876">  7  8 -1 -1</clus>
<clus scale="   87.557">  7  9 -1 -1</clus>
<clus scale="   96.140">  2  5  1 -1</clus>
<clus scale="  293.196">  1  5  2 -1</clus>
</clustering>
</event>
<event>
 9    2  0.3897980E-005  0.6690604E+03  0.7546771E-02  0.1020502E+00
          2   -1    0    0  502    0 -0.00000000000E+00  0.00000000000E+00  0.91118918292E+03  0.91118918292E+03  0.00000000000E+00 0. -1.
         21   -1    0    0  501  502  0.00000000000E+00 -0.00000000000E+00 -0.84850686816E+03  0.84850686816E+03  0.00000000000E+00 0. -1.
         24    2    1    2    0    0  0.32718732834E+02  0.14572131587E+03  0.76854250370E+03  0.78713222914E+03  0.81328646748E+02 0.  0.
         23    2    1    2    0    0 -0.11297500360E+03  0.97120630291E+01  0.83237089514E+02  0.16430945658E+03  0.84920603178E+02 0.  0.
        -13    1    3    3    0    0  0.44787500375E+02  0.62581992738E+02  0.24234696587E+03  0.25427244811E+03  0.00000000000E+00 0.  1.
         14    1    3    3    0    0 -0.12068767540E+02  0.83139323127E+02  0.52619553784E+03  0.53285978103E+03  0.00000000000E+00 0. -1.
        -13    1    4    4    0    0 -0.21587385733E+02  0.39930512988E+02  0.27945659325E+02  0.53304980681E+02  0.00000000000E+00 0. -1.
         13    1    4    4    0    0 -0.91387617863E+02 -0.30218449959E+02  0.55291430188E+02  0.11100447590E+03  0.00000000000E+00 0.  1.
          1    1    1    2  501    0  0.80256270762E+02 -0.15543337889E+03 -0.78909727845E+03  0.80825436536E+03  0.00000000000E+00 0. -1.
<scales pt_clust_5="13000.00000" pt_clust_6="13000.00000" pt_clust_7="13000.00000" pt_clust_8="13000.00000" pt_clust_9="13000.00000"></scales>
<clustering>
<clus scale="   81.329">  5  6 -1 -1</clus>
<clus scale="   84.921">  7  8 -1 -1</clus>
<clus scale="  170.058">  1  5  2 -1</clus>
<clus scale="  166.851">  7  9 -1 -1</clus>
<clus scale="  669.060">  2  5  1 -1</clus>
</clustering>
</event>
<event>
 9    2  0.3897980E-005  0.1955706E+03  0.7546771E-02  0.1175981E+00
          4   -1    0    0  502    0 -0.00000000000E+00  0.00000000000E+00  0.87769662130E+02  0.87769662130E+02  0.00000000000E+00 0. -1.
         21   -1    0    0  501  502  0.00000000000E+00 -0.00000000000E+00 -0.45405045316E+03  0.45405045316E+03  0.00000000000E+00 0. -1.
         24    2    1    2    0    0 -0.37059387536E+02  0.75730623301E+02  0.10872552031E+02  0.11697602349E+03  0.80353295976E+02 0.  0.
         23    2    1    2    0    0  0.40675684062E+02  0.87512685950E+01 -0.12833551777E+03  0.16205029841E+03  0.89773036700E+02 0.  0.
        -11    1    3    3    0    0 -0.50824400918E+01  0.20917114906E+02 -0.33303716805E+02  0.39654690092E+02  0.00000000000E+00 0.  1.
         12    1    3    3    0    0 -0.31976947444E+02  0.54813508395E+02  0.44176268836E+02  0.77321333400E+02  0.00000000000E+00 0. -1.
        -13    1    4    4    0    0  0.38318632237E+02  0.38412679187E+02 -0.11913018263E+03  0.13090397975E+03  0.00000000000E+00 0. -1.
         13    1    4    4    0    0  0.23570518253E+01 -0.29661410592E+02 -0.92053351372E+01  0.31146318668E+02  0.00000000000E+00 0.  1.
          3    1    1    2  501    0 -0.36162965262E+01 -0.84481891896E+02 -0.24881782529E+03  0.26279379338E+03  0.00000000000E+00 0. -1.
<scales pt_clust_5="13000.00000" pt_clust_6="13000.00000" pt_clust_7="13000.00000" pt_clust_8="13000.00000" pt_clust_9="13000.00000"></scales>
<clustering>
<clus scale="   80.353">  5  6 -1 -1</clus>
<clus scale="   89.773">  7  8 -1 -1</clus>
<clus scale="   84.559">  7  9 -1 -1</clus>
<clus scale="  116.470">  1  5  2 -1</clus>
<clus scale="  195.571">  2  5  1 -1</clus>
</clustering>
</event>
<event>
 9    2  0.3897980E-005  0.1287235E+03  0.7546771E-02  0.1251503E+00
          2   -1    0    0  502    0 -0.00000000000E+00  0.00000000000E+00  0.42814842676E+03  0.42814842676E+03  0.00000000000E+00 0. -1.
         21   -1    0    0  501  502  0.00000000000E+00 -0.00000000000E+00 -0.31354396498E+02  0.31354396498E+02  0.00000000000E+00 0.  1.
         24    2    1    2    0    0  0.13699256112E+02 -0.15264265553E+02  0.25544989907E+03  0.26832773579E+03  0.79526444915E+02 0.  0.
         23    2    1    2    0    0  0.87819103806E+01  0.36581000106E+02  0.10434539042E+03  0.14291834868E+03  0.90124371679E+02 0.  0.
        -11    1    3    3    0    0 -0.60413887418E+01  0.27562029403E+02  0.15254043579E+03  0.15512816764E+03  0.00000000000E+00 0.  1.
         12    1    3    3    0    0  0.19740644854E+02 -0.42826294956E+02  0.10290946328E+03  0.11319956816E+03  0.00000000000E+00 0. -1.
        -11    1    4    4    0    0  0.66087270491E+01  0.62429040115E+02  0.42382765441E+02  0.75745357147E+02  0.00000000000E+00 0.  1.
         11    1    4    4    0    0  0.21731833316E+01 -0.25848040009E+02  0.61962624975E+02  0.67172991537E+02  0.00000000000E+00 0. -1.
          1    1    1    2  501    0 -0.22481166493E+02 -0.21316734553E+02  0.36998740780E+02  0.48256738785E+02  0.00000000000E+00 0. -1.
<scales pt_clust_5="13000.00000" pt_clust_6="13000.00000" pt_clust_7="13000.00000" pt_clust_8="13000.00000" pt_clust_9="13000.00000"></scales>
<clustering>
<clus scale="   79.526">  5  6 -1 -1</clus>
<clus scale="   82.129">  1  5  2 -1</clus>
<clus scale="   90.124">  7  8 -1 -1</clus>
<clus scale="   31.566">  7  9 -1 -1</clus>
<clus scale="  128.724">  2  5  1 -1</clus>
</clustering>
</event>
<event>
 9    2  0.3897980E-005  0.4746965E+03  0.7546771E-02  0.1064123E+00
         21   -1    0    0  501  502  0.00000000000E+00  0.00000000000E+00  0.35440577725E+03  0.35440577725E+03  0.00000000000E+00 0. -1.
          2   -1    0    0  502    0 -0.00000000000E+00 -0.00000000000E+00 -0.26413711697E+03  0.26413711697E+03  0.00000000000E+00 0. -1.
         24    2    1    2    0    0 -0.35865393154E+02 -0.10206191822E+03 -0.39459842980E+01  0.13458712146E+03  0.79969749872E+02 0.  0.
         23    2    1    2    0    0 -0.17083657195E+03 -0.56284580497E+02  0.94188821787E+02  0.22357275353E+03  0.93595692502E+02 0.  0.
        -13    1    3    3    0    0  0.18695431787E+01 -0.76526929598E+02  0.25092639629E+02  0.80557474569E+02  0.00000000000E+00 0.  1.
         14    1    3    3    0    0 -0.37734936333E+02 -0.25534988626E+02 -0.29038623927E+02  0.54029646896E+02  0.00000000000E+00 0. -1.
        -13    1    4    4    0    0 -0.26335441170E+02  0.22192360596E+02  0.75893831774E+00  0.34447529923E+02  0.00000000000E+00 0.  1.
         13    1    4    4    0    0 -0.14450113078E+03 -0.78476941093E+02  0.93429883469E+02  0.18912522361E+03  0.00000000000E+00 0. -1.
          1    1    1    2  501    0  0.20670196510E+03  0.15834649872E+03  0.25822786593E-01  0.26038301923E+03  0.00000000000E+00 0. -1.
<scales pt_clust_5="13000.00000" pt_clust_6="13000.00000" pt_clust_7="13000.00000" pt_clust_8="13000.00000" pt_clust_9="13000.00000"></scales>
<clustering>
<clus scale="   79.970">  5  6 -1 -1</clus>
<clus scale="   93.596">  7  8 -1 -1</clus>
<clus scale="  134.529">  2  5  1 -1</clus>
<clus scale="  203.777">  7  9 -1 -1</clus>
<clus scale="  474.697">  1  5  2 -1</clus>
</clustering>
</event>
<event>
 9    2  0.3897980E-005  0.3437906E+03  0.7546771E-02  0.1096061E+00
         -3   -1    0    0    0  501 -0.00000000000E+00  0.00000000000E+00  0.89032765225E+03  0.89032765225E+03  0.00000000000E+00 0.  1.
         21   -1    0    0  501  502  0.00000000000E+00 -0.00000000000E+00 -0.76381690514E+02  0.76381690514E+02  0.00000000000E+00 0.  1.
         24    2    1    2    0    0  0.40196163945E+02  0.12049323739E+03  0.11878878132E+03  0.19118664022E+03  0.79417913473E+02 0.  0.
         23    2    1    2    0    0 -0.10784210847E+03 -0.61713098523E+01  0.58572975505E+03  0.60341855283E+03  0.96781188888E+02 0.  0.
        -11    1    3    3    0    0  0.58449237971E+02  0.51225807016E+02  0.54378346953E+02  0.94854632682E+02  0.00000000000E+00 0.  1.
         12    1    3    3    0    0 -0.18253074026E+02  0.69267430370E+02  0.64410434369E+02  0.96332007542E+02  0.00000000000E+00 0. -1.
        -11    1    4    4    0    0 -0.97520701803E+02  0.34195478249E+02  0.41227296869E+03  0.42502778583E+03  0.00000000000E+00 0.  1.
         11    1    4    4    0    0 -0.10321406670E+02 -0.40366788101E+02  0.17345678636E+03  0.17839076700E+03  0.00000000000E+00 0. -1.
         -4    1    1    2    0  502  0.67645944528E+02 -0.11432192753E+03  0.10942742537E+03  0.17210414971E+03  0.00000000000E+00 0.  1.
<scales pt_clust_5="13000.00000" pt_clust_6="13000.00000" pt_clust_7="13000.00000" pt_clust_8="13000.00000" pt_clust_9="13000.00000"></scales>
<clustering>
<clus scale="   79.418">  5  6 -1 -1</clus>
<clus scale="   96.781">  7  8 -1 -1</clus>
<clus scale="  132.836">  7  9 -1 -1</clus>
<clus scale="  149.805">  1  5  2 -1</clus>
<clus scale="  343.791">  2  5  1 -1</clus>
</clustering>
</event>
<event>
 9    2  0.3897980E-005  0.2539725E+03  0.7546771E-02  0.1146939E+00
         21   -1    0    0  501  502  0.00000000000E+00  0.00000000000E+00  0.33617499241E+02  0.33617499241E+02  0.00000000000E+00 0. -1.
          2   -1    0    0  502    0 -0.00000000000E+00 -0.00000000000E+00 -0.15057219635E+04  0.15057219635E+04  0.00000000000E+00 0. -1.
         24    2    1    2    0    0  0.46590317415E+02 -0.49158438324E+02 -0.98017496930E+03  0.98571806178E+03  0.79434986887E+02 0.  0.
         23    2    1    2    0    0  0.21643510458E+02 -0.98386027888E+01 -0.60680029084E+02  0.11303927701E+03  0.92361098781E+02 0.  0.
        -13    1    3    3    0    0  0.23918540703E+02  0.16886971874E+02 -0.16671612433E+03  0.16926763577E+03  0.00000000000E+00 0.  1.
         14    1    3    3    0    0  0.22671776711E+02 -0.66045410198E+02 -0.81345884497E+03  0.81645042600E+03  0.00000000000E+00 0. -1.
        -13    1    4    4    0    0  0.28548347140E+02  0.37575861917E+02 -0.25886060270E+02  0.53824173375E+02  0.00000000000E+00 0.  1.
         13    1    4    4    0    0 -0.69048366822E+01 -0.47414464705E+02 -0.34793968814E+02  0.59215103637E+02  0.00000000000E+00 0. -1.
          1    1    1    2  501    0 -0.68233827872E+02  0.58997041113E+02 -0.43124946591E+03  0.44058212399E+03  0.00000000000E+00 0. -1.
<scales pt_clust_5="13000.00000" pt_clust_6="13000.00000" pt_clust_7="13000.00000" pt_clust_8="13000.00000" pt_clust_9="13000.00000"></scales>
<clustering>
<clus scale="   79.435">  5  6 -1 -1</clus>
<clus scale="   92.361">  7  8 -1 -1</clus>
<clus scale="   90.203">  7  9 -1 -1</clus>
<clus scale="  104.389">  2  5  1 -1</clus>
<clus scale="  253.972">  1  5  2 -1</clus>
</clustering>
</event>
<event>
 9    2  0.3897980E-005  0.4604328E+03  0.7546771E-02  0.1081393E+00
          2   -1    0    0  502    0 -0.00000000000E+00  0.00000000000E+00  0.92306759489E+03  0.92306759489E+03  0.00000000000E+00 0. -1.
         21   -1    0    0  501  502  0.00000000000E+00 -0.00000000000E+00 -0.17811878201E+03  0.17811878201E+03  0.00000000000E+00 0.  1.
         24    2    1    2    0    0 -0.16294095479E+02  0.41987366129E+02  0.61628827342E+03  0.62311533694E+03  0.80206300928E+02 0.  0.
         23    2    1    2    0    0 -0.12988334654E+03  0.11891552400E+03 -0.40938523037E+02  0.20235120642E+03  0.90881585119E+02 0.  0.
        -13    1    3    3    0    0 -0.21589612722E+02 -0.36467539353E+01  0.45635015366E+02  0.50615855413E+02  0.00000000000E+00 0.  1.
         14    1    3    3    0    0  0.52955172432E+01  0.45634120064E+02  0.57065325805E+03  0.57249948152E+03  0.00000000000E+00 0. -1.
        -11    1    4    4    0    0 -0.11426599616E+03  0.65533340175E+02  0.25482082769E+01  0.13174911733E+03  0.00000000000E+00 0. -1.
         11    1    4    4    0    0 -0.15617350383E+02  0.53382183823E+02 -0.43486731314E+02  0.70602089085E+02  0.00000000000E+00 0.  1.
          1    1    1    2  501    0  0.14617744202E+03 -0.16090289013E+03  0.16959906250E+03  0.27571983354E+03  0.00000000000E+00 0. -1.
<scales pt_clust_5="13000.00000" pt_clust_6="13000.00000" pt_clust_7="13000.00000" pt_clust_8="13000.00000" pt_clust_9="13000.00000"></scales>
<clustering>
<clus scale="   80.206">  5  6 -1 -1</clus>
<clus scale="   90.882">  7  8 -1 -1</clus>
<clus scale="   91.986">  1  5  2 -1</clus>
<clus scale="  186.914">  7  9 -1 -1</clus>
<clus scale="  460.433">  2  5  1 -1</clus>
</clustering>
</event>
<event>
 9    2  0.3897980E-005  0.1968532E+03  0.7546771E-02  0.1182860E+00
         21   -1    0    0  501  502  0.00000000000E+00  0.00000000000E+00  0.21374221491E+02  0.21374221491E+02  0.00000000000E+00 0. -1.
          2   -1    0    0  502    0 -0.00000000000E+00 -0.00000000000E+00 -0.12776649438E+04  0.12776649438E+04  0.00000000000E+00 0. -1.
         24    2    1    2    0    0 -0.56922863639E+02  0.24055750414E+02 -0.74095203650E+03  0.74738242890E+03  0.75839851676E+02 0.  0.
         23    2    1    2    0    0 -0.12508009562E+02  0.78753118198E+01 -0.14300701424E+03  0.17156317878E+03  0.93618627151E+02 0.  0.
        -11    1    3    3    0    0 -0.19979070526E+02 -0.16752079607E+02 -0.79987064222E+02  0.84129221280E+02  0.00000000000E+00 0.  1.
         12    1    3    3    0    0 -0.36943793114E+02  0.40807830021E+02 -0.66096497228E+03  0.66325320762E+03  0.00000000000E+00 0. -1.
        -13    1    4    4    0    0 -0.16636039577E+02 -0.27809472704E+02 -0.10184102197E+02  0.33968228132E+02  0.00000000000E+00 0. -1.
         13    1    4    4    0    0  0.41280300149E+01  0.35684784523E+02 -0.13282291205E+03  0.13759495064E+03  0.00000000000E+00 0.  1.
          1    1    1    2  501    0  0.69430873202E+02 -0.31931062234E+02 -0.37233167159E+03  0.38009355764E+03  0.00000000000E+00 0. -1.
<scales pt_clust_5="13000.00000" pt_clust_6="13000.00000" pt_clust_7="13000.00000" pt_clust_8="13000.00000" pt_clust_9="13000.00000"></scales>
<clustering>
<clus scale="   75.840">  5  6 -1 -1</clus>
<clus scale="   93.619">  7  8 -1 -1</clus>
<clus scale="   76.421">  7  9 -1 -1</clus>
<clus scale="   97.829">  2  5  1 -1</clus>
<clus scale="  196.853">  1  5  2 -1</clus>
</clustering>
</event>
<event>
 9    2  0.3897980E-005  0.3077018E+03  0.7546771E-02  0.1104096E+00
         21   -1    0    0  501  502  0.00000000000E+00  0.00000000000E+00  0.43943066208E+03  0.43943066208E+03  0.00000000000E+00 0.  1.
          2   -1    0    0  502    0 -0.00000000000E+00 -0.00000000000E+00 -0.13466371538E+03  0.13466371538E+03  0.00000000000E+00 0. -1.
         24    2    1    2    0    0 -0.66613083292E+02 -0.13454043296E+03  0.16320773270E+03  0.23539183138E+03  0.78956439259E+02 0.  0.
         23    2    1    2    0    0 -0.69011699166E+01  0.15066247726E+02 -0.46301729926E+02  0.10424538451E+03  0.91916440486E+02 0.  0.
        -13    1    3    3    0    0 -0.82890987549E+02 -0.10652230174E+03  0.14550408503E+03  0.19846751710E+03  0.00000000000E+00 0.  1.
         14    1    3    3    0    0  0.16277904257E+02 -0.28018131213E+02  0.17703647672E+02  0.36924314274E+02  0.00000000000E+00 0. -1.
        -13    1    4    4    0    0 -0.31408015112E+01  0.50603696908E+02 -0.46074495658E+02  0.68508816404E+02  0.00000000000E+00 0. -1.
         13    1    4    4    0    0 -0.37603684053E+01 -0.35537449181E+02 -0.22723426742E+00  0.35736568110E+02  0.00000000000E+00 0.  1.
          1    1    1    2  501    0  0.73514253208E+02  0.11947418523E+03  0.18786094392E+03  0.23445716157E+03  0.00000000000E+00 0. -1.
<scales pt_clust_5="13000.00000" pt_clust_6="13000.00000" pt_clust_7="13000.00000" pt_clust_8="13000.00000" pt_clust_9="13000.00000"></scales>
<clustering>
<clus scale="   78.956">  5  6 -1 -1</clus>
<clus scale="   91.916">  7  8 -1 -1</clus>
<clus scale="  140.280">  7  9 -1 -1</clus>
<clus scale="  169.625">  2  5  1 -1</clus>
<clus scale="  307.702">  1  5  2 -1</clus>
</clustering>
</event>
<event>
 9    2  0.3897980E-005  0.2867384E+03  0.7546771E-02  0.1109797E+00
         21   -1    0    0  501  502  0.00000000000E+00  0.00000000000E+00  0.98326284825E+02  0.98326284825E+02  0.00000000000E+00 0.  1.
          2   -1    0    0  502    0 -0.00000000000E+00 -0.00000000000E+00 -0.59511005383E+03  0.59511005383E+03  0.00000000000E+00 0. -1.
         24    2    1    2    0    0 -0.82597381552E+02  0.14029045751E+03 -0.10985973010E+03  0.21184611155E+03  0.79409538299E+02 0.  0.
         23    2    1    2    0    0 -0.15733219142E+02  0.25303170225E+02 -0.14161070996E+03  0.16971078576E+03  0.88658744746E+02 0.  0.
        -11    1    3    3    0    0 -0.90724910661E+02  0.98869167204E+02 -0.61362008387E+02  0.14755140701E+03  0.00000000000E+00 0.  1.
         12    1    3    3    0    0  0.81275291086E+01  0.41421290303E+02 -0.48497721714E+02  0.64294704534E+02  0.00000000000E+00 0. -1.
        -11    1    4    4    0    0 -0.50712318284E+02  0.15853302232E+02 -0.10765934026E+03  0.12005665314E+03  0.00000000000E+00 0. -1.
         11    1    4    4    0    0  0.34979099142E+02  0.94498679933E+01 -0.33951369693E+02  0.49654132617E+02  0.00000000000E+00 0.  1.
          1    1    1    2  501    0  0.98330600694E+02 -0.16559362773E+03 -0.24531332895E+03  0.31187944135E+03  0.00000000000E+00 0. -1.
<scales pt_clust_5="13000.00000" pt_clust_6="13000.00000" pt_clust_7="13000.00000" pt_clust_8="13000.00000" pt_clust_9="13000.00000"></scales>
<clustering>
<clus scale="   79.410">  5  6 -1 -1</clus>
<clus scale="   88.659">  7  8 -1 -1</clus>
<clus scale="  181.134">  2  5  1 -1</clus>
<clus scale="   88.146">  7  9 -1 -1</clus>
<clus scale="  286.738">  1  5  2 -1</clus>
</clustering>
</event>
<event>
 9    2  0.3897980E-005  0.3499013E+03  0.7546771E-02  0.1109761E+00
         21   -1    0    0  501  502  0.00000000000E+00  0.00000000000E+00  0.26077503262E+03  0.26077503262E+03  0.00000000000E+00 0. -1.
          4   -1    0    0  502    0 -0.00000000000E+00 -0.00000000000E+00 -0.27539188511E+03  0.27539188511E+03  0.00000000000E+00 0. -1.
         24    2    1    2    0    0  0.48964742724E+02 -0.30043816719E+02  0.12456811449E+03  0.15959903880E+03  0.81574880238E+02 0.  0.
         23    2    1    2    0    0 -0.39448405711E+02  0.10445966730E+03 -0.22209814170E+03  0.26475162773E+03  0.91092486134E+02 0.  0.
        -11    1    3    3    0    0  0.16560079228E+02 -0.46881342896E+02  0.29629301218E+02  0.57879115633E+02  0.00000000000E+00 0.  1.
         12    1    3    3    0    0  0.32404663496E+02  0.16837526177E+02  0.94938813270E+02  0.10171992317E+03  0.00000000000E+00 0. -1.
        -13    1    4    4    0    0  0.85237446616E+01  0.55876654776E+02 -0.37240758515E+02  0.67688469231E+02  0.00000000000E+00 0.  1.
         13    1    4    4    0    0 -0.47972150373E+02  0.48583012529E+02 -0.18485738319E+03  0.19706315850E+03  0.00000000000E+00 0. -1.
          3    1    1    2  501    0 -0.95163370128E+01 -0.74415850585E+02  0.82913174725E+02  0.11181625120E+03  0.00000000000E+00 0. -1.
<scales pt_clust_5="13000.00000" pt_clust_6="13000.00000" pt_clust_7="13000.00000" pt_clust_8="13000.00000" pt_clust_9="13000.00000"></scales>
<clustering>
<clus scale="   81.575">  5  6 -1 -1</clus>
<clus scale="   91.092">  7  8 -1 -1</clus>
<clus scale="   75.022">  7  9 -1 -1</clus>
<clus scale="   99.773">  2  5  1 -1</clus>
<clus scale="  349.901">  1  5  2 -1</clus>
</clustering>
</event>
<event>
 9    2  0.3897980E-005  0.5699797E+03  0.7546771E-02  0.1027785E+00
          2   -1    0    0  502    0 -0.00000000000E+00  0.00000000000E+00  0.49864510149E+03  0.49864510149E+03  0.00000000000E+00 0. -1.
         21   -1    0    0  501  502  0.00000000000E+00 -0.00000000000E+00 -0.31376192442E+03  0.31376192442E+03  0.00000000000E+00 0.  1.
         24    2    1    2    0    0 -0.20208193582E+03  0.39207963219E+02  0.46550339262E+02  0.22588095998E+03  0.80504042307E+02 0.  0.
         23    2    1    2    0    0  0.19501804477E+03  0.21106993218E+03  0.46133067338E+00  0.30069836265E+03  0.88525354668E+02 0.  0.
        -13    1    3    3    0    0 -0.58953644717E+01  0.20956228339E+02 -0.47424561656E+01  0.22280254014E+02  0.00000000000E+00 0.  1.
         14    1    3    3    0    0 -0.19618657135E+03  0.18251734880E+02  0.51292795427E+02  0.20360070596E+03  0.00000000000E+00 0. -1.
        -13    1    4    4    0    0  0.98801282083E+02  0.55247666208E+02  0.25001397157E+02  0.11592699350E+03  0.00000000000E+00 0. -1.
         13    1    4    4    0    0  0.96216762692E+02  0.15582226597E+03 -0.24540066484E+02  0.18477136915E+03  0.00000000000E+00 0.  1.
          1    1    1    2  501    0  0.70638910498E+01 -0.25027789540E+03  0.13787150714E+03  0.28582770328E+03  0.00000000000E+00 0. -1.
<scales pt_clust_5="13000.00000" pt_clust_6="13000.00000" pt_clust_7="13000.00000" pt_clust_8="13000.00000" pt_clust_9="13000.00000"></scales>
<clustering>
<clus scale="   80.504">  5  6 -1 -1</clus>
<clus scale="   88.525">  7  8 -1 -1</clus>
<clus scale="  221.032">  1  5  2 -1</clus>
<clus scale="  253.035">  7  9 -1 -1</clus>
<clus scale="  569.980">  2  5  1 -1</clus>
</clustering>
</event>
<event>
 9    2  0.3897980E-005  0.3190001E+03  0.7546771E-02  0.1123277E+00
          2   -1    0    0  502    0 -0.00000000000E+00  0.00000000000E+00  0.22547705671E+03  0.22547705671E+03  0.00000000000E+00 0. -1.
         21   -1    0    0  501  502  0.00000000000E+00 -0.00000000000E+00 -0.26543111528E+03  0.26543111528E+03  0.00000000000E+00 0.  1.
         24    2    1    2    0    0 -0.50487782379E+02 -0.66111430970E+01  0.10481885515E+03  0.14059368347E+03  0.78656646608E+02 0.  0.
         23    2    1    2    0    0 -0.13395297730E+02  0.13570948045E+03 -0.33423597428E+02  0.16825378745E+03  0.92713014421E+02 0.  0.
        -13    1    3    3    0    0 -0.23423209984E+01 -0.28018321872E+02  0.74896415880E+02  0.79999912124E+02  0.00000000000E+00 0.  1.
         14    1    3    3    0    0 -0.48145461380E+02  0.21407178775E+02  0.29922439268E+02  0.60593771350E+02  0.00000000000E+00 0. -1.
        -13    1    4    4    0    0  0.28548634461E+02  0.63195209481E+02 -0.46466482729E+02  0.83473307399E+02  0.00000000000E+00 0.  1.
         13    1    4    4    0    0 -0.41943932191E+02  0.72514270967E+02  0.13042885301E+02  0.84780480056E+02  0.00000000000E+00 0. -1.
          1    1    1    2  501    0  0.63883080109E+02 -0.12909833735E+03 -0.11134931629E+03  0.18206070106E+03  0.00000000000E+00 0. -1.
<scales pt_clust_5="13000.00000" pt_clust_6="13000.00000" pt_clust_7="13000.00000" pt_clust_8="13000.00000" pt_clust_9="13000.00000"></scales>
<clustering>
<clus scale="   78.657">  5  6 -1 -1</clus>
<clus scale="   92.713">  7  8 -1 -1</clus>
<clus scale="   93.699">  1  5  2 -1</clus>
<clus scale="  139.364">  7  9 -1 -1</clus>
<clus scale="  319.000">  2  5  1 -1</clus>
</clustering>
</event>
<event>
 9    2  0.3897980E-005  0.1462199E+03  0.7546771E-02  0.1220780E+00
          2   -1    0    0  502    0 -0.00000000000E+00  0.00000000000E+00  0.30727096804E+03  0.30727096804E+03  0.00000000000E+00 0. -1.
         21   -1    0    0  501  502  0.00000000000E+00 -0.00000000000E+00 -0.92551362989E+02  0.92551362989E+02  0.00000000000E+00 0.  1.
         24    2    1    2    0    0  0.67964511836E+02  0.68791346566E+01  0.22997024657E+03  0.25280930689E+03  0.79747940311E+02 0.  0.
         23    2    1    2    0    0 -0.71387477783E+02 -0.30487119093E+02 -0.21735924297E+02  0.12229233406E+03  0.91963732799E+02 0.  0.
        -13    1    3    3    0    0  0.25711659217E+02  0.18807258966E+02  0.18518096303E+02  0.36847283485E+02  0.00000000000E+00 0.  1.
         14    1    3    3    0    0  0.42252852619E+02 -0.11928124310E+02  0.21145215026E+03  0.21596202341E+03  0.00000000000E+00 0. -1.
        -13    1    4    4    0    0 -0.28717400261E+02 -0.28948163999E+02 -0.54788051243E+02  0.68296528723E+02  0.00000000000E+00 0.  1.
         13    1    4    4    0    0 -0.42670077523E+02 -0.15389550943E+01  0.33052126945E+02  0.53995805339E+02  0.00000000000E+00 0. -1.
          1    1    1    2  501    0  0.34229659474E+01  0.23607984436E+02  0.64852827834E+01  0.24720690075E+02  0.00000000000E+00 0. -1.
<scales pt_clust_5="13000.00000" pt_clust_6="13000.00000" pt_clust_7="13000.00000" pt_clust_8="13000.00000" pt_clust_9="13000.00000"></scales>
<clustering>
<clus scale="   79.748">  5  6 -1 -1</clus>
<clus scale="   91.964">  7  8 -1 -1</clus>
<clus scale="   23.855">  7  9 -1 -1</clus>
<clus scale="  105.006">  1  5  2 -1</clus>
<clus scale="  146.220">  2  5  1 -1</clus>
</clustering>
</event>
<event>
 9    2  0.4331911E-005  0.9016786E+03  0.7546771E-02  0.9818949E-01
          2   -1    0    0  502    0 -0.00000000000E+00  0.00000000000E+00  0.12710102444E+04  0.12710102444E+04  0.00000000000E+00 0. -1.
         21   -1    0    0  501  502  0.00000000000E+00 -0.00000000000E+00 -0.29320376749E+03  0.29320376749E+03  0.00000000000E+00 0. -1.
         24    2    1    2    0    0 -0.21770671787E+03  0.31724909956E+02 -0.19505433382E+00  0.23398424011E+03  0.79661167811E+02 0.  0.
         23    2    1    2    0    0 -0.18185187501E+03 -0.62762332636E+02 -0.57057841721E+02  0.22029360411E+03  0.90909074738E+02 0.  0.
        -13    1    3    3    0    0 -0.82507842934E+02  0.25117133107E+02 -0.36788809385E+02  0.93764764262E+02  0.00000000000E+00 0.  1.
         14    1    3    3    0    0 -0.13519887493E+03  0.66077768493E+01  0.36593755051E+02  0.14021947585E+03  0.00000000000E+00 0. -1.
        -13    1    4    4    0    0 -0.36956127379E+02  0.62609511212E+01 -0.46112286582E+02  0.59424724094E+02  0.00000000000E+00 0. -1.
         13    1    4    4    0    0 -0.14489574763E+03 -0.69023283757E+02 -0.10945555139E+02  0.16086888002E+03  0.00000000000E+00 0.  1.
          1    1    1    2  501    0  0.39955859287E+03  0.31037422680E+02  0.10350593730E+04  0.11099361677E+04  0.00000000000E+00 0. -1.
<scales pt_clust_5="13000.00000" pt_clust_6="13000.00000" pt_clust_7="13000.00000" pt_clust_8="13000.00000" pt_clust_9="13000.00000"></scales>
<clustering>
<clus scale="   79.661">  5  6 -1 -1</clus>
<clus scale="   90.909">  7  8 -1 -1</clus>
<clus scale="  233.984">  1  5  2 -1</clus>
<clus scale="  206.323">  7  9 -1 -1</clus>
<clus scale="  901.679">  2  5  1 -1</clus>
</clustering>
</event>
<event>
 9    2  0.3897980E-005  0.3442114E+03  0.7546771E-02  0.1097069E+00
         21   -1    0    0  501  502  0.00000000000E+00  0.00000000000E+00  0.15540982631E+03  0.15540982631E+03  0.00000000000E+00 0. -1.
          2   -1    0    0  502    0 -0.00000000000E+00 -0.00000000000E+00 -0.75282840092E+03  0.75282840092E+03  0.00000000000E+00 0. -1.
         24    2    1    2    0    0  0.10371328308E+03  0.37951016600E+02 -0.54005476901E+03  0.55927967054E+03  0.94540317313E+02 0.  0.
         23    2    1    2    0    0 -0.64657256136E+02 -0.17159739949E+03 -0.34697427959E+02  0.20788944748E+03  0.91585384106E+02 0.  0.
        -11    1    3    3    0    0  0.49097238311E+02  0.65866932317E+02 -0.35265029456E+03  0.36209283593E+03  0.00000000000E+00 0.  1.
         12    1    3    3    0    0  0.54616044765E+02 -0.27915915717E+02 -0.18740447445E+03  0.19718683461E+03  0.00000000000E+00 0. -1.
        -11    1    4    4    0    0 -0.78820003056E+02 -0.96796828999E+02 -0.41276576289E+02  0.13147613752E+03  0.00000000000E+00 0.  1.
         11    1    4    4    0    0  0.14162746919E+02 -0.74800570496E+02  0.65791483297E+01  0.76413309964E+02  0.00000000000E+00 0. -1.
          1    1    1    2  501    0 -0.39056026939E+02  0.13364638289E+03 -0.22666377638E+02  0.14106910922E+03  0.00000000000E+00 0. -1.
<scales pt_clust_5="13000.00000" pt_clust_6="13000.00000" pt_clust_7="13000.00000" pt_clust_8="13000.00000" pt_clust_9="13000.00000"></scales>
<clustering>
<clus scale="   91.585">  7  8 -1 -1</clus>
<clus scale="   94.540">  5  6 -1 -1</clus>
<clus scale="  139.236">  7  9 -1 -1</clus>
<clus scale="  145.377">  2  5  1 -1</clus>
<clus scale="  344.211">  1  5  2 -1</clus>
</clustering>
</event>
<event>
 9    2  0.3897980E-005  0.2372932E+03  0.7546771E-02  0.1148687E+00
         21   -1    0    0  501  502  0.00000000000E+00  0.00000000000E+00  0.76889507117E+02  0.76889507117E+02  0.00000000000E+00 0.  1.
         -1   -1    0    0    0  501 -0.00000000000E+00 -0.00000000000E+00 -0.57604039704E+03  0.57604039704E+03  0.00000000000E+00 0.  1.
         24    2    1    2    0    0  0.85766845078E+02  0.35683960013E+02 -0.35418269106E+03  0.37485828533E+03  0.80274894673E+02 0.  0.
         23    2    1    2    0    0 -0.16078739225E+02  0.90585428547E+00  0.18521689995E+02  0.96621376707E+02  0.93452078679E+02 0.  0.
        -13    1    3    3    0    0  0.58956822051E+02  0.47843895072E+02 -0.32368206238E+03  0.33246807767E+03  0.00000000000E+00 0.  1.
         14    1    3    3    0    0  0.26810023026E+02 -0.12159935059E+02 -0.30500628675E+02  0.42390207653E+02  0.00000000000E+00 0. -1.
        -13    1    4    4    0    0  0.23881320760E+02  0.59192609209E+01  0.42964729545E+02  0.49510838369E+02  0.00000000000E+00 0.  1.
         13    1    4    4    0    0 -0.39960059985E+02 -0.50134066354E+01 -0.24443039550E+02  0.47110538338E+02  0.00000000000E+00 0. -1.
         -2    1    1    2    0  502 -0.69688105853E+02 -0.36589814299E+02 -0.16348988886E+03  0.18145024212E+03  0.00000000000E+00 0.  1.
<scales pt_clust_5="13000.00000" pt_clust_6="13000.00000" pt_clust_7="13000.00000" pt_clust_8="13000.00000" pt_clust_9="13000.00000"></scales>
<clustering>
<clus scale="   80.275">  5  6 -1 -1</clus>
<clus scale="   93.452">  7  8 -1 -1</clus>
<clus scale="   78.710">  7  9 -1 -1</clus>
<clus scale="  122.774">  2  5  1 -1</clus>
<clus scale="  237.293">  1  5  2 -1</clus>
</clustering>
</event>
<event>
 9    2  0.3897980E-005  0.3523194E+03  0.7546771E-02  0.1078184E+00
          2   -1    0    0  502    0 -0.00000000000E+00  0.00000000000E+00  0.29595361364E+04  0.29595361364E+04  0.00000000000E+00 0. -1.
         21   -1    0    0  501  502  0.00000000000E+00 -0.00000000000E+00 -0.28518165535E+02  0.28518165535E+02  0.00000000000E+00 0.  1.
         24    2    1    2    0    0  0.89718176830E+02  0.18817817287E+03  0.13323059151E+04  0.13509809390E+04  0.81547962386E+02 0.  0.
         23    2    1    2    0    0  0.33436549480E+02 -0.23231021486E+02  0.19061631597E+03  0.21401037704E+03  0.88363897413E+02 0.  0.
        -13    1    3    3    0    0  0.34155683318E+02  0.15402558975E+03  0.88641765592E+03  0.90034812919E+03  0.00000000000E+00 0.  1.
         14    1    3    3    0    0  0.55562493513E+02  0.34152583117E+02  0.44588825919E+03  0.45063280983E+03  0.00000000000E+00 0. -1.
        -11    1    4    4    0    0  0.19157299279E+02 -0.54647450920E+02  0.84614750785E+02  0.10253293158E+03  0.00000000000E+00 0.  1.
         11    1    4    4    0    0  0.14279250202E+02  0.31416429434E+02  0.10600156519E+03  0.11147744546E+03  0.00000000000E+00 0. -1.
          1    1    1    2  501    0 -0.12315472631E+03 -0.16494715138E+03  0.14080957398E+04  0.14230629859E+04  0.00000000000E+00 0. -1.
<scales pt_clust_5="13000.00000" pt_clust_6="13000.00000" pt_clust_7="13000.00000" pt_clust_8="13000.00000" pt_clust_9="13000.00000"></scales>
<clustering>
<clus scale="   81.548">  5  6 -1 -1</clus>
<clus scale="   88.364">  7  8 -1 -1</clus>
<clus scale="  205.851">  7  9 -1 -1</clus>
<clus scale="  223.854">  1  5  2 -1</clus>
<clus scale="  352.319">  2  5  1 -1</clus>
</clustering>
</event>
<event>
 9    2  0.3897980E-005  0.1643522E+03  0.7546771E-02  0.1199032E+00
         -3   -1    0    0    0  501 -0.00000000000E+00  0.00000000000E+00  0.29663743133E+03  0.29663743133E+03  0.00000000000E+00 0.  1.
         21   -1    0    0  501  502  0.00000000000E+00 -0.00000000000E+00 -0.89614427189E+02  0.89614427189E+02  0.00000000000E+00 0. -1.
         24    2    1    2    0    0 -0.20109664853E+02  0.75097398775E+02 -0.52648151878E+01  0.11777882156E+03  0.88318257487E+02 0.  0.
         23    2    1    2    0    0  0.42470519747E+00 -0.29773695177E+01  0.12749137155E+03  0.15542776367E+03  0.88852095059E+02 0.  0.
        -13    1    3    3    0    0  0.16679440914E+02 -0.13498709660E+02 -0.40738643044E+01  0.21840679524E+02  0.00000000000E+00 0.  1.
         14    1    3    3    0    0 -0.36789105768E+02  0.88596108436E+02 -0.11909508835E+01  0.95938142035E+02  0.00000000000E+00 0. -1.
        -11    1    4    4    0    0 -0.25623429295E+02 -0.21316244928E+02  0.11735694733E+03  0.12199834226E+03  0.00000000000E+00 0.  1.
         11    1    4    4    0    0  0.26048134493E+02  0.18338875410E+02  0.10134424220E+02  0.33429421415E+02  0.00000000000E+00 0. -1.
         -4    1    1    2    0  502  0.19684959656E+02 -0.72120029258E+02  0.84796447775E+02  0.11304527328E+03  0.00000000000E+00 0.  1.
<scales pt_clust_5="13000.00000" pt_clust_6="13000.00000" pt_clust_7="13000.00000" pt_clust_8="13000.00000" pt_clust_9="13000.00000"></scales>
<clustering>
<clus scale="   88.318">  5  6 -1 -1</clus>
<clus scale="   88.852">  7  8 -1 -1</clus>
<clus scale="   74.758">  7  9 -1 -1</clus>
<clus scale="  117.661">  1  5  2 -1</clus>
<clus scale="  164.352">  2  5  1 -1</clus>
</clustering>
</event>
<event>
 9    2  0.3897980E-005  0.2541604E+03  0.7546771E-02  0.1145586E+00
         21   -1    0    0  501  502  0.00000000000E+00  0.00000000000E+00  0.43800169129E+02  0.43800169129E+02  0.00000000000E+00 0. -1.
          2   -1    0    0  502    0 -0.00000000000E+00 -0.00000000000E+00 -0.82447988722E+03  0.82447988722E+03  0.00000000000E+00 0. -1.
         24    2    1    2    0    0 -0.58529114797E+02  0.39276180054E+02 -0.36994649326E+03  0.38526940157E+03  0.81263942284E+02 0.  0.
         23    2    1    2    0    0  0.17051761928E+02  0.29422899430E+02 -0.39660432714E+02  0.10335956315E+03  0.89183965911E+02 0.  0.
        -11    1    3    3    0    0  0.11891349999E+02  0.34065143346E+02 -0.10279671326E+03  0.10894495148E+03  0.00000000000E+00 0.  1.
         12    1    3    3    0    0 -0.70420464796E+02  0.52110367082E+01 -0.26714978000E+03  0.27632445009E+03  0.00000000000E+00 0. -1.
        -13    1    4    4    0    0 -0.57952880755E+01 -0.28867022148E+02 -0.25998715502E+02  0.39278792488E+02  0.00000000000E+00 0.  1.
         13    1    4    4    0    0  0.22847050004E+02  0.58289921578E+02 -0.13661717212E+02  0.64080770662E+02  0.00000000000E+00 0. -1.
          1    1    1    2  501    0  0.41477352869E+02 -0.68699079484E+02 -0.37107279212E+03  0.37965109162E+03  0.00000000000E+00 0. -1.
<scales pt_clust_5="13000.00000" pt_clust_6="13000.00000" pt_clust_7="13000.00000" pt_clust_8="13000.00000" pt_clust_9="13000.00000"></scales>
<clustering>
<clus scale="   81.264">  5  6 -1 -1</clus>
<clus scale="   89.184">  7  8 -1 -1</clus>
<clus scale="   80.249">  7  9 -1 -1</clus>
<clus scale="  107.574">  2  5  1 -1</clus>
<clus scale="  254.160">  1  5  2 -1</clus>
</clustering>
</event>
<event>
 9    2  0.3897980E-005  0.2537238E+03  0.7546771E-02  0.1141531E+00
         21   -1    0    0  501  502  0.00000000000E+00  0.00000000000E+00  0.45370040895E+03  0.45370040895E+03  0.00000000000E+00 0.  1.
          2   -1    0    0  502    0 -0.00000000000E+00 -0.00000000000E+00 -0.19872067403E+03  0.19872067403E+03  0.00000000000E+00 0. -1.
         24    2    1    2    0    0 -0.63669197794E+02  0.59644411498E+02 -0.13945062581E+03  0.18343167199E+03  0.81175603958E+02 0.  0.
         23    2    1    2    0    0  0.38368475517E+02 -0.85698241987E+02  0.40940845390E+03  0.42970491144E+03  0.90634983306E+02 0.  0.
        -11    1    3    3    0    0 -0.56200929501E+02  0.72839563714E+02 -0.14081836306E+03  0.16820807916E+03  0.00000000000E+00 0.  1.
         12    1    3    3    0    0 -0.74682682933E+01 -0.13195152216E+02  0.13677372545E+01  0.15223592825E+02  0.00000000000E+00 0. -1.
        -13    1    4    4    0    0  0.56798171380E+02 -0.66934002328E+02  0.38103466676E+03  0.39101612526E+03  0.00000000000E+00 0.  1.
         13    1    4    4    0    0 -0.18429695863E+02 -0.18764239659E+02  0.28373787139E+02  0.38688786182E+02  0.00000000000E+00 0. -1.
          1    1    1    2  501    0  0.25300722277E+02  0.26053830488E+02 -0.14978093161E+02  0.39284499559E+02  0.00000000000E+00 0. -1.
<scales pt_clust_5="13000.00000" pt_clust_6="13000.00000" pt_clust_7="13000.00000" pt_clust_8="13000.00000" pt_clust_9="13000.00000"></scales>
<clustering>
<clus scale="   81.176">  5  6 -1 -1</clus>
<clus scale="   90.635">  7  8 -1 -1</clus>
<clus scale="   36.317">  7  9 -1 -1</clus>
<clus scale="  119.167">  2  5  1 -1</clus>
<clus scale="  253.724">  1  5  2 -1</clus>
</clustering>
</event>
<event>
 9    2  0.3897980E-005  0.3773366E+03  0.7546771E-02  0.1091948E+00
         -1   -1    0    0    0  501 -0.00000000000E+00  0.00000000000E+00  0.36253882911E+03  0.36253882911E+03  0.00000000000E+00 0.  1.
         21   -1    0    0  501  502  0.00000000000E+00 -0.00000000000E+00 -0.29637282674E+03  0.29637282674E+03  0.00000000000E+00 0.  1.
         24    2    1    2    0    0 -0.87894268569E+02  0.42692110165E+02  0.21822189618E+03  0.25208995750E+03  0.79878232218E+02 0.  0.
         23    2    1    2    0    0 -0.10140261738E+03  0.60390410448E+02 -0.11472961614E+03  0.18806939987E+03  0.90981986476E+02 0.  0.
        -11    1    3    3    0    0 -0.82370442060E+02  0.36391656570E+02  0.22432427734E+03  0.24172427226E+03  0.00000000000E+00 0.  1.
         12    1    3    3    0    0 -0.55238265087E+01  0.63004535947E+01 -0.61023811591E+01  0.10365685245E+02  0.00000000000E+00 0. -1.
        -11    1    4    4    0    0 -0.17283355941E+02  0.62471822544E+02 -0.47342513686E+02  0.80266783956E+02  0.00000000000E+00 0. -1.
         11    1    4    4    0    0 -0.84119261436E+02 -0.20814120959E+01 -0.67387102454E+02  0.10780261591E+03  0.00000000000E+00 0.  1.
         -2    1    1    2    0  502  0.18929688595E+03 -0.10308252061E+03 -0.37326277666E+02  0.21875229848E+03  0.00000000000E+00 0.  1.
<scales pt_clust_5="13000.00000" pt_clust_6="13000.00000" pt_clust_7="13000.00000" pt_clust_8="13000.00000" pt_clust_9="13000.00000"></scales>
<clustering>
<clus scale="   79.878">  5  6 -1 -1</clus>
<clus scale="   90.982">  7  8 -1 -1</clus>
<clus scale="  126.208">  1  5  2 -1</clus>
<clus scale="  146.070">  7  9 -1 -1</clus>
<clus scale="  377.337">  2  5  1 -1</clus>
</clustering>
</event>
<event>
 9    2  0.3897980E-005  0.2405095E+03  0.7546771E-02  0.1148923E+00
         21   -1    0    0  501  502  0.00000000000E+00  0.00000000000E+00  0.62380997764E+03  0.62380997764E+03  0.00000000000E+00 0. -1.
          2   -1    0    0  502    0 -0.00000000000E+00 -0.00000000000E+00 -0.51765681778E+02  0.51765681778E+02  0.00000000000E+00 0. -1.
         24    2    1    2    0    0 -0.62119338400E+02 -0.20551811295E+02  0.21861923971E+03  0.24807815857E+03  0.97299597329E+02 0.  0.
         23    2    1    2    0    0 -0.36070799789E+02  0.57931361515E+02  0.17169451666E+03  0.21758198689E+03  0.11491635534E+03 0.  0.
        -13    1    3    3    0    0  0.23518258710E+01 -0.30419785983E+02  0.15129984271E+03  0.15434551133E+03  0.00000000000E+00 0.  1.
         14    1    3    3    0    0 -0.64471164271E+02  0.98679746878E+01  0.67319396997E+02  0.93732647241E+02  0.00000000000E+00 0. -1.
        -13    1    4    4    0    0 -0.54330395239E+02  0.36470996173E+02  0.17717848556E+03  0.18887599411E+03  0.00000000000E+00 0. -1.
         13    1    4    4    0    0  0.18259595450E+02  0.21460365343E+02 -0.54839688954E+01  0.28705992780E+02  0.00000000000E+00 0.  1.
          1    1    1    2  501    0  0.98190138188E+02 -0.37379550220E+02  0.18173053949E+03  0.20991551395E+03  0.00000000000E+00 0. -1.
<scales pt_clust_5="13000.00000" pt_clust_6="13000.00000" pt_clust_7="13000.00000" pt_clust_8="13000.00000" pt_clust_9="13000.00000"></scales>
<clustering>
<clus scale="   97.300">  5  6 -1 -1</clus>
<clus scale="  114.916">  7  8 -1 -1</clus>
<clus scale="  105.064">  7  9 -1 -1</clus>
<clus scale="  117.254">  2  5  1 -1</clus>
<clus scale="  240.510">  1  5  2 -1</clus>
</clustering>
</event>
<event>
 9    2  0.3897980E-005  0.4373492E+03  0.7546771E-02  0.1090743E+00
          2   -1    0    0  502    0 -0.00000000000E+00  0.00000000000E+00  0.17934793896E+04  0.17934793896E+04  0.00000000000E+00 0. -1.
         21   -1    0    0  501  502  0.00000000000E+00 -0.00000000000E+00 -0.38029636651E+02  0.38029636651E+02  0.00000000000E+00 0.  1.
         24    2    1    2    0    0 -0.11656489169E+02  0.16748637545E+02  0.33239948391E+03  0.34276917047E+03  0.81147376580E+02 0.  0.
         23    2    1    2    0    0  0.19262060121E+03 -0.47081685471E+02  0.46360110721E+03  0.51190271593E+03  0.88312076505E+02 0.  0.
        -13    1    3    3    0    0  0.11898093867E+02  0.41212394042E+02  0.11512685386E+03  0.12285853060E+03  0.00000000000E+00 0.  1.
         14    1    3    3    0    0 -0.23554583035E+02 -0.24463756498E+02  0.21727263004E+03  0.21991063987E+03  0.00000000000E+00 0. -1.
        -11    1    4    4    0    0  0.14489931184E+03 -0.44777758730E+02  0.42244470082E+03  0.44884338416E+03  0.00000000000E+00 0. -1.
         11    1    4    4    0    0  0.47721289368E+02 -0.23039267412E+01  0.41156406391E+02  0.63059331778E+02  0.00000000000E+00 0.  1.
          1    1    1    2  501    0 -0.18096411204E+03  0.30333047926E+02  0.95944916182E+03  0.97683713983E+03  0.00000000000E+00 0. -1.
<scales pt_clust_5="13000.00000" pt_clust_6="13000.00000" pt_clust_7="13000.00000" pt_clust_8="13000.00000" pt_clust_9="13000.00000"></scales>
<clustering>
<clus scale="   81.147">  5  6 -1 -1</clus>
<clus scale="   83.674">  1  5  2 -1</clus>
<clus scale="   88.312">  7  8 -1 -1</clus>
<clus scale="  193.218">  7  9 -1 -1</clus>
<clus scale="  437.349">  2  5  1 -1</clus>
</clustering>
</event>
<event>
 9    2  0.3897980E-005  0.4438867E+03  0.7546771E-02  0.1089316E+00
         21   -1    0    0  501  502  0.00000000000E+00  0.00000000000E+00  0.17560199829E+03  0.17560199829E+03  0.00000000000E+00 0.  1.
          2   -1    0    0  502    0 -0.00000000000E+00 -0.00000000000E+00 -0.48535081277E+03  0.48535081277E+03  0.00000000000E+00 0. -1.
         24    2    1    2    0    0  0.24843848792E+01  0.24349075926E+02 -0.18036980768E+03  0.19859542836E+03  0.79421829335E+02 0.  0.
         23    2    1    2    0    0 -0.85029278503E+01  0.19571930300E+03 -0.14746377107E+02  0.21414990084E+03  0.85231326648E+02 0.  0.
        -11    1    3    3    0    0  0.26383999500E+02  0.41242177603E+02 -0.14287274385E+03  0.15102865151E+03  0.00000000000E+00 0.  1.
         12    1    3    3    0    0 -0.23899614621E+02 -0.16893101677E+02 -0.37497063835E+02  0.47566776847E+02  0.00000000000E+00 0. -1.
        -11    1    4    4    0    0  0.80111704907E+01  0.16036977724E+03  0.20118612146E+02  0.16182522319E+03  0.00000000000E+00 0.  1.
         11    1    4    4    0    0 -0.16514098341E+02  0.35349525754E+02 -0.34864989254E+02  0.52324677646E+02  0.00000000000E+00 0. -1.
          1    1    1    2  501    0  0.60185429711E+01 -0.22006837892E+03 -0.11463262969E+03  0.24820748186E+03  0.00000000000E+00 0. -1.
<scales pt_clust_5="13000.00000" pt_clust_6="13000.00000" pt_clust_7="13000.00000" pt_clust_8="13000.00000" pt_clust_9="13000.00000"></scales>
<clustering>
<clus scale="   79.422">  5  6 -1 -1</clus>
<clus scale="   83.108">  2  5  1 -1</clus>
<clus scale="   85.231">  7  8 -1 -1</clus>
<clus scale="  205.277">  7  9 -1 -1</clus>
<clus scale="  443.887">  1  5  2 -1</clus>
</clustering>
</event>
<event>
 9    2  0.3897980E-005  0.4336708E+03  0.7546771E-02  0.1037152E+00
         -1   -1    0    0    0  501 -0.00000000000E+00  0.00000000000E+00  0.27904413489E+03  0.27904413489E+03  0.00000000000E+00 0.  1.
         21   -1    0    0  501  502  0.00000000000E+00 -0.00000000000E+00 -0.59728910227E+03  0.59728910227E+03  0.00000000000E+00 0.  1.
         24    2    1    2    0    0 -0.29223471319E+03  0.23046723076E+03 -0.11622557815E+03  0.39791690698E+03  0.79455697056E+02 0.  0.
         23    2    1    2    0    0  0.38444319155E+02 -0.89180905195E+02 -0.11057505845E+03  0.17389464700E+03  0.92635334393E+02 0.  0.
        -13    1    3    3    0    0 -0.24127963208E+03  0.16538163756E+03 -0.11753261856E+03  0.31524730502E+03  0.00000000000E+00 0.  1.
         14    1    3    3    0    0 -0.50955081113E+02  0.65085593195E+02  0.13070404073E+01  0.82669601955E+02  0.00000000000E+00 0. -1.
        -13    1    4    4    0    0  0.10517115591E+02 -0.94992814757E+02 -0.10950861356E+03  0.14534916932E+03  0.00000000000E+00 0.  1.
         13    1    4    4    0    0  0.27927203563E+02  0.58119095623E+01 -0.10664448849E+01  0.28545477686E+02  0.00000000000E+00 0. -1.
         -2    1    1    2    0  502  0.25379039404E+03 -0.14128632556E+03 -0.91444330781E+02  0.30452168319E+03  0.00000000000E+00 0.  1.
<scales pt_clust_5="13000.00000" pt_clust_6="13000.00000" pt_clust_7="13000.00000" pt_clust_8="13000.00000" pt_clust_9="13000.00000"></scales>
<clustering>
<clus scale="   79.456">  5  6 -1 -1</clus>
<clus scale="   92.635">  7  8 -1 -1</clus>
<clus scale="  290.468">  7  9 -1 -1</clus>
<clus scale="  380.565">  1  5  2 -1</clus>
<clus scale="  433.671">  2  5  1 -1</clus>
</clustering>
</event>
<event>
 9    2  0.3897980E-005  0.2424623E+03  0.7546771E-02  0.1157987E+00
          2   -1    0    0  502    0 -0.00000000000E+00  0.00000000000E+00  0.13736199607E+04  0.13736199607E+04  0.00000000000E+00 0. -1.
         21   -1    0    0  501  502  0.00000000000E+00 -0.00000000000E+00 -0.20635055366E+02  0.20635055366E+02  0.00000000000E+00 0. -1.
         24    2    1    2    0    0 -0.97318391130E+01 -0.36125890811E+02  0.31213222931E+03  0.32553510856E+03  0.84538687325E+02 0.  0.
         23    2    1    2    0    0 -0.68346467829E+02 -0.51885643212E+02  0.52047623081E+03  0.53520899209E+03  0.90497506788E+02 0.  0.
        -13    1    3    3    0    0  0.27155158076E+02  0.99751485117E+01  0.60386129622E+02  0.66958127577E+02  0.00000000000E+00 0.  1.
         14    1    3    3    0    0 -0.36886997189E+02 -0.46101039323E+02  0.25174609968E+03  0.25857698098E+03  0.00000000000E+00 0. -1.
        -11    1    4    4    0    0 -0.73678388360E+02 -0.76304354365E+01  0.39889261907E+03  0.40571178194E+03  0.00000000000E+00 0. -1.
         11    1    4    4    0    0  0.53319205311E+01 -0.44255207775E+02  0.12158361174E+03  0.12949721015E+03  0.00000000000E+00 0.  1.
          1    1    1    2  501    0  0.78078306942E+02  0.88011534023E+02  0.52037644525E+03  0.53351091545E+03  0.00000000000E+00 0. -1.
<scales pt_clust_5="13000.00000" pt_clust_6="13000.00000" pt_clust_7="13000.00000" pt_clust_8="13000.00000" pt_clust_9="13000.00000"></scales>
<clustering>
<clus scale="   84.539">  5  6 -1 -1</clus>
<clus scale="   90.498">  7  8 -1 -1</clus>
<clus scale="   92.448">  1  5  2 -1</clus>
<clus scale="  101.270">  7  9 -1 -1</clus>
<clus scale="  242.462">  2  5  1 -1</clus>
</clustering>
</event>
<event>
 9    2  0.3897980E-005  0.2880343E+03  0.7546771E-02  0.1111088E+00
         21   -1    0    0  501  502  0.00000000000E+00  0.00000000000E+00  0.47014624777E+02  0.47014624777E+02  0.00000000000E+00 0. -1.
          2   -1    0    0  502    0 -0.00000000000E+00 -0.00000000000E+00 -0.14409450864E+04  0.14409450864E+04  0.00000000000E+00 0. -1.
         24    2    1    2    0    0  0.56682454822E+02  0.14129641258E+03 -0.89761454795E+03  0.91411892416E+03  0.81999719056E+02 0.  0.
         23    2    1    2    0    0  0.23522932932E+02  0.10607046677E+02 -0.93064314842E+02  0.13552649668E+03  0.95082210700E+02 0.  0.
        -11    1    3    3    0    0  0.30146885765E+02  0.11210364356E+02 -0.88059763197E+02  0.93749820718E+02  0.00000000000E+00 0.  1.
         12    1    3    3    0    0  0.26535569057E+02  0.13008604822E+03 -0.80955478475E+03  0.82036910344E+03  0.00000000000E+00 0. -1.
        -13    1    4    4    0    0 -0.27533426417E+02 -0.18077190962E+02 -0.59551153577E+02  0.68053025617E+02  0.00000000000E+00 0.  1.
         13    1    4    4    0    0  0.51056359349E+02  0.28684237639E+02 -0.33513161265E+02  0.67473471059E+02  0.00000000000E+00 0. -1.
          1    1    1    2  501    0 -0.80205387754E+02 -0.15190345925E+03 -0.40325159887E+03  0.43831429038E+03  0.00000000000E+00 0. -1.
<scales pt_clust_5="13000.00000" pt_clust_6="13000.00000" pt_clust_7="13000.00000" pt_clust_8="13000.00000" pt_clust_9="13000.00000"></scales>
<clustering>
<clus scale="   82.000">  5  6 -1 -1</clus>
<clus scale="   95.082">  7  8 -1 -1</clus>
<clus scale="  171.778">  7  9 -1 -1</clus>
<clus scale="  172.921">  2  5  1 -1</clus>
<clus scale="  288.034">  1  5  2 -1</clus>
</clustering>
</event>
<event>
 9    2  0.3897980E-005  0.1712880E+03  0.7546771E-02  0.1198575E+00
          2   -1    0    0  502    0 -0.00000000000E+00  0.00000000000E+00  0.11910384085E+03  0.11910384085E+03  0.00000000000E+00 0. -1.
         21   -1    0    0  501  502  0.00000000000E+00 -0.00000000000E+00 -0.17037748182E+03  0.17037748182E+03  0.00000000000E+00 0.  1.
         24    2    1    2    0    0 -0.38988417275E+02  0.55483284399E+02  0.14549182585E+02  0.10598140726E+03  0.80136685990E+02 0.  0.
         23    2    1    2    0    0  0.56954534479E+02 -0.33849807444E+02 -0.91552838987E+02  0.14538400815E+03  0.91460149995E+02 0.  0.
        -11    1    3    3    0    0  0.22594515199E+02  0.18533215080E+02 -0.87062356420E+01  0.30492469847E+02  0.00000000000E+00 0.  1.
         12    1    3    3    0    0 -0.61582932475E+02  0.36950069319E+02  0.23255418227E+02  0.75488937413E+02  0.00000000000E+00 0. -1.
        -11    1    4    4    0    0  0.14113163796E+02  0.23551944757E+02 -0.62173619283E+02  0.67966421334E+02  0.00000000000E+00 0. -1.
         11    1    4    4    0    0  0.42841370683E+02 -0.57401752201E+02 -0.29379219703E+02  0.77417586815E+02  0.00000000000E+00 0.  1.
          1    1    1    2  501    0 -0.17966117204E+02 -0.21633476955E+02  0.25730015432E+02  0.38115907266E+02  0.00000000000E+00 0. -1.
<scales pt_clust_5="13000.00000" pt_clust_6="13000.00000" pt_clust_7="13000.00000" pt_clust_8="13000.00000" pt_clust_9="13000.00000"></scales>
<clustering>
<clus scale="   80.137">  5  6 -1 -1</clus>
<clus scale="   91.460">  7  8 -1 -1</clus>
<clus scale="   28.121">  7  9 -1 -1</clus>
<clus scale="  104.978">  1  5  2 -1</clus>
<clus scale="  171.288">  2  5  1 -1</clus>
</clustering>
</event>
<event>
 9    2  0.3897980E-005  0.1663568E+03  0.7546771E-02  0.1206199E+00
          2   -1    0    0  502    0 -0.00000000000E+00  0.00000000000E+00  0.52729158614E+03  0.52729158614E+03  0.00000000000E+00 0. -1.
         21   -1    0    0  501  502  0.00000000000E+00 -0.00000000000E+00 -0.19368992904E+03  0.19368992904E+03  0.00000000000E+00 0. -1.
         24    2    1    2    0    0 -0.29272580498E+02  0.23573896786E+02  0.48585040444E+03  0.49547259428E+03  0.89609506238E+02 0.  0.
         23    2    1    2    0    0 -0.57622572266E+01  0.24937979666E+02 -0.13185086478E+03  0.16228775652E+03  0.91090937728E+02 0.  0.
        -13    1    3    3    0    0  0.88857292213E+01 -0.29947485813E+02  0.14190270072E+03  0.14530032541E+03  0.00000000000E+00 0.  1.
         14    1    3    3    0    0 -0.38158309719E+02  0.53521382600E+02  0.34394770372E+03  0.35017226888E+03  0.00000000000E+00 0. -1.
        -11    1    4    4    0    0  0.29658125083E+02 -0.14076737746E+02 -0.87352351851E+02  0.93317695550E+02  0.00000000000E+00 0. -1.
         11    1    4    4    0    0 -0.35420382309E+02  0.39014717412E+02 -0.44498512925E+02  0.68970060970E+02  0.00000000000E+00 0.  1.
          1    1    1    2  501    0  0.35034837724E+02 -0.48511876452E+02 -0.20397882572E+02  0.63221164373E+02  0.00000000000E+00 0. -1.
<scales pt_clust_5="13000.00000" pt_clust_6="13000.00000" pt_clust_7="13000.00000" pt_clust_8="13000.00000" pt_clust_9="13000.00000"></scales>
<clustering>
<clus scale="   89.610">  5  6 -1 -1</clus>
<clus scale="   91.091">  7  8 -1 -1</clus>
<clus scale="   59.840">  7  9 -1 -1</clus>
<clus scale="   97.172">  1  5  2 -1</clus>
<clus scale="  166.357">  2  5  1 -1</clus>
</clustering>
</event>
<event>
 9    2  0.3897980E-005  0.2243997E+03  0.7546771E-02  0.1166111E+00
          2   -1    0    0  502    0 -0.00000000000E+00  0.00000000000E+00  0.75088716288E+03  0.75088716288E+03  0.00000000000E+00 0. -1.
         21   -1    0    0  501  502  0.00000000000E+00 -0.00000000000E+00 -0.80349158253E+02  0.80349158253E+02  0.00000000000E+00 0. -1.
         24    2    1    2    0    0  0.45579059846E+02 -0.30392233202E+02  0.58206638927E+03  0.59002593051E+03  0.79549849916E+02 0.  0.
         23    2    1    2    0    0 -0.29531376698E+02 -0.65128068284E+02  0.56855019166E+01  0.11379297930E+03  0.88333174500E+02 0.  0.
        -13    1    3    3    0    0  0.48347560063E+02 -0.33452814076E+02  0.21379863554E+03  0.22173505337E+03  0.00000000000E+00 0.  1.
         14    1    3    3    0    0 -0.27685002171E+01  0.30605808737E+01  0.36826775373E+03  0.36829087714E+03  0.00000000000E+00 0. -1.
        -13    1    4    4    0    0  0.31252200814E+02 -0.29184642665E+02 -0.16864885254E+01  0.42793547022E+02  0.00000000000E+00 0. -1.
         13    1    4    4    0    0 -0.60783577512E+02 -0.35943425619E+02  0.73719904420E+01  0.70999432275E+02  0.00000000000E+00 0.  1.
          1    1    1    2  501    0 -0.16047683147E+02  0.95520301486E+02  0.82786113440E+02  0.12741741133E+03  0.00000000000E+00 0. -1.
<scales pt_clust_5="13000.00000" pt_clust_6="13000.00000" pt_clust_7="13000.00000" pt_clust_8="13000.00000" pt_clust_9="13000.00000"></scales>
<clustering>
<clus scale="   79.550">  5  6 -1 -1</clus>
<clus scale="   88.333">  7  8 -1 -1</clus>
<clus scale="   96.588">  1  5  2 -1</clus>
<clus scale="   77.246">  7  9 -1 -1</clus>
<clus scale="  224.400">  2  5  1 -1</clus>
</clustering>
</event>
<event>
 9    2  0.4453194E-005  0.3796849E+03  0.7546771E-02  0.1070543E+00
         -1   -1    0    0    0  501 -0.00000000000E+00  0.00000000000E+00  0.13293732528E+04  0.13293732528E+04  0.00000000000E+00 0.  1.
         21   -1    0    0  501  502  0.00000000000E+00 -0.00000000000E+00 -0.10378837729E+03  0.10378837729E+03  0.00000000000E+00 0.  1.
         24    2    1    2    0    0  0.18444741236E+03  0.89919012382E+02  0.93753532106E+02  0.23934305847E+03  0.79931834331E+02 0.  0.
         23    2    1    2    0    0  0.46068314977E+02 -0.25330143162E+02  0.15228040498E+03  0.18543904805E+03  0.91839060343E+02 0.  0.
        -11    1    3    3    0    0  0.11932212298E+03  0.89072854542E+02  0.90251921619E+02  0.17411821216E+03  0.00000000000E+00 0.  1.
         12    1    3    3    0    0  0.65125289384E+02  0.84615783977E+00  0.35016104873E+01  0.65224846313E+02  0.00000000000E+00 0. -1.
        -11    1    4    4    0    0  0.40297351741E+01 -0.45604013949E+02  0.30472469723E+02  0.54995784064E+02  0.00000000000E+00 0.  1.
         11    1    4    4    0    0  0.42038579803E+02  0.20273870787E+02  0.12180793526E+03  0.13044326399E+03  0.00000000000E+00 0. -1.
         -2    1    1    2    0  502 -0.23051572734E+03 -0.64588869221E+02  0.97955093846E+03  0.10083795236E+04  0.00000000000E+00 0.  1.
<scales pt_clust_5="13000.00000" pt_clust_6="13000.00000" pt_clust_7="13000.00000" pt_clust_8="13000.00000" pt_clust_9="13000.00000"></scales>
<clustering>
<clus scale="   79.932">  5  6 -1 -1</clus>
<clus scale="   91.839">  7  8 -1 -1</clus>
<clus scale="  220.217">  1  5  2 -1</clus>
<clus scale="   73.879">  7  9 -1 -1</clus>
<clus scale="  379.685">  2  5  1 -1</clus>
</clustering>
</event>
<event>
 9    2  0.3897980E-005  0.1985317E+03  0.7546771E-02  0.1161573E+00
          2   -1    0    0  502    0 -0.00000000000E+00  0.00000000000E+00  0.11814342835E+03  0.11814342835E+03  0.00000000000E+00 0. -1.
         21   -1    0    0  501  502  0.00000000000E+00 -0.00000000000E+00 -0.34654498370E+03  0.34654498370E+03  0.00000000000E+00 0. -1.
         24    2    1    2    0    0  0.85239795555E+02  0.10089865459E+03  0.90590219306E+01  0.15516886676E+03  0.80925583655E+02 0.  0.
         23    2    1    2    0    0 -0.77619359245E+02 -0.66130887015E+02 -0.23781814408E+03  0.27392465007E+03  0.89884287369E+02 0.  0.
        -13    1    3    3    0    0  0.40555729448E+02 -0.39387399772E+01  0.58186080944E+01  0.41159896305E+02  0.00000000000E+00 0.  1.
         14    1    3    3    0    0  0.44684066108E+02  0.10483739456E+03  0.32404138362E+01  0.11400897046E+03  0.00000000000E+00 0. -1.
        -11    1    4    4    0    0 -0.95635320513E+02 -0.51134681900E+02 -0.21693121590E+03  0.24252839556E+03  0.00000000000E+00 0. -1.
         11    1    4    4    0    0  0.18015961268E+02 -0.14996205114E+02 -0.20886928174E+02  0.31396254503E+02  0.00000000000E+00 0.  1.
          1    1    1    2  501    0 -0.76204363101E+01 -0.34767767571E+02  0.35756679224E+00  0.35594895216E+02  0.00000000000E+00 0. -1.
<scales pt_clust_5="13000.00000" pt_clust_6="13000.00000" pt_clust_7="13000.00000" pt_clust_8="13000.00000" pt_clust_9="13000.00000"></scales>
<clustering>
<clus scale="   80.926">  5  6 -1 -1</clus>
<clus scale="   89.884">  7  8 -1 -1</clus>
<clus scale="   35.593">  7  9 -1 -1</clus>
<clus scale="  154.904">  1  5  2 -1</clus>
<clus scale="  198.532">  2  5  1 -1</clus>
</clustering>
</event>
<event>
 9    2  0.3897980E-005  0.6117783E+03  0.7546771E-02  0.1017042E+00
         21   -1    0    0  501  502  0.00000000000E+00  0.00000000000E+00  0.26118514168E+03  0.26118514168E+03  0.00000000000E+00 0. -1.
          2   -1    0    0  502    0 -0.00000000000E+00 -0.00000000000E+00 -0.10640245222E+04  0.10640245222E+04  0.00000000000E+00 0. -1.
         24    2    1    2    0    0  0.22641301474E+02  0.23344426847E+03 -0.64892698065E+03  0.69436756087E+03  0.77660983547E+02 0.  0.
         23    2    1    2    0    0 -0.11231559354E+03  0.12073366400E+03 -0.18328331400E+03  0.26430951636E+03  0.95264563550E+02 0.  0.
        -11    1    3    3    0    0  0.12970962056E+01  0.11864015669E+03 -0.43213696363E+03  0.44812891513E+03  0.00000000000E+00 0.  1.
         12    1    3    3    0    0  0.21344205269E+02  0.11480411178E+03 -0.21679001702E+03  0.24623864574E+03  0.00000000000E+00 0. -1.
        -11    1    4    4    0    0 -0.18256143476E+02  0.73322622724E+02 -0.11883789690E+03  0.14082591920E+03  0.00000000000E+00 0.  1.
         11    1    4    4    0    0 -0.94059450067E+02  0.47411041280E+02 -0.64445417100E+02  0.12348359716E+03  0.00000000000E+00 0. -1.
          1    1    1    2  501    0  0.89674292069E+02 -0.35417793247E+03  0.29370914100E+02  0.36653258669E+03  0.00000000000E+00 0. -1.
<scales pt_clust_5="13000.00000" pt_clust_6="13000.00000" pt_clust_7="13000.00000" pt_clust_8="13000.00000" pt_clust_9="13000.00000"></scales>
<clustering>
<clus scale="   77.661">  5  6 -1 -1</clus>
<clus scale="   95.265">  7  8 -1 -1</clus>
<clus scale="  247.063">  2  5  1 -1</clus>
<clus scale="  272.647">  7  9 -1 -1</clus>
<clus scale="  611.778">  1  5  2 -1</clus>
</clustering>
</event>
<event>
 9    2  0.3897980E-005  0.2188048E+03  0.7546771E-02  0.1146651E+00
          2   -1    0    0  502    0 -0.00000000000E+00  0.00000000000E+00  0.22568473368E+03  0.22568473368E+03  0.00000000000E+00 0. -1.
         21   -1    0    0  501  502  0.00000000000E+00 -0.00000000000E+00 -0.39318812176E+03  0.39318812176E+03  0.00000000000E+00 0. -1.
         24    2    1    2    0    0 -0.12996787899E+03 -0.45029433207E+02  0.15712465223E+03  0.22738987309E+03  0.89992769822E+02 0.  0.
         23    2    1    2    0    0  0.24163685223E+02 -0.18158319812E+02 -0.14581011412E+03  0.17431238058E+03  0.90612407432E+02 0.  0.
        -11    1    3    3    0    0 -0.18726195446E+02 -0.19086411648E+02 -0.68023288247E+01  0.27590454562E+02  0.00000000000E+00 0.  1.
         12    1    3    3    0    0 -0.11124168354E+03 -0.25943021560E+02  0.16392698106E+03  0.19979941853E+03  0.00000000000E+00 0. -1.
        -11    1    4    4    0    0  0.34119671559E+02  0.16125038755E+02 -0.18380101343E+02  0.41976147840E+02  0.00000000000E+00 0.  1.
         11    1    4    4    0    0 -0.99559863358E+01 -0.34283358567E+02 -0.12743001278E+03  0.13233623273E+03  0.00000000000E+00 0. -1.
          1    1    1    2  501    0  0.10580419376E+03  0.63187753019E+02 -0.17881792619E+03  0.21717060178E+03  0.00000000000E+00 0. -1.
<scales pt_clust_5="13000.00000" pt_clust_6="13000.00000" pt_clust_7="13000.00000" pt_clust_8="13000.00000" pt_clust_9="13000.00000"></scales>
<clustering>
<clus scale="   89.993">  5  6 -1 -1</clus>
<clus scale="   90.612">  7  8 -1 -1</clus>
<clus scale="  123.236">  7  9 -1 -1</clus>
<clus scale="  164.372">  1  5  2 -1</clus>
<clus scale="  218.805">  2  5  1 -1</clus>
</clustering>
</event>
<event>
 9    2  0.3897980E-005  0.2024885E+03  0.7546771E-02  0.1165928E+00
          2   -1    0    0  502    0 -0.00000000000E+00  0.00000000000E+00  0.53471025504E+03  0.53471025504E+03  0.00000000000E+00 0. -1.
         21   -1    0    0  501  502  0.00000000000E+00 -0.00000000000E+00 -0.59338911241E+02  0.59338911241E+02  0.00000000000E+00 0.  1.
         24    2    1    2    0    0  0.10255224945E+03  0.89290634585E+01  0.93361682660E+02  0.16169171705E+03  0.82650562809E+02 0.  0.
         23    2    1    2    0    0 -0.37120205543E+02  0.49262342532E+02  0.20080386055E+03  0.23110354426E+03  0.96342979530E+02 0.  0.
        -11    1    3    3    0    0  0.70349578927E+02 -0.33725786517E+02  0.48071602069E+02  0.91637169625E+02  0.00000000000E+00 0.  1.
         12    1    3    3    0    0  0.32202670521E+02  0.42654849975E+02  0.45290080591E+02  0.70054547426E+02  0.00000000000E+00 0. -1.
        -13    1    4    4    0    0  0.17361609534E+02 -0.19855770151E+02  0.44889715567E+02  0.52064994551E+02  0.00000000000E+00 0.  1.
         13    1    4    4    0    0 -0.54481815077E+02  0.69118112683E+02  0.15591414498E+03  0.17903854970E+03  0.00000000000E+00 0. -1.
          1    1    1    2  501    0 -0.65432043904E+02 -0.58191405991E+02  0.18120580059E+03  0.20125390498E+03  0.00000000000E+00 0. -1.
<scales pt_clust_5="13000.00000" pt_clust_6="13000.00000" pt_clust_7="13000.00000" pt_clust_8="13000.00000" pt_clust_9="13000.00000"></scales>
<clustering>
<clus scale="   82.651">  5  6 -1 -1</clus>
<clus scale="   96.343">  7  8 -1 -1</clus>
<clus scale="   87.565">  7  9 -1 -1</clus>
<clus scale="  132.014">  1  5  2 -1</clus>
<clus scale="  202.488">  2  5  1 -1</clus>
</clustering>
</event>
<event>
 9    2  0.3897980E-005  0.1487033E+03  0.7546771E-02  0.1208302E+00
         21   -1    0    0  501  502  0.00000000000E+00  0.00000000000E+00  0.93313828319E+02  0.93313828319E+02  0.00000000000E+00 0.  1.
         -3   -1    0    0    0  501 -0.00000000000E+00 -0.00000000000E+00 -0.30826833079E+03  0.30826833079E+03  0.00000000000E+00 0.  1.
         24    2    1    2    0    0 -0.47295493464E+01 -0.74095073713E+02 -0.21686230491E+03  0.25286657604E+03  0.10676983375E+03 0.  0.
         23    2    1    2    0    0 -0.23872553003E+02  0.41257731227E+02 -0.12095126594E+02  0.10297224102E+03  0.90470388312E+02 0.  0.
        -11    1    3    3    0    0  0.17025549339E+02  0.22162455672E+02 -0.75151317283E+02  0.80179575087E+02  0.00000000000E+00 0.  1.
         12    1    3    3    0    0 -0.21755098686E+02 -0.96257529385E+02 -0.14171098763E+03  0.17268700095E+03  0.00000000000E+00 0. -1.
        -13    1    4    4    0    0 -0.87984914846E+01  0.59034563677E+02  0.20317160601E+02  0.63049822964E+02  0.00000000000E+00 0. -1.
         13    1    4    4    0    0 -0.15074061518E+02 -0.17776832450E+02 -0.32412287194E+02  0.39922418060E+02  0.00000000000E+00 0.  1.
         -4    1    1    2    0  502  0.28602102349E+02  0.32837342486E+02  0.14002929033E+02  0.45743342050E+02  0.00000000000E+00 0.  1.
<scales pt_clust_5="13000.00000" pt_clust_6="13000.00000" pt_clust_7="13000.00000" pt_clust_8="13000.00000" pt_clust_9="13000.00000"></scales>
<clustering>
<clus scale="   90.470">  7  8 -1 -1</clus>
<clus scale="   43.547">  7  9 -1 -1</clus>
<clus scale="  106.770">  5  6 -1 -1</clus>
<clus scale="  130.047">  2  5  1 -1</clus>
<clus scale="  148.703">  1  5  2 -1</clus>
</clustering>
</event>
<event>
 9    2  0.3897980E-005  0.2997779E+03  0.7546771E-02  0.1132307E+00
         21   -1    0    0  501  502  0.00000000000E+00  0.00000000000E+00  0.29527109387E+03  0.29527109387E+03  0.00000000000E+00 0.  1.
         -1   -1    0    0    0  501 -0.00000000000E+00 -0.00000000000E+00 -0.12906921466E+03  0.12906921466E+03  0.00000000000E+00 0.  1.
         24    2    1    2    0    0 -0.32918453519E+02 -0.27134993050E+02  0.45491756709E+02  0.10117202883E+03  0.79663963367E+02 0.  0.
         23    2    1    2    0    0  0.96004028779E+02 -0.88001675947E+02  0.10696048333E+03  0.19116337475E+03  0.90232047195E+02 0.  0.
        -11    1    3    3    0    0  0.11673553793E+02 -0.17630918877E+02  0.51035562479E+02  0.55242644724E+02  0.00000000000E+00 0.  1.
         12    1    3    3    0    0 -0.44592007312E+02 -0.95040741730E+01 -0.55438057699E+01  0.45929384106E+02  0.00000000000E+00 0. -1.
        -13    1    4    4    0    0  0.93611944117E+02 -0.27058896659E+02  0.66521693188E+02  0.11798523482E+03  0.00000000000E+00 0. -1.
         13    1    4    4    0    0  0.23920846616E+01 -0.60942779288E+02  0.40438790143E+02  0.73178139937E+02  0.00000000000E+00 0.  1.
         -2    1    1    2    0  502 -0.63085575260E+02  0.11513666900E+03  0.13749639174E+02  0.13200490495E+03  0.00000000000E+00 0.  1.
<scales pt_clust_5="13000.00000" pt_clust_6="13000.00000" pt_clust_7="13000.00000" pt_clust_8="13000.00000" pt_clust_9="13000.00000"></scales>
<clustering>
<clus scale="   79.664">  5  6 -1 -1</clus>
<clus scale="   90.232">  7  8 -1 -1</clus>
<clus scale="   90.368">  2  5  1 -1</clus>
<clus scale="  128.971">  7  9 -1 -1</clus>
<clus scale="  299.778">  1  5  2 -1</clus>
</clustering>
</event>
<event>
 9    2  0.3897980E-005  0.5821533E+03  0.7546771E-02  0.1045586E+00
          2   -1    0    0  502    0 -0.00000000000E+00  0.00000000000E+00  0.12298786371E+04  0.12298786371E+04  0.00000000000E+00 0. -1.
         21   -1    0    0  501  502  0.00000000000E+00 -0.00000000000E+00 -0.14723395192E+03  0.14723395192E+03  0.00000000000E+00 0. -1.
         24    2    1    2    0    0 -0.90781394395E+02  0.16575765016E+02  0.62387063467E+03  0.63591351957E+03  0.81580745384E+02 0.  0.
         23    2    1    2    0    0 -0.10465636278E+03 -0.44224555635E+02  0.51659519899E+03  0.53552053933E+03  0.83683229150E+02 0.  0.
        -11    1    3    3    0    0 -0.28614903014E+02 -0.29567578948E+02  0.14119471301E+03  0.14706801617E+03  0.00000000000E+00 0.  1.
         12    1    3    3    0    0 -0.62166491381E+02  0.46143343964E+02  0.48267592166E+03  0.48884550340E+03  0.00000000000E+00 0. -1.
        -13    1    4    4    0    0 -0.25256657608E+02 -0.12912049841E+02  0.29203237482E+02  0.40711777953E+02  0.00000000000E+00 0.  1.
         13    1    4    4    0    0 -0.79399705169E+02 -0.31312505794E+02  0.48739196150E+03  0.49480876138E+03  0.00000000000E+00 0. -1.
          1    1    1    2  501    0  0.19543775717E+03  0.27648790619E+02 -0.57821148452E+02  0.20567853014E+03  0.00000000000E+00 0. -1.
<scales pt_clust_5="13000.00000" pt_clust_6="13000.00000" pt_clust_7="13000.00000" pt_clust_8="13000.00000" pt_clust_9="13000.00000"></scales>
<clustering>
<clus scale="   81.581">  5  6 -1 -1</clus>
<clus scale="   83.683">  7  8 -1 -1</clus>
<clus scale="  123.172">  1  5  2 -1</clus>
<clus scale="  186.629">  7  9 -1 -1</clus>
<clus scale="  582.153">  2  5  1 -1</clus>
</clustering>
</event>
<event>
 9    2  0.3897980E-005  0.5187287E+03  0.7546771E-02  0.1049638E+00
          2   -1    0    0  502    0 -0.00000000000E+00  0.00000000000E+00  0.10408134059E+04  0.10408134059E+04  0.00000000000E+00 0. -1.
         21   -1    0    0  501  502  0.00000000000E+00 -0.00000000000E+00 -0.11070520479E+03  0.11070520479E+03  0.00000000000E+00 0.  1.
         24    2    1    2    0    0 -0.13104547994E+03 -0.18250293703E+02  0.27757022698E+03  0.31792080923E+03  0.80761494574E+02 0.  0.
         23    2    1    2    0    0  0.42252099991E+01 -0.11568000422E+03 -0.90261482633E+01  0.14680249454E+03  0.89831983575E+02 0.  0.
        -13    1    3    3    0    0 -0.81255757317E+02  0.24958678014E+02  0.19138880093E+03  0.20941610928E+03  0.00000000000E+00 0.  1.
         14    1    3    3    0    0 -0.49789722625E+02 -0.43208971717E+02  0.86181426046E+02  0.10850469995E+03  0.00000000000E+00 0. -1.
        -13    1    4    4    0    0 -0.36827542638E+02 -0.90806280359E+02 -0.11934559240E+02  0.98714143635E+02  0.00000000000E+00 0.  1.
         13    1    4    4    0    0  0.41052752637E+02 -0.24873723864E+02  0.29084109767E+01  0.48088350901E+02  0.00000000000E+00 0. -1.
          1    1    1    2  501    0  0.12682026994E+03  0.13393029793E+03  0.66156412236E+03  0.68679530689E+03  0.00000000000E+00 0. -1.
<scales pt_clust_5="13000.00000" pt_clust_6="13000.00000" pt_clust_7="13000.00000" pt_clust_8="13000.00000" pt_clust_9="13000.00000"></scales>
<clustering>
<clus scale="   80.761">  5  6 -1 -1</clus>
<clus scale="   89.832">  7  8 -1 -1</clus>
<clus scale="  155.011">  1  5  2 -1</clus>
<clus scale="  117.639">  7  9 -1 -1</clus>
<clus scale="  518.729">  2  5  1 -1</clus>
</clustering>
</event>
<event>
 9    2  0.3897980E-005  0.6751855E+03  0.7546771E-02  0.1040041E+00
          2   -1    0    0  502    0 -0.00000000000E+00  0.00000000000E+00  0.47548758900E+03  0.47548758900E+03  0.00000000000E+00 0. -1.
         21   -1    0    0  501  502  0.00000000000E+00 -0.00000000000E+00 -0.32653790407E+03  0.32653790407E+03  0.00000000000E+00 0. -1.
         24    2    1    2    0    0  0.30122213103E+02  0.31051250995E+02 -0.39921460426E+02  0.10092081480E+03  0.81974141944E+02 0.  0.
         23    2    1    2    0    0  0.23125596261E+03  0.18438471010E+03  0.18836615377E+03  0.36238435249E+03  0.91452553188E+02 0.  0.
        -11    1    3    3    0    0 -0.14230700423E+01  0.45131729465E+02 -0.47517882204E+02  0.65550341433E+02  0.00000000000E+00 0.  1.
         12    1    3    3    0    0  0.31545283145E+02 -0.14080478470E+02  0.75964217780E+01  0.35370473371E+02  0.00000000000E+00 0. -1.
        -13    1    4    4    0    0  0.15607778508E+03  0.66396353629E+02  0.10689372018E+03  0.20048695265E+03  0.00000000000E+00 0.  1.
         13    1    4    4    0    0  0.75178177533E+02  0.11798835648E+03  0.81472433584E+02  0.16189739984E+03  0.00000000000E+00 0. -1.
          1    1    1    2  501    0 -0.26137817571E+03 -0.21543596110E+03  0.50499159492E+00  0.33872032577E+03  0.00000000000E+00 0. -1.
<scales pt_clust_5="13000.00000" pt_clust_6="13000.00000" pt_clust_7="13000.00000" pt_clust_8="13000.00000" pt_clust_9="13000.00000"></scales>
<clustering>
<clus scale="   81.974">  5  6 -1 -1</clus>
<clus scale="   91.453">  7  8 -1 -1</clus>
<clus scale="   92.689">  1  5  2 -1</clus>
<clus scale="  322.338">  7  9 -1 -1</clus>
<clus scale="  675.186">  2  5  1 -1</clus>
</clustering>
</event>
<event>
 9    2  0.3897980E-005  0.1880542E+03  0.7546771E-02  0.1185487E+00
          2   -1    0    0  502    0 -0.00000000000E+00  0.00000000000E+00  0.19048884846E+03  0.19048884846E+03  0.00000000000E+00 0. -1.
         21   -1    0    0  501  502  0.00000000000E+00 -0.00000000000E+00 -0.12792132536E+03  0.12792132536E+03  0.00000000000E+00 0. -1.
         24    2    1    2    0    0 -0.67514893327E+02  0.24069121739E+02 -0.28315814280E+02  0.10954620954E+03  0.77852445327E+02 0.  0.
         23    2    1    2    0    0 -0.46173360572E+01  0.28572983389E+02  0.65905924174E+02  0.11613791121E+03  0.91141035800E+02 0.  0.
        -11    1    3    3    0    0  0.85870723195E+01  0.26277000686E+02 -0.17320465911E+02  0.32622340742E+02  0.00000000000E+00 0.  1.
         12    1    3    3    0    0 -0.76101965647E+02 -0.22078789474E+01 -0.10995348369E+02  0.76923868796E+02  0.00000000000E+00 0. -1.
        -13    1    4    4    0    0  0.28703614587E+02 -0.20955012414E+02  0.19567331823E+02  0.40569576166E+02  0.00000000000E+00 0. -1.
         13    1    4    4    0    0 -0.33320950644E+02  0.49527995803E+02  0.46338592351E+02  0.75568335043E+02  0.00000000000E+00 0.  1.
          1    1    1    2  501    0  0.72132229384E+02 -0.52642105128E+02  0.24977413207E+02  0.92726053074E+02  0.00000000000E+00 0. -1.
<scales pt_clust_5="13000.00000" pt_clust_6="13000.00000" pt_clust_7="13000.00000" pt_clust_8="13000.00000" pt_clust_9="13000.00000"></scales>
<clustering>
<clus scale="   77.852">  5  6 -1 -1</clus>
<clus scale="   91.141">  7  8 -1 -1</clus>
<clus scale="   89.299">  7  9 -1 -1</clus>
<clus scale="  105.823">  1  5  2 -1</clus>
<clus scale="  188.054">  2  5  1 -1</clus>
</clustering>
</event>
<event>
 9    2  0.3897980E-005  0.2588542E+03  0.7546771E-02  0.1116875E+00
          2   -1    0    0  502    0 -0.00000000000E+00  0.00000000000E+00  0.12120778786E+04  0.12120778786E+04  0.00000000000E+00 0. -1.
         21   -1    0    0  501  502  0.00000000000E+00 -0.00000000000E+00 -0.45293364453E+02  0.45293364453E+02  0.00000000000E+00 0. -1.
         24    2    1    2    0    0  0.32857327769E+02  0.18804690796E+03  0.43701603586E+03  0.48305377575E+03  0.76920030454E+02 0.  0.
         23    2    1    2    0    0  0.69532678207E+01 -0.11936160544E+03  0.28238999134E+03  0.31994970339E+03  0.91258778767E+02 0.  0.
        -11    1    3    3    0    0 -0.21915741193E+02  0.29650757601E+02  0.59362400001E+02  0.69881053743E+02  0.00000000000E+00 0.  1.
         12    1    3    3    0    0  0.54773068963E+02  0.15839615036E+03  0.37765363586E+03  0.41317272201E+03  0.00000000000E+00 0. -1.
        -13    1    4    4    0    0  0.35193985560E+02 -0.54597201569E+02  0.20552455241E+03  0.21554538427E+03  0.00000000000E+00 0.  1.
         13    1    4    4    0    0 -0.28240717740E+02 -0.64764403876E+02  0.76865438928E+02  0.10440431911E+03  0.00000000000E+00 0. -1.
          1    1    1    2  501    0 -0.39810595590E+02 -0.68685302513E+02  0.44737848693E+03  0.45436776390E+03  0.00000000000E+00 0. -1.
<scales pt_clust_5="13000.00000" pt_clust_6="13000.00000" pt_clust_7="13000.00000" pt_clust_8="13000.00000" pt_clust_9="13000.00000"></scales>
<clustering>
<clus scale="   76.920">  5  6 -1 -1</clus>
<clus scale="   91.259">  7  8 -1 -1</clus>
<clus scale="   79.389">  7  9 -1 -1</clus>
<clus scale="  205.811">  1  5  2 -1</clus>
<clus scale="  258.854">  2  5  1 -1</clus>
</clustering>
</event>
<event>
 9    2  0.3897980E-005  0.1862789E+03  0.7546771E-02  0.1189512E+00
         -1   -1    0    0    0  501 -0.00000000000E+00  0.00000000000E+00  0.58363639393E+02  0.58363639393E+02  0.00000000000E+00 0.  1.
         21   -1    0    0  501  502  0.00000000000E+00 -0.00000000000E+00 -0.35981370020E+03  0.35981370020E+03  0.00000000000E+00 0. -1.
         24    2    1    2    0    0  0.24328229595E+02 -0.52008595623E+02 -0.73330465901E+02  0.12366351224E+03  0.81354472877E+02 0.  0.
         23    2    1    2    0    0  0.13671735036E+02 -0.29128332864E+02 -0.13692898893E+03  0.16667437689E+03  0.89417133628E+02 0.  0.
        -11    1    3    3    0    0 -0.24387435689E+02 -0.11615379014E+02 -0.28014684865E+00  0.27013747082E+02  0.00000000000E+00 0.  1.
         12    1    3    3    0    0  0.48715665284E+02 -0.40393216609E+02 -0.73050319052E+02  0.96649765161E+02  0.00000000000E+00 0. -1.
        -11    1    4    4    0    0 -0.18942154183E+02 -0.51858827177E+02 -0.82679969109E+02  0.99418913961E+02  0.00000000000E+00 0. -1.
         11    1    4    4    0    0  0.32613889218E+02  0.22730494313E+02 -0.54249019821E+02  0.67255462925E+02  0.00000000000E+00 0.  1.
         -2    1    1    2    0  502 -0.37999964631E+02  0.81136928488E+02 -0.91190605972E+02  0.12783945046E+03  0.00000000000E+00 0.  1.
<scales pt_clust_5="13000.00000" pt_clust_6="13000.00000" pt_clust_7="13000.00000" pt_clust_8="13000.00000" pt_clust_9="13000.00000"></scales>
<clustering>
<clus scale="   81.354">  5  6 -1 -1</clus>
<clus scale="   89.417">  7  8 -1 -1</clus>
<clus scale="   89.595">  7  9 -1 -1</clus>
<clus scale="   99.576">  1  5  2 -1</clus>
<clus scale="  186.279">  2  5  1 -1</clus>
</clustering>
</event>
<event>
 9    2  0.3897980E-005  0.2687202E+03  0.7546771E-02  0.1107598E+00
         21   -1    0    0  501  502  0.00000000000E+00  0.00000000000E+00  0.38721466518E+02  0.38721466518E+02  0.00000000000E+00 0.  1.
         -3   -1    0    0    0  501 -0.00000000000E+00 -0.00000000000E+00 -0.16519568075E+04  0.16519568075E+04  0.00000000000E+00 0.  1.
         24    2    1    2    0    0 -0.15351882176E+03  0.15467410948E+03 -0.63966726750E+03  0.68070532768E+03  0.81813331632E+02 0.  0.
         23    2    1    2    0    0  0.38306446748E+02 -0.94334511542E+02 -0.54256558955E+03  0.55977532353E+03  0.92761036743E+02 0.  0.
        -13    1    3    3    0    0 -0.15378449873E+03  0.12371856751E+03 -0.49781442611E+03  0.53551392031E+03  0.00000000000E+00 0.  1.
         14    1    3    3    0    0  0.26567697207E+00  0.30955541962E+02 -0.14185284140E+03  0.14519140737E+03  0.00000000000E+00 0. -1.
        -11    1    4    4    0    0  0.31535351726E+01 -0.90650788666E+02 -0.47437103854E+03  0.48296520835E+03  0.00000000000E+00 0.  1.
         11    1    4    4    0    0  0.35152911575E+02 -0.36837228765E+01 -0.68194551005E+02  0.76810115176E+02  0.00000000000E+00 0. -1.
         -4    1    1    2    0  502  0.11521237501E+03 -0.60339597935E+02 -0.43100248391E+03  0.45019762279E+03  0.00000000000E+00 0.  1.
<scales pt_clust_5="13000.00000" pt_clust_6="13000.00000" pt_clust_7="13000.00000" pt_clust_8="13000.00000" pt_clust_9="13000.00000"></scales>
<clustering>
<clus scale="   81.813">  5  6 -1 -1</clus>
<clus scale="   92.761">  7  8 -1 -1</clus>
<clus scale="  130.057">  7  9 -1 -1</clus>
<clus scale="  232.778">  2  5  1 -1</clus>
<clus scale="  268.720">  1  5  2 -1</clus>
</clustering>
</event>
<event>
 9    2  0.3897980E-005  0.1429385E+03  0.7546771E-02  0.1234359E+00
         21   -1    0    0  501  502  0.00000000000E+00  0.00000000000E+00  0.44172786082E+02  0.44172786082E+02  0.00000000000E+00 0. -1.
          2   -1    0    0  502    0 -0.00000000000E+00 -0.00000000000E+00 -0.31506881255E+03  0.31506881255E+03  0.00000000000E+00 0. -1.
         24    2    1    2    0    0  0.76816696641E+01  0.12361404047E+02 -0.14869369040E+03  0.17118625486E+03  0.83564992245E+02 0.  0.
         23    2    1    2    0    0 -0.33640319704E+02  0.30779556591E+01 -0.32448733091E+02  0.93356164330E+02  0.80754617319E+02 0.  0.
        -13    1    3    3    0    0 -0.35615927989E+02  0.54719152237E+01 -0.96582192727E+02  0.10308518873E+03  0.00000000000E+00 0.  1.
         14    1    3    3    0    0  0.43297597653E+02  0.68894888235E+01 -0.52111497678E+02  0.68101066137E+02  0.00000000000E+00 0. -1.
        -13    1    4    4    0    0  0.13441453909E+02 -0.28034895802E+02 -0.10799737817E+02  0.32912951899E+02  0.00000000000E+00 0.  1.
         13    1    4    4    0    0 -0.47081773614E+02  0.31112851461E+02 -0.21648995275E+02  0.60443212431E+02  0.00000000000E+00 0. -1.
          1    1    1    2  501    0  0.25958650040E+02 -0.15439359706E+02 -0.89753602968E+02  0.94699179436E+02  0.00000000000E+00 0. -1.
<scales pt_clust_5="13000.00000" pt_clust_6="13000.00000" pt_clust_7="13000.00000" pt_clust_8="13000.00000" pt_clust_9="13000.00000"></scales>
<clustering>
<clus scale="   80.755">  7  8 -1 -1</clus>
<clus scale="   30.203">  7  9 -1 -1</clus>
<clus scale="   83.565">  5  6 -1 -1</clus>
<clus scale="   84.823">  2  5  1 -1</clus>
<clus scale="  142.938">  1  5  2 -1</clus>
</clustering>
</event>
<event>
 9    2  0.3897980E-005  0.1878626E+03  0.7546771E-02  0.1199815E+00
         21   -1    0    0  501  502  0.00000000000E+00  0.00000000000E+00  0.21028633848E+03  0.21028633848E+03  0.00000000000E+00 0. -1.
          4   -1    0    0  502    0 -0.00000000000E+00 -0.00000000000E+00 -0.15107823219E+03  0.15107823219E+03  0.00000000000E+00 0. -1.
         24    2    1    2    0    0 -0.35483824528E+01 -0.10952838590E+01  0.13752051866E+03  0.15783280006E+03  0.77366071736E+02 0.  0.
         23    2    1    2    0    0 -0.17560134348E+02  0.37968504322E+02  0.12626324669E+02  0.10315718338E+03  0.93445250120E+02 0.  0.
        -11    1    3    3    0    0 -0.25810305055E+01 -0.38277097136E+02  0.87128595850E+02  0.95200788329E+02  0.00000000000E+00 0.  1.
         12    1    3    3    0    0 -0.96735194732E+00  0.37181813277E+02  0.50391922811E+02  0.62632011727E+02  0.00000000000E+00 0. -1.
        -11    1    4    4    0    0  0.36400637412E+02  0.21124645076E+02 -0.82678325701E+01  0.42890722644E+02  0.00000000000E+00 0.  1.
         11    1    4    4    0    0 -0.53960771759E+02  0.16843859246E+02  0.20894157239E+02  0.60266460738E+02  0.00000000000E+00 0. -1.
          3    1    1    2  501    0  0.21108516801E+02 -0.36873220463E+02 -0.90938737033E+02  0.10037458723E+03  0.00000000000E+00 0. -1.
<scales pt_clust_5="13000.00000" pt_clust_6="13000.00000" pt_clust_7="13000.00000" pt_clust_8="13000.00000" pt_clust_9="13000.00000"></scales>
<clustering>
<clus scale="   77.366">  5  6 -1 -1</clus>
<clus scale="   77.455">  2  5  1 -1</clus>
<clus scale="   93.445">  7  8 -1 -1</clus>
<clus scale="   42.008">  7  9 -1 -1</clus>
<clus scale="  187.863">  1  5  2 -1</clus>
</clustering>
</event>
<event>
 9    2  0.3897980E-005  0.2426649E+03  0.7546771E-02  0.1148716E+00
          2   -1    0    0  502    0 -0.00000000000E+00  0.00000000000E+00  0.13083180029E+04  0.13083180029E+04  0.00000000000E+00 0. -1.
         21   -1    0    0  501  502  0.00000000000E+00 -0.00000000000E+00 -0.24876764063E+02  0.24876764063E+02  0.00000000000E+00 0. -1.
         24    2    1    2    0    0 -0.79337554638E+02  0.15987459085E+02  0.33059085403E+03  0.34992974377E+03  0.81304774634E+02 0.  0.
         23    2    1    2    0    0 -0.32254678097E+02 -0.14782714672E+01  0.20116970656E+03  0.22320766683E+03  0.91158445279E+02 0.  0.
        -11    1    3    3    0    0 -0.85009667738E+02  0.30614288147E+02  0.31541972801E+03  0.32810590221E+03  0.00000000000E+00 0.  1.
         12    1    3    3    0    0  0.56721130992E+01 -0.14626829062E+02  0.15171126020E+02  0.21823841553E+02  0.00000000000E+00 0. -1.
        -13    1    4    4    0    0 -0.45509877128E+02 -0.24111245333E+02  0.18580300272E+03  0.19280886102E+03  0.00000000000E+00 0.  1.
         13    1    4    4    0    0  0.13255199031E+02  0.22632973866E+02  0.15366703838E+02  0.30398805803E+02  0.00000000000E+00 0. -1.
          1    1    1    2  501    0  0.11159223274E+03 -0.14509187618E+02  0.75168067827E+03  0.76005735640E+03  0.00000000000E+00 0. -1.
<scales pt_clust_5="13000.00000" pt_clust_6="13000.00000" pt_clust_7="13000.00000" pt_clust_8="13000.00000" pt_clust_9="13000.00000"></scales>
<clustering>
<clus scale="   81.305">  5  6 -1 -1</clus>
<clus scale="   91.158">  7  8 -1 -1</clus>
<clus scale="  112.532">  7  9 -1 -1</clus>
<clus scale="  114.719">  1  5  2 -1</clus>
<clus scale="  242.665">  2  5  1 -1</clus>
</clustering>
</event>
<event>
 9    2  0.3897980E-005  0.1443318E+03  0.7546771E-02  0.1231776E+00
          2   -1    0    0  502    0 -0.00000000000E+00  0.00000000000E+00  0.60493193624E+03  0.60493193624E+03  0.00000000000E+00 0. -1.
         21   -1    0    0  501  502  0.00000000000E+00 -0.00000000000E+00 -0.22766124198E+02  0.22766124198E+02  0.00000000000E+00 0. -1.
         24    2    1    2    0    0  0.92045472779E+00  0.33877070530E+02  0.16856867660E+03  0.18964068850E+03  0.79998055364E+02 0.  0.
         23    2    1    2    0    0  0.18487195297E+02 -0.54374712320E+02  0.25241777107E+03  0.27442486385E+03  0.91081771075E+02 0.  0.
        -11    1    3    3    0    0 -0.61861746514E+01 -0.24759228668E+02  0.32631609688E+02  0.41425959396E+02  0.00000000000E+00 0.  1.
         12    1    3    3    0    0  0.71066293792E+01  0.58636299198E+02  0.13593706691E+03  0.14821472911E+03  0.00000000000E+00 0. -1.
        -11    1    4    4    0    0 -0.42462235326E+01  0.24609508152E+02  0.70794097583E+02  0.75069717985E+02  0.00000000000E+00 0.  1.
         11    1    4    4    0    0  0.22733418830E+02 -0.78984220473E+02  0.18162367348E+03  0.19935514587E+03  0.00000000000E+00 0. -1.
          1    1    1    2  501    0 -0.19407650025E+02  0.20497641791E+02  0.16117936438E+03  0.16363250808E+03  0.00000000000E+00 0. -1.
<scales pt_clust_5="13000.00000" pt_clust_6="13000.00000" pt_clust_7="13000.00000" pt_clust_8="13000.00000" pt_clust_9="13000.00000"></scales>
<clustering>
<clus scale="   79.998">  5  6 -1 -1</clus>
<clus scale="   86.880">  1  5  2 -1</clus>
<clus scale="   91.082">  7  8 -1 -1</clus>
<clus scale="   38.470">  7  9 -1 -1</clus>
<clus scale="  144.332">  2  5  1 -1</clus>
</clustering>
</event>
<event>
 9    2  0.3897980E-005  0.8125156E+03  0.7546771E-02  0.1008681E+00
          2   -1    0    0  502    0 -0.00000000000E+00  0.00000000000E+00  0.96151586662E+03  0.96151586662E+03  0.00000000000E+00 0. -1.
         21   -1    0    0  501  502  0.00000000000E+00 -0.00000000000E+00 -0.29497507570E+03  0.29497507570E+03  0.00000000000E+00 0. -1.
         24    2    1    2    0    0  0.24867959019E+02 -0.90232333886E+02  0.36533416511E+03  0.38994200565E+03  0.99123287391E+02 0.  0.
         23    2    1    2    0    0  0.17904132706E+03  0.43870656914E+02 -0.22217664717E+03  0.30293696690E+03  0.91803660248E+02 0.  0.
        -13    1    3    3    0    0 -0.18474707610E+02 -0.88543563556E+02  0.27948924316E+03  0.29376098194E+03  0.00000000000E+00 0.  1.
         14    1    3    3    0    0  0.43342666630E+02 -0.16887703302E+01  0.85844921959E+02  0.96181023710E+02  0.00000000000E+00 0. -1.
        -13    1    4    4    0    0  0.85805717886E+02  0.58237353465E+02 -0.74453758805E+02  0.12766194719E+03  0.00000000000E+00 0.  1.
         13    1    4    4    0    0  0.93235609175E+02 -0.14366696552E+02 -0.14772288836E+03  0.17527501971E+03  0.00000000000E+00 0. -1.
          1    1    1    2  501    0 -0.20390928608E+03  0.46361676972E+02  0.52338327297E+03  0.56361196977E+03  0.00000000000E+00 0. -1.
<scales pt_clust_5="13000.00000" pt_clust_6="13000.00000" pt_clust_7="13000.00000" pt_clust_8="13000.00000" pt_clust_9="13000.00000"></scales>
<clustering>
<clus scale="   91.804">  7  8 -1 -1</clus>
<clus scale="   99.123">  5  6 -1 -1</clus>
<clus scale="  136.329">  1  5  2 -1</clus>
<clus scale="  184.637">  7  9 -1 -1</clus>
<clus scale="  812.516">  2  5  1 -1</clus>
</clustering>
</event>
<event>
 9    2  0.3897980E-005  0.4139549E+03  0.7546771E-02  0.1078923E+00
         -3   -1    0    0    0  501 -0.00000000000E+00  0.00000000000E+00  0.54765337950E+03  0.54765337950E+03  0.00000000000E+00 0.  1.
         21   -1    0    0  501  502  0.00000000000E+00 -0.00000000000E+00 -0.24847637174E+03  0.24847637174E+03  0.00000000000E+00 0.  1.
         24    2    1    2    0    0 -0.90430615441E+02  0.61716575180E+02  0.35361542066E+03  0.37861061288E+03  0.79470111366E+02 0.  0.
         23    2    1    2    0    0 -0.25635670120E+02  0.13101557534E+03  0.51484515567E+02  0.16884921403E+03  0.89650059520E+02 0.  0.
        -11    1    3    3    0    0 -0.90371174556E+02  0.76242213902E+02  0.33318920064E+03  0.35354613248E+03  0.00000000000E+00 0.  1.
         12    1    3    3    0    0 -0.59440885243E-01 -0.14525638722E+02  0.20426220017E+02  0.25064480399E+02  0.00000000000E+00 0. -1.
        -13    1    4    4    0    0 -0.33344069963E+02  0.88663669163E+02 -0.83998506651E+01  0.95098005880E+02  0.00000000000E+00 0.  1.
         13    1    4    4    0    0  0.77083998432E+01  0.42351906179E+02  0.59884366232E+02  0.73751208154E+02  0.00000000000E+00 0. -1.
         -4    1    1    2    0  502  0.11606628556E+03 -0.19273215052E+03 -0.10592292846E+03  0.24866992432E+03  0.00000000000E+00 0.  1.
<scales pt_clust_5="13000.00000" pt_clust_6="13000.00000" pt_clust_7="13000.00000" pt_clust_8="13000.00000" pt_clust_9="13000.00000"></scales>
<clustering>
<clus scale="   79.470">  5  6 -1 -1</clus>
<clus scale="   89.650">  7  8 -1 -1</clus>
<clus scale="  135.285">  1  5  2 -1</clus>
<clus scale="  186.719">  7  9 -1 -1</clus>
<clus scale="  413.955">  2  5  1 -1</clus>
</clustering>
</event>
<event>
 9    2  0.3897980E-005  0.4269534E+03  0.7546771E-02  0.1089128E+00
          4   -1    0    0  502    0 -0.00000000000E+00  0.00000000000E+00  0.19654652297E+03  0.19654652297E+03  0.00000000000E+00 0. -1.
         21   -1    0    0  501  502  0.00000000000E+00 -0.00000000000E+00 -0.40328796730E+03  0.40328796730E+03  0.00000000000E+00 0. -1.
         24    2    1    2    0    0  0.21559549407E+02 -0.30319238471E+02  0.45106643941E+02  0.10413632063E+03  0.86172464011E+02 0.  0.
         23    2    1    2    0    0 -0.14228554122E+03 -0.83604771343E+02 -0.26989382623E+03  0.32872783165E+03  0.89355340269E+02 0.  0.
        -11    1    3    3    0    0  0.46108790435E+02 -0.44498758795E+02  0.39383161712E+02  0.75214317228E+02  0.00000000000E+00 0.  1.
         12    1    3    3    0    0 -0.24549241028E+02  0.14179520324E+02  0.57234822290E+01  0.28922003397E+02  0.00000000000E+00 0. -1.
        -11    1    4    4    0    0 -0.10406571197E+03 -0.10081078765E+03 -0.22183639664E+03  0.26496013698E+03  0.00000000000E+00 0. -1.
         11    1    4    4    0    0 -0.38219829248E+02  0.17206016308E+02 -0.48057429591E+02  0.63767694672E+02  0.00000000000E+00 0.  1.
          3    1    1    2  501    0  0.12072599181E+03  0.11392400981E+03  0.18045737965E+02  0.16697033799E+03  0.00000000000E+00 0. -1.
<scales pt_clust_5="13000.00000" pt_clust_6="13000.00000" pt_clust_7="13000.00000" pt_clust_8="13000.00000" pt_clust_9="13000.00000"></scales>
<clustering>
<clus scale="   86.172">  5  6 -1 -1</clus>
<clus scale="   89.355">  7  8 -1 -1</clus>
<clus scale="   93.860">  1  5  2 -1</clus>
<clus scale="  164.495">  7  9 -1 -1</clus>
<clus scale="  426.953">  2  5  1 -1</clus>
</clustering>
</event>
<event>
 9    2  0.3897980E-005  0.7100054E+03  0.7546771E-02  0.9825279E-01
          2   -1    0    0  502    0 -0.00000000000E+00  0.00000000000E+00  0.33383983803E+03  0.33383983803E+03  0.00000000000E+00 0. -1.
         21   -1    0    0  501  502  0.00000000000E+00 -0.00000000000E+00 -0.12571432939E+04  0.12571432939E+04  0.00000000000E+00 0. -1.
         24    2    1    2    0    0  0.11133328812E+03  0.44583538086E+03 -0.70719794097E+03  0.84881789403E+03  0.95909340787E+02 0.  0.
         23    2    1    2    0    0  0.10026495378E+03 -0.19409423962E+03  0.12762919196E+03  0.26645422595E+03  0.83564400765E+02 0.  0.
        -11    1    3    3    0    0  0.83294759757E+02  0.40876621459E+03 -0.58863410107E+03  0.72146929258E+03  0.00000000000E+00 0.  1.
         12    1    3    3    0    0  0.28038528364E+02  0.37069166271E+02 -0.11856383989E+03  0.12734860145E+03  0.00000000000E+00 0. -1.
        -11    1    4    4    0    0  0.44327441416E+02 -0.16790864808E+02  0.33670886285E+02  0.58142787916E+02  0.00000000000E+00 0.  1.
         11    1    4    4    0    0  0.55937512361E+02 -0.17730337482E+03  0.93958305675E+02  0.20831143803E+03  0.00000000000E+00 0. -1.
          1    1    1    2  501    0 -0.21159824190E+03 -0.25174114124E+03 -0.34373470682E+03  0.47571101189E+03  0.00000000000E+00 0. -1.
<scales pt_clust_5="13000.00000" pt_clust_6="13000.00000" pt_clust_7="13000.00000" pt_clust_8="13000.00000" pt_clust_9="13000.00000"></scales>
<clustering>
<clus scale="   83.564">  7  8 -1 -1</clus>
<clus scale="   95.909">  5  6 -1 -1</clus>
<clus scale="  328.858">  7  9 -1 -1</clus>
<clus scale="  469.428">  1  5  2 -1</clus>
<clus scale="  710.005">  2  5  1 -1</clus>
</clustering>
</event>
<event>
 9    2  0.3897980E-005  0.3978531E+03  0.7546771E-02  0.1088248E+00
          2   -1    0    0  502    0 -0.00000000000E+00  0.00000000000E+00  0.12441182955E+04  0.12441182955E+04  0.00000000000E+00 0. -1.
         21   -1    0    0  501  502  0.00000000000E+00 -0.00000000000E+00 -0.56094913709E+02  0.56094913709E+02  0.00000000000E+00 0. -1.
         24    2    1    2    0    0 -0.75604044931E+02 -0.37184352731E+02  0.40302200025E+03  0.42014829421E+03  0.83661273874E+02 0.  0.
         23    2    1    2    0    0  0.15116024884E+03 -0.67735094129E+01  0.77176764301E+03  0.79165583502E+03  0.90544823482E+02 0.  0.
        -13    1    3    3    0    0 -0.82565784686E+01  0.23268280807E+02  0.50748670194E+02  0.56435906179E+02  0.00000000000E+00 0.  1.
         14    1    3    3    0    0 -0.67347466462E+02 -0.60452633538E+02  0.35227333005E+03  0.36371238803E+03  0.00000000000E+00 0. -1.
        -13    1    4    4    0    0  0.98544662722E+02 -0.47473899389E+02  0.50625599188E+03  0.51793817294E+03  0.00000000000E+00 0.  1.
         13    1    4    4    0    0  0.52615586120E+02  0.40700389976E+02  0.26551165113E+03  0.27371766208E+03  0.00000000000E+00 0. -1.
          1    1    1    2  501    0 -0.75556203912E+02  0.43957862144E+02  0.13233738575E+02  0.88409080023E+02  0.00000000000E+00 0. -1.
<scales pt_clust_5="13000.00000" pt_clust_6="13000.00000" pt_clust_7="13000.00000" pt_clust_8="13000.00000" pt_clust_9="13000.00000"></scales>
<clustering>
<clus scale="   83.661">  5  6 -1 -1</clus>
<clus scale="   90.545">  7  8 -1 -1</clus>
<clus scale="   87.413">  7  9 -1 -1</clus>
<clus scale="  118.734">  1  5  2 -1</clus>
<clus scale="  397.853">  2  5  1 -1</clus>
</clustering>
</event>
<event>
 9    2  0.3897980E-005  0.2456085E+03  0.7546771E-02  0.1153705E+00
          2   -1    0    0  502    0 -0.00000000000E+00  0.00000000000E+00  0.35240155667E+03  0.35240155667E+03  0.00000000000E+00 0. -1.
         21   -1    0    0  501  502  0.00000000000E+00 -0.00000000000E+00 -0.92996436161E+02  0.92996436161E+02  0.00000000000E+00 0. -1.
         24    2    1    2    0    0  0.54681018725E+02  0.55016389241E+01  0.16031189981E+02  0.99631621343E+02  0.81542498610E+02 0.  0.
         23    2    1    2    0    0 -0.24599748644E+02  0.36804264744E+02  0.47803293352E+01  0.10159106802E+03  0.91313701139E+02 0.  0.
        -13    1    3    3    0    0  0.59566647389E+02 -0.18631998052E+02 -0.10661074190E+02  0.63316627638E+02  0.00000000000E+00 0.  1.
         14    1    3    3    0    0 -0.48856286647E+01  0.24133636976E+02  0.26692264171E+02  0.36314993704E+02  0.00000000000E+00 0. -1.
        -11    1    4    4    0    0 -0.48889409195E+02 -0.88774867587E+01  0.71998415865E+00  0.49694088982E+02  0.00000000000E+00 0.  1.
         11    1    4    4    0    0  0.24289660551E+02  0.45681751502E+02  0.40603451766E+01  0.51896979035E+02  0.00000000000E+00 0. -1.
          1    1    1    2  501    0 -0.30081270081E+02 -0.42305903668E+02  0.23859360119E+03  0.24417530347E+03  0.00000000000E+00 0. -1.
<scales pt_clust_5="13000.00000" pt_clust_6="13000.00000" pt_clust_7="13000.00000" pt_clust_8="13000.00000" pt_clust_9="13000.00000"></scales>
<clustering>
<clus scale="   81.542">  5  6 -1 -1</clus>
<clus scale="   91.314">  7  8 -1 -1</clus>
<clus scale="   51.910">  7  9 -1 -1</clus>
<clus scale="   98.333">  1  5  2 -1</clus>
<clus scale="  245.608">  2  5  1 -1</clus>
</clustering>
</event>
<event>
 9    2  0.3897980E-005  0.2898894E+03  0.7546771E-02  0.1134101E+00
         -1   -1    0    0    0  501 -0.00000000000E+00  0.00000000000E+00  0.51109483273E+03  0.51109483273E+03  0.00000000000E+00 0.  1.
         21   -1    0    0  501  502  0.00000000000E+00 -0.00000000000E+00 -0.30946371720E+03  0.30946371720E+03  0.00000000000E+00 0. -1.
         24    2    1    2    0    0  0.16009669604E+02  0.50534263844E+02  0.43687810828E+03  0.44722626864E+03  0.79616785448E+02 0.  0.
         23    2    1    2    0    0  0.10671311610E+03 -0.69106675658E+02 -0.94043927209E+02  0.18533195594E+03  0.96644978543E+02 0.  0.
        -13    1    3    3    0    0  0.45664725823E+02  0.41991604915E+02  0.33793260398E+03  0.34357969512E+03  0.00000000000E+00 0.  1.
         14    1    3    3    0    0 -0.29655056219E+02  0.85426589290E+01  0.98945504307E+02  0.10364657352E+03  0.00000000000E+00 0. -1.
        -11    1    4    4    0    0  0.89562894050E+02 -0.92913448265E+02 -0.66903767041E+02  0.14536345794E+03  0.00000000000E+00 0. -1.
         11    1    4    4    0    0  0.17150222052E+02  0.23806772607E+02 -0.27140160168E+02  0.39968498000E+02  0.00000000000E+00 0.  1.
         -2    1    1    2    0  502 -0.12272278571E+03  0.18572411814E+02 -0.14120306555E+03  0.18800032535E+03  0.00000000000E+00 0.  1.
<scales pt_clust_5="13000.00000" pt_clust_6="13000.00000" pt_clust_7="13000.00000" pt_clust_8="13000.00000" pt_clust_9="13000.00000"></scales>
<clustering>
<clus scale="   79.617">  5  6 -1 -1</clus>
<clus scale="   95.650">  1  5  2 -1</clus>
<clus scale="   96.645">  7  8 -1 -1</clus>
<clus scale="  122.609">  7  9 -1 -1</clus>
<clus scale="  289.889">  2  5  1 -1</clus>
</clustering>
</event>
<event>
 9    2  0.3897980E-005  0.7370206E+03  0.7546771E-02  0.1009425E+00
         -3   -1    0    0    0  501 -0.00000000000E+00  0.00000000000E+00  0.19047204996E+04  0.19047204996E+04  0.00000000000E+00 0.  1.
         21   -1    0    0  501  502  0.00000000000E+00 -0.00000000000E+00 -0.13156179567E+03  0.13156179567E+03  0.00000000000E+00 0.  1.
         24    2    1    2    0    0 -0.10528459502E+03  0.11910920018E+03  0.77626799978E+03  0.79652811021E+03  0.81198370384E+02 0.  0.
         23    2    1    2    0    0 -0.70745628935E+02 -0.32785118095E+03  0.20836388273E+03  0.40528764747E+03  0.91385057334E+02 0.  0.
        -13    1    3    3    0    0 -0.39663902662E+02  0.10333418080E+03  0.50545465718E+03  0.51743172358E+03  0.00000000000E+00 0.  1.
         14    1    3    3    0    0 -0.65620692358E+02  0.15775019383E+02  0.27081334259E+03  0.27909638663E+03  0.00000000000E+00 0. -1.
        -11    1    4    4    0    0 -0.21770664291E+02 -0.27254363200E+03  0.17123699944E+03  0.32260828127E+03  0.00000000000E+00 0.  1.
         11    1    4    4    0    0 -0.48974964644E+02 -0.55307548947E+02  0.37126883299E+02  0.82679366204E+02  0.00000000000E+00 0. -1.
         -4    1    1    2    0  502  0.17603022396E+03  0.20874198076E+03  0.78852682138E+03  0.83446653756E+03  0.00000000000E+00 0.  1.
<scales pt_clust_5="13000.00000" pt_clust_6="13000.00000" pt_clust_7="13000.00000" pt_clust_8="13000.00000" pt_clust_9="13000.00000"></scales>
<clustering>
<clus scale="   81.198">  5  6 -1 -1</clus>
<clus scale="   91.385">  7  8 -1 -1</clus>
<clus scale="  178.508">  1  5  2 -1</clus>
<clus scale="  311.534">  7  9 -1 -1</clus>
<clus scale="  737.021">  2  5  1 -1</clus>
</clustering>
</event>
<event>
 9    2  0.3897980E-005  0.4050812E+03  0.7546771E-02  0.1075422E+00
         21   -1    0    0  501  502  0.00000000000E+00  0.00000000000E+00  0.97793200213E+02  0.97793200213E+02  0.00000000000E+00 0.  1.
          2   -1    0    0  502    0 -0.00000000000E+00 -0.00000000000E+00 -0.84607967818E+03  0.84607967818E+03  0.00000000000E+00 0. -1.
         24    2    1    2    0    0 -0.27690194054E+02  0.12481712696E+03 -0.30190964021E+03  0.34109344268E+03  0.94070419121E+02 0.  0.
         23    2    1    2    0    0 -0.51330737921E+02  0.10874527670E+03 -0.11226294112E+03  0.18753517024E+03  0.90033839566E+02 0.  0.
        -11    1    3    3    0    0 -0.13696769298E+02  0.10362618289E+03 -0.29748746205E+03  0.31531694744E+03  0.00000000000E+00 0.  1.
         12    1    3    3    0    0 -0.13993424756E+02  0.21190944066E+02 -0.44221781687E+01  0.25776495234E+02  0.00000000000E+00 0. -1.
        -13    1    4    4    0    0 -0.71230741703E+02  0.84781999758E+02 -0.58088727833E+02  0.12504441750E+03  0.00000000000E+00 0.  1.
         13    1    4    4    0    0  0.19900003782E+02  0.23963276937E+02 -0.54174213289E+02  0.62490752736E+02  0.00000000000E+00 0. -1.
          1    1    1    2  501    0  0.79020931975E+02 -0.23356240366E+03 -0.33411389663E+03  0.41524426548E+03  0.00000000000E+00 0. -1.
<scales pt_clust_5="13000.00000" pt_clust_6="13000.00000" pt_clust_7="13000.00000" pt_clust_8="13000.00000" pt_clust_9="13000.00000"></scales>
<clustering>
<clus scale="   90.034">  7  8 -1 -1</clus>
<clus scale="   94.070">  5  6 -1 -1</clus>
<clus scale="  158.730">  2  5  1 -1</clus>
<clus scale="  156.092">  7  9 -1 -1</clus>
<clus scale="  405.081">  1  5  2 -1</clus>
</clustering>
</event>
<event>
 9    2  0.3897980E-005  0.3276248E+03  0.7546771E-02  0.1080221E+00
         21   -1    0    0  501  502  0.00000000000E+00  0.00000000000E+00  0.11201327049E+03  0.11201327049E+03  0.00000000000E+00 0. -1.
          2   -1    0    0  502    0 -0.00000000000E+00 -0.00000000000E+00 -0.14951438949E+04  0.14951438949E+04  0.00000000000E+00 0. -1.
         24    2    1    2    0    0  0.39607152656E+02 -0.24820411978E+03 -0.12065266584E+04  0.12349650447E+04  0.79107981812E+02 0.  0.
         23    2    1    2    0    0  0.69012908071E+01  0.18856539296E+02 -0.61472537073E+02  0.11138837464E+03  0.90693441333E+02 0.  0.
        -11    1    3    3    0    0  0.19042152279E+02 -0.14707904011E+03 -0.52035339479E+03  0.54107532107E+03  0.00000000000E+00 0.  1.
         12    1    3    3    0    0  0.20565000377E+02 -0.10112507967E+03 -0.68617326358E+03  0.69388972368E+03  0.00000000000E+00 0. -1.
        -11    1    4    4    0    0  0.19725414118E+02 -0.76844904500E+01  0.17263089864E+02  0.27315885987E+02  0.00000000000E+00 0. -1.
         11    1    4    4    0    0 -0.12824123311E+02  0.26541029746E+02 -0.78735626936E+02  0.84072488649E+02  0.00000000000E+00 0.  1.
          1    1    1    2  501    0 -0.46508443463E+02  0.22934758048E+03 -0.11513142893E+03  0.26080374597E+03  0.00000000000E+00 0. -1.
<scales pt_clust_5="13000.00000" pt_clust_6="13000.00000" pt_clust_7="13000.00000" pt_clust_8="13000.00000" pt_clust_9="13000.00000"></scales>
<clustering>
<clus scale="   79.108">  5  6 -1 -1</clus>
<clus scale="   90.693">  7  8 -1 -1</clus>
<clus scale="  234.016">  7  9 -1 -1</clus>
<clus scale="  263.500">  2  5  1 -1</clus>
<clus scale="  327.625">  1  5  2 -1</clus>
</clustering>
</event>
<event>
 9    2  0.3897980E-005  0.3682113E+03  0.7546771E-02  0.1106053E+00
          4   -1    0    0  502    0 -0.00000000000E+00  0.00000000000E+00  0.18973314017E+03  0.18973314017E+03  0.00000000000E+00 0. -1.
         21   -1    0    0  501  502  0.00000000000E+00 -0.00000000000E+00 -0.41279309945E+03  0.41279309945E+03  0.00000000000E+00 0. -1.
         24    2    1    2    0    0  0.46431759001E+02 -0.17252832365E+02 -0.21446561277E+03  0.23421460904E+03  0.80046333815E+02 0.  0.
         23    2    1    2    0    0 -0.56617131460E+02  0.17538663912E+03  0.18965340582E+02  0.20747140239E+03  0.93374117993E+02 0.  0.
        -13    1    3    3    0    0  0.14061224498E+02 -0.47314921854E+02 -0.99962981359E+02  0.11148550357E+03  0.00000000000E+00 0.  1.
         14    1    3    3    0    0  0.32370534503E+02  0.30062089489E+02 -0.11450263141E+03  0.12272910547E+03  0.00000000000E+00 0. -1.
        -13    1    4    4    0    0 -0.25945557175E+02  0.20243802339E+02 -0.27233505769E+02  0.42715890565E+02  0.00000000000E+00 0.  1.
         13    1    4    4    0    0 -0.30671574284E+02  0.15514283678E+03  0.46198846352E+02  0.16475551182E+03  0.00000000000E+00 0. -1.
          3    1    1    2  501    0  0.10185372459E+02 -0.15813380675E+03 -0.27559687091E+02  0.16084022818E+03  0.00000000000E+00 0. -1.
<scales pt_clust_5="13000.00000" pt_clust_6="13000.00000" pt_clust_7="13000.00000" pt_clust_8="13000.00000" pt_clust_9="13000.00000"></scales>
<clustering>
<clus scale="   80.046">  5  6 -1 -1</clus>
<clus scale="   93.374">  7  8 -1 -1</clus>
<clus scale="   94.133">  1  5  2 -1</clus>
<clus scale="  166.790">  7  9 -1 -1</clus>
<clus scale="  368.211">  2  5  1 -1</clus>
</clustering>
</event>
<event>
 9    2  0.3897980E-005  0.3271921E+03  0.7546771E-02  0.1106032E+00
         21   -1    0    0  501  502  0.00000000000E+00  0.00000000000E+00  0.11247184460E+03  0.11247184460E+03  0.00000000000E+00 0. -1.
          2   -1    0    0  502    0 -0.00000000000E+00 -0.00000000000E+00 -0.47531710874E+03  0.47531710874E+03  0.00000000000E+00 0. -1.
         24    2    1    2    0    0  0.12382987374E+03  0.82351689632E+01 -0.12346710033E+03  0.18237983502E+03  0.51152944378E+02 0.  0.
         23    2    1    2    0    0 -0.25842611322E+02 -0.52239172343E+02 -0.27206615453E+03  0.29313106771E+03  0.92244559330E+02 0.  0.
        -11    1    3    3    0    0  0.21432069103E+02 -0.16189116214E+02 -0.13188441068E+02  0.29922500691E+02  0.00000000000E+00 0.  1.
         12    1    3    3    0    0  0.10239780464E+03  0.24424285178E+02 -0.11027865926E+03  0.15245733433E+03  0.00000000000E+00 0. -1.
        -11    1    4    4    0    0  0.14254902078E+01  0.22840823043E+02 -0.27099197507E+02  0.35469729702E+02  0.00000000000E+00 0.  1.
         11    1    4    4    0    0 -0.27268101530E+02 -0.75079995386E+02 -0.24496695702E+03  0.25766133800E+03  0.00000000000E+00 0. -1.
          1    1    1    2  501    0 -0.97987262422E+02  0.44004003380E+02  0.32687990722E+02  0.11227805061E+03  0.00000000000E+00 0. -1.
<scales pt_clust_5="13000.00000" pt_clust_6="13000.00000" pt_clust_7="13000.00000" pt_clust_8="13000.00000" pt_clust_9="13000.00000"></scales>
<clustering>
<clus scale="   51.153">  5  6 -1 -1</clus>
<clus scale="   92.245">  7  8 -1 -1</clus>
<clus scale="  107.414">  7  9 -1 -1</clus>
<clus scale="  134.232">  2  5  1 -1</clus>
<clus scale="  327.192">  1  5  2 -1</clus>
</clustering>
</event>
<event>
 9    2  0.3897980E-005  0.3274378E+03  0.7546771E-02  0.1117710E+00
          2   -1    0    0  502    0 -0.00000000000E+00  0.00000000000E+00  0.42231182110E+03  0.42231182110E+03  0.00000000000E+00 0. -1.
         21   -1    0    0  501  502  0.00000000000E+00 -0.00000000000E+00 -0.12282483616E+03  0.12282483616E+03  0.00000000000E+00 0. -1.
         24    2    1    2    0    0 -0.45967132601E+02 -0.33865683852E+02  0.16168071267E+03  0.18988166369E+03  0.81575312033E+02 0.  0.
         23    2    1    2    0    0  0.10791614999E+03  0.90799332610E+02  0.19194037825E+03  0.25520689241E+03  0.91646248691E+02 0.  0.
        -11    1    3    3    0    0  0.91629638444E+01 -0.27614539480E+02  0.14332698499E+02  0.32433762399E+02  0.00000000000E+00 0.  1.
         12    1    3    3    0    0 -0.55130096446E+02 -0.62511443711E+01  0.14734801417E+03  0.15744790129E+03  0.00000000000E+00 0. -1.
        -13    1    4    4    0    0  0.85222615286E+02  0.10230704458E+03  0.12128724384E+03  0.18011169047E+03  0.00000000000E+00 0. -1.
         13    1    4    4    0    0  0.22693534704E+02 -0.11507711968E+02  0.70653134407E+02  0.75095201934E+02  0.00000000000E+00 0.  1.
          1    1    1    2  501    0 -0.61949017388E+02 -0.56933648758E+02 -0.54134105974E+02  0.10004810116E+03  0.00000000000E+00 0. -1.
<scales pt_clust_5="13000.00000" pt_clust_6="13000.00000" pt_clust_7="13000.00000" pt_clust_8="13000.00000" pt_clust_9="13000.00000"></scales>
<clustering>
<clus scale="   81.575">  5  6 -1 -1</clus>
<clus scale="   91.646">  7  8 -1 -1</clus>
<clus scale="   84.138">  7  9 -1 -1</clus>
<clus scale="   99.571">  1  5  2 -1</clus>
<clus scale="  327.438">  2  5  1 -1</clus>
</clustering>
</event>
<event>
 9    2  0.3897980E-005  0.3247586E+03  0.7546771E-02  0.1129050E+00
         21   -1    0    0  501  502  0.00000000000E+00  0.00000000000E+00  0.11189238183E+03  0.11189238183E+03  0.00000000000E+00 0. -1.
          2   -1    0    0  502    0 -0.00000000000E+00 -0.00000000000E+00 -0.37835519301E+03  0.37835519301E+03  0.00000000000E+00 0. -1.
         24    2    1    2    0    0 -0.13548403930E+02 -0.22784720063E+01 -0.12536295797E+02  0.78001537102E+02  0.75751768258E+02 0.  0.
         23    2    1    2    0    0  0.13130192075E+03  0.83399931858E+02 -0.16162505726E+03  0.24205161613E+03  0.90942744149E+02 0.  0.
        -11    1    3    3    0    0 -0.19878583061E+02 -0.28966617725E+02 -0.29394181084E+02  0.45806559449E+02  0.00000000000E+00 0.  1.
         12    1    3    3    0    0  0.63301791308E+01  0.26688145719E+02  0.16857885287E+02  0.32194977653E+02  0.00000000000E+00 0. -1.
        -11    1    4    4    0    0  0.48955846846E+02 -0.13656402368E+02 -0.63507619044E+02  0.81341194623E+02  0.00000000000E+00 0.  1.
         11    1    4    4    0    0  0.82346073900E+02  0.97056334226E+02 -0.98117438213E+02  0.16071042151E+03  0.00000000000E+00 0. -1.
          1    1    1    2  501    0 -0.11775351682E+03 -0.81121459852E+02 -0.92301458125E+02  0.17019442160E+03  0.00000000000E+00 0. -1.
<scales pt_clust_5="13000.00000" pt_clust_6="13000.00000" pt_clust_7="13000.00000" pt_clust_8="13000.00000" pt_clust_9="13000.00000"></scales>
<clustering>
<clus scale="   75.752">  5  6 -1 -1</clus>
<clus scale="   76.988">  2  5  1 -1</clus>
<clus scale="   90.943">  7  8 -1 -1</clus>
<clus scale="  147.915">  7  9 -1 -1</clus>
<clus scale="  324.759">  1  5  2 -1</clus>
</clustering>
</event>
<event>
 9    2  0.3897980E-005  0.2821645E+03  0.7546771E-02  0.1121374E+00
         21   -1    0    0  501  502  0.00000000000E+00  0.00000000000E+00  0.35502552692E+03  0.35502552692E+03  0.00000000000E+00 0. -1.
          2   -1    0    0  502    0 -0.00000000000E+00 -0.00000000000E+00 -0.16523029486E+03  0.16523029486E+03  0.00000000000E+00 0. -1.
         24    2    1    2    0    0  0.75286497017E+02 -0.90241367556E+02 -0.49435502354E+02  0.15032593423E+03  0.79639541428E+02 0.  0.
         23    2    1    2    0    0  0.72778841035E+02  0.19433258877E+02  0.10251882606E+03  0.15632446047E+03  0.90845010831E+02 0.  0.
        -13    1    3    3    0    0 -0.25876892641E+01 -0.48838252123E+02  0.62868459960E+00  0.48910798915E+02  0.00000000000E+00 0.  1.
         14    1    3    3    0    0  0.77874186281E+02 -0.41403115433E+02 -0.50064186953E+02  0.10141513532E+03  0.00000000000E+00 0. -1.
        -11    1    4    4    0    0 -0.17889895729E+01  0.36060726987E+02  0.12389954460E+02  0.38171815336E+02  0.00000000000E+00 0.  1.
         11    1    4    4    0    0  0.74567830608E+02 -0.16627468110E+02  0.90128871599E+02  0.11815264514E+03  0.00000000000E+00 0. -1.
          1    1    1    2  501    0 -0.14806533805E+03  0.70808108679E+02  0.13671190835E+03  0.21360542707E+03  0.00000000000E+00 0. -1.
<scales pt_clust_5="13000.00000" pt_clust_6="13000.00000" pt_clust_7="13000.00000" pt_clust_8="13000.00000" pt_clust_9="13000.00000"></scales>
<clustering>
<clus scale="   79.640">  5  6 -1 -1</clus>
<clus scale="   90.845">  7  8 -1 -1</clus>
<clus scale="  141.965">  2  5  1 -1</clus>
<clus scale="  105.274">  7  9 -1 -1</clus>
<clus scale="  282.164">  1  5  2 -1</clus>
</clustering>
</event>
<event>
 9    2  0.3897980E-005  0.2301394E+03  0.7546771E-02  0.1132169E+00
         21   -1    0    0  501  502  0.00000000000E+00  0.00000000000E+00  0.15883853238E+03  0.15883853238E+03  0.00000000000E+00 0. -1.
          2   -1    0    0  502    0 -0.00000000000E+00 -0.00000000000E+00 -0.47720935661E+03  0.47720935661E+03  0.00000000000E+00 0. -1.
         24    2    1    2    0    0  0.99402603583E+02  0.14713901633E+03 -0.35043085423E+03  0.40368616690E+03  0.92897631939E+02 0.  0.
         23    2    1    2    0    0 -0.35140720797E+02 -0.64816591673E+02  0.48125819789E+02  0.12669866904E+03  0.91106516734E+02 0.  0.
        -13    1    3    3    0    0  0.23473261285E+02  0.49916772297E+02 -0.35859772419E+02  0.65792107656E+02  0.00000000000E+00 0.  1.
         14    1    3    3    0    0  0.75929342298E+02  0.97222244035E+02 -0.31457108181E+03  0.33789405924E+03  0.00000000000E+00 0. -1.
        -11    1    4    4    0    0 -0.15410656879E+02  0.22522221924E+02  0.70435677004E+01  0.28184227359E+02  0.00000000000E+00 0.  1.
         11    1    4    4    0    0 -0.19730063918E+02 -0.87338813597E+02  0.41082252089E+02  0.98514441679E+02  0.00000000000E+00 0. -1.
          1    1    1    2  501    0 -0.64261882786E+02 -0.82322424659E+02 -0.16065789784E+02  0.10566305306E+03  0.00000000000E+00 0. -1.
<scales pt_clust_5="13000.00000" pt_clust_6="13000.00000" pt_clust_7="13000.00000" pt_clust_8="13000.00000" pt_clust_9="13000.00000"></scales>
<clustering>
<clus scale="   91.107">  7  8 -1 -1</clus>
<clus scale="   92.898">  5  6 -1 -1</clus>
<clus scale="  104.435">  7  9 -1 -1</clus>
<clus scale="  200.401">  2  5  1 -1</clus>
<clus scale="  230.139">  1  5  2 -1</clus>
</clustering>
</event>
<event>
 9    2  0.3897980E-005  0.4150519E+03  0.7546771E-02  0.1092986E+00
          2   -1    0    0  502    0 -0.00000000000E+00  0.00000000000E+00  0.12985442006E+04  0.12985442006E+04  0.00000000000E+00 0. -1.
         21   -1    0    0  501  502  0.00000000000E+00 -0.00000000000E+00 -0.53116082524E+02  0.53116082524E+02  0.00000000000E+00 0. -1.
         24    2    1    2    0    0  0.30380650626E+02 -0.35066906873E+02  0.39121114976E+03  0.40194731207E+03  0.79767199366E+02 0.  0.
         23    2    1    2    0    0 -0.55466211286E+02  0.20305983500E+03  0.35846748208E+03  0.42567245510E+03  0.91587696431E+02 0.  0.
        -11    1    3    3    0    0  0.72582706606E+01  0.24156179245E+02  0.67650873610E+02  0.72200029009E+02  0.00000000000E+00 0.  1.
         12    1    3    3    0    0  0.23122379965E+02 -0.59223086118E+02  0.32356027615E+03  0.32974728306E+03  0.00000000000E+00 0. -1.
        -11    1    4    4    0    0 -0.45832958857E+01  0.39790009658E+02  0.15395652830E+03  0.15908131278E+03  0.00000000000E+00 0.  1.
         11    1    4    4    0    0 -0.50882915401E+02  0.16326982535E+03  0.20451095378E+03  0.26659114232E+03  0.00000000000E+00 0. -1.
          1    1    1    2  501    0  0.25085560661E+02 -0.16799292813E+03  0.49574948627E+03  0.52404051598E+03  0.00000000000E+00 0. -1.
<scales pt_clust_5="13000.00000" pt_clust_6="13000.00000" pt_clust_7="13000.00000" pt_clust_8="13000.00000" pt_clust_9="13000.00000"></scales>
<clustering>
<clus scale="   79.767">  5  6 -1 -1</clus>
<clus scale="   91.588">  7  8 -1 -1</clus>
<clus scale="   92.279">  1  5  2 -1</clus>
<clus scale="  192.513">  7  9 -1 -1</clus>
<clus scale="  415.052">  2  5  1 -1</clus>
</clustering>
</event>
<event>
 9    2  0.3897980E-005  0.2834536E+03  0.7546771E-02  0.1128718E+00
         -3   -1    0    0    0  501 -0.00000000000E+00  0.00000000000E+00  0.34920976948E+02  0.34920976948E+02  0.00000000000E+00 0.  1.
         21   -1    0    0  501  502  0.00000000000E+00 -0.00000000000E+00 -0.11855657703E+04  0.11855657703E+04  0.00000000000E+00 0.  1.
         24    2    1    2    0    0 -0.28462442578E+02 -0.79033246484E+02 -0.24252057745E+03  0.26915319803E+03  0.81060772472E+02 0.  0.
         23    2    1    2    0    0 -0.19915685732E+02  0.15844418485E+03 -0.49639603006E+03  0.52923564655E+03  0.90444218505E+02 0.  0.
        -13    1    3    3    0    0 -0.39457600061E+02 -0.68559236079E+02 -0.10849459811E+03  0.13426968710E+03  0.00000000000E+00 0.  1.
         14    1    3    3    0    0  0.10995157484E+02 -0.10474010405E+02 -0.13402597935E+03  0.13488351093E+03  0.00000000000E+00 0. -1.
        -11    1    4    4    0    0  0.13604763030E+02  0.14230075355E+03 -0.42983604875E+03  0.45298302711E+03  0.00000000000E+00 0.  1.
         11    1    4    4    0    0 -0.33520448762E+02  0.16143431296E+02 -0.66559981309E+02  0.76252619438E+02  0.00000000000E+00 0. -1.
         -4    1    1    2    0  502  0.48378128310E+02 -0.79410938364E+02 -0.41172818588E+03  0.42209790272E+03  0.00000000000E+00 0.  1.
<scales pt_clust_5="13000.00000" pt_clust_6="13000.00000" pt_clust_7="13000.00000" pt_clust_8="13000.00000" pt_clust_9="13000.00000"></scales>
<clustering>
<clus scale="   81.061">  5  6 -1 -1</clus>
<clus scale="   90.444">  7  8 -1 -1</clus>
<clus scale="   92.987">  7  9 -1 -1</clus>
<clus scale="  116.736">  1  5  2 -1</clus>
<clus scale="  283.454">  2  5  1 -1</clus>
</clustering>
</event>
<event>
 9    2  0.3897980E-005  0.2707891E+03  0.7546771E-02  0.1104438E+00
          2   -1    0    0  502    0 -0.00000000000E+00  0.00000000000E+00  0.74346406318E+03  0.74346406318E+03  0.00000000000E+00 0. -1.
         21   -1    0    0  501  502  0.00000000000E+00 -0.00000000000E+00 -0.10309683292E+03  0.10309683292E+03  0.00000000000E+00 0. -1.
         24    2    1    2    0    0 -0.15875263758E+03 -0.17079695543E+03  0.15670688676E+03  0.29225585597E+03  0.80513583144E+02 0.  0.
         23    2    1    2    0    0  0.10511882871E+03  0.90980553461E+02  0.23637001968E+03  0.28897553228E+03  0.91151756957E+02 0.  0.
        -11    1    3    3    0    0  0.47610095470E+01 -0.28855779371E+02  0.27288260507E+02  0.39999654705E+02  0.00000000000E+00 0.  1.
         12    1    3    3    0    0 -0.16351364713E+03 -0.14194117605E+03  0.12941862625E+03  0.25225620126E+03  0.00000000000E+00 0. -1.
        -11    1    4    4    0    0  0.79413113077E+01  0.23231968902E+02  0.12153255082E+03  0.12398769984E+03  0.00000000000E+00 0.  1.
         11    1    4    4    0    0  0.97177517399E+02  0.67748584559E+02  0.11483746887E+03  0.16498783244E+03  0.00000000000E+00 0. -1.
          1    1    1    2  501    0  0.53633808873E+02  0.79816401965E+02  0.24729032382E+03  0.26532950784E+03  0.00000000000E+00 0. -1.
<scales pt_clust_5="13000.00000" pt_clust_6="13000.00000" pt_clust_7="13000.00000" pt_clust_8="13000.00000" pt_clust_9="13000.00000"></scales>
<clustering>
<clus scale="   80.514">  5  6 -1 -1</clus>
<clus scale="   91.152">  7  8 -1 -1</clus>
<clus scale="   96.163">  7  9 -1 -1</clus>
<clus scale="  246.691">  1  5  2 -1</clus>
<clus scale="  270.789">  2  5  1 -1</clus>
</clustering>
</event>
<event>
 9    2  0.3897980E-005  0.2221503E+03  0.7546771E-02  0.1161326E+00
         -1   -1    0    0    0  501 -0.00000000000E+00  0.00000000000E+00  0.49297772197E+03  0.49297772197E+03  0.00000000000E+00 0.  1.
         21   -1    0    0  501  502  0.00000000000E+00 -0.00000000000E+00 -0.56367436676E+02  0.56367436676E+02  0.00000000000E+00 0. -1.
         24    2    1    2    0    0  0.37159073172E+02 -0.65632549865E+02  0.14982863938E+03  0.18658561270E+03  0.81713777101E+02 0.  0.
         23    2    1    2    0    0  0.20087795951E+02 -0.35719328106E+01  0.41606809751E+02  0.10165197284E+03  0.90474961806E+02 0.  0.
        -13    1    3    3    0    0 -0.19537578609E+02 -0.18104147435E+02  0.81991879575E+02  0.86209891825E+02  0.00000000000E+00 0.  1.
         14    1    3    3    0    0  0.56696651781E+02 -0.47528402430E+02  0.67836759803E+02  0.10037572088E+03  0.00000000000E+00 0. -1.
        -13    1    4    4    0    0 -0.17506103809E+02 -0.37947891286E+02  0.19646026852E+02  0.46178701743E+02  0.00000000000E+00 0. -1.
         13    1    4    4    0    0  0.37593899761E+02  0.34375958475E+02  0.21960782899E+02  0.55473271094E+02  0.00000000000E+00 0.  1.
         -2    1    1    2    0  502 -0.57246869124E+02  0.69204482675E+02  0.24517483617E+03  0.26110757311E+03  0.00000000000E+00 0.  1.
<scales pt_clust_5="13000.00000" pt_clust_6="13000.00000" pt_clust_7="13000.00000" pt_clust_8="13000.00000" pt_clust_9="13000.00000"></scales>
<clustering>
<clus scale="   81.714">  5  6 -1 -1</clus>
<clus scale="   90.475">  7  8 -1 -1</clus>
<clus scale="   89.814">  7  9 -1 -1</clus>
<clus scale="  111.201">  1  5  2 -1</clus>
<clus scale="  222.150">  2  5  1 -1</clus>
</clustering>
</event>
<event>
 9    2  0.3897980E-005  0.3002863E+03  0.7546771E-02  0.1105050E+00
         -1   -1    0    0    0  501 -0.00000000000E+00  0.00000000000E+00  0.55527063678E+02  0.55527063678E+02  0.00000000000E+00 0.  1.
         21   -1    0    0  501  502  0.00000000000E+00 -0.00000000000E+00 -0.12017431608E+04  0.12017431608E+04  0.00000000000E+00 0.  1.
         24    2    1    2    0    0  0.68639728402E+02  0.14396543067E+03 -0.21686852649E+03  0.28061327623E+03  0.79211081757E+02 0.  0.
         23    2    1    2    0    0  0.33111617503E+02  0.19744333728E+02 -0.39106314703E+03  0.40490145501E+03  0.97614473187E+02 0.  0.
        -11    1    3    3    0    0  0.37681423329E+02  0.12706959611E+03 -0.12491164596E+03  0.18212493299E+03  0.00000000000E+00 0.  1.
         12    1    3    3    0    0  0.30958305072E+02  0.16895834559E+02 -0.91956880526E+02  0.98488343242E+02  0.00000000000E+00 0. -1.
        -11    1    4    4    0    0 -0.15153668792E+02  0.46009546014E+02 -0.21831324030E+03  0.22362285861E+03  0.00000000000E+00 0.  1.
         11    1    4    4    0    0  0.48265286295E+02 -0.26265212285E+02 -0.17274990672E+03  0.18127859639E+03  0.00000000000E+00 0. -1.
         -2    1    1    2    0  502 -0.10175134590E+03 -0.16370976439E+03 -0.53828442356E+03  0.57175549320E+03  0.00000000000E+00 0.  1.
<scales pt_clust_5="13000.00000" pt_clust_6="13000.00000" pt_clust_7="13000.00000" pt_clust_8="13000.00000" pt_clust_9="13000.00000"></scales>
<clustering>
<clus scale="   79.211">  5  6 -1 -1</clus>
<clus scale="   97.614">  7  8 -1 -1</clus>
<clus scale="  178.078">  1  5  2 -1</clus>
<clus scale="   81.579">  7  9 -1 -1</clus>
<clus scale="  300.286">  2  5  1 -1</clus>
</clustering>
</event>
<event>
 9    2  0.3897980E-005  0.4620857E+03  0.7546771E-02  0.1073164E+00
         21   -1    0    0  501  502  0.00000000000E+00  0.00000000000E+00  0.82224475119E+02  0.82224475119E+02  0.00000000000E+00 0.  1.
          2   -1    0    0  502    0 -0.00000000000E+00 -0.00000000000E+00 -0.11019616809E+04  0.11019616809E+04  0.00000000000E+00 0. -1.
         24    2    1    2    0    0 -0.65177192568E+02  0.48357584113E+02 -0.36864616530E+03  0.38578605570E+03  0.79651511026E+02 0.  0.
         23    2    1    2    0    0 -0.37538017476E+02 -0.23049983391E+03 -0.31284537309E+03  0.40073649243E+03  0.90433581773E+02 0.  0.
        -13    1    3    3    0    0  0.88170558021E+01  0.30402177763E+02 -0.59445943180E+02  0.67348741981E+02  0.00000000000E+00 0.  1.
         14    1    3    3    0    0 -0.73994248370E+02  0.17955406350E+02 -0.30920022212E+03  0.31843731372E+03  0.00000000000E+00 0. -1.
        -13    1    4    4    0    0 -0.49222617894E+02 -0.16912627691E+03 -0.27826308193E+03  0.32932796179E+03  0.00000000000E+00 0.  1.
         13    1    4    4    0    0  0.11684600418E+02 -0.61373556997E+02 -0.34582291157E+02  0.71408530632E+02  0.00000000000E+00 0. -1.
          1    1    1    2  501    0  0.10271521004E+03  0.18214224980E+03 -0.33824566742E+03  0.39766360792E+03  0.00000000000E+00 0. -1.
<scales pt_clust_5="13000.00000" pt_clust_6="13000.00000" pt_clust_7="13000.00000" pt_clust_8="13000.00000" pt_clust_9="13000.00000"></scales>
<clustering>
<clus scale="   79.652">  5  6 -1 -1</clus>
<clus scale="   90.434">  7  8 -1 -1</clus>
<clus scale="  113.714">  2  5  1 -1</clus>
<clus scale="  218.105">  7  9 -1 -1</clus>
<clus scale="  462.086">  1  5  2 -1</clus>
</clustering>
</event>
<event>
 9    2  0.3897980E-005  0.2116467E+03  0.7546771E-02  0.1165259E+00
         -3   -1    0    0    0  501 -0.00000000000E+00  0.00000000000E+00  0.55844143236E+03  0.55844143236E+03  0.00000000000E+00 0.  1.
         21   -1    0    0  501  502  0.00000000000E+00 -0.00000000000E+00 -0.48970301623E+02  0.48970301623E+02  0.00000000000E+00 0. -1.
         24    2    1    2    0    0  0.79420163753E+02  0.30693704751E+02  0.15315220150E+03  0.19297535857E+03  0.80834561107E+02 0.  0.
         23    2    1    2    0    0  0.20039000585E+02 -0.37590048442E+02  0.24710900504E+03  0.26656314433E+03  0.90434928308E+02 0.  0.
        -13    1    3    3    0    0  0.21218062846E+02  0.17433672077E+02 -0.11944822476E+01  0.27487559020E+02  0.00000000000E+00 0.  1.
         14    1    3    3    0    0  0.58202100907E+02  0.13260032675E+02  0.15434668375E+03  0.16548779955E+03  0.00000000000E+00 0. -1.
        -11    1    4    4    0    0  0.44332451876E+02  0.59008006850E+01  0.74344883603E+02  0.86760287321E+02  0.00000000000E+00 0.  1.
         11    1    4    4    0    0 -0.24293451292E+02 -0.43490849127E+02  0.17276412143E+03  0.17980285701E+03  0.00000000000E+00 0. -1.
         -4    1    1    2    0  502 -0.99459164338E+02  0.68963436907E+01  0.10920992420E+03  0.14787323108E+03  0.00000000000E+00 0.  1.
<scales pt_clust_5="13000.00000" pt_clust_6="13000.00000" pt_clust_7="13000.00000" pt_clust_8="13000.00000" pt_clust_9="13000.00000"></scales>
<clustering>
<clus scale="   80.835">  5  6 -1 -1</clus>
<clus scale="   90.435">  7  8 -1 -1</clus>
<clus scale="   99.698">  7  9 -1 -1</clus>
<clus scale="  117.405">  1  5  2 -1</clus>
<clus scale="  211.647">  2  5  1 -1</clus>
</clustering>
</event>
<event>
 9    2  0.3897980E-005  0.3283203E+03  0.7546771E-02  0.1107326E+00
         21   -1    0    0  501  502  0.00000000000E+00  0.00000000000E+00  0.14681374286E+03  0.14681374286E+03  0.00000000000E+00 0. -1.
          2   -1    0    0  502    0 -0.00000000000E+00 -0.00000000000E+00 -0.38823353178E+03  0.38823353178E+03  0.00000000000E+00 0. -1.
         24    2    1    2    0    0  0.45238021707E+02 -0.89671361714E+02 -0.14305936604E+03  0.19230975276E+03  0.80184955408E+02 0.  0.
         23    2    1    2    0    0  0.65179156353E+02  0.37086954700E+02 -0.16586056112E+03  0.20304735854E+03  0.89970769924E+02 0.  0.
        -11    1    3    3    0    0  0.13404649700E+02 -0.95248637662E+02 -0.10826959452E+03  0.14482504171E+03  0.00000000000E+00 0.  1.
         12    1    3    3    0    0  0.31833372007E+02  0.55772759478E+01 -0.34789771528E+02  0.47484711048E+02  0.00000000000E+00 0. -1.
        -11    1    4    4    0    0 -0.21921070465E+02  0.76153024189E+01 -0.20066897565E+02  0.30679089608E+02  0.00000000000E+00 0.  1.
         11    1    4    4    0    0  0.87100226818E+02  0.29471652281E+02 -0.14579366356E+03  0.17236826893E+03  0.00000000000E+00 0. -1.
          1    1    1    2  501    0 -0.11041717806E+03  0.52584407014E+02  0.67500138248E+02  0.13969016334E+03  0.00000000000E+00 0. -1.
<scales pt_clust_5="13000.00000" pt_clust_6="13000.00000" pt_clust_7="13000.00000" pt_clust_8="13000.00000" pt_clust_9="13000.00000"></scales>
<clustering>
<clus scale="   80.185">  5  6 -1 -1</clus>
<clus scale="   89.971">  7  8 -1 -1</clus>
<clus scale="  122.299">  7  9 -1 -1</clus>
<clus scale="  128.519">  2  5  1 -1</clus>
<clus scale="  328.320">  1  5  2 -1</clus>
</clustering>
</event>
<event>
 9    2  0.3897980E-005  0.1736098E+03  0.7546771E-02  0.1201991E+00
         21   -1    0    0  501  502  0.00000000000E+00  0.00000000000E+00  0.14219944492E+02  0.14219944492E+02  0.00000000000E+00 0.  1.
          2   -1    0    0  502    0 -0.00000000000E+00 -0.00000000000E+00 -0.13165869275E+04  0.13165869275E+04  0.00000000000E+00 0. -1.
         24    2    1    2    0    0  0.22602711163E+02  0.22846955340E+02 -0.60243202289E+03  0.60966243751E+03  0.87926557920E+02 0.  0.
         23    2    1    2    0    0 -0.60121983910E+02  0.22145707644E+02 -0.37706955419E+03  0.39300710669E+03  0.90377275300E+02 0.  0.
        -13    1    3    3    0    0 -0.29753438038E+01  0.52034654712E+02 -0.27104063314E+03  0.27600630930E+03  0.00000000000E+00 0.  1.
         14    1    3    3    0    0  0.25578054966E+02 -0.29187699371E+02 -0.33139138975E+03  0.33365612821E+03  0.00000000000E+00 0. -1.
        -11    1    4    4    0    0  0.10150318271E+02 -0.24228719403E+02 -0.77512540490E+02  0.81842860032E+02  0.00000000000E+00 0.  1.
         11    1    4    4    0    0 -0.70272302181E+02  0.46374427048E+02 -0.29955701370E+03  0.31116424665E+03  0.00000000000E+00 0. -1.
          1    1    1    2  501    0  0.37519272748E+02 -0.44992662985E+02 -0.32286540596E+03  0.32813732783E+03  0.00000000000E+00 0. -1.
<scales pt_clust_5="13000.00000" pt_clust_6="13000.00000" pt_clust_7="13000.00000" pt_clust_8="13000.00000" pt_clust_9="13000.00000"></scales>
<clustering>
<clus scale="   87.927">  5  6 -1 -1</clus>
<clus scale="   90.377">  7  8 -1 -1</clus>
<clus scale="   58.584">  7  9 -1 -1</clus>
<clus scale="   93.616">  2  5  1 -1</clus>
<clus scale="  173.610">  1  5  2 -1</clus>
</clustering>
</event>
<event>
 9    2  0.3897980E-005  0.2659610E+03  0.7546771E-02  0.1149111E+00
         21   -1    0    0  501  502  0.00000000000E+00  0.00000000000E+00  0.39111281658E+03  0.39111281658E+03  0.00000000000E+00 0. -1.
          2   -1    0    0  502    0 -0.00000000000E+00 -0.00000000000E+00 -0.82253171823E+02  0.82253171823E+02  0.00000000000E+00 0. -1.
         24    2    1    2    0    0 -0.49515706421E+01  0.27468679580E+02  0.39851212913E+02  0.95079323515E+02  0.81687894940E+02 0.  0.
         23    2    1    2    0    0 -0.92139091600E+02 -0.80770417093E+02  0.12342343408E+03  0.19535863672E+03  0.88984158037E+02 0.  0.
        -11    1    3    3    0    0  0.57149389978E+01 -0.28640277259E+02  0.12953609778E+02  0.31948740437E+02  0.00000000000E+00 0.  1.
         12    1    3    3    0    0 -0.10666509640E+02  0.56108956838E+02  0.26897603135E+02  0.63130583078E+02  0.00000000000E+00 0. -1.
        -11    1    4    4    0    0 -0.41462439883E+02 -0.33262768178E+02 -0.65469769209E+00  0.53159893689E+02  0.00000000000E+00 0. -1.
         11    1    4    4    0    0 -0.50676651717E+02 -0.47507648915E+02  0.12407813177E+03  0.14219874303E+03  0.00000000000E+00 0.  1.
          1    1    1    2  501    0  0.97090662242E+02  0.53301737513E+02  0.14558499776E+03  0.18292802817E+03  0.00000000000E+00 0. -1.
<scales pt_clust_5="13000.00000" pt_clust_6="13000.00000" pt_clust_7="13000.00000" pt_clust_8="13000.00000" pt_clust_9="13000.00000"></scales>
<clustering>
<clus scale="   81.688">  5  6 -1 -1</clus>
<clus scale="   86.325">  2  5  1 -1</clus>
<clus scale="   88.984">  7  8 -1 -1</clus>
<clus scale="  114.152">  7  9 -1 -1</clus>
<clus scale="  265.961">  1  5  2 -1</clus>
</clustering>
</event>
<event>
 9    2  0.3897980E-005  0.1750338E+03  0.7546771E-02  0.1206183E+00
         21   -1    0    0  501  502  0.00000000000E+00  0.00000000000E+00  0.29001710580E+02  0.29001710580E+02  0.00000000000E+00 0.  1.
          2   -1    0    0  502    0 -0.00000000000E+00 -0.00000000000E+00 -0.57750867043E+03  0.57750867043E+03  0.00000000000E+00 0. -1.
         24    2    1    2    0    0 -0.20146379426E+02  0.18893239970E+02 -0.16267964464E+03  0.18283651148E+03  0.78750822397E+02 0.  0.
         23    2    1    2    0    0 -0.35185462419E+02  0.85132260023E+00 -0.14441658154E+03  0.17521742908E+03  0.92769913836E+02 0.  0.
        -13    1    3    3    0    0 -0.48666181678E+02  0.47829444920E+01 -0.74728013753E+02  0.89305933938E+02  0.00000000000E+00 0.  1.
         14    1    3    3    0    0  0.28519802252E+02  0.14110295478E+02 -0.87951630890E+02  0.93530577541E+02  0.00000000000E+00 0. -1.
        -13    1    4    4    0    0 -0.57839508135E+02 -0.41349625928E+00 -0.14083124494E+03  0.15224657379E+03  0.00000000000E+00 0. -1.
         13    1    4    4    0    0  0.22654045716E+02  0.12648188595E+01 -0.35853366029E+01  0.22970855287E+02  0.00000000000E+00 0.  1.
          1    1    1    2  501    0  0.55331841845E+02 -0.19744562570E+02 -0.24141073367E+03  0.24845644046E+03  0.00000000000E+00 0. -1.
<scales pt_clust_5="13000.00000" pt_clust_6="13000.00000" pt_clust_7="13000.00000" pt_clust_8="13000.00000" pt_clust_9="13000.00000"></scales>
<clustering>
<clus scale="   78.751">  5  6 -1 -1</clus>
<clus scale="   83.454">  2  5  1 -1</clus>
<clus scale="   92.770">  7  8 -1 -1</clus>
<clus scale="   43.934">  7  9 -1 -1</clus>
<clus scale="  175.034">  1  5  2 -1</clus>
</clustering>
</event>
<event>
 9    2  0.3897980E-005  0.3000326E+03  0.7546771E-02  0.1105200E+00
          2   -1    0    0  502    0 -0.00000000000E+00  0.00000000000E+00  0.16798552183E+04  0.16798552183E+04  0.00000000000E+00 0. -1.
         21   -1    0    0  501  502  0.00000000000E+00 -0.00000000000E+00 -0.40693510246E+02  0.40693510246E+02  0.00000000000E+00 0. -1.
         24    2    1    2    0    0  0.15856291005E+03 -0.43936026945E+01  0.98416618247E+03  0.10001053114E+04  0.80411808287E+02 0.  0.
         23    2    1    2    0    0  0.25047363310E+02 -0.28696165167E+02  0.13288351325E+03  0.16599899378E+03  0.91906460804E+02 0.  0.
        -11    1    3    3    0    0  0.89804946033E+02  0.36923125217E+02  0.50041976021E+03  0.50975305974E+03  0.00000000000E+00 0.  1.
         12    1    3    3    0    0  0.68757964018E+02 -0.41316727911E+02  0.48374642226E+03  0.49035225162E+03  0.00000000000E+00 0. -1.
        -11    1    4    4    0    0 -0.88240193944E+01  0.24826822902E+02  0.77513324539E+02  0.81869102442E+02  0.00000000000E+00 0.  1.
         11    1    4    4    0    0  0.33871382704E+02 -0.53522988070E+02  0.55370188712E+02  0.84129891336E+02  0.00000000000E+00 0. -1.
          1    1    1    2  501    0 -0.18361027336E+03  0.33089767862E+02  0.52211201233E+03  0.55444442340E+03  0.00000000000E+00 0. -1.
<scales pt_clust_5="13000.00000" pt_clust_6="13000.00000" pt_clust_7="13000.00000" pt_clust_8="13000.00000" pt_clust_9="13000.00000"></scales>
<clustering>
<clus scale="   80.412">  5  6 -1 -1</clus>
<clus scale="   91.906">  7  8 -1 -1</clus>
<clus scale="  177.841">  1  5  2 -1</clus>
<clus scale="   66.482">  7  9 -1 -1</clus>
<clus scale="  300.033">  2  5  1 -1</clus>
</clustering>
</event>
<event>
 9    2  0.3897980E-005  0.2213616E+03  0.7546771E-02  0.1147306E+00
         21   -1    0    0  501  502  0.00000000000E+00  0.00000000000E+00  0.18738351527E+02  0.18738351527E+02  0.00000000000E+00 0. -1.
          2   -1    0    0  502    0 -0.00000000000E+00 -0.00000000000E+00 -0.19060269895E+04  0.19060269895E+04  0.00000000000E+00 0. -1.
         24    2    1    2    0    0 -0.96749441924E+02 -0.89074084335E+02 -0.82071911263E+03  0.83546670933E+03  0.84439999712E+02 0.  0.
         23    2    1    2    0    0  0.52129402529E+02 -0.32424103217E+01 -0.36067128145E+03  0.37599251660E+03  0.92512763680E+02 0.  0.
        -13    1    3    3    0    0 -0.12412576583E+02 -0.28849725653E+02 -0.60015841219E+02  0.67736843187E+02  0.00000000000E+00 0.  1.
         14    1    3    3    0    0 -0.84336865341E+02 -0.60224358682E+02 -0.76070327141E+03  0.76772986614E+03  0.00000000000E+00 0. -1.
        -11    1    4    4    0    0  0.78420417635E+02 -0.66616198302E+01 -0.24540292973E+03  0.25771444857E+03  0.00000000000E+00 0. -1.
         11    1    4    4    0    0 -0.26291015107E+02  0.34192095085E+01 -0.11526835172E+03  0.11827806803E+03  0.00000000000E+00 0.  1.
          1    1    1    2  501    0  0.44620039396E+02  0.92316494657E+02 -0.70589824393E+03  0.71330611513E+03  0.00000000000E+00 0. -1.
<scales pt_clust_5="13000.00000" pt_clust_6="13000.00000" pt_clust_7="13000.00000" pt_clust_8="13000.00000" pt_clust_9="13000.00000"></scales>
<clustering>
<clus scale="   84.440">  5  6 -1 -1</clus>
<clus scale="   92.513">  7  8 -1 -1</clus>
<clus scale="  102.534">  7  9 -1 -1</clus>
<clus scale="  156.284">  2  5  1 -1</clus>
<clus scale="  221.362">  1  5  2 -1</clus>
</clustering>
</event>
<event>
 9    2  0.3897980E-005  0.1689964E+03  0.7546771E-02  0.1210937E+00
          2   -1    0    0  502    0 -0.00000000000E+00  0.00000000000E+00  0.38567547091E+03  0.38567547091E+03  0.00000000000E+00 0. -1.
         21   -1    0    0  501  502  0.00000000000E+00 -0.00000000000E+00 -0.47190585228E+02  0.47190585228E+02  0.00000000000E+00 0.  1.
         24    2    1    2    0    0  0.15608986810E+01  0.24462785804E+02  0.19103646542E+03  0.20858761296E+03  0.80081189223E+02 0.  0.
         23    2    1    2    0    0  0.57521488257E+02 -0.10983969178E+02  0.94426422046E+02  0.14375677380E+03  0.91215632666E+02 0.  0.
        -13    1    3    3    0    0  0.23790759968E+02  0.41736034235E+02  0.15820939408E+03  0.16534239986E+03  0.00000000000E+00 0.  1.
         14    1    3    3    0    0 -0.22229861287E+02 -0.17273248431E+02  0.32827071336E+02  0.43245213107E+02  0.00000000000E+00 0. -1.
        -11    1    4    4    0    0 -0.17843767154E+02  0.15013298628E+02  0.42910211774E+02  0.48837336500E+02  0.00000000000E+00 0. -1.
         11    1    4    4    0    0  0.75365255411E+02 -0.25997267806E+02  0.51516210272E+02  0.94919437300E+02  0.00000000000E+00 0.  1.
          1    1    1    2  501    0 -0.59082386938E+02 -0.13478816626E+02  0.53021998213E+02  0.80521669372E+02  0.00000000000E+00 0. -1.
<scales pt_clust_5="13000.00000" pt_clust_6="13000.00000" pt_clust_7="13000.00000" pt_clust_8="13000.00000" pt_clust_9="13000.00000"></scales>
<clustering>
<clus scale="   80.081">  5  6 -1 -1</clus>
<clus scale="   83.749">  1  5  2 -1</clus>
<clus scale="   91.216">  7  8 -1 -1</clus>
<clus scale="   58.709">  7  9 -1 -1</clus>
<clus scale="  168.996">  2  5  1 -1</clus>
</clustering>
</event>
<event>
 9    2  0.3897980E-005  0.1978412E+03  0.7546771E-02  0.1189654E+00
         21   -1    0    0  501  502  0.00000000000E+00  0.00000000000E+00  0.10468342950E+03  0.10468342950E+03  0.00000000000E+00 0. -1.
          2   -1    0    0  502    0 -0.00000000000E+00 -0.00000000000E+00 -0.52572676333E+03  0.52572676333E+03  0.00000000000E+00 0. -1.
         24    2    1    2    0    0  0.22236905312E+01  0.13681064137E+02 -0.42452812021E+03  0.43253828015E+03  0.81689183059E+02 0.  0.
         23    2    1    2    0    0 -0.40739773251E+02  0.22830303509E+02 -0.56696119685E+02  0.11763283212E+03  0.91880799527E+02 0.  0.
        -13    1    3    3    0    0 -0.25999504723E+02  0.27877652179E+01 -0.46872311206E+02  0.53672706645E+02  0.00000000000E+00 0.  1.
         14    1    3    3    0    0  0.28223195254E+02  0.10893298919E+02 -0.37765580900E+03  0.37886557350E+03  0.00000000000E+00 0. -1.
        -11    1    4    4    0    0  0.14871317813E+02  0.41530079322E+02 -0.28680492353E+02  0.52616292378E+02  0.00000000000E+00 0. -1.
         11    1    4    4    0    0 -0.55611091065E+02 -0.18699775813E+02 -0.28015627331E+02  0.65016539739E+02  0.00000000000E+00 0.  1.
          1    1    1    2  501    0  0.38516082720E+02 -0.36511367647E+02  0.60180906059E+02  0.80239080563E+02  0.00000000000E+00 0. -1.
<scales pt_clust_5="13000.00000" pt_clust_6="13000.00000" pt_clust_7="13000.00000" pt_clust_8="13000.00000" pt_clust_9="13000.00000"></scales>
<clustering>
<clus scale="   81.689">  5  6 -1 -1</clus>
<clus scale="   82.857">  2  5  1 -1</clus>
<clus scale="   91.881">  7  8 -1 -1</clus>
<clus scale="   52.280">  7  9 -1 -1</clus>
<clus scale="  197.841">  1  5  2 -1</clus>
</clustering>
</event>
<event>
 9    2  0.3897980E-005  0.3350848E+03  0.7546771E-02  0.1089337E+00
         21   -1    0    0  501  502  0.00000000000E+00  0.00000000000E+00  0.11234364300E+03  0.11234364300E+03  0.00000000000E+00 0. -1.
          2   -1    0    0  502    0 -0.00000000000E+00 -0.00000000000E+00 -0.66300566597E+03  0.66300566597E+03  0.00000000000E+00 0. -1.
         24    2    1    2    0    0 -0.14828440337E+03  0.94949484009E+02 -0.30048531252E+03  0.35717441513E+03  0.79236803242E+02 0.  0.
         23    2    1    2    0    0  0.46746855138E+02 -0.84499196229E+01 -0.26218250221E+03  0.28424884194E+03  0.99000353891E+02 0.  0.
        -13    1    3    3    0    0 -0.58580334192E+02  0.81112388120E+02 -0.18463709390E+03  0.21000412259E+03  0.00000000000E+00 0.  1.
         14    1    3    3    0    0 -0.89704069178E+02  0.13837095888E+02 -0.11584821863E+03  0.14717029255E+03  0.00000000000E+00 0. -1.
        -11    1    4    4    0    0  0.87302264232E+01 -0.43918237890E+02 -0.19052422727E+03  0.19571537918E+03  0.00000000000E+00 0. -1.
         11    1    4    4    0    0  0.38016628715E+02  0.35468318267E+02 -0.71658274943E+02  0.88533462754E+02  0.00000000000E+00 0.  1.
          1    1    1    2  501    0  0.10153754823E+03 -0.86499564386E+02  0.12005791764E+02  0.13392605189E+03  0.00000000000E+00 0. -1.
<scales pt_clust_5="13000.00000" pt_clust_6="13000.00000" pt_clust_7="13000.00000" pt_clust_8="13000.00000" pt_clust_9="13000.00000"></scales>
<clustering>
<clus scale="   79.237">  5  6 -1 -1</clus>
<clus scale="   99.000">  7  8 -1 -1</clus>
<clus scale="  133.387">  7  9 -1 -1</clus>
<clus scale="  193.086">  2  5  1 -1</clus>
<clus scale="  335.085">  1  5  2 -1</clus>
</clustering>
</event>
<event>
 9    2  0.3897980E-005  0.3901557E+03  0.7546771E-02  0.1081033E+00
         21   -1    0    0  501  502  0.00000000000E+00  0.00000000000E+00  0.91567950961E+02  0.91567950961E+02  0.00000000000E+00 0.  1.
          2   -1    0    0  502    0 -0.00000000000E+00 -0.00000000000E+00 -0.83254214104E+03  0.83254214104E+03  0.00000000000E+00 0. -1.
         24    2    1    2    0    0 -0.73098779346E+02 -0.10640924914E+03 -0.29049969511E+03  0.32816654309E+03  0.81466847853E+02 0.  0.
         23    2    1    2    0    0  0.10191903170E+03 -0.10448080290E+03 -0.18036887020E+03  0.25205073199E+03  0.98452602627E+02 0.  0.
        -13    1    3    3    0    0 -0.81632353849E+02 -0.50387099336E+02 -0.18684315284E+03  0.21003110421E+03  0.00000000000E+00 0.  1.
         14    1    3    3    0    0  0.85335745033E+01 -0.56022149805E+02 -0.10365654228E+03  0.11813543888E+03  0.00000000000E+00 0. -1.
        -11    1    4    4    0    0  0.10421827696E+03 -0.66465645380E+02 -0.86836590458E+02  0.15106198963E+03  0.00000000000E+00 0.  1.
         11    1    4    4    0    0 -0.22992452663E+01 -0.38015157524E+02 -0.93532279741E+02  0.10098874236E+03  0.00000000000E+00 0. -1.
          1    1    1    2  501    0 -0.28820252351E+02  0.21089005204E+03 -0.27010562477E+03  0.34389281692E+03  0.00000000000E+00 0. -1.
<scales pt_clust_5="13000.00000" pt_clust_6="13000.00000" pt_clust_7="13000.00000" pt_clust_8="13000.00000" pt_clust_9="13000.00000"></scales>
<clustering>
<clus scale="   81.467">  5  6 -1 -1</clus>
<clus scale="   98.453">  7  8 -1 -1</clus>
<clus scale="  152.654">  2  5  1 -1</clus>
<clus scale="  164.866">  7  9 -1 -1</clus>
<clus scale="  390.156">  1  5  2 -1</clus>
</clustering>
</event>
<event>
 9    2  0.3897980E-005  0.1760749E+03  0.7546771E-02  0.1200410E+00
         21   -1    0    0  501  502  0.00000000000E+00  0.00000000000E+00  0.93033008705E+02  0.93033008705E+02  0.00000000000E+00 0.  1.
         -1   -1    0    0    0  501 -0.00000000000E+00 -0.00000000000E+00 -0.46320261296E+03  0.46320261296E+03  0.00000000000E+00 0.  1.
         24    2    1    2    0    0  0.13617177813E+02 -0.40787789366E+02 -0.36863635626E+03  0.38015403016E+03  0.82311920145E+02 0.  0.
         23    2    1    2    0    0 -0.55688259897E+02  0.41162792482E+02  0.33306822150E+02  0.12145607491E+03  0.94056769861E+02 0.  0.
        -13    1    3    3    0    0  0.39200655441E+01 -0.61446648628E+02 -0.32630050500E+03  0.33205884585E+03  0.00000000000E+00 0.  1.
         14    1    3    3    0    0  0.96971122686E+01  0.20658859262E+02 -0.42335851258E+02  0.48095184313E+02  0.00000000000E+00 0. -1.
        -13    1    4    4    0    0  0.19662680185E+02 -0.55446979256E+01 -0.10051333392E+02  0.22768266735E+02  0.00000000000E+00 0. -1.
         13    1    4    4    0    0 -0.75350940081E+02  0.46707490408E+02  0.43358155542E+02  0.98687808180E+02  0.00000000000E+00 0.  1.
         -2    1    1    2    0  502  0.42071082084E+02 -0.37500311605E+00 -0.34840070148E+02  0.54625516592E+02  0.00000000000E+00 0.  1.
<scales pt_clust_5="13000.00000" pt_clust_6="13000.00000" pt_clust_7="13000.00000" pt_clust_8="13000.00000" pt_clust_9="13000.00000"></scales>
<clustering>
<clus scale="   82.312">  5  6 -1 -1</clus>
<clus scale="   92.867">  2  5  1 -1</clus>
<clus scale="   94.057">  7  8 -1 -1</clus>
<clus scale="   53.215">  7  9 -1 -1</clus>
<clus scale="  176.075">  1  5  2 -1</clus>
</clustering>
</event>
<event>
 9    2  0.3897980E-005  0.1820472E+03  0.7546771E-02  0.1201851E+00
          2   -1    0    0  502    0 -0.00000000000E+00  0.00000000000E+00  0.91246710763E+02  0.91246710763E+02  0.00000000000E+00 0. -1.
         21   -1    0    0  501  502  0.00000000000E+00 -0.00000000000E+00 -0.20365419051E+03  0.20365419051E+03  0.00000000000E+00 0. -1.
         24    2    1    2    0    0  0.16172894526E+02 -0.23550922714E+01 -0.71364680534E+02  0.10828447875E+03  0.79784094485E+02 0.  0.
         23    2    1    2    0    0  0.50969801497E+02  0.31082189550E+02 -0.40364310460E+02  0.11358322395E+03  0.87794350801E+02 0.  0.
        -11    1    3    3    0    0  0.29764717122E+02 -0.33563830696E+02 -0.26977263679E+02  0.52347319625E+02  0.00000000000E+00 0.  1.
         12    1    3    3    0    0 -0.13591822596E+02  0.31208738424E+02 -0.44387416855E+02  0.55937159122E+02  0.00000000000E+00 0. -1.
        -11    1    4    4    0    0 -0.21300159816E+02  0.19853757827E+02  0.17799598341E+01  0.29172534429E+02  0.00000000000E+00 0.  1.
         11    1    4    4    0    0  0.72269961312E+02  0.11228431723E+02 -0.42144270294E+02  0.84410689522E+02  0.00000000000E+00 0. -1.
          1    1    1    2  501    0 -0.67142696022E+02 -0.28727097278E+02 -0.67848875435E+00  0.73033198576E+02  0.00000000000E+00 0. -1.
<scales pt_clust_5="13000.00000" pt_clust_6="13000.00000" pt_clust_7="13000.00000" pt_clust_8="13000.00000" pt_clust_9="13000.00000"></scales>
<clustering>
<clus scale="   79.784">  5  6 -1 -1</clus>
<clus scale="   81.441">  1  5  2 -1</clus>
<clus scale="   87.794">  7  8 -1 -1</clus>
<clus scale="   66.236">  7  9 -1 -1</clus>
<clus scale="  182.047">  2  5  1 -1</clus>
</clustering>
</event>
<event>
 9    2  0.3897980E-005  0.3593443E+03  0.7546771E-02  0.1088764E+00
         21   -1    0    0  501  502  0.00000000000E+00  0.00000000000E+00  0.18024994392E+03  0.18024994392E+03  0.00000000000E+00 0. -1.
          2   -1    0    0  502    0 -0.00000000000E+00 -0.00000000000E+00 -0.12716264047E+04  0.12716264047E+04  0.00000000000E+00 0. -1.
         24    2    1    2    0    0 -0.10802999464E+03 -0.83671281384E+02 -0.10807482898E+04  0.10923749553E+04  0.81208459644E+02 0.  0.
         23    2    1    2    0    0 -0.16888160654E+02 -0.64314568742E+02  0.87350299683E+02  0.14246651577E+03  0.90802310206E+02 0.  0.
        -13    1    3    3    0    0 -0.65811332063E+02 -0.64135458075E+02 -0.41732326430E+03  0.42732095120E+03  0.00000000000E+00 0.  1.
         14    1    3    3    0    0 -0.42218662577E+02 -0.19535823309E+02 -0.66342502551E+03  0.66505400408E+03  0.00000000000E+00 0. -1.
        -11    1    4    4    0    0  0.17012762173E+01 -0.54363164252E+02  0.18677417679E+01  0.54421837782E+02  0.00000000000E+00 0.  1.
         11    1    4    4    0    0 -0.18589436871E+02 -0.99514044894E+01  0.85482557915E+02  0.88044677989E+02  0.00000000000E+00 0. -1.
          1    1    1    2  501    0  0.12491815529E+03  0.14798585013E+03 -0.97978470611E+02  0.21703487753E+03  0.00000000000E+00 0. -1.
<scales pt_clust_5="13000.00000" pt_clust_6="13000.00000" pt_clust_7="13000.00000" pt_clust_8="13000.00000" pt_clust_9="13000.00000"></scales>
<clustering>
<clus scale="   81.208">  5  6 -1 -1</clus>
<clus scale="   90.802">  7  8 -1 -1</clus>
<clus scale="  158.953">  2  5  1 -1</clus>
<clus scale="   83.556">  7  9 -1 -1</clus>
<clus scale="  359.344">  1  5  2 -1</clus>
</clustering>
</event>
<event>
 9    2  0.3897980E-005  0.9074629E+03  0.7546771E-02  0.9964475E-01
          2   -1    0    0  502    0 -0.00000000000E+00  0.00000000000E+00  0.11385507038E+04  0.11385507038E+04  0.00000000000E+00 0. -1.
         21   -1    0    0  501  502  0.00000000000E+00 -0.00000000000E+00 -0.33456205721E+03  0.33456205721E+03  0.00000000000E+00 0. -1.
         24    2    1    2    0    0  0.11540603330E+03 -0.22769740399E+02 -0.11320788956E+03  0.18286536949E+03  0.82381451184E+02 0.  0.
         23    2    1    2    0    0 -0.28472223591E+03  0.45713459482E+02  0.10379488069E+04  0.10810214332E+04  0.90072977777E+02 0.  0.
        -11    1    3    3    0    0  0.88365219509E+02 -0.29254827999E+02 -0.12222407739E+03  0.15363262048E+03  0.00000000000E+00 0.  1.
         12    1    3    3    0    0  0.27040813793E+02  0.64850875995E+01  0.90161878330E+01  0.29232749012E+02  0.00000000000E+00 0. -1.
        -11    1    4    4    0    0 -0.16714848737E+03  0.70517585677E+02  0.65541145405E+03  0.68005552775E+03  0.00000000000E+00 0. -1.
         11    1    4    4    0    0 -0.11757374854E+03 -0.24804126195E+02  0.38253735288E+03  0.40096590550E+03  0.00000000000E+00 0.  1.
          1    1    1    2  501    0  0.16931620261E+03 -0.22943719082E+02 -0.12075227080E+03  0.20922595827E+03  0.00000000000E+00 0. -1.
<scales pt_clust_5="13000.00000" pt_clust_6="13000.00000" pt_clust_7="13000.00000" pt_clust_8="13000.00000" pt_clust_9="13000.00000"></scales>
<clustering>
<clus scale="   82.381">  5  6 -1 -1</clus>
<clus scale="   90.073">  7  8 -1 -1</clus>
<clus scale="  143.610">  1  5  2 -1</clus>
<clus scale="  175.570">  7  9 -1 -1</clus>
<clus scale="  907.463">  2  5  1 -1</clus>
</clustering>
</event>
<event>
 9    2  0.3897980E-005  0.1792000E+03  0.7546771E-02  0.1179016E+00
          2   -1    0    0  502    0 -0.00000000000E+00  0.00000000000E+00  0.59500740448E+03  0.59500740448E+03  0.00000000000E+00 0. -1.
         21   -1    0    0  501  502  0.00000000000E+00 -0.00000000000E+00 -0.49897290226E+02  0.49897290226E+02  0.00000000000E+00 0.  1.
         24    2    1    2    0    0  0.92105322691E+02  0.68140670993E+02  0.36234127813E+03  0.38894164300E+03  0.82812187006E+02 0.  0.
         23    2    1    2    0    0 -0.89249075416E+02 -0.36994380667E+02  0.88611997321E+02  0.15674732793E+03  0.85928208874E+02 0.  0.
        -13    1    3    3    0    0 -0.59759230018E+01  0.36098018533E+02  0.71099518818E+02  0.79961992058E+02  0.00000000000E+00 0.  1.
         14    1    3    3    0    0  0.98081245693E+02  0.32042652460E+02  0.29124175931E+03  0.30897965094E+03  0.00000000000E+00 0. -1.
        -13    1    4    4    0    0 -0.52803720529E+02 -0.28492766150E+02 -0.60016258673E+00  0.60003590057E+02  0.00000000000E+00 0.  1.
         13    1    4    4    0    0 -0.36445354887E+02 -0.85016145173E+01  0.89212159908E+02  0.96743737873E+02  0.00000000000E+00 0. -1.
          1    1    1    2  501    0 -0.28562472749E+01 -0.31146290326E+02  0.94156838812E+02  0.99215723777E+02  0.00000000000E+00 0. -1.
<scales pt_clust_5="13000.00000" pt_clust_6="13000.00000" pt_clust_7="13000.00000" pt_clust_8="13000.00000" pt_clust_9="13000.00000"></scales>
<clustering>
<clus scale="   82.812">  5  6 -1 -1</clus>
<clus scale="   85.928">  7  8 -1 -1</clus>
<clus scale="   31.277">  7  9 -1 -1</clus>
<clus scale="  141.366">  1  5  2 -1</clus>
<clus scale="  179.200">  2  5  1 -1</clus>
</clustering>
</event>
<event>
 9    2  0.3897980E-005  0.1986557E+03  0.7546771E-02  0.1165544E+00
          2   -1    0    0  502    0 -0.00000000000E+00  0.00000000000E+00  0.84670856341E+03  0.84670856341E+03  0.00000000000E+00 0. -1.
         21   -1    0    0  501  502  0.00000000000E+00 -0.00000000000E+00 -0.40798031366E+02  0.40798031366E+02  0.00000000000E+00 0.  1.
         24    2    1    2    0    0 -0.89069054480E+02 -0.75239206664E+02  0.16788286319E+03  0.21926758479E+03  0.79368654414E+02 0.  0.
         23    2    1    2    0    0  0.27671901496E+02  0.71938662708E+02  0.23226338668E+03  0.25784266902E+03  0.81213643261E+02 0.  0.
        -13    1    3    3    0    0 -0.89849789507E+02 -0.28917514514E+02  0.11950148866E+03  0.15228201835E+03  0.00000000000E+00 0.  1.
         14    1    3    3    0    0  0.78073502649E+00 -0.46321692150E+02  0.48381374529E+02  0.66985566446E+02  0.00000000000E+00 0. -1.
        -13    1    4    4    0    0  0.26800308529E+02  0.17636569999E+02  0.17966088766E+02  0.36770715034E+02  0.00000000000E+00 0. -1.
         13    1    4    4    0    0  0.87159296700E+00  0.54302092709E+02  0.21429729791E+03  0.22107195399E+03  0.00000000000E+00 0.  1.
          1    1    1    2  501    0  0.61397152984E+02  0.33005439560E+01  0.40576428217E+03  0.41039634096E+03  0.00000000000E+00 0. -1.
<scales pt_clust_5="13000.00000" pt_clust_6="13000.00000" pt_clust_7="13000.00000" pt_clust_8="13000.00000" pt_clust_9="13000.00000"></scales>
<clustering>
<clus scale="   79.369">  5  6 -1 -1</clus>
<clus scale="   81.214">  7  8 -1 -1</clus>
<clus scale="   61.486">  7  9 -1 -1</clus>
<clus scale="  141.045">  1  5  2 -1</clus>
<clus scale="  198.656">  2  5  1 -1</clus>
</clustering>
</event>
<event>
 9    2  0.3897980E-005  0.1990924E+03  0.7546771E-02  0.1191945E+00
          2   -1    0    0  502    0 -0.00000000000E+00  0.00000000000E+00  0.17535540391E+03  0.17535540391E+03  0.00000000000E+00 0. -1.
         21   -1    0    0  501  502  0.00000000000E+00 -0.00000000000E+00 -0.10968463892E+03  0.10968463892E+03  0.00000000000E+00 0. -1.
         24    2    1    2    0    0 -0.14865410232E+02 -0.31806127151E+01  0.29230486429E+02  0.82640258465E+02  0.75788483714E+02 0.  0.
         23    2    1    2    0    0  0.22278354169E+01  0.32276012919E+02  0.94590161333E+02  0.13616037407E+03  0.92442655656E+02 0.  0.
        -13    1    3    3    0    0 -0.16174247906E+01 -0.24613315191E+02  0.46123347758E+02  0.52304823450E+02  0.00000000000E+00 0.  1.
         14    1    3    3    0    0 -0.13247985441E+02  0.21432702476E+02 -0.16892861329E+02  0.30335435015E+02  0.00000000000E+00 0. -1.
        -11    1    4    4    0    0  0.41447304629E+02  0.29515907297E+02  0.26096757870E+02  0.57184863521E+02  0.00000000000E+00 0.  1.
         11    1    4    4    0    0 -0.39219469212E+02  0.27601056224E+01  0.68493403463E+02  0.78975510548E+02  0.00000000000E+00 0. -1.
          1    1    1    2  501    0  0.12637574815E+02 -0.29095400204E+02 -0.58149882769E+02  0.66239410296E+02  0.00000000000E+00 0. -1.
<scales pt_clust_5="13000.00000" pt_clust_6="13000.00000" pt_clust_7="13000.00000" pt_clust_8="13000.00000" pt_clust_9="13000.00000"></scales>
<clustering>
<clus scale="   75.788">  5  6 -1 -1</clus>
<clus scale="   77.298">  1  5  2 -1</clus>
<clus scale="   92.443">  7  8 -1 -1</clus>
<clus scale="   31.624">  7  9 -1 -1</clus>
<clus scale="  199.092">  2  5  1 -1</clus>
</clustering>
</event>
<event>
 9    2  0.3897980E-005  0.2938834E+03  0.7546771E-02  0.1103775E+00
          2   -1    0    0  502    0 -0.00000000000E+00  0.00000000000E+00  0.27788819214E+03  0.27788819214E+03  0.00000000000E+00 0. -1.
         21   -1    0    0  501  502  0.00000000000E+00 -0.00000000000E+00 -0.24123555785E+03  0.24123555785E+03  0.00000000000E+00 0.  1.
         24    2    1    2    0    0  0.16072005523E+02 -0.17825769378E+03 -0.67101267527E+02  0.20746314327E+03  0.80648998517E+02 0.  0.
         23    2    1    2    0    0 -0.28368279492E+02  0.74670817363E+02 -0.46085053651E+02  0.12908691777E+03  0.90327791525E+02 0.  0.
        -11    1    3    3    0    0  0.25297882173E+02 -0.17884730210E+03 -0.74731095129E+02  0.19547653795E+03  0.00000000000E+00 0.  1.
         12    1    3    3    0    0 -0.92258766502E+01  0.58960832219E+00  0.76298276022E+01  0.11986605323E+02  0.00000000000E+00 0. -1.
        -11    1    4    4    0    0  0.27803366166E+02  0.17021297552E+01 -0.52145233993E+01  0.28339295512E+02  0.00000000000E+00 0.  1.
         11    1    4    4    0    0 -0.56171645658E+02  0.72968687607E+02 -0.40870530252E+02  0.10074762226E+03  0.00000000000E+00 0. -1.
          1    1    1    2  501    0  0.12296273969E+02  0.10358687641E+03  0.14983895547E+03  0.18257368894E+03  0.00000000000E+00 0. -1.
<scales pt_clust_5="13000.00000" pt_clust_6="13000.00000" pt_clust_7="13000.00000" pt_clust_8="13000.00000" pt_clust_9="13000.00000"></scales>
<clustering>
<clus scale="   80.649">  5  6 -1 -1</clus>
<clus scale="   90.328">  7  8 -1 -1</clus>
<clus scale="  104.314">  7  9 -1 -1</clus>
<clus scale="  196.312">  1  5  2 -1</clus>
<clus scale="  293.883">  2  5  1 -1</clus>
</clustering>
</event>
<event>
 9    2  0.3897980E-005  0.3375463E+03  0.7546771E-02  0.1095409E+00
         -1   -1    0    0    0  501 -0.00000000000E+00  0.00000000000E+00  0.59703617510E+03  0.59703617510E+03  0.00000000000E+00 0.  1.
         21   -1    0    0  501  502  0.00000000000E+00 -0.00000000000E+00 -0.13816225041E+03  0.13816225041E+03  0.00000000000E+00 0.  1.
         24    2    1    2    0    0  0.11221596638E+03 -0.79390186789E+02  0.34198689347E+03  0.37798684680E+03  0.83808091363E+02 0.  0.
         23    2    1    2    0    0  0.21748790595E+02  0.61973582353E+02  0.17664454893E+03  0.20949274057E+03  0.91488670788E+02 0.  0.
        -13    1    3    3    0    0  0.10552487137E+03 -0.61232073593E+02  0.33640651468E+03  0.35784662697E+03  0.00000000000E+00 0.  1.
         14    1    3    3    0    0  0.66910950079E+01 -0.18158113196E+02  0.55803787884E+01  0.20140219826E+02  0.00000000000E+00 0. -1.
        -13    1    4    4    0    0 -0.61558370690E+01  0.34281479215E+02  0.72243442090E+01  0.35571130098E+02  0.00000000000E+00 0.  1.
         13    1    4    4    0    0  0.27904627664E+02  0.27692103138E+02  0.16942020472E+03  0.17392161047E+03  0.00000000000E+00 0. -1.
         -2    1    1    2    0  502 -0.13396475697E+03  0.17416604436E+02 -0.59757517709E+02  0.14771883815E+03  0.00000000000E+00 0.  1.
<scales pt_clust_5="13000.00000" pt_clust_6="13000.00000" pt_clust_7="13000.00000" pt_clust_8="13000.00000" pt_clust_9="13000.00000"></scales>
<clustering>
<clus scale="   83.808">  5  6 -1 -1</clus>
<clus scale="   91.489">  7  8 -1 -1</clus>
<clus scale="  135.092">  7  9 -1 -1</clus>
<clus scale="  160.994">  1  5  2 -1</clus>
<clus scale="  337.546">  2  5  1 -1</clus>
</clustering>
</event>
<event>
 9    2  0.3897980E-005  0.2294765E+03  0.7546771E-02  0.1146576E+00
          2   -1    0    0  502    0 -0.00000000000E+00  0.00000000000E+00  0.60724563253E+03  0.60724563253E+03  0.00000000000E+00 0. -1.
         21   -1    0    0  501  502  0.00000000000E+00 -0.00000000000E+00 -0.57149230863E+02  0.57149230863E+02  0.00000000000E+00 0. -1.
         24    2    1    2    0    0 -0.10153869566E+03 -0.59734970012E+02  0.22519063960E+03  0.26662206111E+03  0.80610954290E+02 0.  0.
         23    2    1    2    0    0 -0.97185684346E+01  0.95755039981E+01  0.21668871140E+03  0.23466216222E+03  0.89029163089E+02 0.  0.
        -11    1    3    3    0    0 -0.36161581864E+02 -0.63059413837E+02  0.84615096154E+02  0.11155206934E+03  0.00000000000E+00 0.  1.
         12    1    3    3    0    0 -0.65377113799E+02  0.33244438250E+01  0.14057554344E+03  0.15506999178E+03  0.00000000000E+00 0. -1.
        -13    1    4    4    0    0 -0.18576901839E+01 -0.29915835856E+02  0.17165371436E+03  0.17425098537E+03  0.00000000000E+00 0. -1.
         13    1    4    4    0    0 -0.78608782507E+01  0.39491339854E+02  0.45034997037E+02  0.60411176850E+02  0.00000000000E+00 0.  1.
          1    1    1    2  501    0  0.11125726410E+03  0.50159466013E+02  0.10821705068E+03  0.16311064006E+03  0.00000000000E+00 0. -1.
<scales pt_clust_5="13000.00000" pt_clust_6="13000.00000" pt_clust_7="13000.00000" pt_clust_8="13000.00000" pt_clust_9="13000.00000"></scales>
<clustering>
<clus scale="   80.611">  5  6 -1 -1</clus>
<clus scale="   89.029">  7  8 -1 -1</clus>
<clus scale="  122.042">  7  9 -1 -1</clus>
<clus scale="  142.746">  1  5  2 -1</clus>
<clus scale="  229.476">  2  5  1 -1</clus>
</clustering>
</event>
<event>
 9    2  0.3897980E-005  0.3472682E+03  0.7546771E-02  0.1069843E+00
          2   -1    0    0  502    0 -0.00000000000E+00  0.00000000000E+00  0.15012067251E+04  0.15012067251E+04  0.00000000000E+00 0. -1.
         21   -1    0    0  501  502  0.00000000000E+00 -0.00000000000E+00 -0.10243656289E+03  0.10243656289E+03  0.00000000000E+00 0. -1.
         24    2    1    2    0    0  0.33418420935E+02  0.28077401447E+03  0.19875067016E+03  0.35438670599E+03  0.78340732901E+02 0.  0.
         23    2    1    2    0    0  0.19443779999E+02 -0.82497175161E+02  0.30540771523E+03  0.33141217878E+03  0.96831375255E+02 0.  0.
        -13    1    3    3    0    0 -0.20885324905E+02  0.28416501945E+02  0.23063532682E+02  0.42138117174E+02  0.00000000000E+00 0.  1.
         14    1    3    3    0    0  0.54303745841E+02  0.25235751253E+03  0.17568713748E+03  0.31224858882E+03  0.00000000000E+00 0. -1.
        -13    1    4    4    0    0 -0.35485564580E+02 -0.18934287510E+02  0.61892301920E+02  0.73813207314E+02  0.00000000000E+00 0. -1.
         13    1    4    4    0    0  0.54929344579E+02 -0.63562887651E+02  0.24351541331E+03  0.25759897147E+03  0.00000000000E+00 0.  1.
          1    1    1    2  501    0 -0.52862200934E+02 -0.19827683931E+03  0.89461177680E+03  0.91784440320E+03  0.00000000000E+00 0. -1.
<scales pt_clust_5="13000.00000" pt_clust_6="13000.00000" pt_clust_7="13000.00000" pt_clust_8="13000.00000" pt_clust_9="13000.00000"></scales>
<clustering>
<clus scale="   78.341">  5  6 -1 -1</clus>
<clus scale="   96.831">  7  8 -1 -1</clus>
<clus scale="  205.203">  7  9 -1 -1</clus>
<clus scale="  293.408">  1  5  2 -1</clus>
<clus scale="  347.268">  2  5  1 -1</clus>
</clustering>
</event>
<event>
 9    2  0.3897980E-005  0.7181143E+03  0.7546771E-02  0.1010955E+00
         21   -1    0    0  501  502  0.00000000000E+00  0.00000000000E+00  0.48263647726E+03  0.48263647726E+03  0.00000000000E+00 0. -1.
          2   -1    0    0  502    0 -0.00000000000E+00 -0.00000000000E+00 -0.43264886228E+03  0.43264886228E+03  0.00000000000E+00 0. -1.
         24    2    1    2    0    0 -0.87063792780E+02  0.14042009361E+03 -0.48735268271E+02  0.19041684320E+03  0.81151346865E+02 0.  0.
         23    2    1    2    0    0  0.32913612281E+03  0.10853886417E+03 -0.16844140219E+02  0.35889675900E+03  0.91716335446E+02 0.  0.
        -13    1    3    3    0    0 -0.29464688847E+02 -0.19611978501E+00 -0.20409530180E+02  0.35843483006E+02  0.00000000000E+00 0.  1.
         14    1    3    3    0    0 -0.57599103933E+02  0.14061621339E+03 -0.28325738091E+02  0.15457336019E+03  0.00000000000E+00 0. -1.
        -13    1    4    4    0    0  0.24657102549E+03  0.11229491559E+03 -0.37978647885E+02  0.27358690826E+03  0.00000000000E+00 0. -1.
         13    1    4    4    0    0  0.82565097328E+02 -0.37560514271E+01  0.21134507666E+02  0.85309850740E+02  0.00000000000E+00 0.  1.
          1    1    1    2  501    0 -0.24207233003E+03 -0.24895895777E+03  0.11556702347E+03  0.36597173735E+03  0.00000000000E+00 0. -1.
<scales pt_clust_5="13000.00000" pt_clust_6="13000.00000" pt_clust_7="13000.00000" pt_clust_8="13000.00000" pt_clust_9="13000.00000"></scales>
<clustering>
<clus scale="   81.151">  5  6 -1 -1</clus>
<clus scale="   91.716">  7  8 -1 -1</clus>
<clus scale="  184.075">  2  5  1 -1</clus>
<clus scale="  337.404">  7  9 -1 -1</clus>
<clus scale="  718.114">  1  5  2 -1</clus>
</clustering>
</event>
<event>
 9    2  0.3897980E-005  0.4727714E+03  0.7546771E-02  0.1078942E+00
          2   -1    0    0  502    0 -0.00000000000E+00  0.00000000000E+00  0.57478314136E+03  0.57478314136E+03  0.00000000000E+00 0. -1.
         21   -1    0    0  501  502  0.00000000000E+00 -0.00000000000E+00 -0.14536039372E+03  0.14536039372E+03  0.00000000000E+00 0.  1.
         24    2    1    2    0    0 -0.31990882225E+02  0.26163705255E+02  0.16123177161E+02  0.92187027062E+02  0.80811726244E+02 0.  0.
         23    2    1    2    0    0  0.13431158960E+03  0.13650355110E+03  0.52492221795E+02  0.21916303166E+03  0.92758711362E+02 0.  0.
        -11    1    3    3    0    0  0.27410916628E+02  0.79010363663E+01  0.70209330620E+01  0.29378193053E+02  0.00000000000E+00 0.  1.
         12    1    3    3    0    0 -0.59401798853E+02  0.18262668888E+02  0.91022440990E+01  0.62808834008E+02  0.00000000000E+00 0. -1.
        -11    1    4    4    0    0  0.16386794959E+02  0.37215655853E+02  0.50704239104E+02  0.64995784115E+02  0.00000000000E+00 0. -1.
         11    1    4    4    0    0  0.11792479464E+03  0.99287895249E+02  0.17879826917E+01  0.15416724754E+03  0.00000000000E+00 0.  1.
          1    1    1    2  501    0 -0.10232070737E+03 -0.16266725636E+03  0.36080734868E+03  0.40879347635E+03  0.00000000000E+00 0. -1.
<scales pt_clust_5="13000.00000" pt_clust_6="13000.00000" pt_clust_7="13000.00000" pt_clust_8="13000.00000" pt_clust_9="13000.00000"></scales>
<clustering>
<clus scale="   80.812">  5  6 -1 -1</clus>
<clus scale="   90.766">  1  5  2 -1</clus>
<clus scale="   92.759">  7  8 -1 -1</clus>
<clus scale="  190.816">  7  9 -1 -1</clus>
<clus scale="  472.771">  2  5  1 -1</clus>
</clustering>
</event>
<event>
 9    2  0.3897980E-005  0.1479856E+03  0.7546771E-02  0.1229582E+00
          2   -1    0    0  502    0 -0.00000000000E+00  0.00000000000E+00  0.69730100617E+02  0.69730100617E+02  0.00000000000E+00 0. -1.
         21   -1    0    0  501  502  0.00000000000E+00 -0.00000000000E+00 -0.25737197778E+03  0.25737197778E+03  0.00000000000E+00 0. -1.
         24    2    1    2    0    0 -0.12419651499E+02  0.11511111475E+02 -0.15363484752E+03  0.17525933948E+03  0.82616077551E+02 0.  0.
         23    2    1    2    0    0  0.35765264145E+02  0.26972702512E+02 -0.17175663140E+02  0.10378739096E+03  0.92033354381E+02 0.  0.
        -13    1    3    3    0    0  0.11813142443E+02 -0.27969854064E+02 -0.27793864802E+02  0.41162628577E+02  0.00000000000E+00 0.  1.
         14    1    3    3    0    0 -0.24232793942E+02  0.39480965539E+02 -0.12584098272E+03  0.13409671090E+03  0.00000000000E+00 0. -1.
        -13    1    4    4    0    0 -0.21450037657E+02 -0.12265360053E+02  0.13243182400E+02  0.28034354866E+02  0.00000000000E+00 0.  1.
         13    1    4    4    0    0  0.57215301802E+02  0.39238062564E+02 -0.30418845539E+02  0.75753036098E+02  0.00000000000E+00 0. -1.
          1    1    1    2  501    0 -0.23345612646E+02 -0.38483813987E+02 -0.16831366499E+02  0.48055347954E+02  0.00000000000E+00 0. -1.
<scales pt_clust_5="13000.00000" pt_clust_6="13000.00000" pt_clust_7="13000.00000" pt_clust_8="13000.00000" pt_clust_9="13000.00000"></scales>
<clustering>
<clus scale="   82.616">  5  6 -1 -1</clus>
<clus scale="   84.334">  1  5  2 -1</clus>
<clus scale="   92.033">  7  8 -1 -1</clus>
<clus scale="   44.329">  7  9 -1 -1</clus>
<clus scale="  147.986">  2  5  1 -1</clus>
</clustering>
</event>
<event>
 9    2  0.3897980E-005  0.2375483E+03  0.7546771E-02  0.1150785E+00
          2   -1    0    0  502    0 -0.00000000000E+00  0.00000000000E+00  0.72099114884E+03  0.72099114884E+03  0.00000000000E+00 0. -1.
         21   -1    0    0  501  502  0.00000000000E+00 -0.00000000000E+00 -0.44112122738E+02  0.44112122738E+02  0.00000000000E+00 0. -1.
         24    2    1    2    0    0  0.76785516112E+02  0.35998246989E+02  0.18031789893E+03  0.21464696173E+03  0.79792758028E+02 0.  0.
         23    2    1    2    0    0  0.42940943352E+02 -0.28665933331E+02  0.31741144292E+03  0.33485761485E+03  0.93348474941E+02 0.  0.
        -13    1    3    3    0    0 -0.12879175667E+02  0.20947312625E+02  0.50357805309E+02  0.56040803238E+02  0.00000000000E+00 0.  1.
         14    1    3    3    0    0  0.89664691778E+02  0.15050934364E+02  0.12996009362E+03  0.15860615849E+03  0.00000000000E+00 0. -1.
        -13    1    4    4    0    0  0.27796924618E+02 -0.61530147544E+02  0.16650659216E+03  0.17967491006E+03  0.00000000000E+00 0.  1.
         13    1    4    4    0    0  0.15144018734E+02  0.32864214213E+02  0.15090485077E+03  0.15518270479E+03  0.00000000000E+00 0. -1.
          1    1    1    2  501    0 -0.11972645946E+03 -0.73323136580E+01  0.17914968425E+03  0.21559869500E+03  0.00000000000E+00 0. -1.
<scales pt_clust_5="13000.00000" pt_clust_6="13000.00000" pt_clust_7="13000.00000" pt_clust_8="13000.00000" pt_clust_9="13000.00000"></scales>
<clustering>
<clus scale="   79.793">  5  6 -1 -1</clus>
<clus scale="   93.348">  7  8 -1 -1</clus>
<clus scale="  116.442">  1  5  2 -1</clus>
<clus scale="   90.991">  7  9 -1 -1</clus>
<clus scale="  237.548">  2  5  1 -1</clus>
</clustering>
</event>
<event>
 9    2  0.3897980E-005  0.3766793E+03  0.7546771E-02  0.1108059E+00
          2   -1    0    0  502    0 -0.00000000000E+00  0.00000000000E+00  0.39041273166E+03  0.39041273166E+03  0.00000000000E+00 0. -1.
         21   -1    0    0  501  502  0.00000000000E+00 -0.00000000000E+00 -0.13582694157E+03  0.13582694157E+03  0.00000000000E+00 0. -1.
         24    2    1    2    0    0 -0.21306748505E+02 -0.12781026349E+02  0.54308320285E+02  0.99627023809E+02  0.79742197452E+02 0.  0.
         23    2    1    2    0    0 -0.15570272031E+03 -0.30516738747E+02  0.15177578610E+03  0.23804048330E+03  0.91938968825E+02 0.  0.
        -11    1    3    3    0    0  0.20789294372E+02 -0.83186716512E+01 -0.84441901563E+01  0.23931138835E+02  0.00000000000E+00 0.  1.
         12    1    3    3    0    0 -0.42096042877E+02 -0.44623546973E+01  0.62752510441E+02  0.75695884974E+02  0.00000000000E+00 0. -1.
        -13    1    4    4    0    0 -0.50796045225E+02 -0.12434756399E+02  0.11340592385E+03  0.12488300502E+03  0.00000000000E+00 0.  1.
         13    1    4    4    0    0 -0.10490667508E+03 -0.18081982348E+02  0.38369862248E+02  0.11315747828E+03  0.00000000000E+00 0. -1.
          1    1    1    2  501    0  0.17700946881E+03  0.43297765095E+02  0.48501683700E+02  0.18857216612E+03  0.00000000000E+00 0. -1.
<scales pt_clust_5="13000.00000" pt_clust_6="13000.00000" pt_clust_7="13000.00000" pt_clust_8="13000.00000" pt_clust_9="13000.00000"></scales>
<clustering>
<clus scale="   79.742">  5  6 -1 -1</clus>
<clus scale="   83.523">  1  5  2 -1</clus>
<clus scale="   91.939">  7  8 -1 -1</clus>
<clus scale="  173.275">  7  9 -1 -1</clus>
<clus scale="  376.679">  2  5  1 -1</clus>
</clustering>
</event>
<event>
 9    2  0.3897980E-005  0.3413333E+03  0.7546771E-02  0.1116524E+00
         21   -1    0    0  501  502  0.00000000000E+00  0.00000000000E+00  0.56657387447E+02  0.56657387447E+02  0.00000000000E+00 0. -1.
          2   -1    0    0  502    0 -0.00000000000E+00 -0.00000000000E+00 -0.10006252473E+04  0.10006252473E+04  0.00000000000E+00 0. -1.
         24    2    1    2    0    0 -0.48613979356E+01 -0.39665959597E+02 -0.43586871369E+03  0.44517711208E+03  0.81265638498E+02 0.  0.
         23    2    1    2    0    0  0.17384253537E+02 -0.10685489360E+03 -0.41426781000E+03  0.43766498272E+03  0.90623606948E+02 0.  0.
        -13    1    3    3    0    0  0.32586598364E+02 -0.20660193168E+01 -0.10147805197E+03  0.10660182860E+03  0.00000000000E+00 0.  1.
         14    1    3    3    0    0 -0.37447996299E+02 -0.37599940280E+02 -0.33439066172E+03  0.33857528348E+03  0.00000000000E+00 0. -1.
        -13    1    4    4    0    0  0.47365594675E+02 -0.46118243461E+02 -0.27451629438E+03  0.28236428212E+03  0.00000000000E+00 0.  1.
         13    1    4    4    0    0 -0.29981341138E+02 -0.60736650141E+02 -0.13975151563E+03  0.15530070060E+03  0.00000000000E+00 0. -1.
          1    1    1    2  501    0 -0.12522855601E+02  0.14652085320E+03 -0.93831336166E+02  0.17444053996E+03  0.00000000000E+00 0. -1.
<scales pt_clust_5="13000.00000" pt_clust_6="13000.00000" pt_clust_7="13000.00000" pt_clust_8="13000.00000" pt_clust_9="13000.00000"></scales>
<clustering>
<clus scale="   81.266">  5  6 -1 -1</clus>
<clus scale="   90.560">  2  5  1 -1</clus>
<clus scale="   90.624">  7  8 -1 -1</clus>
<clus scale="  137.703">  7  9 -1 -1</clus>
<clus scale="  341.333">  1  5  2 -1</clus>
</clustering>
</event>
<event>
 9    2  0.3897980E-005  0.3962671E+03  0.7546771E-02  0.1066255E+00
          2   -1    0    0  502    0 -0.00000000000E+00  0.00000000000E+00  0.13627730490E+04  0.13627730490E+04  0.00000000000E+00 0. -1.
         21   -1    0    0  501  502  0.00000000000E+00 -0.00000000000E+00 -0.71349748498E+02  0.71349748498E+02  0.00000000000E+00 0.  1.
         24    2    1    2    0    0 -0.12559932135E+03 -0.15886822438E+03  0.34514015537E+03  0.40821859571E+03  0.80662214128E+02 0.  0.
         23    2    1    2    0    0  0.94697447544E+02 -0.17616901360E+02  0.74287477069E+03  0.75483798809E+03  0.92948919066E+02 0.  0.
        -13    1    3    3    0    0 -0.13647171236E+03 -0.13597842786E+03  0.30510802343E+03  0.36084008519E+03  0.00000000000E+00 0.  1.
         14    1    3    3    0    0  0.10872391008E+02 -0.22889796519E+02  0.40032131939E+02  0.47378510514E+02  0.00000000000E+00 0. -1.
        -13    1    4    4    0    0  0.57838677438E+02  0.36467254246E+02  0.38769718398E+03  0.39368042840E+03  0.00000000000E+00 0.  1.
         13    1    4    4    0    0  0.36858770106E+02 -0.54084155606E+02  0.35517758671E+03  0.36115755969E+03  0.00000000000E+00 0. -1.
          1    1    1    2  501    0  0.30901873809E+02  0.17648512574E+03  0.20340837441E+03  0.27106621367E+03  0.00000000000E+00 0. -1.
<scales pt_clust_5="13000.00000" pt_clust_6="13000.00000" pt_clust_7="13000.00000" pt_clust_8="13000.00000" pt_clust_9="13000.00000"></scales>
<clustering>
<clus scale="   80.662">  5  6 -1 -1</clus>
<clus scale="   92.949">  7  8 -1 -1</clus>
<clus scale="  179.170">  7  9 -1 -1</clus>
<clus scale="  217.993">  1  5  2 -1</clus>
<clus scale="  396.267">  2  5  1 -1</clus>
</clustering>
</event>
<event>
 9    2  0.3897980E-005  0.2505318E+03  0.7546771E-02  0.1134050E+00
          2   -1    0    0  502    0 -0.00000000000E+00  0.00000000000E+00  0.17898307455E+04  0.17898307455E+04  0.00000000000E+00 0. -1.
         21   -1    0    0  501  502  0.00000000000E+00 -0.00000000000E+00 -0.22442400970E+02  0.22442400970E+02  0.00000000000E+00 0. -1.
         24    2    1    2    0    0  0.95521719566E+02 -0.80792514969E+02  0.74568883481E+03  0.76030543258E+03  0.79753890588E+02 0.  0.
         23    2    1    2    0    0 -0.15733451818E+02 -0.17854696994E+02  0.63526805880E+03  0.64524089359E+03  0.11047159142E+03 0.  0.
        -11    1    3    3    0    0  0.37350369433E+02 -0.14605697908E+01  0.92770292368E+02  0.10001755099E+03  0.00000000000E+00 0.  1.
         12    1    3    3    0    0  0.58171350134E+02 -0.79331945178E+02  0.65291854245E+03  0.66028788159E+03  0.00000000000E+00 0. -1.
        -13    1    4    4    0    0 -0.52190167523E+02 -0.43577619117E+02  0.40951866000E+03  0.41512450586E+03  0.00000000000E+00 0.  1.
         13    1    4    4    0    0  0.36456715704E+02  0.25722922123E+02  0.22574939880E+03  0.23011638773E+03  0.00000000000E+00 0. -1.
          1    1    1    2  501    0 -0.79788267748E+02  0.98647211963E+02  0.38643145094E+03  0.40672682033E+03  0.00000000000E+00 0. -1.
<scales pt_clust_5="13000.00000" pt_clust_6="13000.00000" pt_clust_7="13000.00000" pt_clust_8="13000.00000" pt_clust_9="13000.00000"></scales>
<clustering>
<clus scale="   79.754">  5  6 -1 -1</clus>
<clus scale="  110.472">  7  8 -1 -1</clus>
<clus scale="  126.876">  7  9 -1 -1</clus>
<clus scale="  148.366">  1  5  2 -1</clus>
<clus scale="  250.532">  2  5  1 -1</clus>
</clustering>
</event>
<event>
 9    2  0.3897980E-005  0.3125904E+03  0.7546771E-02  0.1106416E+00
          2   -1    0    0  502    0 -0.00000000000E+00  0.00000000000E+00  0.10331343906E+03  0.10331343906E+03  0.00000000000E+00 0. -1.
         21   -1    0    0  501  502  0.00000000000E+00 -0.00000000000E+00 -0.52885162418E+03  0.52885162418E+03  0.00000000000E+00 0. -1.
         24    2    1    2    0    0  0.77296419766E+02  0.10392504773E+03 -0.17077740753E+03  0.22890853734E+03  0.80368174631E+02 0.  0.
         23    2    1    2    0    0 -0.21430647898E+02 -0.37590465357E+02  0.29378226213E+02  0.10617701672E+03  0.92402180434E+02 0.  0.
        -13    1    3    3    0    0  0.40625231297E+02  0.82932695492E+02 -0.16089444855E+03  0.18551351696E+03  0.00000000000E+00 0.  1.
         14    1    3    3    0    0  0.36671188469E+02  0.20992352235E+02 -0.98829589743E+01  0.43395020385E+02  0.00000000000E+00 0. -1.
        -13    1    4    4    0    0  0.94018653786E+01 -0.55627667943E+02  0.39711450841E+02  0.68991534562E+02  0.00000000000E+00 0. -1.
         13    1    4    4    0    0 -0.30832513277E+02  0.18037202586E+02 -0.10333224628E+02  0.37185482157E+02  0.00000000000E+00 0.  1.
          1    1    1    2  501    0 -0.55865771868E+02 -0.66334582369E+02 -0.28413900381E+03  0.29707950917E+03  0.00000000000E+00 0. -1.
<scales pt_clust_5="13000.00000" pt_clust_6="13000.00000" pt_clust_7="13000.00000" pt_clust_8="13000.00000" pt_clust_9="13000.00000"></scales>
<clustering>
<clus scale="   80.368">  5  6 -1 -1</clus>
<clus scale="   92.402">  7  8 -1 -1</clus>
<clus scale="   86.725">  7  9 -1 -1</clus>
<clus scale="  152.428">  1  5  2 -1</clus>
<clus scale="  312.590">  2  5  1 -1</clus>
</clustering>
</event>
<event>
 9    2  0.3897980E-005  0.5077195E+03  0.7546771E-02  0.1070544E+00
         21   -1    0    0  501  502  0.00000000000E+00  0.00000000000E+00  0.24684064450E+03  0.24684064450E+03  0.00000000000E+00 0. -1.
          2   -1    0    0  502    0 -0.00000000000E+00 -0.00000000000E+00 -0.38167023030E+03  0.38167023030E+03  0.00000000000E+00 0. -1.
         24    2    1    2    0    0 -0.45083033084E+02 -0.12504161849E+02  0.26401967396E+02  0.95805771144E+02  0.79327472962E+02 0.  0.
         23    2    1    2    0    0  0.88885038622E+01  0.65552764255E+02  0.16558627531E+03  0.19963740605E+03  0.89778109353E+02 0.  0.
        -13    1    3    3    0    0  0.13604035033E+02  0.19726566663E+02  0.13872088010E+02  0.27688301270E+02  0.00000000000E+00 0.  1.
         14    1    3    3    0    0 -0.58687068117E+02 -0.32230728512E+02  0.12529879386E+02  0.68117469874E+02  0.00000000000E+00 0. -1.
        -11    1    4    4    0    0  0.47729011699E+02  0.42490324720E+02  0.11688411946E+03  0.13321179991E+03  0.00000000000E+00 0. -1.
         11    1    4    4    0    0 -0.38840507837E+02  0.23062439535E+02  0.48702155850E+02  0.66425606138E+02  0.00000000000E+00 0.  1.
          1    1    1    2  501    0  0.36194529221E+02 -0.53048602406E+02 -0.32681782851E+03  0.33306769761E+03  0.00000000000E+00 0. -1.
<scales pt_clust_5="13000.00000" pt_clust_6="13000.00000" pt_clust_7="13000.00000" pt_clust_8="13000.00000" pt_clust_9="13000.00000"></scales>
<clustering>
<clus scale="   79.327">  5  6 -1 -1</clus>
<clus scale="   89.778">  7  8 -1 -1</clus>
<clus scale="   64.220">  7  9 -1 -1</clus>
<clus scale="   92.096">  2  5  1 -1</clus>
<clus scale="  507.720">  1  5  2 -1</clus>
</clustering>
</event>
<event>
 9    2  0.3897980E-005  0.3283773E+03  0.7546771E-02  0.1121775E+00
         -1   -1    0    0    0  501 -0.00000000000E+00  0.00000000000E+00  0.18954898222E+03  0.18954898222E+03  0.00000000000E+00 0.  1.
         21   -1    0    0  501  502  0.00000000000E+00 -0.00000000000E+00 -0.23027681382E+03  0.23027681382E+03  0.00000000000E+00 0.  1.
         24    2    1    2    0    0 -0.36198064201E+02 -0.17173256292E+02 -0.15207197390E+02  0.90458315274E+02  0.79663212126E+02 0.  0.
         23    2    1    2    0    0 -0.10787620608E+03  0.85422933032E+02  0.16432942514E+02  0.16451749947E+03  0.88665735799E+02 0.  0.
        -11    1    3    3    0    0 -0.59045177566E+02 -0.15562405690E+02 -0.24429931613E+02  0.65767340096E+02  0.00000000000E+00 0.  1.
         12    1    3    3    0    0  0.22847113364E+02 -0.16108506018E+01  0.92227342231E+01  0.24690975179E+02  0.00000000000E+00 0. -1.
        -11    1    4    4    0    0 -0.91999467798E+01  0.23948220524E+02 -0.29872101692E+02  0.39376372947E+02  0.00000000000E+00 0. -1.
         11    1    4    4    0    0 -0.98676259301E+02  0.61474712507E+02  0.46305044205E+02  0.12514112652E+03  0.00000000000E+00 0.  1.
         -2    1    1    2    0  502  0.14407427028E+03 -0.68249676739E+02 -0.41953576723E+02  0.16484998129E+03  0.00000000000E+00 0.  1.
<scales pt_clust_5="13000.00000" pt_clust_6="13000.00000" pt_clust_7="13000.00000" pt_clust_8="13000.00000" pt_clust_9="13000.00000"></scales>
<clustering>
<clus scale="   79.663">  5  6 -1 -1</clus>
<clus scale="   88.666">  7  8 -1 -1</clus>
<clus scale="   89.171">  1  5  2 -1</clus>
<clus scale="  149.691">  7  9 -1 -1</clus>
<clus scale="  328.377">  2  5  1 -1</clus>
</clustering>
</event>
<event>
 9    2  0.3897980E-005  0.2707552E+03  0.7546771E-02  0.1128513E+00
         21   -1    0    0  501  502  0.00000000000E+00  0.00000000000E+00  0.47200549416E+02  0.47200549416E+02  0.00000000000E+00 0.  1.
          2   -1    0    0  502    0 -0.00000000000E+00 -0.00000000000E+00 -0.90203316752E+03  0.90203316752E+03  0.00000000000E+00 0. -1.
         24    2    1    2    0    0 -0.45937146789E+02 -0.97262455711E+02 -0.37284827033E+03  0.39640705713E+03  0.80947609625E+02 0.  0.
         23    2    1    2    0    0 -0.16154438910E+02  0.92043843789E+02 -0.10805723335E+03  0.17374344226E+03  0.98880650151E+02 0.  0.
        -13    1    3    3    0    0 -0.25692384008E+02 -0.10845616787E+03 -0.31184491211E+03  0.33116474473E+03  0.00000000000E+00 0.  1.
         14    1    3    3    0    0 -0.20244762781E+02  0.11193712161E+02 -0.61003358223E+02  0.65242312394E+02  0.00000000000E+00 0. -1.
        -11    1    4    4    0    0  0.95239641787E+01  0.57074653451E+02 -0.11600618532E+03  0.12963663445E+03  0.00000000000E+00 0. -1.
         11    1    4    4    0    0 -0.25678403088E+02  0.34969190339E+02  0.79489519657E+01  0.44106807813E+02  0.00000000000E+00 0.  1.
          1    1    1    2  501    0  0.62091585699E+02  0.52186119213E+01 -0.37392711442E+03  0.37908321754E+03  0.00000000000E+00 0. -1.
<scales pt_clust_5="13000.00000" pt_clust_6="13000.00000" pt_clust_7="13000.00000" pt_clust_8="13000.00000" pt_clust_9="13000.00000"></scales>
<clustering>
<clus scale="   80.948">  5  6 -1 -1</clus>
<clus scale="   98.881">  7  8 -1 -1</clus>
<clus scale="   62.311">  7  9 -1 -1</clus>
<clus scale="  134.621">  2  5  1 -1</clus>
<clus scale="  270.755">  1  5  2 -1</clus>
</clustering>
</event>
<event>
 9    2  0.3897980E-005  0.2158891E+03  0.7546771E-02  0.1159268E+00
         21   -1    0    0  501  502  0.00000000000E+00  0.00000000000E+00  0.61852212507E+02  0.61852212507E+02  0.00000000000E+00 0. -1.
          2   -1    0    0  502    0 -0.00000000000E+00 -0.00000000000E+00 -0.62407895334E+03  0.62407895334E+03  0.00000000000E+00 0. -1.
         24    2    1    2    0    0 -0.65112621277E+02 -0.72101819028E+02 -0.38868621519E+03  0.40893942598E+03  0.81952147534E+02 0.  0.
         23    2    1    2    0    0 -0.15455410591E+02  0.98330202195E+00 -0.13397361244E+03  0.16247278143E+03  0.90601541254E+02 0.  0.
        -13    1    3    3    0    0 -0.44814455821E+02 -0.26881398372E+02 -0.75297967889E+02  0.91655490819E+02  0.00000000000E+00 0.  1.
         14    1    3    3    0    0 -0.20298165457E+02 -0.45220420656E+02 -0.31338824730E+03  0.31728393516E+03  0.00000000000E+00 0. -1.
        -11    1    4    4    0    0  0.18608065320E+02 -0.16117251514E+02 -0.11900398709E+03  0.12152355671E+03  0.00000000000E+00 0.  1.
         11    1    4    4    0    0 -0.34063475912E+02  0.17100553536E+02 -0.14969625343E+02  0.40949224722E+02  0.00000000000E+00 0. -1.
          1    1    1    2  501    0  0.80568031869E+02  0.71118517006E+02 -0.39566913206E+02  0.11451895843E+03  0.00000000000E+00 0. -1.
<scales pt_clust_5="13000.00000" pt_clust_6="13000.00000" pt_clust_7="13000.00000" pt_clust_8="13000.00000" pt_clust_9="13000.00000"></scales>
<clustering>
<clus scale="   81.952">  5  6 -1 -1</clus>
<clus scale="   90.602">  7  8 -1 -1</clus>
<clus scale="  107.467">  7  9 -1 -1</clus>
<clus scale="  127.100">  2  5  1 -1</clus>
<clus scale="  215.889">  1  5  2 -1</clus>
</clustering>
</event>
<event>
 9    2  0.3897980E-005  0.2326188E+03  0.7546771E-02  0.1160539E+00
         21   -1    0    0  501  502  0.00000000000E+00  0.00000000000E+00  0.60867400617E+03  0.60867400617E+03  0.00000000000E+00 0. -1.
          2   -1    0    0  502    0 -0.00000000000E+00 -0.00000000000E+00 -0.46828319973E+02  0.46828319973E+02  0.00000000000E+00 0. -1.
         24    2    1    2    0    0  0.55852276286E+02 -0.16684412780E+02  0.11327871567E+03  0.15020651783E+03  0.79574393988E+02 0.  0.
         23    2    1    2    0    0  0.47058150363E+02  0.54131082286E+02  0.17523702816E+03  0.21084366217E+03  0.92749071455E+02 0.  0.
        -13    1    3    3    0    0  0.13972300281E+02  0.24103077212E+02  0.67105733117E+01  0.28656854335E+02  0.00000000000E+00 0.  1.
         14    1    3    3    0    0  0.41879976005E+02 -0.40787489992E+02  0.10656814235E+03  0.12154966349E+03  0.00000000000E+00 0. -1.
        -11    1    4    4    0    0  0.18240064959E+02 -0.91620752683E+01  0.12083856780E+03  0.12255041029E+03  0.00000000000E+00 0. -1.
         11    1    4    4    0    0  0.28818085404E+02  0.63293157554E+02  0.54398460354E+02  0.88293251885E+02  0.00000000000E+00 0.  1.
          1    1    1    2  501    0 -0.10291042665E+03 -0.37446669505E+02  0.27332994238E+03  0.29445214614E+03  0.00000000000E+00 0. -1.
<scales pt_clust_5="13000.00000" pt_clust_6="13000.00000" pt_clust_7="13000.00000" pt_clust_8="13000.00000" pt_clust_9="13000.00000"></scales>
<clustering>
<clus scale="   79.574">  5  6 -1 -1</clus>
<clus scale="   92.749">  7  8 -1 -1</clus>
<clus scale="   98.640">  2  5  1 -1</clus>
<clus scale="   93.000">  7  9 -1 -1</clus>
<clus scale="  232.619">  1  5  2 -1</clus>
</clustering>
</event>
<event>
 9    2  0.3897980E-005  0.3101069E+03  0.7546771E-02  0.1125352E+00
          2   -1    0    0  502    0 -0.00000000000E+00  0.00000000000E+00  0.11408279406E+04  0.11408279406E+04  0.00000000000E+00 0. -1.
         21   -1    0    0  501  502  0.00000000000E+00 -0.00000000000E+00 -0.52448426376E+02  0.52448426376E+02  0.00000000000E+00 0. -1.
         24    2    1    2    0    0 -0.16446872022E+01 -0.54198024451E+02  0.48882372226E+02  0.10850882445E+03  0.80277941045E+02 0.  0.
         23    2    1    2    0    0 -0.24740670920E+02 -0.55625670360E+02  0.13612995304E+03  0.17436669172E+03  0.90366271729E+02 0.  0.
        -11    1    3    3    0    0 -0.14406136629E+02 -0.36085995932E+02  0.68606290225E+02  0.78845157957E+02  0.00000000000E+00 0.  1.
         12    1    3    3    0    0  0.12761449426E+02 -0.18112028519E+02 -0.19723917998E+02  0.29663666492E+02  0.00000000000E+00 0. -1.
        -13    1    4    4    0    0 -0.27360947801E+02 -0.28867144887E+02  0.14147023135E+03  0.14695495867E+03  0.00000000000E+00 0. -1.
         13    1    4    4    0    0  0.26202768809E+01 -0.26758525473E+02 -0.53402783122E+01  0.27411733051E+02  0.00000000000E+00 0.  1.
          1    1    1    2  501    0  0.26385358123E+02  0.10982369481E+03  0.90336718897E+03  0.91040085082E+03  0.00000000000E+00 0. -1.
<scales pt_clust_5="13000.00000" pt_clust_6="13000.00000" pt_clust_7="13000.00000" pt_clust_8="13000.00000" pt_clust_9="13000.00000"></scales>
<clustering>
<clus scale="   80.278">  5  6 -1 -1</clus>
<clus scale="   90.366">  7  8 -1 -1</clus>
<clus scale="   96.875">  1  5  2 -1</clus>
<clus scale="   68.281">  7  9 -1 -1</clus>
<clus scale="  310.107">  2  5  1 -1</clus>
</clustering>
</event>
<event>
 9    2  0.3897980E-005  0.6620835E+03  0.7546771E-02  0.1006670E+00
          2   -1    0    0  502    0 -0.00000000000E+00  0.00000000000E+00  0.15394161171E+04  0.15394161171E+04  0.00000000000E+00 0. -1.
         21   -1    0    0  501  502  0.00000000000E+00 -0.00000000000E+00 -0.15439399823E+03  0.15439399823E+03  0.00000000000E+00 0.  1.
         24    2    1    2    0    0  0.15477973146E+03  0.20363958468E+03  0.19354805867E+03  0.33073824112E+03  0.80629320983E+02 0.  0.
         23    2    1    2    0    0 -0.25250341149E+03 -0.37126311491E+03  0.93744583835E+03  0.10434190891E+04  0.91238272524E+02 0.  0.
        -13    1    3    3    0    0  0.71274520369E+02  0.34034337047E+02  0.62301985101E+02  0.10059786628E+03  0.00000000000E+00 0.  1.
         14    1    3    3    0    0  0.83505211094E+02  0.16960524763E+03  0.13124607357E+03  0.23014037484E+03  0.00000000000E+00 0. -1.
        -11    1    4    4    0    0 -0.14373220757E+03 -0.28431359513E+03  0.67042747032E+03  0.74227094839E+03  0.00000000000E+00 0. -1.
         11    1    4    4    0    0 -0.10877120392E+03 -0.86949519777E+02  0.26701836804E+03  0.30114814072E+03  0.00000000000E+00 0.  1.
          1    1    1    2  501    0  0.97723680025E+02  0.16762353023E+03  0.25402822184E+03  0.31965278509E+03  0.00000000000E+00 0. -1.
<scales pt_clust_5="13000.00000" pt_clust_6="13000.00000" pt_clust_7="13000.00000" pt_clust_8="13000.00000" pt_clust_9="13000.00000"></scales>
<clustering>
<clus scale="   80.629">  5  6 -1 -1</clus>
<clus scale="   91.238">  7  8 -1 -1</clus>
<clus scale="  194.030">  7  9 -1 -1</clus>
<clus scale="  268.192">  1  5  2 -1</clus>
<clus scale="  662.083">  2  5  1 -1</clus>
</clustering>
</event>
<event>
 9    2  0.3897980E-005  0.6259751E+03  0.7546771E-02  0.1031170E+00
         21   -1    0    0  501  502  0.00000000000E+00  0.00000000000E+00  0.23578890618E+03  0.23578890618E+03  0.00000000000E+00 0.  1.
         -3   -1    0    0    0  501 -0.00000000000E+00 -0.00000000000E+00 -0.82636277781E+03  0.82636277781E+03  0.00000000000E+00 0.  1.
         24    2    1    2    0    0  0.22921305286E+02  0.11757605280E+03 -0.36807976647E+03  0.39781110648E+03  0.91768445160E+02 0.  0.
         23    2    1    2    0    0  0.35041953797E+02 -0.31624423385E+03  0.35554618175E+02  0.33355676717E+03  0.93582220991E+02 0.  0.
        -13    1    3    3    0    0  0.51042044420E+02  0.82716600451E+02 -0.30734505852E+03  0.32234812127E+03  0.00000000000E+00 0.  1.
         14    1    3    3    0    0 -0.28120739134E+02  0.34859452347E+02 -0.60734707954E+02  0.75462985215E+02  0.00000000000E+00 0. -1.
        -13    1    4    4    0    0  0.52533318603E+02 -0.22535485142E+03  0.57498873790E+02  0.23843380446E+03  0.00000000000E+00 0.  1.
         13    1    4    4    0    0 -0.17491364807E+02 -0.90889382427E+02 -0.21944255615E+02  0.95122962712E+02  0.00000000000E+00 0. -1.
         -4    1    1    2    0  502 -0.57963259082E+02  0.19866818105E+03 -0.25804872333E+03  0.33078381033E+03  0.00000000000E+00 0.  1.
<scales pt_clust_5="13000.00000" pt_clust_6="13000.00000" pt_clust_7="13000.00000" pt_clust_8="13000.00000" pt_clust_9="13000.00000"></scales>
<clustering>
<clus scale="   91.768">  5  6 -1 -1</clus>
<clus scale="   93.582">  7  8 -1 -1</clus>
<clus scale="  150.901">  2  5  1 -1</clus>
<clus scale="  280.017">  7  9 -1 -1</clus>
<clus scale="  625.975">  1  5  2 -1</clus>
</clustering>
</event>
<event>
 9    2  0.3897980E-005  0.2721166E+03  0.7546771E-02  0.1151879E+00
         21   -1    0    0  501  502  0.00000000000E+00  0.00000000000E+00  0.13293778432E+03  0.13293778432E+03  0.00000000000E+00 0. -1.
          2   -1    0    0  502    0 -0.00000000000E+00 -0.00000000000E+00 -0.23618274374E+03  0.23618274374E+03  0.00000000000E+00 0. -1.
         24    2    1    2    0    0 -0.11293107221E+02 -0.17549734266E+01  0.63720701157E+01  0.75755029868E+02  0.74616399473E+02 0.  0.
         23    2    1    2    0    0 -0.87030892687E+02 -0.51505352456E+02 -0.10652325031E+03  0.18150020983E+03  0.10662056883E+03 0.  0.
        -11    1    3    3    0    0  0.27220488114E+02 -0.40117380433E+01 -0.15323150457E+02  0.31493617691E+02  0.00000000000E+00 0.  1.
         12    1    3    3    0    0 -0.38513595335E+02  0.22567646168E+01  0.21695220573E+02  0.44261412177E+02  0.00000000000E+00 0. -1.
        -13    1    4    4    0    0 -0.61248711408E+02 -0.63087450608E+02 -0.12113426275E+03  0.14968280023E+03  0.00000000000E+00 0. -1.
         13    1    4    4    0    0 -0.25782181279E+02  0.11582098152E+02  0.14611012437E+02  0.31817409598E+02  0.00000000000E+00 0.  1.
          1    1    1    2  501    0  0.98323999908E+02  0.53260325882E+02 -0.30937792246E+01  0.11186528836E+03  0.00000000000E+00 0. -1.
<scales pt_clust_5="13000.00000" pt_clust_6="13000.00000" pt_clust_7="13000.00000" pt_clust_8="13000.00000" pt_clust_9="13000.00000"></scales>
<clustering>
<clus scale="   74.616">  5  6 -1 -1</clus>
<clus scale="   75.487">  2  5  1 -1</clus>
<clus scale="  106.621">  7  8 -1 -1</clus>
<clus scale="  108.757">  7  9 -1 -1</clus>
<clus scale="  272.117">  1  5  2 -1</clus>
</clustering>
</event>
<event>
 9    2  0.3897980E-005  0.3469349E+03  0.7546771E-02  0.1111798E+00
          4   -1    0    0  502    0 -0.00000000000E+00  0.00000000000E+00  0.31633298928E+03  0.31633298928E+03  0.00000000000E+00 0. -1.
         21   -1    0    0  501  502  0.00000000000E+00 -0.00000000000E+00 -0.16660725863E+03  0.16660725863E+03  0.00000000000E+00 0. -1.
         24    2    1    2    0    0  0.50613013786E+02 -0.21393379150E+02  0.86880101436E+02  0.13035916142E+03  0.80162367129E+02 0.  0.
         23    2    1    2    0    0  0.93847219295E+02 -0.62904459833E+02  0.10688914435E+03  0.17962237517E+03  0.89858983103E+02 0.  0.
        -13    1    3    3    0    0 -0.27123131587E+01  0.20114739929E+02  0.54071103935E-02  0.20296783842E+02  0.00000000000E+00 0.  1.
         14    1    3    3    0    0  0.53325326944E+02 -0.41508119079E+02  0.86874694326E+02  0.11006237757E+03  0.00000000000E+00 0. -1.
        -11    1    4    4    0    0  0.90156318815E+02 -0.94118385980E+01  0.64065426215E+02  0.11100055569E+03  0.00000000000E+00 0.  1.
         11    1    4    4    0    0  0.36909004796E+01 -0.53492621235E+02  0.42823718134E+02  0.68621819473E+02  0.00000000000E+00 0. -1.
          3    1    1    2  501    0 -0.14446023308E+03  0.84297838982E+02 -0.44043515128E+02  0.17295871133E+03  0.00000000000E+00 0. -1.
<scales pt_clust_5="13000.00000" pt_clust_6="13000.00000" pt_clust_7="13000.00000" pt_clust_8="13000.00000" pt_clust_9="13000.00000"></scales>
<clustering>
<clus scale="   80.162">  5  6 -1 -1</clus>
<clus scale="   89.859">  7  8 -1 -1</clus>
<clus scale="   97.187">  1  5  2 -1</clus>
<clus scale="  150.361">  7  9 -1 -1</clus>
<clus scale="  346.935">  2  5  1 -1</clus>
</clustering>
</event>
<event>
 9    2  0.3897980E-005  0.4961428E+03  0.7546771E-02  0.1053145E+00
          2   -1    0    0  502    0 -0.00000000000E+00  0.00000000000E+00  0.11284417161E+04  0.11284417161E+04  0.00000000000E+00 0. -1.
         21   -1    0    0  501  502  0.00000000000E+00 -0.00000000000E+00 -0.14056037066E+03  0.14056037066E+03  0.00000000000E+00 0. -1.
         24    2    1    2    0    0 -0.99643085754E+02 -0.96865084245E+02  0.64816229758E+03  0.66769787501E+03  0.79965612638E+02 0.  0.
         23    2    1    2    0    0 -0.87020460102E+02  0.85803794983E+02  0.38089747681E+03  0.40983281834E+03  0.89135848216E+02 0.  0.
        -13    1    3    3    0    0 -0.33634115375E+02 -0.26423963812E+02  0.73961669365E+02  0.85438914528E+02  0.00000000000E+00 0.  1.
         14    1    3    3    0    0 -0.66008970379E+02 -0.70441120433E+02  0.57420062822E+03  0.58225896048E+03  0.00000000000E+00 0. -1.
        -13    1    4    4    0    0 -0.57474946890E+02  0.19267085001E+00  0.10863293636E+03  0.12290045363E+03  0.00000000000E+00 0. -1.
         13    1    4    4    0    0 -0.29545513212E+02  0.85611124133E+02  0.27226454046E+03  0.28693236471E+03  0.00000000000E+00 0.  1.
          1    1    1    2  501    0  0.18666354586E+03  0.11061289262E+02 -0.41178428983E+02  0.19147139339E+03  0.00000000000E+00 0. -1.
<scales pt_clust_5="13000.00000" pt_clust_6="13000.00000" pt_clust_7="13000.00000" pt_clust_8="13000.00000" pt_clust_9="13000.00000"></scales>
<clustering>
<clus scale="   79.966">  5  6 -1 -1</clus>
<clus scale="   89.136">  7  8 -1 -1</clus>
<clus scale="  160.331">  1  5  2 -1</clus>
<clus scale="  170.806">  7  9 -1 -1</clus>
<clus scale="  496.143">  2  5  1 -1</clus>
</clustering>
</event>
<event>
 9    2  0.3897980E-005  0.3488844E+03  0.7546771E-02  0.1111524E+00
          2   -1    0    0  502    0 -0.00000000000E+00  0.00000000000E+00  0.71881293308E+03  0.71881293308E+03  0.00000000000E+00 0. -1.
         21   -1    0    0  501  502  0.00000000000E+00 -0.00000000000E+00 -0.87362033295E+02  0.87362033295E+02  0.00000000000E+00 0. -1.
         24    2    1    2    0    0 -0.17966948181E+01 -0.15286657633E+02  0.33436788783E+03  0.34794069426E+03  0.94994380318E+02 0.  0.
         23    2    1    2    0    0  0.36064308812E+02  0.80291608884E+02  0.34621354539E+03  0.36983900996E+03  0.95758537224E+02 0.  0.
        -11    1    3    3    0    0  0.12460667253E+02 -0.53505535459E+02  0.17403587161E+03  0.18250094564E+03  0.00000000000E+00 0.  1.
         12    1    3    3    0    0 -0.14257362071E+02  0.38218877827E+02  0.16033201622E+03  0.16543974861E+03  0.00000000000E+00 0. -1.
        -13    1    4    4    0    0  0.47616421802E+02  0.30512965155E+02  0.75433680291E+02  0.94279397484E+02  0.00000000000E+00 0. -1.
         13    1    4    4    0    0 -0.11552112990E+02  0.49778643729E+02  0.27077986510E+03  0.27555961248E+03  0.00000000000E+00 0.  1.
          1    1    1    2  501    0 -0.34267613994E+02 -0.65004951251E+02 -0.49130533437E+02  0.88395262157E+02  0.00000000000E+00 0. -1.
<scales pt_clust_5="13000.00000" pt_clust_6="13000.00000" pt_clust_7="13000.00000" pt_clust_8="13000.00000" pt_clust_9="13000.00000"></scales>
<clustering>
<clus scale="   94.994">  5  6 -1 -1</clus>
<clus scale="   95.759">  7  8 -1 -1</clus>
<clus scale="   73.484">  7  9 -1 -1</clus>
<clus scale="   96.233">  1  5  2 -1</clus>
<clus scale="  348.884">  2  5  1 -1</clus>
</clustering>
</event>
<event>
 9    2  0.3897980E-005  0.1792766E+03  0.7546771E-02  0.1195883E+00
          2   -1    0    0  502    0 -0.00000000000E+00  0.00000000000E+00  0.11665039809E+03  0.11665039809E+03  0.00000000000E+00 0. -1.
         21   -1    0    0  501  502  0.00000000000E+00 -0.00000000000E+00 -0.47855362978E+03  0.47855362978E+03  0.00000000000E+00 0. -1.
         24    2    1    2    0    0  0.44582105509E+02 -0.29932792366E+02  0.75166085399E+02  0.12279563357E+03  0.80902972994E+02 0.  0.
         23    2    1    2    0    0 -0.88707244962E+02  0.12031382921E+02 -0.29161967462E+03  0.31936236565E+03  0.94533361756E+02 0.  0.
        -13    1    3    3    0    0 -0.21906581956E+02 -0.19085567977E+02  0.29523128581E+02  0.41421882613E+02  0.00000000000E+00 0.  1.
         14    1    3    3    0    0  0.66488687465E+02 -0.10847224389E+02  0.45642956818E+02  0.81373750958E+02  0.00000000000E+00 0. -1.
        -11    1    4    4    0    0 -0.31339610223E+01  0.38599823597E+02 -0.11442721826E+03  0.12080296508E+03  0.00000000000E+00 0.  1.
         11    1    4    4    0    0 -0.85573283939E+02 -0.26568440676E+02 -0.17719245636E+03  0.19855940057E+03  0.00000000000E+00 0. -1.
          1    1    1    2  501    0  0.44125139452E+02  0.17901409445E+02 -0.14544964247E+03  0.15304602865E+03  0.00000000000E+00 0. -1.
<scales pt_clust_5="13000.00000" pt_clust_6="13000.00000" pt_clust_7="13000.00000" pt_clust_8="13000.00000" pt_clust_9="13000.00000"></scales>
<clustering>
<clus scale="   80.903">  5  6 -1 -1</clus>
<clus scale="   94.533">  7  8 -1 -1</clus>
<clus scale="   47.618">  7  9 -1 -1</clus>
<clus scale="   97.102">  1  5  2 -1</clus>
<clus scale="  179.277">  2  5  1 -1</clus>
</clustering>
</event>
<event>
 9    2  0.3897980E-005  0.4453921E+03  0.7546771E-02  0.1070650E+00
         -3   -1    0    0    0  501 -0.00000000000E+00  0.00000000000E+00  0.14084692239E+03  0.14084692239E+03  0.00000000000E+00 0.  1.
         21   -1    0    0  501  502  0.00000000000E+00 -0.00000000000E+00 -0.66718953994E+03  0.66718953994E+03  0.00000000000E+00 0.  1.
         24    2    1    2    0    0  0.60563798859E+02  0.91471485253E+02 -0.26565536251E+02  0.13859544855E+03  0.80423655080E+02 0.  0.
         23    2    1    2    0    0  0.13137385464E+03  0.46336675281E+02 -0.81915430046E+02  0.18939985769E+03  0.98772421536E+02 0.  0.
        -13    1    3    3    0    0  0.59318454688E+02  0.94964481270E+02 -0.19820251466E+00  0.11196861638E+03  0.00000000000E+00 0.  1.
         14    1    3    3    0    0  0.12453441705E+01 -0.34929960165E+01 -0.26367333736E+02  0.26626832174E+02  0.00000000000E+00 0. -1.
        -13    1    4    4    0    0  0.60175347754E+01 -0.25559854775E+02 -0.12659288919E+02  0.29150891870E+02  0.00000000000E+00 0. -1.
         13    1    4    4    0    0  0.12535631986E+03  0.71896530056E+02 -0.69256141127E+02  0.16024896582E+03  0.00000000000E+00 0.  1.
         -4    1    1    2    0  502 -0.19193765350E+03 -0.13780816053E+03 -0.41786165125E+03  0.48004115608E+03  0.00000000000E+00 0.  1.
<scales pt_clust_5="13000.00000" pt_clust_6="13000.00000" pt_clust_7="13000.00000" pt_clust_8="13000.00000" pt_clust_9="13000.00000"></scales>
<clustering>
<clus scale="   80.424">  5  6 -1 -1</clus>
<clus scale="   98.772">  7  8 -1 -1</clus>
<clus scale="  136.026">  1  5  2 -1</clus>
<clus scale="  199.218">  7  9 -1 -1</clus>
<clus scale="  445.392">  2  5  1 -1</clus>
</clustering>
</event>
<event>
 9    2  0.3897980E-005  0.2453776E+03  0.7546771E-02  0.1137618E+00
          2   -1    0    0  502    0 -0.00000000000E+00  0.00000000000E+00  0.41230651611E+03  0.41230651611E+03  0.00000000000E+00 0. -1.
         21   -1    0    0  501  502  0.00000000000E+00 -0.00000000000E+00 -0.92831719107E+02  0.92831719107E+02  0.00000000000E+00 0.  1.
         24    2    1    2    0    0 -0.10368495439E+02  0.11876499570E+03  0.13713047612E+03  0.19942660974E+03  0.82180139251E+02 0.  0.
         23    2    1    2    0    0  0.26871445456E+02 -0.93361856805E+02  0.12762981791E+02  0.13344585003E+03  0.90589129033E+02 0.  0.
        -11    1    3    3    0    0  0.22365158419E+02  0.97967334076E+02  0.71983488282E+02  0.12360995689E+03  0.00000000000E+00 0.  1.
         12    1    3    3    0    0 -0.32733653858E+02  0.20797661625E+02  0.65146987842E+02  0.75816652846E+02  0.00000000000E+00 0. -1.
        -13    1    4    4    0    0  0.40942344891E+02 -0.41706892631E+02  0.42445069605E+02  0.72231048946E+02  0.00000000000E+00 0. -1.
         13    1    4    4    0    0 -0.14070899435E+02 -0.51654964174E+02 -0.29682087814E+02  0.61214801084E+02  0.00000000000E+00 0.  1.
          1    1    1    2  501    0 -0.16502950017E+02 -0.25403138896E+02  0.16958133909E+03  0.17226577546E+03  0.00000000000E+00 0. -1.
<scales pt_clust_5="13000.00000" pt_clust_6="13000.00000" pt_clust_7="13000.00000" pt_clust_8="13000.00000" pt_clust_9="13000.00000"></scales>
<clustering>
<clus scale="   82.180">  5  6 -1 -1</clus>
<clus scale="   90.589">  7  8 -1 -1</clus>
<clus scale="   30.293">  7  9 -1 -1</clus>
<clus scale="  144.797">  1  5  2 -1</clus>
<clus scale="  245.378">  2  5  1 -1</clus>
</clustering>
</event>
<event>
 9    2  0.3897980E-005  0.1229690E+03  0.7546771E-02  0.1247901E+00
          2   -1    0    0  502    0 -0.00000000000E+00  0.00000000000E+00  0.68507701847E+03  0.68507701847E+03  0.00000000000E+00 0. -1.
         21   -1    0    0  501  502  0.00000000000E+00 -0.00000000000E+00 -0.24571586303E+02  0.24571586303E+02  0.00000000000E+00 0. -1.
         24    2    1    2    0    0  0.23526862276E+02  0.56097289038E+02  0.48435608309E+03  0.49482318161E+03  0.80924327229E+02 0.  0.
         23    2    1    2    0    0 -0.13399105832E+02 -0.14934670290E+01  0.13185175585E+03  0.14378722503E+03  0.55750462619E+02 0.  0.
        -11    1    3    3    0    0  0.17044322899E+02  0.52710970726E+02  0.14250956964E+03  0.15289843955E+03  0.00000000000E+00 0.  1.
         12    1    3    3    0    0  0.64825393769E+01  0.33863183115E+01  0.34184651345E+03  0.34192474205E+03  0.00000000000E+00 0. -1.
        -13    1    4    4    0    0 -0.31338946515E+02 -0.12036739278E+02  0.10212397555E+03  0.10750032113E+03  0.00000000000E+00 0.  1.
         13    1    4    4    0    0  0.17939840684E+02  0.10543272249E+02  0.29727780295E+02  0.36286903901E+02  0.00000000000E+00 0. -1.
          1    1    1    2  501    0 -0.10127756444E+02 -0.54603822009E+02  0.44297593228E+02  0.71038198135E+02  0.00000000000E+00 0. -1.
<scales pt_clust_5="13000.00000" pt_clust_6="13000.00000" pt_clust_7="13000.00000" pt_clust_8="13000.00000" pt_clust_9="13000.00000"></scales>
<clustering>
<clus scale="   55.750">  7  8 -1 -1</clus>
<clus scale="   55.535">  7  9 -1 -1</clus>
<clus scale="   80.924">  5  6 -1 -1</clus>
<clus scale="  101.238">  1  5  2 -1</clus>
<clus scale="  122.969">  2  5  1 -1</clus>
</clustering>
</event>
<event>
 9    2  0.3897980E-005  0.2149048E+03  0.7546771E-02  0.1163649E+00
         21   -1    0    0  501  502  0.00000000000E+00  0.00000000000E+00  0.24874120118E+03  0.24874120118E+03  0.00000000000E+00 0. -1.
         -1   -1    0    0    0  501 -0.00000000000E+00 -0.00000000000E+00 -0.13428796852E+03  0.13428796852E+03  0.00000000000E+00 0.  1.
         24    2    1    2    0    0  0.56527336256E+02 -0.65040747922E+02  0.12117352778E+03  0.16801930421E+03  0.78242086618E+02 0.  0.
         23    2    1    2    0    0 -0.55527416359E+02 -0.40486380079E+01 -0.64253965455E+02  0.12509620517E+03  0.91764933577E+02 0.  0.
        -11    1    3    3    0    0  0.41284675904E+02  0.43410335217E+01  0.25012145373E+02  0.48465208683E+02  0.00000000000E+00 0.  1.
         12    1    3    3    0    0  0.15242660352E+02 -0.69381781444E+02  0.96161382407E+02  0.11955409553E+03  0.00000000000E+00 0. -1.
        -13    1    4    4    0    0 -0.33891690520E+02  0.41099031819E+02 -0.16145086136E+02  0.55663640818E+02  0.00000000000E+00 0.  1.
         13    1    4    4    0    0 -0.21635725839E+02 -0.45147669827E+02 -0.48108879320E+02  0.69432564354E+02  0.00000000000E+00 0. -1.
         -2    1    1    2    0  502 -0.99991989697E+00  0.69089385930E+02  0.57533670338E+02  0.89913660311E+02  0.00000000000E+00 0.  1.
<scales pt_clust_5="13000.00000" pt_clust_6="13000.00000" pt_clust_7="13000.00000" pt_clust_8="13000.00000" pt_clust_9="13000.00000"></scales>
<clustering>
<clus scale="   78.242">  5  6 -1 -1</clus>
<clus scale="   91.765">  7  8 -1 -1</clus>
<clus scale="   69.097">  7  9 -1 -1</clus>
<clus scale="  116.394">  2  5  1 -1</clus>
<clus scale="  214.905">  1  5  2 -1</clus>
</clustering>
</event>
<event>
 9    2  0.3897980E-005  0.2106234E+03  0.7546771E-02  0.1182348E+00
          2   -1    0    0  502    0 -0.00000000000E+00  0.00000000000E+00  0.32740543536E+03  0.32740543536E+03  0.00000000000E+00 0. -1.
         21   -1    0    0  501  502  0.00000000000E+00 -0.00000000000E+00 -0.79512099608E+02  0.79512099608E+02  0.00000000000E+00 0.  1.
         24    2    1    2    0    0 -0.97323255953E+01 -0.19384382095E+02  0.15891351749E+03  0.17827011348E+03  0.77821943481E+02 0.  0.
         23    2    1    2    0    0 -0.31986050861E+02 -0.42133075568E+02 -0.59217444956E+01  0.10810229656E+03  0.94088978933E+02 0.  0.
        -11    1    3    3    0    0 -0.34161793496E+02 -0.27419911780E+02  0.13901580256E+03  0.14575415280E+03  0.00000000000E+00 0.  1.
         12    1    3    3    0    0  0.24429467901E+02  0.80355296852E+01  0.19897714928E+02  0.32515960675E+02  0.00000000000E+00 0. -1.
        -13    1    4    4    0    0  0.94325533902E+01  0.24413685884E+02 -0.13326179457E+02  0.29369851562E+02  0.00000000000E+00 0. -1.
         13    1    4    4    0    0 -0.41418604251E+02 -0.66546761452E+02  0.74044349609E+01  0.78732444995E+02  0.00000000000E+00 0.  1.
          1    1    1    2  501    0  0.41718376456E+02  0.61517457663E+02  0.94901562758E+02  0.12054512493E+03  0.00000000000E+00 0. -1.
<scales pt_clust_5="13000.00000" pt_clust_6="13000.00000" pt_clust_7="13000.00000" pt_clust_8="13000.00000" pt_clust_9="13000.00000"></scales>
<clustering>
<clus scale="   77.822">  5  6 -1 -1</clus>
<clus scale="   80.788">  1  5  2 -1</clus>
<clus scale="   94.089">  7  8 -1 -1</clus>
<clus scale="   59.773">  7  9 -1 -1</clus>
<clus scale="  210.623">  2  5  1 -1</clus>
</clustering>
</event>
<event>
 9    2  0.3897980E-005  0.1469489E+03  0.7546771E-02  0.1230034E+00
         21   -1    0    0  501  502  0.00000000000E+00  0.00000000000E+00  0.26629118208E+03  0.26629118208E+03  0.00000000000E+00 0.  1.
          4   -1    0    0  502    0 -0.00000000000E+00 -0.00000000000E+00 -0.51027037554E+02  0.51027037554E+02  0.00000000000E+00 0. -1.
         24    2    1    2    0    0 -0.19317745738E+02 -0.14166050262E+02  0.66184706956E+02  0.10798915486E+03  0.81898655990E+02 0.  0.
         23    2    1    2    0    0  0.49487696039E+02 -0.12203450722E+02  0.93018566061E+02  0.14042044559E+03  0.92018974336E+02 0.  0.
        -13    1    3    3    0    0  0.55555976925E+01  0.29539892912E+02  0.43370199817E+02  0.52767832731E+02  0.00000000000E+00 0.  1.
         14    1    3    3    0    0 -0.24873343431E+02 -0.43705943174E+02  0.22814507138E+02  0.55221322133E+02  0.00000000000E+00 0. -1.
        -13    1    4    4    0    0  0.25289411765E+02  0.28905623731E+02  0.29753153475E+01  0.38521966878E+02  0.00000000000E+00 0. -1.
         13    1    4    4    0    0  0.24198284274E+02 -0.41109074453E+02  0.90043250713E+02  0.10189847871E+03  0.00000000000E+00 0.  1.
          3    1    1    2  501    0 -0.30169950301E+02  0.26369500984E+02  0.56060871508E+02  0.68908619182E+02  0.00000000000E+00 0. -1.
<scales pt_clust_5="13000.00000" pt_clust_6="13000.00000" pt_clust_7="13000.00000" pt_clust_8="13000.00000" pt_clust_9="13000.00000"></scales>
<clustering>
<clus scale="   81.899">  5  6 -1 -1</clus>
<clus scale="   85.330">  2  5  1 -1</clus>
<clus scale="   92.019">  7  8 -1 -1</clus>
<clus scale="   41.484">  7  9 -1 -1</clus>
<clus scale="  146.949">  1  5  2 -1</clus>
</clustering>
</event>
<event>
 9    2  0.3897980E-005  0.1716946E+03  0.7546771E-02  0.1203253E+00
          2   -1    0    0  502    0 -0.00000000000E+00  0.00000000000E+00  0.10710880996E+04  0.10710880996E+04  0.00000000000E+00 0. -1.
         21   -1    0    0  501  502  0.00000000000E+00 -0.00000000000E+00 -0.18127911564E+02  0.18127911564E+02  0.00000000000E+00 0.  1.
         24    2    1    2    0    0  0.16259882066E+02 -0.47925670407E+02  0.54357242763E+03  0.55167072040E+03  0.79425096894E+02 0.  0.
         23    2    1    2    0    0  0.34233118972E+02  0.21152805588E+02  0.20148336284E+03  0.22438167939E+03  0.90178960569E+02 0.  0.
        -13    1    3    3    0    0  0.14184061318E+02  0.16586999239E+02  0.60717694101E+02  0.64520961835E+02  0.00000000000E+00 0.  1.
         14    1    3    3    0    0  0.20758207482E+01 -0.64512669646E+02  0.48285473353E+03  0.48714975856E+03  0.00000000000E+00 0. -1.
        -11    1    4    4    0    0  0.60278999620E+02  0.27167307827E+02  0.17355215588E+03  0.18572014220E+03  0.00000000000E+00 0. -1.
         11    1    4    4    0    0 -0.26045880648E+02 -0.60145022387E+01  0.27931206956E+02  0.38661537190E+02  0.00000000000E+00 0.  1.
          1    1    1    2  501    0 -0.50493001038E+02  0.26772864819E+02  0.30790439761E+03  0.31316361142E+03  0.00000000000E+00 0. -1.
<scales pt_clust_5="13000.00000" pt_clust_6="13000.00000" pt_clust_7="13000.00000" pt_clust_8="13000.00000" pt_clust_9="13000.00000"></scales>
<clustering>
<clus scale="   79.425">  5  6 -1 -1</clus>
<clus scale="   90.179">  7  8 -1 -1</clus>
<clus scale="   57.152">  7  9 -1 -1</clus>
<clus scale="   94.179">  1  5  2 -1</clus>
<clus scale="  171.695">  2  5  1 -1</clus>
</clustering>
</event>
<event>
 9    2  0.3897980E-005  0.2753859E+03  0.7546771E-02  0.1128743E+00
         21   -1    0    0  501  502  0.00000000000E+00  0.00000000000E+00  0.37533457606E+03  0.37533457606E+03  0.00000000000E+00 0. -1.
          2   -1    0    0  502    0 -0.00000000000E+00 -0.00000000000E+00 -0.12169810036E+03  0.12169810036E+03  0.00000000000E+00 0. -1.
         24    2    1    2    0    0  0.65676803867E+02  0.74946262258E+02  0.71100823154E+01  0.12742119119E+03  0.79089960810E+02 0.  0.
         23    2    1    2    0    0  0.52670060611E+02  0.31324888219E+02  0.14561553648E+03  0.18124339134E+03  0.88825100807E+02 0.  0.
        -13    1    3    3    0    0 -0.18055430274E+02  0.10234862973E+02  0.59521168006E+01  0.21591171271E+02  0.00000000000E+00 0.  1.
         14    1    3    3    0    0  0.83732234141E+02  0.64711399285E+02  0.11579655148E+01  0.10583001992E+03  0.00000000000E+00 0. -1.
        -13    1    4    4    0    0  0.43832696973E+02  0.52315307034E+02  0.14282956853E+03  0.15829871231E+03  0.00000000000E+00 0. -1.
         13    1    4    4    0    0  0.88373636384E+01 -0.20990418815E+02  0.27859679473E+01  0.22944679024E+02  0.00000000000E+00 0.  1.
          1    1    1    2  501    0 -0.11834686448E+03 -0.10627115048E+03  0.10091085690E+03  0.18836809389E+03  0.00000000000E+00 0. -1.
<scales pt_clust_5="13000.00000" pt_clust_6="13000.00000" pt_clust_7="13000.00000" pt_clust_8="13000.00000" pt_clust_9="13000.00000"></scales>
<clustering>
<clus scale="   79.090">  5  6 -1 -1</clus>
<clus scale="   88.825">  7  8 -1 -1</clus>
<clus scale="  127.223">  2  5  1 -1</clus>
<clus scale="   89.158">  7  9 -1 -1</clus>
<clus scale="  275.386">  1  5  2 -1</clus>
</clustering>
</event>
<event>
 9    2  0.3897980E-005  0.1901469E+03  0.7546771E-02  0.1185166E+00
          2   -1    0    0  502    0 -0.00000000000E+00  0.00000000000E+00  0.19774970231E+03  0.19774970231E+03  0.00000000000E+00 0. -1.
         21   -1    0    0  501  502  0.00000000000E+00 -0.00000000000E+00 -0.15233977382E+03  0.15233977382E+03  0.00000000000E+00 0. -1.
         24    2    1    2    0    0  0.65007804470E+02  0.14726943399E+02  0.10857226463E+03  0.14972654187E+03  0.78658776945E+02 0.  0.
         23    2    1    2    0    0 -0.19369334170E+02 -0.18314240575E+02  0.26774140198E+02  0.99445599530E+02  0.91989076354E+02 0.  0.
        -11    1    3    3    0    0  0.22819925022E+02 -0.30530630364E+02  0.24386088620E+02  0.45249858415E+02  0.00000000000E+00 0.  1.
         12    1    3    3    0    0  0.42187879448E+02  0.45257573763E+02  0.84186176006E+02  0.10447668346E+03  0.00000000000E+00 0. -1.
        -13    1    4    4    0    0  0.86547661663E+01 -0.34693438033E+02 -0.21164867726E+02  0.41551067926E+02  0.00000000000E+00 0. -1.
         13    1    4    4    0    0 -0.28024100337E+02  0.16379197457E+02  0.47939007924E+02  0.57894531605E+02  0.00000000000E+00 0.  1.
          1    1    1    2  501    0 -0.45638470300E+02  0.35872971763E+01 -0.89936476340E+02  0.10091733473E+03  0.00000000000E+00 0. -1.
<scales pt_clust_5="13000.00000" pt_clust_6="13000.00000" pt_clust_7="13000.00000" pt_clust_8="13000.00000" pt_clust_9="13000.00000"></scales>
<clustering>
<clus scale="   78.659">  5  6 -1 -1</clus>
<clus scale="   91.989">  7  8 -1 -1</clus>
<clus scale="   45.779">  7  9 -1 -1</clus>
<clus scale="  103.102">  1  5  2 -1</clus>
<clus scale="  190.147">  2  5  1 -1</clus>
</clustering>
</event>
<event>
 9    2  0.3897980E-005  0.5377180E+03  0.7546771E-02  0.1032395E+00
         21   -1    0    0  501  502  0.00000000000E+00  0.00000000000E+00  0.60909947451E+02  0.60909947451E+02  0.00000000000E+00 0. -1.
          2   -1    0    0  502    0 -0.00000000000E+00 -0.00000000000E+00 -0.24219295891E+04  0.24219295891E+04  0.00000000000E+00 0. -1.
         24    2    1    2    0    0 -0.45430975582E+02 -0.21044770462E+03 -0.76084737489E+03  0.79473647665E+03  0.79781761858E+02 0.  0.
         23    2    1    2    0    0  0.31552625870E+02 -0.14534189605E+03 -0.41324393950E+03  0.44891877070E+03  0.92939088716E+02 0.  0.
        -13    1    3    3    0    0 -0.60952003514E+02 -0.11118113691E+03 -0.47976970056E+03  0.49624122916E+03  0.00000000000E+00 0.  1.
         14    1    3    3    0    0  0.15521027932E+02 -0.99266567713E+02 -0.28107767433E+03  0.29849524750E+03  0.00000000000E+00 0. -1.
        -13    1    4    4    0    0  0.64541545969E+02 -0.92226270265E+02 -0.27774166232E+03  0.29968604751E+03  0.00000000000E+00 0.  1.
         13    1    4    4    0    0 -0.32988920098E+02 -0.53115625781E+02 -0.13550227718E+03  0.14923272320E+03  0.00000000000E+00 0. -1.
          1    1    1    2  501    0  0.13878349712E+02  0.35578960067E+03 -0.11869283273E+04  0.12391842892E+04  0.00000000000E+00 0. -1.
<scales pt_clust_5="13000.00000" pt_clust_6="13000.00000" pt_clust_7="13000.00000" pt_clust_8="13000.00000" pt_clust_9="13000.00000"></scales>
<clustering>
<clus scale="   79.782">  5  6 -1 -1</clus>
<clus scale="   92.939">  7  8 -1 -1</clus>
<clus scale="  229.603">  2  5  1 -1</clus>
<clus scale="  201.480">  7  9 -1 -1</clus>
<clus scale="  537.718">  1  5  2 -1</clus>
</clustering>
</event>
<event>
 9    2  0.3897980E-005  0.1682371E+03  0.7546771E-02  0.1208258E+00
         21   -1    0    0  501  502  0.00000000000E+00  0.00000000000E+00  0.21434145210E+03  0.21434145210E+03  0.00000000000E+00 0.  1.
         -1   -1    0    0    0  501 -0.00000000000E+00 -0.00000000000E+00 -0.14088377422E+03  0.14088377422E+03  0.00000000000E+00 0.  1.
         24    2    1    2    0    0  0.25664740779E+02  0.82307909443E+01 -0.85291081184E+02  0.12391397780E+03  0.85753603574E+02 0.  0.
         23    2    1    2    0    0  0.40137542683E+01  0.98769106225E+00  0.17413316911E+03  0.19663454810E+03  0.91245269287E+02 0.  0.
        -13    1    3    3    0    0  0.37030415575E+01  0.34506028067E+02 -0.30618009601E+01  0.34838959727E+02  0.00000000000E+00 0.  1.
         14    1    3    3    0    0  0.21961699222E+02 -0.26275237123E+02 -0.82229280224E+02  0.89075018073E+02  0.00000000000E+00 0. -1.
        -13    1    4    4    0    0  0.31030569950E+02  0.45955498474E+01  0.16489899720E+03  0.16785617245E+03  0.00000000000E+00 0.  1.
         13    1    4    4    0    0 -0.27016815682E+02 -0.36078587852E+01  0.92341719031E+01  0.28778375655E+02  0.00000000000E+00 0. -1.
         -2    1    1    2    0  502 -0.29678495047E+02 -0.92184820065E+01 -0.15384410045E+02  0.34676700408E+02  0.00000000000E+00 0.  1.
<scales pt_clust_5="13000.00000" pt_clust_6="13000.00000" pt_clust_7="13000.00000" pt_clust_8="13000.00000" pt_clust_9="13000.00000"></scales>
<clustering>
<clus scale="   85.754">  5  6 -1 -1</clus>
<clus scale="   89.889">  2  5  1 -1</clus>
<clus scale="   91.245">  7  8 -1 -1</clus>
<clus scale="   12.485">  7  9 -1 -1</clus>
<clus scale="  168.237">  1  5  2 -1</clus>
</clustering>
</event>
<event>
 9    2  0.3897980E-005  0.3865505E+03  0.7546771E-02  0.1056444E+00
         -3   -1    0    0    0  501 -0.00000000000E+00  0.00000000000E+00  0.59452153400E+03  0.59452153400E+03  0.00000000000E+00 0.  1.
         21   -1    0    0  501  502  0.00000000000E+00 -0.00000000000E+00 -0.21962343825E+03  0.21962343825E+03  0.00000000000E+00 0.  1.
         24    2    1    2    0    0 -0.17739273368E+03  0.23962868107E+03  0.57843871686E+02  0.31420034316E+03  0.80534808613E+02 0.  0.
         23    2    1    2    0    0  0.16224989812E+03 -0.16220072313E+03  0.96284885293E+02  0.26550168277E+03  0.92662076340E+02 0.  0.
        -13    1    3    3    0    0 -0.17841912745E+03  0.23158122743E+03  0.69031604339E+02  0.30038077891E+03  0.00000000000E+00 0.  1.
         14    1    3    3    0    0  0.10263937747E+01  0.80474536335E+01 -0.11187732653E+02  0.13819564250E+02  0.00000000000E+00 0. -1.
        -13    1    4    4    0    0  0.35566240706E+02 -0.99650673805E+02  0.48090810355E+02  0.11622366501E+03  0.00000000000E+00 0.  1.
         13    1    4    4    0    0  0.12668365741E+03 -0.62550049329E+02  0.48194074938E+02  0.14927801776E+03  0.00000000000E+00 0. -1.
         -4    1    1    2    0  502  0.15142835557E+02 -0.77427957931E+02  0.22076933877E+03  0.23444294632E+03  0.00000000000E+00 0.  1.
<scales pt_clust_5="13000.00000" pt_clust_6="13000.00000" pt_clust_7="13000.00000" pt_clust_8="13000.00000" pt_clust_9="13000.00000"></scales>
<clustering>
<clus scale="   80.535">  5  6 -1 -1</clus>
<clus scale="   92.662">  7  8 -1 -1</clus>
<clus scale="   78.895">  7  9 -1 -1</clus>
<clus scale="  308.830">  1  5  2 -1</clus>
<clus scale="  386.550">  2  5  1 -1</clus>
</clustering>
</event>
<event>
 9    2  0.3897980E-005  0.2249706E+03  0.7546771E-02  0.1165795E+00
         21   -1    0    0  501  502  0.00000000000E+00  0.00000000000E+00  0.43572196075E+03  0.43572196075E+03  0.00000000000E+00 0.  1.
          2   -1    0    0  502    0 -0.00000000000E+00 -0.00000000000E+00 -0.12739146604E+03  0.12739146604E+03  0.00000000000E+00 0. -1.
         24    2    1    2    0    0  0.57122202785E+02  0.16554271901E+02 -0.72536970368E+02  0.12076539944E+03  0.76063655328E+02 0.  0.
         23    2    1    2    0    0 -0.17110442640E+02 -0.93880670310E+02  0.17795604552E+03  0.22154640367E+03  0.91148819702E+02 0.  0.
        -13    1    3    3    0    0  0.60395495658E+02 -0.16834952687E+02 -0.42597825679E+02  0.75799777574E+02  0.00000000000E+00 0.  1.
         14    1    3    3    0    0 -0.32732928722E+01  0.33389224589E+02 -0.29939144689E+02  0.44965621864E+02  0.00000000000E+00 0. -1.
        -13    1    4    4    0    0 -0.47447956734E+02 -0.30400693570E+02  0.11068606362E+03  0.12420513455E+03  0.00000000000E+00 0.  1.
         13    1    4    4    0    0  0.30337514094E+02 -0.63479976740E+02  0.67269981903E+02  0.97341269118E+02  0.00000000000E+00 0. -1.
          1    1    1    2  501    0 -0.40011760145E+02  0.77326398409E+02  0.20291141955E+03  0.22080162369E+03  0.00000000000E+00 0. -1.
<scales pt_clust_5="13000.00000" pt_clust_6="13000.00000" pt_clust_7="13000.00000" pt_clust_8="13000.00000" pt_clust_9="13000.00000"></scales>
<clustering>
<clus scale="   76.064">  5  6 -1 -1</clus>
<clus scale="   91.149">  7  8 -1 -1</clus>
<clus scale="   87.065">  7  9 -1 -1</clus>
<clus scale="   96.554">  2  5  1 -1</clus>
<clus scale="  224.971">  1  5  2 -1</clus>
</clustering>
</event>
<event>
 9    2  0.3897980E-005  0.1453421E+03  0.7546771E-02  0.1222037E+00
         21   -1    0    0  501  502  0.00000000000E+00  0.00000000000E+00  0.71606821036E+03  0.71606821036E+03  0.00000000000E+00 0. -1.
          4   -1    0    0  502    0 -0.00000000000E+00 -0.00000000000E+00 -0.30277756684E+02  0.30277756684E+02  0.00000000000E+00 0. -1.
         24    2    1    2    0    0 -0.30725179200E+02  0.55112355408E+02  0.10592671816E+03  0.14854475289E+03  0.82847242783E+02 0.  0.
         23    2    1    2    0    0  0.30554343845E+02 -0.95191291680E+01  0.39214715390E+03  0.40462697550E+03  0.94442666437E+02 0.  0.
        -11    1    3    3    0    0  0.10739350123E+02  0.25088469172E+02  0.91316972934E+02  0.95307683175E+02  0.00000000000E+00 0.  1.
         12    1    3    3    0    0 -0.41464529323E+02  0.30023886236E+02  0.14609745227E+02  0.53237069720E+02  0.00000000000E+00 0. -1.
        -13    1    4    4    0    0 -0.30302948646E+02 -0.16950226375E+02  0.19825807312E+03  0.20127553857E+03  0.00000000000E+00 0.  1.
         13    1    4    4    0    0  0.60857292491E+02  0.74310972072E+01  0.19388908078E+03  0.20335143693E+03  0.00000000000E+00 0. -1.
          3    1    1    2  501    0  0.17083535478E+00 -0.45593226240E+02  0.18771658161E+03  0.19317423865E+03  0.00000000000E+00 0. -1.
<scales pt_clust_5="13000.00000" pt_clust_6="13000.00000" pt_clust_7="13000.00000" pt_clust_8="13000.00000" pt_clust_9="13000.00000"></scales>
<clustering>
<clus scale="   82.847">  5  6 -1 -1</clus>
<clus scale="   94.443">  7  8 -1 -1</clus>
<clus scale="   45.594">  7  9 -1 -1</clus>
<clus scale="  104.140">  2  5  1 -1</clus>
<clus scale="  145.342">  1  5  2 -1</clus>
</clustering>
</event>
<event>
 9    2  0.3897980E-005  0.1475353E+03  0.7546771E-02  0.1230746E+00
          2   -1    0    0  502    0 -0.00000000000E+00  0.00000000000E+00  0.43123842743E+03  0.43123842743E+03  0.00000000000E+00 0. -1.
         21   -1    0    0  501  502  0.00000000000E+00 -0.00000000000E+00 -0.40896428206E+02  0.40896428206E+02  0.00000000000E+00 0. -1.
         24    2    1    2    0    0  0.99940218643E+00  0.21467930216E+02  0.26764837300E+03  0.28024849247E+03  0.80260171500E+02 0.  0.
         23    2    1    2    0    0  0.22616821051E+02 -0.39957661363E+02  0.12483320478E+03  0.16181687773E+03  0.92158763059E+02 0.  0.
        -11    1    3    3    0    0  0.37932234371E+02 -0.15251744462E+01  0.97601881442E+02  0.10472491500E+03  0.00000000000E+00 0.  1.
         12    1    3    3    0    0 -0.36932832184E+02  0.22993104663E+02  0.17004649156E+03  0.17552357746E+03  0.00000000000E+00 0. -1.
        -11    1    4    4    0    0 -0.20642311408E+02 -0.48608917807E+02  0.94577765431E+02  0.10832306137E+03  0.00000000000E+00 0. -1.
         11    1    4    4    0    0  0.43259132459E+02  0.86512564445E+01  0.30255439346E+02  0.53493816364E+02  0.00000000000E+00 0.  1.
          1    1    1    2  501    0 -0.23616223237E+02  0.18489731146E+02 -0.21395785528E+01  0.30069485434E+02  0.00000000000E+00 0. -1.
<scales pt_clust_5="13000.00000" pt_clust_6="13000.00000" pt_clust_7="13000.00000" pt_clust_8="13000.00000" pt_clust_9="13000.00000"></scales>
<clustering>
<clus scale="   80.260">  5  6 -1 -1</clus>
<clus scale="   83.088">  1  5  2 -1</clus>
<clus scale="   92.159">  7  8 -1 -1</clus>
<clus scale="   31.137">  7  9 -1 -1</clus>
<clus scale="  147.535">  2  5  1 -1</clus>
</clustering>
</event>
<event>
 9    2  0.3897980E-005  0.2155856E+03  0.7546771E-02  0.1176342E+00
          4   -1    0    0  502    0 -0.00000000000E+00  0.00000000000E+00  0.31203827459E+03  0.31203827459E+03  0.00000000000E+00 0. -1.
         21   -1    0    0  501  502  0.00000000000E+00 -0.00000000000E+00 -0.14740785491E+03  0.14740785491E+03  0.00000000000E+00 0. -1.
         24    2    1    2    0    0  0.12972874058E+02 -0.33855358860E+02  0.22047776113E+03  0.23674437707E+03  0.78249448154E+02 0.  0.
         23    2    1    2    0    0  0.73124864788E+02  0.50027556153E+02 -0.27179532308E+02  0.13052689751E+03  0.91915949495E+02 0.  0.
        -13    1    3    3    0    0 -0.10965073701E+02  0.22055603433E+02  0.49894609048E+02  0.55643099268E+02  0.00000000000E+00 0.  1.
         14    1    3    3    0    0  0.23937947759E+02 -0.55910962293E+02  0.17058315208E+03  0.18110127780E+03  0.00000000000E+00 0. -1.
        -13    1    4    4    0    0 -0.21202920171E+02  0.91538555637E+01  0.32337408965E+01  0.23319819374E+02  0.00000000000E+00 0.  1.
         13    1    4    4    0    0  0.94327784958E+02  0.40873700590E+02 -0.30413273204E+02  0.10720707813E+03  0.00000000000E+00 0. -1.
          3    1    1    2  501    0 -0.86097738846E+02 -0.16172197294E+02 -0.28667809140E+02  0.92174854925E+02  0.00000000000E+00 0. -1.
<scales pt_clust_5="13000.00000" pt_clust_6="13000.00000" pt_clust_7="13000.00000" pt_clust_8="13000.00000" pt_clust_9="13000.00000"></scales>
<clustering>
<clus scale="   78.249">  5  6 -1 -1</clus>
<clus scale="   86.241">  1  5  2 -1</clus>
<clus scale="   91.916">  7  8 -1 -1</clus>
<clus scale="   86.205">  7  9 -1 -1</clus>
<clus scale="  215.586">  2  5  1 -1</clus>
</clustering>
</event>
<event>
 9    2  0.3897980E-005  0.6343987E+03  0.7546771E-02  0.1037099E+00
         21   -1    0    0  501  502  0.00000000000E+00  0.00000000000E+00  0.76770124370E+02  0.76770124370E+02  0.00000000000E+00 0. -1.
          2   -1    0    0  502    0 -0.00000000000E+00 -0.00000000000E+00 -0.22766924483E+04  0.22766924483E+04  0.00000000000E+00 0. -1.
         24    2    1    2    0    0  0.84266014720E+02 -0.23058047221E+02 -0.88684493167E+03  0.89516426287E+03  0.84809727652E+02 0.  0.
         23    2    1    2    0    0 -0.18898442097E+03 -0.20461802530E+03 -0.10695786788E+04  0.11088788455E+04  0.89610803509E+02 0.  0.
        -13    1    3    3    0    0  0.52198976464E+02  0.13864015149E+02 -0.22014805113E+03  0.22667621948E+03  0.00000000000E+00 0.  1.
         14    1    3    3    0    0  0.32067038256E+02 -0.36922062370E+02 -0.66669688054E+03  0.66848804339E+03  0.00000000000E+00 0. -1.
        -11    1    4    4    0    0 -0.18865348753E+03 -0.16324125625E+03 -0.95536958396E+03  0.98740512864E+03  0.00000000000E+00 0. -1.
         11    1    4    4    0    0 -0.33093344292E+00 -0.41376769048E+02 -0.11420909485E+03  0.12147371683E+03  0.00000000000E+00 0.  1.
          1    1    1    2  501    0  0.10471840625E+03  0.22767607252E+03 -0.24349871344E+03  0.34941946433E+03  0.00000000000E+00 0. -1.
<scales pt_clust_5="13000.00000" pt_clust_6="13000.00000" pt_clust_7="13000.00000" pt_clust_8="13000.00000" pt_clust_9="13000.00000"></scales>
<clustering>
<clus scale="   84.810">  5  6 -1 -1</clus>
<clus scale="   89.611">  7  8 -1 -1</clus>
<clus scale="  121.758">  2  5  1 -1</clus>
<clus scale="  254.325">  7  9 -1 -1</clus>
<clus scale="  634.399">  1  5  2 -1</clus>
</clustering>
</event>
<event>
 9    2  0.3897980E-005  0.2319903E+03  0.7546771E-02  0.1166905E+00
          2   -1    0    0  502    0 -0.00000000000E+00  0.00000000000E+00  0.55940418735E+03  0.55940418735E+03  0.00000000000E+00 0. -1.
         21   -1    0    0  501  502  0.00000000000E+00 -0.00000000000E+00 -0.48996273373E+02  0.48996273373E+02  0.00000000000E+00 0. -1.
         24    2    1    2    0    0  0.30233840143E+02 -0.31277355480E+01  0.22363065907E+03  0.23953642375E+03  0.80269289329E+02 0.  0.
         23    2    1    2    0    0  0.15320410837E+02  0.32212414924E+02  0.29823576194E+03  0.31361545562E+03  0.90209365609E+02 0.  0.
        -11    1    3    3    0    0 -0.15873382359E+02 -0.26676841717E+02  0.11629758251E+03  0.12036920640E+03  0.00000000000E+00 0.  1.
         12    1    3    3    0    0  0.46107222502E+02  0.23549106169E+02  0.10733307656E+03  0.11916721735E+03  0.00000000000E+00 0. -1.
        -13    1    4    4    0    0 -0.21815222855E+02  0.41777222616E+02  0.23485031964E+03  0.23953269696E+03  0.00000000000E+00 0. -1.
         13    1    4    4    0    0  0.37135633693E+02 -0.95648076920E+01  0.63385442302E+02  0.74082758667E+02  0.00000000000E+00 0.  1.
          1    1    1    2  501    0 -0.45554250980E+02 -0.29084679376E+02 -0.11458507035E+02  0.55248581341E+02  0.00000000000E+00 0. -1.
<scales pt_clust_5="13000.00000" pt_clust_6="13000.00000" pt_clust_7="13000.00000" pt_clust_8="13000.00000" pt_clust_9="13000.00000"></scales>
<clustering>
<clus scale="   80.269">  5  6 -1 -1</clus>
<clus scale="   85.831">  1  5  2 -1</clus>
<clus scale="   90.209">  7  8 -1 -1</clus>
<clus scale="   52.473">  7  9 -1 -1</clus>
<clus scale="  231.990">  2  5  1 -1</clus>
</clustering>
</event>
<event>
 9    2  0.3897980E-005  0.2195762E+03  0.7546771E-02  0.1174646E+00
          2   -1    0    0  502    0 -0.00000000000E+00  0.00000000000E+00  0.20399750012E+03  0.20399750012E+03  0.00000000000E+00 0. -1.
         21   -1    0    0  501  502  0.00000000000E+00 -0.00000000000E+00 -0.11485942858E+03  0.11485942858E+03  0.00000000000E+00 0. -1.
         24    2    1    2    0    0 -0.10452546223E+02  0.12788267846E+02  0.40335199026E+02  0.93922625517E+02  0.83196969815E+02 0.  0.
         23    2    1    2    0    0  0.43424671660E+02 -0.11095940456E+02  0.11171890006E+03  0.15388184686E+03  0.95862861202E+02 0.  0.
        -11    1    3    3    0    0 -0.27835174662E+02  0.33646520921E+01  0.59880869833E+02  0.66119863915E+02  0.00000000000E+00 0.  1.
         12    1    3    3    0    0  0.17382628440E+02  0.94236157536E+01 -0.19545670807E+02  0.27802761601E+02  0.00000000000E+00 0. -1.
        -11    1    4    4    0    0  0.43054430661E+02  0.14023028239E+02  0.65472187743E+01  0.45751452373E+02  0.00000000000E+00 0.  1.
         11    1    4    4    0    0  0.37024099897E+00 -0.25118968694E+02  0.10517168128E+03  0.10813039448E+03  0.00000000000E+00 0. -1.
          1    1    1    2  501    0 -0.32972125438E+02 -0.16923273899E+01 -0.62916027543E+02  0.71052456324E+02  0.00000000000E+00 0. -1.
<scales pt_clust_5="13000.00000" pt_clust_6="13000.00000" pt_clust_7="13000.00000" pt_clust_8="13000.00000" pt_clust_9="13000.00000"></scales>
<clustering>
<clus scale="   83.197">  5  6 -1 -1</clus>
<clus scale="   84.821">  1  5  2 -1</clus>
<clus scale="   95.863">  7  8 -1 -1</clus>
<clus scale="   33.309">  7  9 -1 -1</clus>
<clus scale="  219.576">  2  5  1 -1</clus>
</clustering>
</event>
<event>
 9    2  0.3897980E-005  0.2140708E+03  0.7546771E-02  0.1174470E+00
         -1   -1    0    0    0  501 -0.00000000000E+00  0.00000000000E+00  0.27972727423E+03  0.27972727423E+03  0.00000000000E+00 0.  1.
         21   -1    0    0  501  502  0.00000000000E+00 -0.00000000000E+00 -0.14360161844E+03  0.14360161844E+03  0.00000000000E+00 0.  1.
         24    2    1    2    0    0 -0.19435226569E+02 -0.38692603516E+02  0.18246359545E+03  0.20430029720E+03  0.81060484657E+02 0.  0.
         23    2    1    2    0    0 -0.21280071655E+02  0.96714075768E+02 -0.47694647868E+02  0.14813383256E+03  0.99309611886E+02 0.  0.
        -13    1    3    3    0    0 -0.36779428083E+02 -0.30331010831E+02  0.17834960122E+03  0.18461115027E+03  0.00000000000E+00 0.  1.
         14    1    3    3    0    0  0.17344201514E+02 -0.83615926842E+01  0.41139942305E+01  0.19689146932E+02  0.00000000000E+00 0. -1.
        -11    1    4    4    0    0 -0.57269053750E+02  0.41114277647E+02 -0.41027084336E+02  0.81568069690E+02  0.00000000000E+00 0.  1.
         11    1    4    4    0    0  0.35988982094E+02  0.55599798121E+02 -0.66675635324E+01  0.66565762872E+02  0.00000000000E+00 0. -1.
         -2    1    1    2    0  502  0.40715298225E+02 -0.58021472252E+02  0.13567082081E+01  0.70894762916E+02  0.00000000000E+00 0.  1.
<scales pt_clust_5="13000.00000" pt_clust_6="13000.00000" pt_clust_7="13000.00000" pt_clust_8="13000.00000" pt_clust_9="13000.00000"></scales>
<clustering>
<clus scale="   81.060">  5  6 -1 -1</clus>
<clus scale="   91.900">  1  5  2 -1</clus>
<clus scale="   99.310">  7  8 -1 -1</clus>
<clus scale="   81.048">  7  9 -1 -1</clus>
<clus scale="  214.071">  2  5  1 -1</clus>
</clustering>
</event>
<event>
 9    2  0.3897980E-005  0.3979906E+03  0.7546771E-02  0.1094329E+00
         -3   -1    0    0    0  501 -0.00000000000E+00  0.00000000000E+00  0.76925876368E+02  0.76925876368E+02  0.00000000000E+00 0.  1.
         21   -1    0    0  501  502  0.00000000000E+00 -0.00000000000E+00 -0.83134878137E+03  0.83134878137E+03  0.00000000000E+00 0.  1.
         24    2    1    2    0    0  0.26743562822E+02 -0.47880877153E+02 -0.21854775888E+03  0.24077283975E+03  0.84856590220E+02 0.  0.
         23    2    1    2    0    0  0.13628205176E+03 -0.29669036318E+02 -0.41945723154E+03  0.45268917654E+03  0.97622088234E+02 0.  0.
        -13    1    3    3    0    0  0.15105503540E+02 -0.63722653634E+02 -0.93286802339E+02  0.11397885907E+03  0.00000000000E+00 0.  1.
         14    1    3    3    0    0  0.11638059281E+02  0.15841776481E+02 -0.12526095654E+03  0.12679398069E+03  0.00000000000E+00 0. -1.
        -11    1    4    4    0    0  0.77389882076E+02 -0.31302264175E+02 -0.35780058327E+03  0.36741023799E+03  0.00000000000E+00 0.  1.
         11    1    4    4    0    0  0.58892169687E+02  0.16332278567E+01 -0.61656648273E+02  0.85278938548E+02  0.00000000000E+00 0. -1.
         -4    1    1    2    0  502 -0.16302561459E+03  0.77549913472E+02 -0.11641791459E+03  0.21481264145E+03  0.00000000000E+00 0.  1.
<scales pt_clust_5="13000.00000" pt_clust_6="13000.00000" pt_clust_7="13000.00000" pt_clust_8="13000.00000" pt_clust_9="13000.00000"></scales>
<clustering>
<clus scale="   84.857">  5  6 -1 -1</clus>
<clus scale="   97.622">  7  8 -1 -1</clus>
<clus scale="  101.037">  1  5  2 -1</clus>
<clus scale="  149.005">  7  9 -1 -1</clus>
<clus scale="  397.991">  2  5  1 -1</clus>
</clustering>
</event>
<event>
 9    2  0.3897980E-005  0.3175284E+03  0.7546771E-02  0.1127009E+00
         21   -1    0    0  501  502  0.00000000000E+00  0.00000000000E+00  0.98105360272E+02  0.98105360272E+02  0.00000000000E+00 0.  1.
         -3   -1    0    0    0  501 -0.00000000000E+00 -0.00000000000E+00 -0.41989641928E+03  0.41989641928E+03  0.00000000000E+00 0.  1.
         24    2    1    2    0    0  0.12079280995E+02 -0.25297748066E+02 -0.89709480276E+02  0.12470019740E+03  0.81954031593E+02 0.  0.
         23    2    1    2    0    0 -0.14281372002E+03 -0.22791333584E+02 -0.73856154475E+02  0.18249518234E+03  0.83273984590E+02 0.  0.
        -13    1    3    3    0    0  0.96769626974E+00  0.20266470762E+02  0.32801627929E+01  0.20552998350E+02  0.00000000000E+00 0.  1.
         14    1    3    3    0    0  0.11111584725E+02 -0.45564218828E+02 -0.92989643069E+02  0.10414719905E+03  0.00000000000E+00 0. -1.
        -13    1    4    4    0    0 -0.10317921786E+03 -0.31614740743E+02 -0.88260936751E+02  0.13941103180E+03  0.00000000000E+00 0.  1.
         13    1    4    4    0    0 -0.39634502155E+02  0.88234071585E+01  0.14404782276E+02  0.43084150535E+02  0.00000000000E+00 0. -1.
         -4    1    1    2    0  502  0.13073443902E+03  0.48089081650E+02 -0.15822542425E+03  0.21080639981E+03  0.00000000000E+00 0.  1.
<scales pt_clust_5="13000.00000" pt_clust_6="13000.00000" pt_clust_7="13000.00000" pt_clust_8="13000.00000" pt_clust_9="13000.00000"></scales>
<clustering>
<clus scale="   81.954">  5  6 -1 -1</clus>
<clus scale="   83.274">  7  8 -1 -1</clus>
<clus scale="   86.616">  2  5  1 -1</clus>
<clus scale="  141.795">  7  9 -1 -1</clus>
<clus scale="  317.528">  1  5  2 -1</clus>
</clustering>
</event>
<event>
 9    2  0.3897980E-005  0.2134740E+03  0.7546771E-02  0.1167544E+00
         21   -1    0    0  501  502  0.00000000000E+00  0.00000000000E+00  0.12770107214E+03  0.12770107214E+03  0.00000000000E+00 0.  1.
         -1   -1    0    0    0  501 -0.00000000000E+00 -0.00000000000E+00 -0.22465893920E+03  0.22465893920E+03  0.00000000000E+00 0.  1.
         24    2    1    2    0    0 -0.54262724579E+02 -0.52735706789E+02 -0.86201086169E+02  0.13861519759E+03  0.77833461297E+02 0.  0.
         23    2    1    2    0    0  0.33766925436E+02  0.11107840464E+03 -0.25371257347E+02  0.15020324390E+03  0.91862378310E+02 0.  0.
        -11    1    3    3    0    0 -0.32335200294E+02 -0.32766192284E+02  0.14755024240E+01  0.46058285272E+02  0.00000000000E+00 0.  1.
         12    1    3    3    0    0 -0.21927524285E+02 -0.19969514506E+02 -0.87676588593E+02  0.92556912320E+02  0.00000000000E+00 0. -1.
        -11    1    4    4    0    0 -0.16485637985E+02  0.93243182705E+02 -0.17727863498E+02  0.96334544816E+02  0.00000000000E+00 0.  1.
         11    1    4    4    0    0  0.50252563421E+02  0.17835221937E+02 -0.76433938492E+01  0.53868699088E+02  0.00000000000E+00 0. -1.
         -2    1    1    2    0  502  0.20495799143E+02 -0.58342697852E+02  0.14614476459E+02  0.63541569837E+02  0.00000000000E+00 0.  1.
<scales pt_clust_5="13000.00000" pt_clust_6="13000.00000" pt_clust_7="13000.00000" pt_clust_8="13000.00000" pt_clust_9="13000.00000"></scales>
<clustering>
<clus scale="   77.833">  5  6 -1 -1</clus>
<clus scale="   91.862">  7  8 -1 -1</clus>
<clus scale="   61.838">  7  9 -1 -1</clus>
<clus scale="  108.552">  2  5  1 -1</clus>
<clus scale="  213.474">  1  5  2 -1</clus>
</clustering>
</event>
<event>
 9    2  0.3897980E-005  0.1560420E+03  0.7546771E-02  0.1227043E+00
         21   -1    0    0  501  502  0.00000000000E+00  0.00000000000E+00  0.42211707254E+03  0.42211707254E+03  0.00000000000E+00 0. -1.
          4   -1    0    0  502    0 -0.00000000000E+00 -0.00000000000E+00 -0.39987553066E+02  0.39987553066E+02  0.00000000000E+00 0. -1.
         24    2    1    2    0    0  0.19289362818E+02  0.22329575106E+02  0.39220665415E+02  0.85361237830E+02  0.69839751474E+02 0.  0.
         23    2    1    2    0    0 -0.12788381836E+02  0.31859677305E+02  0.19288399506E+03  0.21709942094E+03  0.93537913557E+02 0.  0.
        -11    1    3    3    0    0 -0.20724361862E+02  0.26378997300E+02  0.27758216439E+02  0.43541580737E+02  0.00000000000E+00 0.  1.
         12    1    3    3    0    0  0.40013724680E+02 -0.40494221943E+01  0.11462448976E+02  0.41819657093E+02  0.00000000000E+00 0. -1.
        -11    1    4    4    0    0  0.11494802375E+02  0.53754571899E+02  0.16569516382E+03  0.17457540432E+03  0.00000000000E+00 0. -1.
         11    1    4    4    0    0 -0.24283184211E+02 -0.21894894594E+02  0.27188831244E+02  0.42524016615E+02  0.00000000000E+00 0.  1.
          3    1    1    2  501    0 -0.65009809814E+01 -0.54189252411E+02  0.15002485900E+03  0.15964396684E+03  0.00000000000E+00 0. -1.
<scales pt_clust_5="13000.00000" pt_clust_6="13000.00000" pt_clust_7="13000.00000" pt_clust_8="13000.00000" pt_clust_9="13000.00000"></scales>
<clustering>
<clus scale="   69.840">  5  6 -1 -1</clus>
<clus scale="   75.817">  2  5  1 -1</clus>
<clus scale="   93.538">  7  8 -1 -1</clus>
<clus scale="   47.852">  7  9 -1 -1</clus>
<clus scale="  156.042">  1  5  2 -1</clus>
</clustering>
</event>
<event>
 9    2  0.3897980E-005  0.1613274E+03  0.7546771E-02  0.1217536E+00
         21   -1    0    0  501  502  0.00000000000E+00  0.00000000000E+00  0.36644023208E+02  0.36644023208E+02  0.00000000000E+00 0. -1.
          2   -1    0    0  502    0 -0.00000000000E+00 -0.00000000000E+00 -0.60377993076E+03  0.60377993076E+03  0.00000000000E+00 0. -1.
         24    2    1    2    0    0  0.92571831170E+01 -0.18406510254E+02 -0.39792036537E+03  0.40662824920E+03  0.81125956462E+02 0.  0.
         23    2    1    2    0    0  0.43638171070E+01 -0.34302434748E+02 -0.14053687602E+03  0.17226335211E+03  0.93425633693E+02 0.  0.
        -13    1    3    3    0    0 -0.14680692056E+02  0.25013755203E+02 -0.85192373444E+02  0.89994172931E+02  0.00000000000E+00 0.  1.
         14    1    3    3    0    0  0.23937875173E+02 -0.43420265457E+02 -0.31272799193E+03  0.31663407627E+03  0.00000000000E+00 0. -1.
        -11    1    4    4    0    0  0.36971281442E+02  0.15025402290E+02 -0.65899034774E+02  0.77041035491E+02  0.00000000000E+00 0.  1.
         11    1    4    4    0    0 -0.32607464335E+02 -0.49327837038E+02 -0.74637841246E+02  0.95222316624E+02  0.00000000000E+00 0. -1.
          1    1    1    2  501    0 -0.13621000224E+02  0.52708945002E+02 -0.28678666164E+02  0.61532352656E+02  0.00000000000E+00 0. -1.
<scales pt_clust_5="13000.00000" pt_clust_6="13000.00000" pt_clust_7="13000.00000" pt_clust_8="13000.00000" pt_clust_9="13000.00000"></scales>
<clustering>
<clus scale="   81.126">  5  6 -1 -1</clus>
<clus scale="   83.701">  2  5  1 -1</clus>
<clus scale="   93.426">  7  8 -1 -1</clus>
<clus scale="   49.942">  7  9 -1 -1</clus>
<clus scale="  161.327">  1  5  2 -1</clus>
</clustering>
</event>
<event>
 9    2  0.3897980E-005  0.1472942E+03  0.7546771E-02  0.1214196E+00
         21   -1    0    0  501  502  0.00000000000E+00  0.00000000000E+00  0.10603458552E+03  0.10603458552E+03  0.00000000000E+00 0. -1.
          2   -1    0    0  502    0 -0.00000000000E+00 -0.00000000000E+00 -0.90412067396E+03  0.90412067396E+03  0.00000000000E+00 0. -1.
         24    2    1    2    0    0 -0.64015631521E+02 -0.21272808731E+01 -0.84682244500E+03  0.85500752291E+03  0.99131652187E+02 0.  0.
         23    2    1    2    0    0  0.11496820970E+02  0.32600498216E+01  0.22928086891E+02  0.96619321165E+02  0.93095602671E+02 0.  0.
        -11    1    3    3    0    0 -0.45081262104E+02 -0.77593072933E+01 -0.12825408281E+03  0.13616767898E+03  0.00000000000E+00 0.  1.
         12    1    3    3    0    0 -0.18934369417E+02  0.56320264202E+01 -0.71856836220E+03  0.71883984393E+03  0.00000000000E+00 0. -1.
        -11    1    4    4    0    0  0.95107340449E+01  0.37106972917E+02 -0.18949469616E+02  0.42737148944E+02  0.00000000000E+00 0.  1.
         11    1    4    4    0    0  0.19860869250E+01 -0.33846923095E+02  0.41877556507E+02  0.53882172221E+02  0.00000000000E+00 0. -1.
          1    1    1    2  501    0  0.52518810551E+02 -0.11327689486E+01  0.25808269670E+02  0.58528415411E+02  0.00000000000E+00 0. -1.
<scales pt_clust_5="13000.00000" pt_clust_6="13000.00000" pt_clust_7="13000.00000" pt_clust_8="13000.00000" pt_clust_9="13000.00000"></scales>
<clustering>
<clus scale="   93.096">  7  8 -1 -1</clus>
<clus scale="   52.531">  7  9 -1 -1</clus>
<clus scale="   99.132">  5  6 -1 -1</clus>
<clus scale="  118.024">  2  5  1 -1</clus>
<clus scale="  147.294">  1  5  2 -1</clus>
</clustering>
</event>
<event>
 9    2  0.3897980E-005  0.2583223E+03  0.7546771E-02  0.1128012E+00
          2   -1    0    0  502    0 -0.00000000000E+00  0.00000000000E+00  0.84434339312E+02  0.84434339312E+02  0.00000000000E+00 0. -1.
         21   -1    0    0  501  502  0.00000000000E+00 -0.00000000000E+00 -0.55845866195E+03  0.55845866195E+03  0.00000000000E+00 0. -1.
         24    2    1    2    0    0 -0.57439058690E+02 -0.12129336552E+03 -0.92580905474E+02  0.18220929212E+03  0.81349100135E+02 0.  0.
         23    2    1    2    0    0 -0.48914176238E+02  0.60677741813E+02 -0.10910759264E+03  0.16210027736E+03  0.91091427475E+02 0.  0.
        -11    1    3    3    0    0 -0.46429370036E-01 -0.36424204575E+02 -0.67546868062E+02  0.76741802295E+02  0.00000000000E+00 0.  1.
         12    1    3    3    0    0 -0.57392629320E+02 -0.84869160949E+02 -0.25034037412E+02  0.10546748982E+03  0.00000000000E+00 0. -1.
        -11    1    4    4    0    0 -0.22326202615E+02  0.78996212532E+02 -0.54091240587E+02  0.98309324206E+02  0.00000000000E+00 0.  1.
         11    1    4    4    0    0 -0.26587973623E+02 -0.18318470718E+02 -0.55016352056E+02  0.63790953155E+02  0.00000000000E+00 0. -1.
          1    1    1    2  501    0  0.10635323493E+03  0.60615623711E+02 -0.27233582452E+03  0.29858343179E+03  0.00000000000E+00 0. -1.
<scales pt_clust_5="13000.00000" pt_clust_6="13000.00000" pt_clust_7="13000.00000" pt_clust_8="13000.00000" pt_clust_9="13000.00000"></scales>
<clustering>
<clus scale="   81.349">  5  6 -1 -1</clus>
<clus scale="   91.091">  7  8 -1 -1</clus>
<clus scale="  122.414">  7  9 -1 -1</clus>
<clus scale="  156.936">  1  5  2 -1</clus>
<clus scale="  258.322">  2  5  1 -1</clus>
</clustering>
</event>
<event>
 9    2  0.3897980E-005  0.7789021E+03  0.7546771E-02  0.1014779E+00
         21   -1    0    0  501  502  0.00000000000E+00  0.00000000000E+00  0.33830437454E+03  0.33830437454E+03  0.00000000000E+00 0.  1.
         -3   -1    0    0    0  501 -0.00000000000E+00 -0.00000000000E+00 -0.62417120842E+03  0.62417120842E+03  0.00000000000E+00 0.  1.
         24    2    1    2    0    0 -0.10653407128E+02  0.99398821770E+02 -0.97500437586E+02  0.16112026324E+03  0.80372775512E+02 0.  0.
         23    2    1    2    0    0 -0.16661212056E+03  0.25618733096E+03  0.73984140144E+02  0.32523308407E+03  0.83134581959E+02 0.  0.
        -11    1    3    3    0    0  0.20960409892E+02  0.52618271441E+02 -0.86814249651E+02  0.10365681461E+03  0.00000000000E+00 0.  1.
         12    1    3    3    0    0 -0.31613817021E+02  0.46780550329E+02 -0.10686187934E+02  0.57463448629E+02  0.00000000000E+00 0. -1.
        -11    1    4    4    0    0 -0.32811242629E+02  0.10857098134E+03  0.52063179375E+02  0.12479907964E+03  0.00000000000E+00 0. -1.
         11    1    4    4    0    0 -0.13380087793E+03  0.14761634962E+03  0.21920960769E+02  0.20043400443E+03  0.00000000000E+00 0.  1.
         -4    1    1    2    0  502  0.17726552769E+03 -0.35558615273E+03 -0.26235053644E+03  0.47612223566E+03  0.00000000000E+00 0.  1.
<scales pt_clust_5="13000.00000" pt_clust_6="13000.00000" pt_clust_7="13000.00000" pt_clust_8="13000.00000" pt_clust_9="13000.00000"></scales>
<clustering>
<clus scale="   80.373">  5  6 -1 -1</clus>
<clus scale="   83.135">  7  8 -1 -1</clus>
<clus scale="  128.271">  2  5  1 -1</clus>
<clus scale="  328.429">  7  9 -1 -1</clus>
<clus scale="  778.902">  1  5  2 -1</clus>
</clustering>
</event>
<event>
 9    2  0.3897980E-005  0.1461660E+03  0.7546771E-02  0.1225515E+00
         21   -1    0    0  501  502  0.00000000000E+00  0.00000000000E+00  0.40099094547E+02  0.40099094547E+02  0.00000000000E+00 0. -1.
         -3   -1    0    0    0  501 -0.00000000000E+00 -0.00000000000E+00 -0.36711065049E+03  0.36711065049E+03  0.00000000000E+00 0.  1.
         24    2    1    2    0    0 -0.36782454511E+02 -0.35012322755E+02 -0.14970383931E+03  0.17742174057E+03  0.80550746835E+02 0.  0.
         23    2    1    2    0    0 -0.59740892602E+01  0.45698419255E+02 -0.11198353920E+03  0.15098722496E+03  0.90182003670E+02 0.  0.
        -11    1    3    3    0    0 -0.71178178237E+01 -0.36960498387E+02 -0.14172931107E+03  0.14664221557E+03  0.00000000000E+00 0.  1.
         12    1    3    3    0    0 -0.29664636688E+02  0.19481756312E+01 -0.79745282427E+01  0.30779524993E+02  0.00000000000E+00 0. -1.
        -13    1    4    4    0    0  0.25011089198E+02  0.55481008916E+02 -0.42342454658E+02  0.74138926346E+02  0.00000000000E+00 0.  1.
         13    1    4    4    0    0 -0.30985178458E+02 -0.97825896612E+01 -0.69641084539E+02  0.76848298617E+02  0.00000000000E+00 0. -1.
         -4    1    1    2    0  502  0.42756543771E+02 -0.10686096500E+02 -0.65324177428E+02  0.78800779504E+02  0.00000000000E+00 0.  1.
<scales pt_clust_5="13000.00000" pt_clust_6="13000.00000" pt_clust_7="13000.00000" pt_clust_8="13000.00000" pt_clust_9="13000.00000"></scales>
<clustering>
<clus scale="   80.551">  5  6 -1 -1</clus>
<clus scale="   90.182">  7  8 -1 -1</clus>
<clus scale="   44.072">  7  9 -1 -1</clus>
<clus scale="   95.222">  2  5  1 -1</clus>
<clus scale="  146.166">  1  5  2 -1</clus>
</clustering>
</event>
<event>
 9    2  0.3897980E-005  0.3468011E+03  0.7546771E-02  0.1102597E+00
          2   -1    0    0  502    0 -0.00000000000E+00  0.00000000000E+00  0.53668788758E+03  0.53668788758E+03  0.00000000000E+00 0. -1.
         21   -1    0    0  501  502  0.00000000000E+00 -0.00000000000E+00 -0.12106932807E+03  0.12106932807E+03  0.00000000000E+00 0.  1.
         24    2    1    2    0    0 -0.77405604318E+02  0.52411463167E+02  0.92083868573E+01  0.12349114093E+03  0.80166566901E+02 0.  0.
         23    2    1    2    0    0  0.27047768600E+02 -0.17822734896E+03  0.18245101801E+03  0.27249661187E+03  0.92029668065E+02 0.  0.
        -11    1    3    3    0    0 -0.73713990476E+02  0.38544406873E+02  0.37900615272E+02  0.91410504490E+02  0.00000000000E+00 0.  1.
         12    1    3    3    0    0 -0.36916138421E+01  0.13867056294E+02 -0.28692228415E+02  0.32080636441E+02  0.00000000000E+00 0. -1.
        -11    1    4    4    0    0 -0.10625141884E+02 -0.14476385515E+03  0.16356480911E+03  0.21868450832E+03  0.00000000000E+00 0. -1.
         11    1    4    4    0    0  0.37672910484E+02 -0.33463493805E+02  0.18886208899E+02  0.53812103551E+02  0.00000000000E+00 0.  1.
          1    1    1    2  501    0  0.50357835718E+02  0.12581588579E+03  0.22395915464E+03  0.26176946285E+03  0.00000000000E+00 0. -1.
<scales pt_clust_5="13000.00000" pt_clust_6="13000.00000" pt_clust_7="13000.00000" pt_clust_8="13000.00000" pt_clust_9="13000.00000"></scales>
<clustering>
<clus scale="   80.167">  5  6 -1 -1</clus>
<clus scale="   92.030">  7  8 -1 -1</clus>
<clus scale="  123.147">  1  5  2 -1</clus>
<clus scale="  153.232">  7  9 -1 -1</clus>
<clus scale="  346.801">  2  5  1 -1</clus>
</clustering>
</event>
<event>
 9    2  0.3897980E-005  0.4443854E+03  0.7546771E-02  0.1059837E+00
         21   -1    0    0  501  502  0.00000000000E+00  0.00000000000E+00  0.73042472525E+02  0.73042472525E+02  0.00000000000E+00 0. -1.
          2   -1    0    0  502    0 -0.00000000000E+00 -0.00000000000E+00 -0.13549426541E+04  0.13549426541E+04  0.00000000000E+00 0. -1.
         24    2    1    2    0    0 -0.12196275586E+03 -0.11327871764E+03 -0.38028762960E+03  0.42280672793E+03  0.80248777355E+02 0.  0.
         23    2    1    2    0    0 -0.10059620890E+03 -0.68872380157E+02 -0.40101870539E+03  0.42785204866E+03  0.85897447430E+02 0.  0.
        -13    1    3    3    0    0 -0.87838713826E+02 -0.38473555709E+02 -0.25984916006E+03  0.27697913300E+03  0.00000000000E+00 0.  1.
         14    1    3    3    0    0 -0.34124042030E+02 -0.74805161930E+02 -0.12043846954E+03  0.14582759492E+03  0.00000000000E+00 0. -1.
        -11    1    4    4    0    0 -0.77314124316E+02 -0.86039996234E+02 -0.35617675160E+03  0.37448929644E+03  0.00000000000E+00 0.  1.
         11    1    4    4    0    0 -0.23282084581E+02  0.17167616076E+02 -0.44841953792E+02  0.53362752216E+02  0.00000000000E+00 0. -1.
          1    1    1    2  501    0  0.22255896475E+03  0.18215109780E+03 -0.50059384662E+03  0.57732635008E+03  0.00000000000E+00 0. -1.
<scales pt_clust_5="13000.00000" pt_clust_6="13000.00000" pt_clust_7="13000.00000" pt_clust_8="13000.00000" pt_clust_9="13000.00000"></scales>
<clustering>
<clus scale="   80.249">  5  6 -1 -1</clus>
<clus scale="   85.897">  7  8 -1 -1</clus>
<clus scale="  184.789">  2  5  1 -1</clus>
<clus scale="  193.773">  7  9 -1 -1</clus>
<clus scale="  444.385">  1  5  2 -1</clus>
</clustering>
</event>
<event>
 9    2  0.3897980E-005  0.1776397E+03  0.7546771E-02  0.1191495E+00
         21   -1    0    0  501  502  0.00000000000E+00  0.00000000000E+00  0.61073534062E+02  0.61073534062E+02  0.00000000000E+00 0.  1.
          2   -1    0    0  502    0 -0.00000000000E+00 -0.00000000000E+00 -0.41541870458E+03  0.41541870458E+03  0.00000000000E+00 0. -1.
         24    2    1    2    0    0 -0.31484583992E+02 -0.69021079757E+02 -0.24337399553E+03  0.26703945145E+03  0.79523445920E+02 0.  0.
         23    2    1    2    0    0  0.18388829074E+02  0.11980435907E+02 -0.16265055421E+02  0.98122724177E+02  0.94243498942E+02 0.  0.
        -13    1    3    3    0    0 -0.36932192925E+02 -0.12298324064E+01 -0.50869346968E+02  0.62874397198E+02  0.00000000000E+00 0.  1.
         14    1    3    3    0    0  0.54476089332E+01 -0.67791247350E+02 -0.19250464856E+03  0.20416505425E+03  0.00000000000E+00 0. -1.
        -13    1    4    4    0    0  0.44607285822E+02  0.32039938427E+02  0.10139880554E+02  0.55849662312E+02  0.00000000000E+00 0.  1.
         13    1    4    4    0    0 -0.26218456748E+02 -0.20059502519E+02 -0.26404935975E+02  0.42273061865E+02  0.00000000000E+00 0. -1.
          1    1    1    2  501    0  0.13095754918E+02  0.57040643849E+02 -0.94706119571E+02  0.11133006302E+03  0.00000000000E+00 0. -1.
<scales pt_clust_5="13000.00000" pt_clust_6="13000.00000" pt_clust_7="13000.00000" pt_clust_8="13000.00000" pt_clust_9="13000.00000"></scales>
<clustering>
<clus scale="   79.523">  5  6 -1 -1</clus>
<clus scale="   94.243">  7  8 -1 -1</clus>
<clus scale="   58.525">  7  9 -1 -1</clus>
<clus scale="  109.905">  2  5  1 -1</clus>
<clus scale="  177.640">  1  5  2 -1</clus>
</clustering>
</event>
<event>
 9    2  0.3897980E-005  0.2853902E+03  0.7546771E-02  0.1129196E+00
         21   -1    0    0  501  502  0.00000000000E+00  0.00000000000E+00  0.34315531678E+03  0.34315531678E+03  0.00000000000E+00 0. -1.
          2   -1    0    0  502    0 -0.00000000000E+00 -0.00000000000E+00 -0.11985644189E+03  0.11985644189E+03  0.00000000000E+00 0. -1.
         24    2    1    2    0    0  0.51838279930E+02 -0.59611022811E+02  0.25792358095E+02  0.11594351146E+03  0.80851535582E+02 0.  0.
         23    2    1    2    0    0 -0.75127663729E+02  0.61281218405E+02  0.25341283565E+03  0.28648193326E+03  0.91947154533E+02 0.  0.
        -11    1    3    3    0    0  0.50739465801E+02 -0.10449153884E+01  0.26730809607E+02  0.57359580021E+02  0.00000000000E+00 0.  1.
         12    1    3    3    0    0  0.10988141287E+01 -0.58566107423E+02 -0.93845151165E+00  0.58583931435E+02  0.00000000000E+00 0. -1.
        -13    1    4    4    0    0 -0.21778427966E+02  0.33228704311E+02  0.18256280219E+02  0.43723431731E+02  0.00000000000E+00 0.  1.
         13    1    4    4    0    0 -0.53349235763E+02  0.28052514094E+02  0.23515655543E+03  0.24275850153E+03  0.00000000000E+00 0. -1.
          1    1    1    2  501    0  0.23289383799E+02 -0.16701955937E+01 -0.55906318854E+02  0.60586313957E+02  0.00000000000E+00 0. -1.
<scales pt_clust_5="13000.00000" pt_clust_6="13000.00000" pt_clust_7="13000.00000" pt_clust_8="13000.00000" pt_clust_9="13000.00000"></scales>
<clustering>
<clus scale="   80.852">  5  6 -1 -1</clus>
<clus scale="   91.947">  7  8 -1 -1</clus>
<clus scale="   23.349">  7  9 -1 -1</clus>
<clus scale="  113.038">  2  5  1 -1</clus>
<clus scale="  285.390">  1  5  2 -1</clus>
</clustering>
</event>
<event>
 9    2  0.3897980E-005  0.6577785E+03  0.7546771E-02  0.1036264E+00
          2   -1    0    0  502    0 -0.00000000000E+00  0.00000000000E+00  0.14839263044E+04  0.14839263044E+04  0.00000000000E+00 0. -1.
         21   -1    0    0  501  502  0.00000000000E+00 -0.00000000000E+00 -0.10645457067E+03  0.10645457067E+03  0.00000000000E+00 0. -1.
         24    2    1    2    0    0  0.65114464822E+02 -0.43475962355E+02  0.37518842375E+03  0.39152959102E+03  0.79993840334E+02 0.  0.
         23    2    1    2    0    0  0.81566605510E+02 -0.22849020046E+03  0.76932361303E+03  0.81187434610E+03  0.91761917185E+02 0.  0.
        -13    1    3    3    0    0  0.19879060611E+02 -0.51774561583E+02  0.11955590797E+03  0.13179300971E+03  0.00000000000E+00 0.  1.
         14    1    3    3    0    0  0.45235404211E+02  0.82985992278E+01  0.25563251578E+03  0.25973658130E+03  0.00000000000E+00 0. -1.
        -13    1    4    4    0    0  0.43328651751E+02 -0.43240032065E+02  0.10922488450E+03  0.12520841756E+03  0.00000000000E+00 0.  1.
         13    1    4    4    0    0  0.38237953759E+02 -0.18525016839E+03  0.66009872853E+03  0.68666592853E+03  0.00000000000E+00 0. -1.
          1    1    1    2  501    0 -0.14668107033E+03  0.27196616281E+03  0.23295969694E+03  0.38697693795E+03  0.00000000000E+00 0. -1.
<scales pt_clust_5="13000.00000" pt_clust_6="13000.00000" pt_clust_7="13000.00000" pt_clust_8="13000.00000" pt_clust_9="13000.00000"></scales>
<clustering>
<clus scale="   79.994">  5  6 -1 -1</clus>
<clus scale="   91.762">  7  8 -1 -1</clus>
<clus scale="  111.933">  1  5  2 -1</clus>
<clus scale="  289.701">  7  9 -1 -1</clus>
<clus scale="  657.779">  2  5  1 -1</clus>
</clustering>
</event>
<event>
 9    2  0.3897980E-005  0.7199071E+03  0.7546771E-02  0.1012617E+00
         21   -1    0    0  501  502  0.00000000000E+00  0.00000000000E+00  0.23977043729E+03  0.23977043729E+03  0.00000000000E+00 0.  1.
          2   -1    0    0  502    0 -0.00000000000E+00 -0.00000000000E+00 -0.84650883349E+03  0.84650883349E+03  0.00000000000E+00 0. -1.
         24    2    1    2    0    0 -0.14716722433E+03 -0.44066574670E+02 -0.65226351519E+02  0.18544547548E+03  0.80842393103E+02 0.  0.
         23    2    1    2    0    0 -0.22308367881E+03 -0.16423390204E+03 -0.26468769852E+03  0.39377705439E+03  0.90893830860E+02 0.  0.
        -13    1    3    3    0    0 -0.84214194521E+02 -0.16848131386E+02  0.65960587476E+01  0.86135927934E+02  0.00000000000E+00 0.  1.
         14    1    3    3    0    0 -0.62953029811E+02 -0.27218443284E+02 -0.71822410267E+02  0.99309547546E+02  0.00000000000E+00 0. -1.
        -11    1    4    4    0    0 -0.13221414618E+03 -0.12737558493E+03 -0.12121849262E+03  0.21999782508E+03  0.00000000000E+00 0.  1.
         11    1    4    4    0    0 -0.90869532624E+02 -0.36858317116E+02 -0.14346920590E+03  0.17377922931E+03  0.00000000000E+00 0. -1.
          1    1    1    2  501    0  0.37025090314E+03  0.20830047671E+03 -0.27682434617E+03  0.50705674091E+03  0.00000000000E+00 0. -1.
<scales pt_clust_5="13000.00000" pt_clust_6="13000.00000" pt_clust_7="13000.00000" pt_clust_8="13000.00000" pt_clust_9="13000.00000"></scales>
<clustering>
<clus scale="   80.842">  5  6 -1 -1</clus>
<clus scale="   90.894">  7  8 -1 -1</clus>
<clus scale="  173.596">  2  5  1 -1</clus>
<clus scale="  343.863">  7  9 -1 -1</clus>
<clus scale="  719.907">  1  5  2 -1</clus>
</clustering>
</event>
<event>
 9    2  0.3897980E-005  0.3038824E+03  0.7546771E-02  0.1134240E+00
          2   -1    0    0  502    0 -0.00000000000E+00  0.00000000000E+00  0.13954909603E+03  0.13954909603E+03  0.00000000000E+00 0. -1.
         21   -1    0    0  501  502  0.00000000000E+00 -0.00000000000E+00 -0.30181645787E+03  0.30181645787E+03  0.00000000000E+00 0. -1.
         24    2    1    2    0    0  0.20279545137E+02  0.42073758468E+01  0.22449232364E+02  0.85746717134E+02  0.80122216039E+02 0.  0.
         23    2    1    2    0    0  0.36376950641E+02 -0.23705539263E+01 -0.25552893650E+03  0.26491205505E+03  0.59619270856E+02 0.  0.
        -13    1    3    3    0    0  0.31731418858E+02 -0.13848426530E+02  0.43598221882E+02  0.55672855247E+02  0.00000000000E+00 0.  1.
         14    1    3    3    0    0 -0.11451873721E+02  0.18055802376E+02 -0.21148989518E+02  0.30073861887E+02  0.00000000000E+00 0. -1.
        -13    1    4    4    0    0  0.25060332201E+02  0.27750445506E+02 -0.12476688264E+03  0.13024930894E+03  0.00000000000E+00 0. -1.
         13    1    4    4    0    0  0.11316618440E+02 -0.30120999432E+02 -0.13076205386E+03  0.13466274611E+03  0.00000000000E+00 0.  1.
          1    1    1    2  501    0 -0.56656495778E+02 -0.18368219205E+01  0.70812342293E+02  0.90706781718E+02  0.00000000000E+00 0. -1.
<scales pt_clust_5="13000.00000" pt_clust_6="13000.00000" pt_clust_7="13000.00000" pt_clust_8="13000.00000" pt_clust_9="13000.00000"></scales>
<clustering>
<clus scale="   59.619">  7  8 -1 -1</clus>
<clus scale="   56.686">  7  9 -1 -1</clus>
<clus scale="   80.122">  5  6 -1 -1</clus>
<clus scale="   82.756">  1  5  2 -1</clus>
<clus scale="  303.882">  2  5  1 -1</clus>
</clustering>
</event>
<event>
 9    2  0.3897980E-005  0.3742576E+03  0.7546771E-02  0.1054824E+00
         21   -1    0    0  501  502  0.00000000000E+00  0.00000000000E+00  0.13667567270E+03  0.13667567270E+03  0.00000000000E+00 0. -1.
          2   -1    0    0  502    0 -0.00000000000E+00 -0.00000000000E+00 -0.99949801085E+03  0.99949801085E+03  0.00000000000E+00 0. -1.
         24    2    1    2    0    0  0.26257563455E+03  0.22698746183E+03 -0.50813111454E+03  0.62054336218E+03  0.80047255359E+02 0.  0.
         23    2    1    2    0    0 -0.16840234338E+03 -0.13730169662E+03 -0.27801930572E+03  0.36466433764E+03  0.92055633406E+02 0.  0.
        -11    1    3    3    0    0  0.33365546945E+02  0.20662764932E+02 -0.22420579197E+02  0.45198362239E+02  0.00000000000E+00 0.  1.
         12    1    3    3    0    0  0.22921008761E+03  0.20632469689E+03 -0.48571053535E+03  0.57534499994E+03  0.00000000000E+00 0. -1.
        -11    1    4    4    0    0 -0.10206310609E+03 -0.31655095686E+02 -0.93840473128E+02  0.14221447572E+03  0.00000000000E+00 0. -1.
         11    1    4    4    0    0 -0.66339237295E+02 -0.10564660093E+03 -0.18417883259E+03  0.22244986192E+03  0.00000000000E+00 0.  1.
          1    1    1    2  501    0 -0.94173291170E+02 -0.89685765208E+02 -0.76671917892E+02  0.15096598373E+03  0.00000000000E+00 0. -1.
<scales pt_clust_5="13000.00000" pt_clust_6="13000.00000" pt_clust_7="13000.00000" pt_clust_8="13000.00000" pt_clust_9="13000.00000"></scales>
<clustering>
<clus scale="   80.047">  5  6 -1 -1</clus>
<clus scale="   92.056">  7  8 -1 -1</clus>
<clus scale="  130.047">  7  9 -1 -1</clus>
<clus scale="  356.198">  2  5  1 -1</clus>
<clus scale="  374.258">  1  5  2 -1</clus>
</clustering>
</event>
<event>
 9    2  0.3897980E-005  0.3371814E+03  0.7546771E-02  0.1106185E+00
          2   -1    0    0  502    0 -0.00000000000E+00  0.00000000000E+00  0.16055013991E+03  0.16055013991E+03  0.00000000000E+00 0. -1.
         21   -1    0    0  501  502  0.00000000000E+00 -0.00000000000E+00 -0.32893064886E+03  0.32893064886E+03  0.00000000000E+00 0. -1.
         24    2    1    2    0    0 -0.88638288077E+02 -0.27525787530E+02 -0.37594157388E+02  0.12782299290E+03  0.79441687744E+02 0.  0.
         23    2    1    2    0    0  0.76635558977E+02 -0.92498313278E+02  0.37034808861E+02  0.15498464289E+03  0.90662647239E+02 0.  0.
        -11    1    3    3    0    0 -0.91930968739E+02  0.17006771688E+01 -0.22037260934E+02  0.94550706954E+02  0.00000000000E+00 0.  1.
         12    1    3    3    0    0  0.32926806614E+01 -0.29226464699E+02 -0.15556896454E+02  0.33272285945E+02  0.00000000000E+00 0. -1.
        -13    1    4    4    0    0  0.35745396717E+02 -0.83634568929E+02  0.58316892911E+02  0.10804320666E+03  0.00000000000E+00 0. -1.
         13    1    4    4    0    0  0.40890162261E+02 -0.88637443486E+01 -0.21282084050E+02  0.46941436228E+02  0.00000000000E+00 0.  1.
          1    1    1    2  501    0  0.12002729100E+02  0.12002410081E+03 -0.16782116042E+03  0.20667315298E+03  0.00000000000E+00 0. -1.
<scales pt_clust_5="13000.00000" pt_clust_6="13000.00000" pt_clust_7="13000.00000" pt_clust_8="13000.00000" pt_clust_9="13000.00000"></scales>
<clustering>
<clus scale="   79.442">  5  6 -1 -1</clus>
<clus scale="   90.663">  7  8 -1 -1</clus>
<clus scale="  120.623">  7  9 -1 -1</clus>
<clus scale="  122.170">  1  5  2 -1</clus>
<clus scale="  337.181">  2  5  1 -1</clus>
</clustering>
</event>
<event>
 9    2  0.3897980E-005  0.1441119E+03  0.7546771E-02  0.1227427E+00
         -1   -1    0    0    0  501 -0.00000000000E+00  0.00000000000E+00  0.18077310947E+02  0.18077310947E+02  0.00000000000E+00 0.  1.
         21   -1    0    0  501  502  0.00000000000E+00 -0.00000000000E+00 -0.79414512587E+03  0.79414512587E+03  0.00000000000E+00 0.  1.
         24    2    1    2    0    0  0.17409391376E+02  0.50113419380E+02 -0.31630805878E+03  0.33040579576E+03  0.79389924521E+02 0.  0.
         23    2    1    2    0    0 -0.29182934647E+02 -0.47625759157E+01 -0.29928824007E+03  0.31464480492E+03  0.92485549234E+02 0.  0.
        -11    1    3    3    0    0  0.46695618980E+02  0.45523443745E+02 -0.19915296857E+03  0.20955851128E+03  0.00000000000E+00 0.  1.
         12    1    3    3    0    0 -0.29286227604E+02  0.45899756356E+01 -0.11715509021E+03  0.12084728448E+03  0.00000000000E+00 0. -1.
        -11    1    4    4    0    0  0.24746152138E+02 -0.26188761584E+02 -0.78776770917E+02  0.86625648136E+02  0.00000000000E+00 0.  1.
         11    1    4    4    0    0 -0.53929086785E+02  0.21426185669E+02 -0.22051146915E+03  0.22801915678E+03  0.00000000000E+00 0. -1.
         -2    1    1    2    0  502  0.11773543270E+02 -0.45350843465E+02 -0.16047151608E+03  0.16717183614E+03  0.00000000000E+00 0.  1.
<scales pt_clust_5="13000.00000" pt_clust_6="13000.00000" pt_clust_7="13000.00000" pt_clust_8="13000.00000" pt_clust_9="13000.00000"></scales>
<clustering>
<clus scale="   79.390">  5  6 -1 -1</clus>
<clus scale="   92.486">  7  8 -1 -1</clus>
<clus scale="   46.854">  7  9 -1 -1</clus>
<clus scale="   95.484">  1  5  2 -1</clus>
<clus scale="  144.112">  2  5  1 -1</clus>
</clustering>
</event>
<event>
 9    2  0.3897980E-005  0.3852459E+03  0.7546771E-02  0.1094572E+00
         21   -1    0    0  501  502  0.00000000000E+00  0.00000000000E+00  0.21330160685E+03  0.21330160685E+03  0.00000000000E+00 0. -1.
          4   -1    0    0  502    0 -0.00000000000E+00 -0.00000000000E+00 -0.41643635244E+03  0.41643635244E+03  0.00000000000E+00 0. -1.
         24    2    1    2    0    0 -0.65769846586E+02 -0.30665087515E+02 -0.21768985727E+03  0.24421717089E+03  0.83589067979E+02 0.  0.
         23    2    1    2    0    0  0.29966970483E+02 -0.11636863971E+03 -0.11193659073E+03  0.18828764296E+03  0.92101881194E+02 0.  0.
        -11    1    3    3    0    0 -0.22990469696E+02 -0.12953660582E+01 -0.28537135384E+01  0.23203089256E+02  0.00000000000E+00 0.  1.
         12    1    3    3    0    0 -0.42779376890E+02 -0.29369721456E+02 -0.21483614374E+03  0.22101408163E+03  0.00000000000E+00 0. -1.
        -11    1    4    4    0    0  0.51625362298E+02 -0.81171683996E+02 -0.11108956930E+03  0.14695207628E+03  0.00000000000E+00 0. -1.
         11    1    4    4    0    0 -0.21658391815E+02 -0.35196955718E+02 -0.84702142883E+00  0.41335566685E+02  0.00000000000E+00 0.  1.
          3    1    1    2  501    0  0.35802876103E+02  0.14703372723E+03  0.12649170242E+03  0.19723314544E+03  0.00000000000E+00 0. -1.
<scales pt_clust_5="13000.00000" pt_clust_6="13000.00000" pt_clust_7="13000.00000" pt_clust_8="13000.00000" pt_clust_9="13000.00000"></scales>
<clustering>
<clus scale="   83.589">  5  6 -1 -1</clus>
<clus scale="   92.102">  7  8 -1 -1</clus>
<clus scale="  110.694">  2  5  1 -1</clus>
<clus scale="  143.089">  7  9 -1 -1</clus>
<clus scale="  385.246">  1  5  2 -1</clus>
</clustering>
</event>
<event>
 9    2  0.3897980E-005  0.1245814E+03  0.7546771E-02  0.1252703E+00
         -3   -1    0    0    0  501 -0.00000000000E+00  0.00000000000E+00  0.49349825448E+03  0.49349825448E+03  0.00000000000E+00 0.  1.
         21   -1    0    0  501  502  0.00000000000E+00 -0.00000000000E+00 -0.23094607386E+02  0.23094607386E+02  0.00000000000E+00 0.  1.
         24    2    1    2    0    0  0.33445260114E+02 -0.11689381240E+02  0.17850697883E+03  0.19922211380E+03  0.81052341608E+02 0.  0.
         23    2    1    2    0    0  0.53685050152E+00  0.11077708414E+02  0.21171000205E+03  0.23027850142E+03  0.89911397599E+02 0.  0.
        -11    1    3    3    0    0  0.53654977695E+02 -0.25193573652E+02  0.15254993473E+03  0.16366140464E+03  0.00000000000E+00 0.  1.
         12    1    3    3    0    0 -0.20209717582E+02  0.13504192412E+02  0.25957044101E+02  0.35560709159E+02  0.00000000000E+00 0. -1.
        -11    1    4    4    0    0 -0.32742602743E+02  0.10919488630E+02  0.30570308430E+02  0.46107017078E+02  0.00000000000E+00 0.  1.
         11    1    4    4    0    0  0.33279453244E+02  0.15821978430E+00  0.18113969362E+03  0.18417148435E+03  0.00000000000E+00 0. -1.
         -4    1    1    2    0  502 -0.33982110615E+02  0.61167282584E+00  0.80186666219E+02  0.87092246640E+02  0.00000000000E+00 0.  1.
<scales pt_clust_5="13000.00000" pt_clust_6="13000.00000" pt_clust_7="13000.00000" pt_clust_8="13000.00000" pt_clust_9="13000.00000"></scales>
<clustering>
<clus scale="   81.052">  5  6 -1 -1</clus>
<clus scale="   88.457">  1  5  2 -1</clus>
<clus scale="   89.911">  7  8 -1 -1</clus>
<clus scale="   24.935">  7  9 -1 -1</clus>
<clus scale="  124.581">  2  5  1 -1</clus>
</clustering>
</event>
<event>
 9    2  0.3897980E-005  0.1743665E+03  0.7546771E-02  0.1181703E+00
         21   -1    0    0  501  502  0.00000000000E+00  0.00000000000E+00  0.35264179854E+03  0.35264179854E+03  0.00000000000E+00 0.  1.
          2   -1    0    0  502    0 -0.00000000000E+00 -0.00000000000E+00 -0.79003603128E+02  0.79003603128E+02  0.00000000000E+00 0. -1.
         24    2    1    2    0    0 -0.33009994673E+02  0.11696861434E+03  0.61411969137E+02  0.15697532034E+03  0.78092923831E+02 0.  0.
         23    2    1    2    0    0  0.23211128749E+02 -0.82189439660E+02  0.19983987702E+03  0.23647282471E+03  0.93217808879E+02 0.  0.
        -11    1    3    3    0    0 -0.45171527546E+02  0.57118314290E+02  0.36492170843E+01  0.72912862470E+02  0.00000000000E+00 0.  1.
         12    1    3    3    0    0  0.12161532873E+02  0.59850300054E+02  0.57762752053E+02  0.84062457870E+02  0.00000000000E+00 0. -1.
        -11    1    4    4    0    0  0.57671784675E+02 -0.46628974154E+02  0.14300193522E+03  0.16108956967E+03  0.00000000000E+00 0.  1.
         11    1    4    4    0    0 -0.34460655925E+02 -0.35560465506E+02  0.56837941793E+02  0.75383255044E+02  0.00000000000E+00 0. -1.
          1    1    1    2  501    0  0.97988659239E+01 -0.34779174685E+02  0.12386349263E+02  0.38197256619E+02  0.00000000000E+00 0. -1.
<scales pt_clust_5="13000.00000" pt_clust_6="13000.00000" pt_clust_7="13000.00000" pt_clust_8="13000.00000" pt_clust_9="13000.00000"></scales>
<clustering>
<clus scale="   78.093">  5  6 -1 -1</clus>
<clus scale="   93.218">  7  8 -1 -1</clus>
<clus scale="   36.133">  7  9 -1 -1</clus>
<clus scale="  144.464">  2  5  1 -1</clus>
<clus scale="  174.367">  1  5  2 -1</clus>
</clustering>
</event>
<event>
 9    2  0.3897980E-005  0.1701662E+03  0.7546771E-02  0.1202512E+00
         21   -1    0    0  501  502  0.00000000000E+00  0.00000000000E+00  0.94777092130E+02  0.94777092130E+02  0.00000000000E+00 0. -1.
          2   -1    0    0  502    0 -0.00000000000E+00 -0.00000000000E+00 -0.43499441625E+03  0.43499441625E+03  0.00000000000E+00 0. -1.
         24    2    1    2    0    0  0.58033278959E+02  0.40890715288E+01 -0.34581291424E+03  0.35951332093E+03  0.79238086137E+02 0.  0.
         23    2    1    2    0    0  0.11600092354E+02 -0.21007351064E+02 -0.16970784129E+02  0.95129791821E+02  0.90475404595E+02 0.  0.
        -11    1    3    3    0    0 -0.15906146366E+02  0.16865260058E+02 -0.88089040496E+02  0.91088536845E+02  0.00000000000E+00 0.  1.
         12    1    3    3    0    0  0.73939425325E+02 -0.12776188530E+02 -0.25772387375E+03  0.26842478408E+03  0.00000000000E+00 0. -1.
        -11    1    4    4    0    0  0.21136282071E+02  0.99110005983E+00  0.33288567129E+02  0.39444307582E+02  0.00000000000E+00 0. -1.
         11    1    4    4    0    0 -0.95361897173E+01 -0.21998451123E+02 -0.50259351258E+02  0.55685484240E+02  0.00000000000E+00 0.  1.
          1    1    1    2  501    0 -0.69633371312E+02  0.16918279535E+02  0.22566374254E+02  0.75128395629E+02  0.00000000000E+00 0. -1.
<scales pt_clust_5="13000.00000" pt_clust_6="13000.00000" pt_clust_7="13000.00000" pt_clust_8="13000.00000" pt_clust_9="13000.00000"></scales>
<clustering>
<clus scale="   79.238">  5  6 -1 -1</clus>
<clus scale="   90.475">  7  8 -1 -1</clus>
<clus scale="   71.659">  7  9 -1 -1</clus>
<clus scale="   98.302">  2  5  1 -1</clus>
<clus scale="  170.166">  1  5  2 -1</clus>
</clustering>
</event>
<event>
 9    2  0.3897980E-005  0.3911402E+03  0.7546771E-02  0.1056984E+00
         21   -1    0    0  501  502  0.00000000000E+00  0.00000000000E+00  0.35947817972E+03  0.35947817972E+03  0.00000000000E+00 0. -1.
          2   -1    0    0  502    0 -0.00000000000E+00 -0.00000000000E+00 -0.34355531510E+03  0.34355531510E+03  0.00000000000E+00 0. -1.
         24    2    1    2    0    0  0.27165947728E+03 -0.77250328751E+02 -0.71660289430E+02  0.30220749272E+03  0.80172855062E+02 0.  0.
         23    2    1    2    0    0 -0.23596139992E+03 -0.51572797718E+02  0.74700584107E+02  0.26652890142E+03  0.84379750601E+02 0.  0.
        -11    1    3    3    0    0  0.75514301896E+02 -0.64132659979E+01  0.13438621209E+02  0.76968411129E+02  0.00000000000E+00 0.  1.
         12    1    3    3    0    0  0.19614517538E+03 -0.70837062753E+02 -0.85098910639E+02  0.22523908159E+03  0.00000000000E+00 0. -1.
        -13    1    4    4    0    0 -0.42216645423E+02 -0.38351380825E+02 -0.35837782907E+01  0.57148202324E+02  0.00000000000E+00 0.  1.
         13    1    4    4    0    0 -0.19374475449E+03 -0.13221416892E+02  0.78284362398E+02  0.20938069910E+03  0.00000000000E+00 0. -1.
          1    1    1    2  501    0 -0.35698077360E+02  0.12882312647E+03  0.12882569943E+02  0.13429710067E+03  0.00000000000E+00 0. -1.
<scales pt_clust_5="13000.00000" pt_clust_6="13000.00000" pt_clust_7="13000.00000" pt_clust_8="13000.00000" pt_clust_9="13000.00000"></scales>
<clustering>
<clus scale="   80.173">  5  6 -1 -1</clus>
<clus scale="   84.380">  7  8 -1 -1</clus>
<clus scale="  133.678">  7  9 -1 -1</clus>
<clus scale="  293.588">  2  5  1 -1</clus>
<clus scale="  391.140">  1  5  2 -1</clus>
</clustering>
</event>
<event>
 9    2  0.3897980E-005  0.5442537E+03  0.7546771E-02  0.1040339E+00
         21   -1    0    0  501  502  0.00000000000E+00  0.00000000000E+00  0.13551542918E+03  0.13551542918E+03  0.00000000000E+00 0. -1.
          2   -1    0    0  502    0 -0.00000000000E+00 -0.00000000000E+00 -0.12908857637E+04  0.12908857637E+04  0.00000000000E+00 0. -1.
         24    2    1    2    0    0  0.15873956067E+03 -0.12680599918E+02 -0.32286312773E+02  0.17839084168E+03  0.73633149243E+02 0.  0.
         23    2    1    2    0    0  0.11975589067E+03 -0.10376280521E+03 -0.73025297420E+03  0.75259636781E+03  0.89575071470E+02 0.  0.
        -11    1    3    3    0    0  0.94760524007E+01 -0.23896287510E+02 -0.63042503432E+01  0.26468314987E+02  0.00000000000E+00 0.  1.
         12    1    3    3    0    0  0.14926350827E+03  0.11215687592E+02 -0.25982062430E+02  0.15192252670E+03  0.00000000000E+00 0. -1.
        -11    1    4    4    0    0  0.86184436312E+02 -0.54442072186E+02 -0.60885472621E+03  0.61732955049E+03  0.00000000000E+00 0. -1.
         11    1    4    4    0    0  0.33571454354E+02 -0.49320733021E+02 -0.12139824799E+03  0.13526681732E+03  0.00000000000E+00 0.  1.
          1    1    1    2  501    0 -0.27849545134E+03  0.11644340513E+03 -0.39283104760E+03  0.49541398342E+03  0.00000000000E+00 0. -1.
<scales pt_clust_5="13000.00000" pt_clust_6="13000.00000" pt_clust_7="13000.00000" pt_clust_8="13000.00000" pt_clust_9="13000.00000"></scales>
<clustering>
<clus scale="   73.633">  5  6 -1 -1</clus>
<clus scale="   89.575">  7  8 -1 -1</clus>
<clus scale="  175.445">  2  5  1 -1</clus>
<clus scale="  245.864">  7  9 -1 -1</clus>
<clus scale="  544.254">  1  5  2 -1</clus>
</clustering>
</event>
<event>
 9    2  0.3897980E-005  0.1920071E+03  0.7546771E-02  0.1190591E+00
          2   -1    0    0  502    0 -0.00000000000E+00  0.00000000000E+00  0.23472087893E+03  0.23472087893E+03  0.00000000000E+00 0. -1.
         21   -1    0    0  501  502  0.00000000000E+00 -0.00000000000E+00 -0.84034986191E+02  0.84034986191E+02  0.00000000000E+00 0. -1.
         24    2    1    2    0    0 -0.26154595071E+02 -0.52874666231E+02  0.51557696421E+02  0.10266994699E+03  0.66356075697E+02 0.  0.
         23    2    1    2    0    0  0.49198580387E+02 -0.10024520780E+02  0.10716370535E+03  0.14861813033E+03  0.89901599486E+02 0.  0.
        -11    1    3    3    0    0  0.13886441400E+02 -0.17842408131E+02  0.43276251255E+02  0.48826414013E+02  0.00000000000E+00 0.  1.
         12    1    3    3    0    0 -0.40041036470E+02 -0.35032258100E+02  0.82814451656E+01  0.53843532975E+02  0.00000000000E+00 0. -1.
        -11    1    4    4    0    0  0.39141934748E+02  0.20002565650E+02  0.10835262398E+03  0.11692940097E+03  0.00000000000E+00 0.  1.
         11    1    4    4    0    0  0.10056645639E+02 -0.30027086430E+02 -0.11889186289E+01  0.31688729361E+02  0.00000000000E+00 0. -1.
          1    1    1    2  501    0 -0.23043985316E+02  0.62899187011E+02 -0.80355090288E+01  0.67467787805E+02  0.00000000000E+00 0. -1.
<scales pt_clust_5="13000.00000" pt_clust_6="13000.00000" pt_clust_7="13000.00000" pt_clust_8="13000.00000" pt_clust_9="13000.00000"></scales>
<clustering>
<clus scale="   66.356">  5  6 -1 -1</clus>
<clus scale="   88.786">  1  5  2 -1</clus>
<clus scale="   89.902">  7  8 -1 -1</clus>
<clus scale="   59.868">  7  9 -1 -1</clus>
<clus scale="  192.007">  2  5  1 -1</clus>
</clustering>
</event>
<event>
 9    2  0.3897980E-005  0.4060598E+03  0.7546771E-02  0.1068125E+00
         21   -1    0    0  501  502  0.00000000000E+00  0.00000000000E+00  0.29517155570E+03  0.29517155570E+03  0.00000000000E+00 0. -1.
          2   -1    0    0  502    0 -0.00000000000E+00 -0.00000000000E+00 -0.87634210129E+03  0.87634210129E+03  0.00000000000E+00 0. -1.
         24    2    1    2    0    0  0.11413697474E+03 -0.13063994844E+03 -0.71775606518E+03  0.74309777879E+03  0.83225564685E+02 0.  0.
         23    2    1    2    0    0  0.10283469765E+03  0.12594542903E+03  0.67659230469E+02  0.20071085309E+03  0.96280054765E+02 0.  0.
        -11    1    3    3    0    0  0.15607320532E+02 -0.13932530421E+02 -0.20435390792E+02  0.29245667285E+02  0.00000000000E+00 0.  1.
         12    1    3    3    0    0  0.98529654205E+02 -0.11670741802E+03 -0.69732067439E+03  0.71385211151E+03  0.00000000000E+00 0. -1.
        -13    1    4    4    0    0  0.67720262016E+02  0.12493233868E+02  0.36458163116E+02  0.77918627027E+02  0.00000000000E+00 0. -1.
         13    1    4    4    0    0  0.35114435632E+02  0.11345219516E+03  0.31201067352E+02  0.12279222606E+03  0.00000000000E+00 0.  1.
          1    1    1    2  501    0 -0.21697167238E+03  0.46945194066E+01  0.68926289114E+02  0.22770502511E+03  0.00000000000E+00 0. -1.
<scales pt_clust_5="13000.00000" pt_clust_6="13000.00000" pt_clust_7="13000.00000" pt_clust_8="13000.00000" pt_clust_9="13000.00000"></scales>
<clustering>
<clus scale="   83.226">  5  6 -1 -1</clus>
<clus scale="   96.280">  7  8 -1 -1</clus>
<clus scale="  192.407">  2  5  1 -1</clus>
<clus scale="  168.500">  7  9 -1 -1</clus>
<clus scale="  406.060">  1  5  2 -1</clus>
</clustering>
</event>
<event>
 9    2  0.3897980E-005  0.1404355E+03  0.7546771E-02  0.1221150E+00
         21   -1    0    0  501  502  0.00000000000E+00  0.00000000000E+00  0.73761928300E+03  0.73761928300E+03  0.00000000000E+00 0. -1.
          4   -1    0    0  502    0 -0.00000000000E+00 -0.00000000000E+00 -0.22858577069E+02  0.22858577069E+02  0.00000000000E+00 0. -1.
         24    2    1    2    0    0 -0.12727423335E+02 -0.84905182257E+02  0.36887918111E+03  0.38717347462E+03  0.80377682928E+02 0.  0.
         23    2    1    2    0    0  0.28627054920E+02  0.63611898477E+02  0.29221721951E+03  0.31342066576E+03  0.89306374070E+02 0.  0.
        -11    1    3    3    0    0 -0.23218264980E+02  0.51695296164E+01  0.45798248666E+02  0.51607087168E+02  0.00000000000E+00 0.  1.
         12    1    3    3    0    0  0.10490841644E+02 -0.90074711873E+02  0.32308093245E+03  0.33556638745E+03  0.00000000000E+00 0. -1.
        -11    1    4    4    0    0  0.23352369686E+02  0.86621615669E+02  0.23149141360E+03  0.24826782321E+03  0.00000000000E+00 0. -1.
         11    1    4    4    0    0  0.52746852343E+01 -0.23009717192E+02  0.60725805906E+02  0.65152842551E+02  0.00000000000E+00 0.  1.
          3    1    1    2  501    0 -0.15899631585E+02  0.21293283780E+02  0.53664305308E+02  0.59883719681E+02  0.00000000000E+00 0. -1.
<scales pt_clust_5="13000.00000" pt_clust_6="13000.00000" pt_clust_7="13000.00000" pt_clust_8="13000.00000" pt_clust_9="13000.00000"></scales>
<clustering>
<clus scale="   80.378">  5  6 -1 -1</clus>
<clus scale="   89.306">  7  8 -1 -1</clus>
<clus scale="   26.574">  7  9 -1 -1</clus>
<clus scale="  117.607">  2  5  1 -1</clus>
<clus scale="  140.436">  1  5  2 -1</clus>
</clustering>
</event>
<event>
 9    2  0.3897980E-005  0.2820008E+03  0.7546771E-02  0.1129568E+00
         21   -1    0    0  501  502  0.00000000000E+00  0.00000000000E+00  0.96405503364E+02  0.96405503364E+02  0.00000000000E+00 0. -1.
          2   -1    0    0  502    0 -0.00000000000E+00 -0.00000000000E+00 -0.41135840538E+03  0.41135840538E+03  0.00000000000E+00 0. -1.
         24    2    1    2    0    0  0.44733389907E+02 -0.70888886030E+02 -0.84863440931E+02  0.14380568412E+03  0.80324098779E+02 0.  0.
         23    2    1    2    0    0 -0.38588303767E+02 -0.82505839760E+02 -0.11105306901E+03  0.16969714611E+03  0.90377356015E+02 0.  0.
        -13    1    3    3    0    0  0.56691572138E+02 -0.35659845078E+02 -0.82868074988E+02  0.10654894065E+03  0.00000000000E+00 0.  1.
         14    1    3    3    0    0 -0.11958182231E+02 -0.35229040952E+02 -0.19953659432E+01  0.37256743470E+02  0.00000000000E+00 0. -1.
        -13    1    4    4    0    0 -0.15281470449E+02  0.17198218982E+02 -0.78255977064E+01  0.24301071061E+02  0.00000000000E+00 0.  1.
         13    1    4    4    0    0 -0.23306833318E+02 -0.99704058742E+02 -0.10322747130E+03  0.14539607505E+03  0.00000000000E+00 0. -1.
          1    1    1    2  501    0 -0.61450861400E+01  0.15339472579E+03 -0.11903639207E+03  0.19426107850E+03  0.00000000000E+00 0. -1.
<scales pt_clust_5="13000.00000" pt_clust_6="13000.00000" pt_clust_7="13000.00000" pt_clust_8="13000.00000" pt_clust_9="13000.00000"></scales>
<clustering>
<clus scale="   80.324">  5  6 -1 -1</clus>
<clus scale="   90.377">  7  8 -1 -1</clus>
<clus scale="  116.096">  2  5  1 -1</clus>
<clus scale="  117.313">  7  9 -1 -1</clus>
<clus scale="  282.001">  1  5  2 -1</clus>
</clustering>
</event>
<event>
 9    2  0.3897980E-005  0.1931761E+03  0.7546771E-02  0.1177858E+00
         21   -1    0    0  501  502  0.00000000000E+00  0.00000000000E+00  0.46977265059E+03  0.46977265059E+03  0.00000000000E+00 0. -1.
         -1   -1    0    0    0  501 -0.00000000000E+00 -0.00000000000E+00 -0.13819342707E+03  0.13819342707E+03  0.00000000000E+00 0.  1.
         24    2    1    2    0    0 -0.78049745997E+02  0.27738531472E+02 -0.88384947221E+02  0.14570326013E+03  0.80971304417E+02 0.  0.
         23    2    1    2    0    0  0.98950103758E+02  0.19709816003E+02  0.34619119057E+03  0.37209284894E+03  0.91788604527E+02 0.  0.
        -13    1    3    3    0    0 -0.81959388176E+02 -0.14315146325E+01 -0.81257313125E+02  0.11542158152E+03  0.00000000000E+00 0.  1.
         14    1    3    3    0    0  0.39096421784E+01  0.29170046104E+02 -0.71276340962E+01  0.30281678611E+02  0.00000000000E+00 0. -1.
        -11    1    4    4    0    0  0.14809066339E+00  0.35189085751E+02  0.69875027774E+02  0.78235626113E+02  0.00000000000E+00 0.  1.
         11    1    4    4    0    0  0.98802013095E+02 -0.15479269748E+02  0.27631616280E+03  0.29385722282E+03  0.00000000000E+00 0. -1.
         -2    1    1    2    0  502 -0.20900357761E+02 -0.47448347475E+02  0.73772980171E+02  0.90169968592E+02  0.00000000000E+00 0.  1.
<scales pt_clust_5="13000.00000" pt_clust_6="13000.00000" pt_clust_7="13000.00000" pt_clust_8="13000.00000" pt_clust_9="13000.00000"></scales>
<clustering>
<clus scale="   80.971">  5  6 -1 -1</clus>
<clus scale="   91.789">  7  8 -1 -1</clus>
<clus scale="   51.848">  7  9 -1 -1</clus>
<clus scale="  115.834">  2  5  1 -1</clus>
<clus scale="  193.176">  1  5  2 -1</clus>
</clustering>
</event>
<event>
 9    2  0.3897980E-005  0.2326088E+03  0.7546771E-02  0.1154961E+00
         21   -1    0    0  501  502  0.00000000000E+00  0.00000000000E+00  0.16862227475E+03  0.16862227475E+03  0.00000000000E+00 0.  1.
         -1   -1    0    0    0  501 -0.00000000000E+00 -0.00000000000E+00 -0.17673239331E+03  0.17673239331E+03  0.00000000000E+00 0.  1.
         24    2    1    2    0    0 -0.75158346362E+02  0.29128837100E+02  0.36511104622E+01  0.11244876693E+03  0.78320676698E+02 0.  0.
         23    2    1    2    0    0  0.11510499724E+03  0.51052490902E+00  0.48594074505E+02  0.15469471676E+03  0.91212117030E+02 0.  0.
        -11    1    3    3    0    0 -0.75452511062E+02  0.50627272344E+02  0.20117949060E+01  0.90885914471E+02  0.00000000000E+00 0.  1.
         12    1    3    3    0    0  0.29416469929E+00 -0.21498435244E+02  0.16393155562E+01  0.21562852462E+02  0.00000000000E+00 0. -1.
        -13    1    4    4    0    0  0.84891628316E+00 -0.26577777798E+02  0.21476203402E+02  0.34180787646E+02  0.00000000000E+00 0. -1.
         13    1    4    4    0    0  0.11425608095E+03  0.27088302707E+02  0.27117871103E+02  0.12051392912E+03  0.00000000000E+00 0.  1.
         -2    1    1    2    0  502 -0.39946650873E+02 -0.29639362009E+02 -0.60355303530E+02  0.78211184369E+02  0.00000000000E+00 0.  1.
<scales pt_clust_5="13000.00000" pt_clust_6="13000.00000" pt_clust_7="13000.00000" pt_clust_8="13000.00000" pt_clust_9="13000.00000"></scales>
<clustering>
<clus scale="   78.321">  5  6 -1 -1</clus>
<clus scale="   91.212">  7  8 -1 -1</clus>
<clus scale="   49.742">  7  9 -1 -1</clus>
<clus scale="  112.390">  2  5  1 -1</clus>
<clus scale="  232.609">  1  5  2 -1</clus>
</clustering>
</event>
<event>
 9    2  0.3897980E-005  0.2525987E+03  0.7546771E-02  0.1132481E+00
          2   -1    0    0  502    0 -0.00000000000E+00  0.00000000000E+00  0.19589259950E+04  0.19589259950E+04  0.00000000000E+00 0. -1.
         21   -1    0    0  501  502  0.00000000000E+00 -0.00000000000E+00 -0.20888920228E+02  0.20888920228E+02  0.00000000000E+00 0. -1.
         24    2    1    2    0    0  0.62431407001E+02 -0.83566608586E+02  0.64096760002E+03  0.65837807209E+03  0.10835664670E+03 0.  0.
         23    2    1    2    0    0 -0.27392342950E+02 -0.48891900324E+02  0.38033655564E+03  0.39452140062E+03  0.88602943638E+02 0.  0.
        -13    1    3    3    0    0 -0.13219062304E+01 -0.37986955160E+02  0.53058431221E+02  0.65268317904E+02  0.00000000000E+00 0.  1.
         14    1    3    3    0    0  0.63753313231E+02 -0.45579653427E+02  0.58790916880E+03  0.59310975419E+03  0.00000000000E+00 0. -1.
        -11    1    4    4    0    0  0.24497019664E+02 -0.24430786653E+02  0.61485270463E+02  0.70550732050E+02  0.00000000000E+00 0.  1.
         11    1    4    4    0    0 -0.51889362614E+02 -0.24461113671E+02  0.31885128518E+03  0.32397066857E+03  0.00000000000E+00 0. -1.
          1    1    1    2  501    0 -0.35039064051E+02  0.13245850891E+03  0.91673291909E+03  0.92691544249E+03  0.00000000000E+00 0. -1.
<scales pt_clust_5="13000.00000" pt_clust_6="13000.00000" pt_clust_7="13000.00000" pt_clust_8="13000.00000" pt_clust_9="13000.00000"></scales>
<clustering>
<clus scale="   88.603">  7  8 -1 -1</clus>
<clus scale="  108.357">  5  6 -1 -1</clus>
<clus scale="  137.015">  7  9 -1 -1</clus>
<clus scale="  150.407">  1  5  2 -1</clus>
<clus scale="  252.599">  2  5  1 -1</clus>
</clustering>
</event>
<event>
 9    2  0.3897980E-005  0.2959860E+03  0.7546771E-02  0.1132047E+00
         21   -1    0    0  501  502  0.00000000000E+00  0.00000000000E+00  0.86004698885E+02  0.86004698885E+02  0.00000000000E+00 0. -1.
          2   -1    0    0  502    0 -0.00000000000E+00 -0.00000000000E+00 -0.46990267398E+03  0.46990267398E+03  0.00000000000E+00 0. -1.
         24    2    1    2    0    0  0.23018216343E+01  0.49423924258E+02 -0.15586760471E+03  0.18226913051E+03  0.80494118208E+02 0.  0.
         23    2    1    2    0    0  0.40544210635E+02  0.81013438314E+02 -0.19779162034E+03  0.23305349908E+03  0.83578694396E+02 0.  0.
        -11    1    3    3    0    0  0.20828184488E+02 -0.15840036635E+02 -0.51920893428E+02  0.58142060541E+02  0.00000000000E+00 0.  1.
         12    1    3    3    0    0 -0.18526362854E+02  0.65263960893E+02 -0.10394671129E+03  0.12412706997E+03  0.00000000000E+00 0. -1.
        -13    1    4    4    0    0  0.97743405224E+01  0.25403919182E+02 -0.15275049954E+03  0.15515673351E+03  0.00000000000E+00 0.  1.
         13    1    4    4    0    0  0.30769870112E+02  0.55609519132E+02 -0.45041120792E+02  0.77896765575E+02  0.00000000000E+00 0. -1.
          1    1    1    2  501    0 -0.42846032269E+02 -0.13043736257E+03 -0.30238750046E+02  0.14058474327E+03  0.00000000000E+00 0. -1.
<scales pt_clust_5="13000.00000" pt_clust_6="13000.00000" pt_clust_7="13000.00000" pt_clust_8="13000.00000" pt_clust_9="13000.00000"></scales>
<clustering>
<clus scale="   80.494">  5  6 -1 -1</clus>
<clus scale="   83.579">  7  8 -1 -1</clus>
<clus scale="   94.485">  2  5  1 -1</clus>
<clus scale="  123.816">  7  9 -1 -1</clus>
<clus scale="  295.986">  1  5  2 -1</clus>
</clustering>
</event>
<event>
 9    2  0.3897980E-005  0.5516239E+03  0.7546771E-02  0.1059756E+00
          2   -1    0    0  502    0 -0.00000000000E+00  0.00000000000E+00  0.12442322369E+04  0.12442322369E+04  0.00000000000E+00 0. -1.
         21   -1    0    0  501  502  0.00000000000E+00 -0.00000000000E+00 -0.11261673412E+03  0.11261673412E+03  0.00000000000E+00 0. -1.
         24    2    1    2    0    0 -0.52842435763E+02  0.55523896070E+01  0.53741874751E+03  0.54607234296E+03  0.80950241034E+02 0.  0.
         23    2    1    2    0    0  0.17642006581E+03  0.11403657328E+03  0.59631294364E+03  0.63879573099E+03  0.91337174887E+02 0.  0.
        -11    1    3    3    0    0 -0.34646838509E+02 -0.33186556012E+02  0.18728316309E+03  0.19333063414E+03  0.00000000000E+00 0.  1.
         12    1    3    3    0    0 -0.18195597254E+02  0.38738945619E+02  0.35013558442E+03  0.35274170882E+03  0.00000000000E+00 0. -1.
        -13    1    4    4    0    0  0.62952660646E+01  0.31894922574E+02  0.41606004560E+02  0.52801288585E+02  0.00000000000E+00 0.  1.
         13    1    4    4    0    0  0.17012479975E+03  0.82141650707E+02  0.55470693908E+03  0.58599444241E+03  0.00000000000E+00 0. -1.
          1    1    1    2  501    0 -0.12357763005E+03 -0.11958896289E+03 -0.21161884054E+01  0.17198089704E+03  0.00000000000E+00 0. -1.
<scales pt_clust_5="13000.00000" pt_clust_6="13000.00000" pt_clust_7="13000.00000" pt_clust_8="13000.00000" pt_clust_9="13000.00000"></scales>
<clustering>
<clus scale="   80.950">  5  6 -1 -1</clus>
<clus scale="   91.337">  7  8 -1 -1</clus>
<clus scale="   96.830">  1  5  2 -1</clus>
<clus scale="  176.161">  7  9 -1 -1</clus>
<clus scale="  551.624">  2  5  1 -1</clus>
</clustering>
</event>
<event>
 9    2  0.3897980E-005  0.5089028E+03  0.7546771E-02  0.1063570E+00
         21   -1    0    0  501  502  0.00000000000E+00  0.00000000000E+00  0.48740946512E+02  0.48740946512E+02  0.00000000000E+00 0.  1.
          2   -1    0    0  502    0 -0.00000000000E+00 -0.00000000000E+00 -0.20732674632E+04  0.20732674632E+04  0.00000000000E+00 0. -1.
         24    2    1    2    0    0  0.75954528986E+02 -0.45048344630E+01 -0.21003624193E+03  0.23750395721E+03  0.80644421751E+02 0.  0.
         23    2    1    2    0    0 -0.13549212195E+02  0.19701643112E+03 -0.39663067971E+03  0.45227508202E+03  0.90762318412E+02 0.  0.
        -13    1    3    3    0    0  0.74197669686E+02 -0.29479634018E+02 -0.18761090750E+03  0.20389260806E+03  0.00000000000E+00 0.  1.
         14    1    3    3    0    0  0.17568593004E+01  0.24974799555E+02 -0.22425334432E+02  0.33611349152E+02  0.00000000000E+00 0. -1.
        -13    1    4    4    0    0 -0.30012283798E+01  0.58558776856E+02 -0.44058036358E+02  0.73343358843E+02  0.00000000000E+00 0.  1.
         13    1    4    4    0    0 -0.10547983815E+02  0.13845765426E+03 -0.35257264336E+03  0.37893172318E+03  0.00000000000E+00 0. -1.
          1    1    1    2  501    0 -0.62405316792E+02 -0.19251159666E+03 -0.14178595950E+04  0.14322293705E+04  0.00000000000E+00 0. -1.
<scales pt_clust_5="13000.00000" pt_clust_6="13000.00000" pt_clust_7="13000.00000" pt_clust_8="13000.00000" pt_clust_9="13000.00000"></scales>
<clustering>
<clus scale="   80.644">  5  6 -1 -1</clus>
<clus scale="   90.762">  7  8 -1 -1</clus>
<clus scale="  110.873">  2  5  1 -1</clus>
<clus scale="  196.021">  7  9 -1 -1</clus>
<clus scale="  508.903">  1  5  2 -1</clus>
</clustering>
</event>
<event>
 9    2  0.3897980E-005  0.3175585E+03  0.7546771E-02  0.1096584E+00
         21   -1    0    0  501  502  0.00000000000E+00  0.00000000000E+00  0.22288366824E+03  0.22288366824E+03  0.00000000000E+00 0.  1.
          2   -1    0    0  502    0 -0.00000000000E+00 -0.00000000000E+00 -0.77710474209E+03  0.77710474209E+03  0.00000000000E+00 0. -1.
         24    2    1    2    0    0 -0.16083184234E+03  0.32201459415E+02  0.14171053944E+03  0.23502813886E+03  0.90843456392E+02 0.  0.
         23    2    1    2    0    0  0.53429565096E+02  0.41943265386E+02 -0.82772304054E+02  0.13806552123E+03  0.87160070545E+02 0.  0.
        -13    1    3    3    0    0 -0.91750601369E+02 -0.43704949535E+01  0.26131256326E+02  0.95499301751E+02  0.00000000000E+00 0.  1.
         14    1    3    3    0    0 -0.69081240975E+02  0.36571954368E+02  0.11557928311E+03  0.13952883711E+03  0.00000000000E+00 0. -1.
        -13    1    4    4    0    0  0.35041112315E+02 -0.23482278357E+02 -0.26345835773E+02  0.49733288768E+02  0.00000000000E+00 0. -1.
         13    1    4    4    0    0  0.18388452782E+02  0.65425543743E+02 -0.56426468281E+02  0.88332232466E+02  0.00000000000E+00 0.  1.
          1    1    1    2  501    0  0.10740227725E+03 -0.74144724801E+02 -0.61315930923E+03  0.62689475023E+03  0.00000000000E+00 0. -1.
<scales pt_clust_5="13000.00000" pt_clust_6="13000.00000" pt_clust_7="13000.00000" pt_clust_8="13000.00000" pt_clust_9="13000.00000"></scales>
<clustering>
<clus scale="   87.160">  7  8 -1 -1</clus>
<clus scale="   90.843">  5  6 -1 -1</clus>
<clus scale="  130.509">  7  9 -1 -1</clus>
<clus scale="  187.500">  2  5  1 -1</clus>
<clus scale="  317.559">  1  5  2 -1</clus>
</clustering>
</event>
<event>
 9    2  0.3897980E-005  0.3198061E+03  0.7546771E-02  0.1099650E+00
         21   -1    0    0  501  502  0.00000000000E+00  0.00000000000E+00  0.10329816591E+03  0.10329816591E+03  0.00000000000E+00 0. -1.
          2   -1    0    0  502    0 -0.00000000000E+00 -0.00000000000E+00 -0.83172843242E+03  0.83172843242E+03  0.00000000000E+00 0. -1.
         24    2    1    2    0    0 -0.24225454501E+02 -0.14626800838E+03 -0.37377280518E+02  0.17356078000E+03  0.82128438037E+02 0.  0.
         23    2    1    2    0    0 -0.94897544938E+02  0.75130105076E+02 -0.19756757200E+03  0.24884632582E+03  0.90782551425E+02 0.  0.
        -11    1    3    3    0    0  0.14868255066E+02 -0.29027533091E+02  0.18975788671E+02  0.37732522334E+02  0.00000000000E+00 0.  1.
         12    1    3    3    0    0 -0.39093709566E+02 -0.11724047529E+03 -0.56353069189E+02  0.13582825767E+03  0.00000000000E+00 0. -1.
        -13    1    4    4    0    0 -0.53523633623E+02  0.84167386166E+02 -0.94432954966E+02  0.13735541938E+03  0.00000000000E+00 0.  1.
         13    1    4    4    0    0 -0.41373911315E+02 -0.90372810902E+01 -0.10313461703E+03  0.11149090644E+03  0.00000000000E+00 0. -1.
          1    1    1    2  501    0  0.11912299944E+03  0.71137903306E+02 -0.49348541399E+03  0.51261949251E+03  0.00000000000E+00 0. -1.
<scales pt_clust_5="13000.00000" pt_clust_6="13000.00000" pt_clust_7="13000.00000" pt_clust_8="13000.00000" pt_clust_9="13000.00000"></scales>
<clustering>
<clus scale="   82.128">  5  6 -1 -1</clus>
<clus scale="   90.783">  7  8 -1 -1</clus>
<clus scale="  138.748">  7  9 -1 -1</clus>
<clus scale="  169.488">  2  5  1 -1</clus>
<clus scale="  319.806">  1  5  2 -1</clus>
</clustering>
</event>
<event>
 9    2  0.3897980E-005  0.2397397E+03  0.7546771E-02  0.1153375E+00
          2   -1    0    0  502    0 -0.00000000000E+00  0.00000000000E+00  0.52108666757E+03  0.52108666757E+03  0.00000000000E+00 0. -1.
         21   -1    0    0  501  502  0.00000000000E+00 -0.00000000000E+00 -0.71122102823E+02  0.71122102823E+02  0.00000000000E+00 0. -1.
         24    2    1    2    0    0 -0.72726817176E+01 -0.68683840923E+02  0.27642163382E+03  0.29624883036E+03  0.81142393025E+02 0.  0.
         23    2    1    2    0    0  0.94242337994E+01 -0.24290583619E+02  0.17757633068E+03  0.20287320032E+03  0.94579773503E+02 0.  0.
        -13    1    3    3    0    0  0.30512752164E+02 -0.14276495345E+02  0.49644240971E+02  0.59994975002E+02  0.00000000000E+00 0.  1.
         14    1    3    3    0    0 -0.37785433882E+02 -0.54407345577E+02  0.22677739285E+03  0.23625385536E+03  0.00000000000E+00 0. -1.
        -13    1    4    4    0    0  0.48412829456E+02 -0.95841291415E+01  0.13296037503E+03  0.14182425362E+03  0.00000000000E+00 0.  1.
         13    1    4    4    0    0 -0.38988595657E+02 -0.14706454477E+02  0.44615955649E+02  0.61048946699E+02  0.00000000000E+00 0. -1.
          1    1    1    2  501    0 -0.21515520818E+01  0.92974424542E+02 -0.40333997532E+01  0.93086739704E+02  0.00000000000E+00 0. -1.
<scales pt_clust_5="13000.00000" pt_clust_6="13000.00000" pt_clust_7="13000.00000" pt_clust_8="13000.00000" pt_clust_9="13000.00000"></scales>
<clustering>
<clus scale="   81.142">  5  6 -1 -1</clus>
<clus scale="   94.580">  7  8 -1 -1</clus>
<clus scale="   92.999">  7  9 -1 -1</clus>
<clus scale="  106.557">  1  5  2 -1</clus>
<clus scale="  239.740">  2  5  1 -1</clus>
</clustering>
</event>
<event>
 9    2  0.3897980E-005  0.5956278E+03  0.7546771E-02  0.1054792E+00
         21   -1    0    0  501  502  0.00000000000E+00  0.00000000000E+00  0.94474132528E+02  0.94474132528E+02  0.00000000000E+00 0.  1.
          2   -1    0    0  502    0 -0.00000000000E+00 -0.00000000000E+00 -0.12384452523E+04  0.12384452523E+04  0.00000000000E+00 0. -1.
         24    2    1    2    0    0 -0.23076241354E+02  0.29761920481E+02 -0.15260571131E+03  0.17638237450E+03  0.80024709207E+02 0.  0.
         23    2    1    2    0    0  0.57462092032E+02  0.26910111819E+03 -0.56091213359E+03  0.63137843954E+03  0.91098893977E+02 0.  0.
        -13    1    3    3    0    0 -0.48797790894E+02  0.34171938099E+02 -0.12456028891E+03  0.13807321001E+03  0.00000000000E+00 0.  1.
         14    1    3    3    0    0  0.25721549540E+02 -0.44100176185E+01 -0.28045422403E+02  0.38309164490E+02  0.00000000000E+00 0. -1.
        -13    1    4    4    0    0  0.69872438034E+02  0.15536049606E+03 -0.39142181606E+03  0.42688415223E+03  0.00000000000E+00 0.  1.
         13    1    4    4    0    0 -0.12410346002E+02  0.11374062213E+03 -0.16949031752E+03  0.20449428732E+03  0.00000000000E+00 0. -1.
          1    1    1    2  501    0 -0.34385850678E+02 -0.29886303867E+03 -0.43045327484E+03  0.52515857075E+03  0.00000000000E+00 0. -1.
<scales pt_clust_5="13000.00000" pt_clust_6="13000.00000" pt_clust_7="13000.00000" pt_clust_8="13000.00000" pt_clust_9="13000.00000"></scales>
<clustering>
<clus scale="   80.025">  5  6 -1 -1</clus>
<clus scale="   88.443">  2  5  1 -1</clus>
<clus scale="   91.099">  7  8 -1 -1</clus>
<clus scale="  289.091">  7  9 -1 -1</clus>
<clus scale="  595.628">  1  5  2 -1</clus>
</clustering>
</event>
<event>
 9    2  0.3897980E-005  0.6521197E+03  0.7546771E-02  0.1046668E+00
         21   -1    0    0  501  502  0.00000000000E+00  0.00000000000E+00  0.57270241266E+03  0.57270241266E+03  0.00000000000E+00 0. -1.
          2   -1    0    0  502    0 -0.00000000000E+00 -0.00000000000E+00 -0.12183893715E+04  0.12183893715E+04  0.00000000000E+00 0. -1.
         24    2    1    2    0    0 -0.26941334170E+02 -0.85557075225E+01 -0.10304359696E+04  0.10339313370E+04  0.80104223592E+02 0.  0.
         23    2    1    2    0    0 -0.30510004300E+03 -0.89421991767E+01  0.21314191883E+03  0.38298582627E+03  0.89903650640E+02 0.  0.
        -13    1    3    3    0    0 -0.20361494631E+02  0.13469124444E+02 -0.91109133417E+02  0.94323284341E+02  0.00000000000E+00 0.  1.
         14    1    3    3    0    0 -0.65798395388E+01 -0.22024831967E+02 -0.93932683619E+03  0.93960805270E+03  0.00000000000E+00 0. -1.
        -11    1    4    4    0    0 -0.83381319960E+02 -0.43032628817E+02  0.65667301317E+02  0.11452705411E+03  0.00000000000E+00 0.  1.
         11    1    4    4    0    0 -0.22171872304E+03  0.34090429640E+02  0.14747461751E+03  0.26845877216E+03  0.00000000000E+00 0. -1.
          1    1    1    2  501    0  0.33204137717E+03  0.17497906699E+02  0.17160709192E+03  0.37417462086E+03  0.00000000000E+00 0. -1.
<scales pt_clust_5="13000.00000" pt_clust_6="13000.00000" pt_clust_7="13000.00000" pt_clust_8="13000.00000" pt_clust_9="13000.00000"></scales>
<clustering>
<clus scale="   80.104">  5  6 -1 -1</clus>
<clus scale="   84.945">  2  5  1 -1</clus>
<clus scale="   89.904">  7  8 -1 -1</clus>
<clus scale="  317.647">  7  9 -1 -1</clus>
<clus scale="  652.120">  1  5  2 -1</clus>
</clustering>
</event>
<event>
 9    2  0.3897980E-005  0.9292833E+03  0.7546771E-02  0.9971431E-01
          2   -1    0    0  502    0 -0.00000000000E+00  0.00000000000E+00  0.19366887916E+04  0.19366887916E+04  0.00000000000E+00 0. -1.
         21   -1    0    0  501  502  0.00000000000E+00 -0.00000000000E+00 -0.14586187973E+03  0.14586187973E+03  0.00000000000E+00 0. -1.
         24    2    1    2    0    0  0.10428963504E+02 -0.10206661980E+03  0.27539577546E+03  0.30488393245E+03  0.81148142127E+02 0.  0.
         23    2    1    2    0    0  0.35927667088E+02 -0.32146220025E+03  0.19487835585E+03  0.39008422067E+03  0.97772093083E+02 0.  0.
        -11    1    3    3    0    0  0.30804260278E+02 -0.72928844404E+01  0.45931666544E+02  0.55783569321E+02  0.00000000000E+00 0.  1.
         12    1    3    3    0    0 -0.20375296774E+02 -0.94773735362E+02  0.22946410891E+03  0.24910036313E+03  0.00000000000E+00 0. -1.
        -13    1    4    4    0    0  0.13134773182E+02 -0.17039095847E+03  0.46500174891E+02  0.17710976049E+03  0.00000000000E+00 0. -1.
         13    1    4    4    0    0  0.22792893906E+02 -0.15107124178E+03  0.14837818096E+03  0.21297446018E+03  0.00000000000E+00 0.  1.
          1    1    1    2  501    0 -0.46356630592E+02  0.42352882005E+03  0.13205527806E+04  0.13875825182E+04  0.00000000000E+00 0. -1.
<scales pt_clust_5="13000.00000" pt_clust_6="13000.00000" pt_clust_7="13000.00000" pt_clust_8="13000.00000" pt_clust_9="13000.00000"></scales>
<clustering>
<clus scale="   81.148">  5  6 -1 -1</clus>
<clus scale="   97.772">  7  8 -1 -1</clus>
<clus scale="  130.810">  1  5  2 -1</clus>
<clus scale="  341.688">  7  9 -1 -1</clus>
<clus scale="  929.283">  2  5  1 -1</clus>
</clustering>
</event>
<event>
 9    2  0.3897980E-005  0.2818146E+03  0.7546771E-02  0.1123167E+00
         21   -1    0    0  501  502  0.00000000000E+00  0.00000000000E+00  0.39998897192E+02  0.39998897192E+02  0.00000000000E+00 0. -1.
          2   -1    0    0  502    0 -0.00000000000E+00 -0.00000000000E+00 -0.11063457688E+04  0.11063457688E+04  0.00000000000E+00 0. -1.
         24    2    1    2    0    0 -0.30871884049E+02 -0.10300575818E+03 -0.41004563097E+03  0.43209625507E+03  0.83704807093E+02 0.  0.
         23    2    1    2    0    0 -0.65730236630E+02 -0.32023201722E+02 -0.28580863843E+03  0.30825634447E+03  0.89383704587E+02 0.  0.
        -11    1    3    3    0    0  0.15801327523E+02 -0.33384057659E+02 -0.48504180634E+02  0.60965833023E+02  0.00000000000E+00 0.  1.
         12    1    3    3    0    0 -0.46673211573E+02 -0.69621700516E+02 -0.36154145034E+03  0.37113042205E+03  0.00000000000E+00 0. -1.
        -13    1    4    4    0    0  0.20370368483E+02 -0.19822237797E+02 -0.65133399354E+02  0.71064989516E+02  0.00000000000E+00 0.  1.
         13    1    4    4    0    0 -0.86100605113E+02 -0.12200963925E+02 -0.22067523908E+03  0.23719135495E+03  0.00000000000E+00 0. -1.
          1    1    1    2  501    0  0.96602120679E+02  0.13502895990E+03 -0.37049260220E+03  0.40599206644E+03  0.00000000000E+00 0. -1.
<scales pt_clust_5="13000.00000" pt_clust_6="13000.00000" pt_clust_7="13000.00000" pt_clust_8="13000.00000" pt_clust_9="13000.00000"></scales>
<clustering>
<clus scale="   83.705">  5  6 -1 -1</clus>
<clus scale="   89.384">  7  8 -1 -1</clus>
<clus scale="  136.271">  2  5  1 -1</clus>
<clus scale="  110.169">  7  9 -1 -1</clus>
<clus scale="  281.815">  1  5  2 -1</clus>
</clustering>
</event>
<event>
 9    2  0.3897980E-005  0.3216947E+03  0.7546771E-02  0.1110816E+00
          2   -1    0    0  502    0 -0.00000000000E+00  0.00000000000E+00  0.48662753478E+03  0.48662753478E+03  0.00000000000E+00 0. -1.
         21   -1    0    0  501  502  0.00000000000E+00 -0.00000000000E+00 -0.10940996528E+03  0.10940996528E+03  0.00000000000E+00 0. -1.
         24    2    1    2    0    0  0.92699301422E+02  0.18268418320E+02  0.17852754108E+03  0.21793006105E+03  0.81820125851E+02 0.  0.
         23    2    1    2    0    0  0.41342797104E+02 -0.10419911988E+03  0.15817001869E+03  0.21381124052E+03  0.90170994813E+02 0.  0.
        -13    1    3    3    0    0  0.39515475995E+02  0.48976029332E+02  0.10138686819E+03  0.11932904648E+03  0.00000000000E+00 0.  1.
         14    1    3    3    0    0  0.53183825427E+02 -0.30707611012E+02  0.77140672892E+02  0.98601014576E+02  0.00000000000E+00 0. -1.
        -13    1    4    4    0    0  0.48665602198E+02 -0.48177758946E+02  0.32037179921E+02  0.75603030307E+02  0.00000000000E+00 0.  1.
         13    1    4    4    0    0 -0.73228050946E+01 -0.56021360937E+02  0.12613283877E+03  0.13820821022E+03  0.00000000000E+00 0. -1.
          1    1    1    2  501    0 -0.13404209853E+03  0.85930701563E+02  0.40520009739E+02  0.16429619849E+03  0.00000000000E+00 0. -1.
<scales pt_clust_5="13000.00000" pt_clust_6="13000.00000" pt_clust_7="13000.00000" pt_clust_8="13000.00000" pt_clust_9="13000.00000"></scales>
<clustering>
<clus scale="   81.820">  5  6 -1 -1</clus>
<clus scale="   90.171">  7  8 -1 -1</clus>
<clus scale="  124.986">  1  5  2 -1</clus>
<clus scale="  136.994">  7  9 -1 -1</clus>
<clus scale="  321.695">  2  5  1 -1</clus>
</clustering>
</event>
<event>
 9    2  0.3897980E-005  0.2135348E+03  0.7546771E-02  0.1179880E+00
         21   -1    0    0  501  502  0.00000000000E+00  0.00000000000E+00  0.31563529748E+02  0.31563529748E+02  0.00000000000E+00 0. -1.
          2   -1    0    0  502    0 -0.00000000000E+00 -0.00000000000E+00 -0.70784741631E+03  0.70784741631E+03  0.00000000000E+00 0. -1.
         24    2    1    2    0    0  0.75378482713E+01  0.25222638617E+02 -0.14060701274E+03  0.16274220961E+03  0.77599575410E+02 0.  0.
         23    2    1    2    0    0  0.67256645788E+02  0.99177494565E+01 -0.41387767306E+03  0.42948141185E+03  0.92399873949E+02 0.  0.
        -13    1    3    3    0    0  0.20667638317E+02 -0.12131751601E+02 -0.11031720786E+03  0.11289028754E+03  0.00000000000E+00 0.  1.
         14    1    3    3    0    0 -0.13129790046E+02  0.37354390218E+02 -0.30289804881E+02  0.49851922078E+02  0.00000000000E+00 0. -1.
        -11    1    4    4    0    0 -0.29966578498E+01 -0.29671533119E+02 -0.17059766679E+03  0.17318470992E+03  0.00000000000E+00 0.  1.
         11    1    4    4    0    0  0.70253303638E+02  0.39589282575E+02 -0.24328000627E+03  0.25629670193E+03  0.00000000000E+00 0. -1.
          1    1    1    2  501    0 -0.74794494059E+02 -0.35140388073E+02 -0.12179920076E+03  0.14718732459E+03  0.00000000000E+00 0. -1.
<scales pt_clust_5="13000.00000" pt_clust_6="13000.00000" pt_clust_7="13000.00000" pt_clust_8="13000.00000" pt_clust_9="13000.00000"></scales>
<clustering>
<clus scale="   77.600">  5  6 -1 -1</clus>
<clus scale="   81.943">  2  5  1 -1</clus>
<clus scale="   92.400">  7  8 -1 -1</clus>
<clus scale="   78.538">  7  9 -1 -1</clus>
<clus scale="  213.535">  1  5  2 -1</clus>
</clustering>
</event>
<event>
 9    2  0.3897980E-005  0.2348343E+03  0.7546771E-02  0.1158283E+00
          4   -1    0    0  502    0 -0.00000000000E+00  0.00000000000E+00  0.15363970949E+03  0.15363970949E+03  0.00000000000E+00 0. -1.
         21   -1    0    0  501  502  0.00000000000E+00 -0.00000000000E+00 -0.31731507246E+03  0.31731507246E+03  0.00000000000E+00 0. -1.
         24    2    1    2    0    0  0.18090843410E+01  0.66375683416E+02  0.82709540810E+02  0.13058340039E+03  0.76171859514E+02 0.  0.
         23    2    1    2    0    0  0.40761268501E+02  0.48011931752E+02 -0.91788004810E+02  0.14340193567E+03  0.90401607984E+02 0.  0.
        -11    1    3    3    0    0  0.19690759039E+02  0.29744006919E+02 -0.28752208072E+01  0.35786852807E+02  0.00000000000E+00 0.  1.
         12    1    3    3    0    0 -0.17881674698E+02  0.36631676497E+02  0.85584761617E+02  0.94796547585E+02  0.00000000000E+00 0. -1.
        -13    1    4    4    0    0  0.82444918670E+01  0.65887801509E+02 -0.81041443159E+02  0.10477065211E+03  0.00000000000E+00 0. -1.
         13    1    4    4    0    0  0.32516776634E+02 -0.17875869757E+02 -0.10746561651E+02  0.38631283561E+02  0.00000000000E+00 0.  1.
          3    1    1    2  501    0 -0.42570352842E+02 -0.11438761517E+03 -0.15459689896E+03  0.19696944589E+03  0.00000000000E+00 0. -1.
<scales pt_clust_5="13000.00000" pt_clust_6="13000.00000" pt_clust_7="13000.00000" pt_clust_8="13000.00000" pt_clust_9="13000.00000"></scales>
<clustering>
<clus scale="   76.172">  5  6 -1 -1</clus>
<clus scale="   90.402">  7  8 -1 -1</clus>
<clus scale="  101.050">  1  5  2 -1</clus>
<clus scale="   94.220">  7  9 -1 -1</clus>
<clus scale="  234.834">  2  5  1 -1</clus>
</clustering>
</event>
<event>
 9    2  0.3897980E-005  0.3301958E+03  0.7546771E-02  0.1107866E+00
          2   -1    0    0  502    0 -0.00000000000E+00  0.00000000000E+00  0.44834180875E+03  0.44834180875E+03  0.00000000000E+00 0. -1.
         21   -1    0    0  501  502  0.00000000000E+00 -0.00000000000E+00 -0.11973738283E+03  0.11973738283E+03  0.00000000000E+00 0. -1.
         24    2    1    2    0    0 -0.82960119610E+02  0.48905613993E+02  0.43978445173E+02  0.13214198634E+03  0.79077559328E+02 0.  0.
         23    2    1    2    0    0 -0.70029852763E+02  0.39471771565E+02  0.21320942866E+03  0.24536748613E+03  0.91020556752E+02 0.  0.
        -11    1    3    3    0    0 -0.28908217233E+02  0.43068456560E+02  0.56137250670E+02  0.76432767101E+02  0.00000000000E+00 0.  1.
         12    1    3    3    0    0 -0.54051902378E+02  0.58371574337E+01 -0.12158805496E+02  0.55709219243E+02  0.00000000000E+00 0. -1.
        -11    1    4    4    0    0 -0.75684674764E+02  0.11121092027E+02  0.19891497989E+03  0.21311738059E+03  0.00000000000E+00 0. -1.
         11    1    4    4    0    0  0.56548220012E+01  0.28350679538E+02  0.14294448772E+02  0.32250105548E+02  0.00000000000E+00 0.  1.
          1    1    1    2  501    0  0.15298997237E+03 -0.88377385558E+02  0.71416552085E+02  0.19056971910E+03  0.00000000000E+00 0. -1.
<scales pt_clust_5="13000.00000" pt_clust_6="13000.00000" pt_clust_7="13000.00000" pt_clust_8="13000.00000" pt_clust_9="13000.00000"></scales>
<clustering>
<clus scale="   79.078">  5  6 -1 -1</clus>
<clus scale="   91.021">  7  8 -1 -1</clus>
<clus scale="  124.609">  1  5  2 -1</clus>
<clus scale="  141.670">  7  9 -1 -1</clus>
<clus scale="  330.196">  2  5  1 -1</clus>
</clustering>
</event>
<event>
 9    2  0.3897980E-005  0.4761443E+03  0.7546771E-02  0.1055765E+00
         21   -1    0    0  501  502  0.00000000000E+00  0.00000000000E+00  0.60148835986E+02  0.60148835986E+02  0.00000000000E+00 0.  1.
         -3   -1    0    0    0  501 -0.00000000000E+00 -0.00000000000E+00 -0.17273705287E+04  0.17273705287E+04  0.00000000000E+00 0.  1.
         24    2    1    2    0    0  0.14603010919E+03  0.25281819519E+02 -0.42294485671E+03  0.45525128200E+03  0.80046328839E+02 0.  0.
         23    2    1    2    0    0 -0.26468206544E+03 -0.10423884895E+03 -0.10477558953E+04  0.10895069257E+04  0.91162445950E+02 0.  0.
        -11    1    3    3    0    0  0.10722206980E+03 -0.11111372456E+02 -0.21369834709E+03  0.23934706683E+03  0.00000000000E+00 0.  1.
         12    1    3    3    0    0  0.38808039396E+02  0.36393191974E+02 -0.20924650961E+03  0.21590421517E+03  0.00000000000E+00 0. -1.
        -13    1    4    4    0    0 -0.21783214760E+03 -0.44051832040E+02 -0.76208313045E+03  0.79382750403E+03  0.00000000000E+00 0.  1.
         13    1    4    4    0    0 -0.46849917842E+02 -0.60187016907E+02 -0.28567276489E+03  0.29567942168E+03  0.00000000000E+00 0. -1.
         -4    1    1    2    0  502  0.11865195625E+03  0.78957029429E+02 -0.19652094070E+03  0.24276115701E+03  0.00000000000E+00 0.  1.
<scales pt_clust_5="13000.00000" pt_clust_6="13000.00000" pt_clust_7="13000.00000" pt_clust_8="13000.00000" pt_clust_9="13000.00000"></scales>
<clustering>
<clus scale="   80.046">  5  6 -1 -1</clus>
<clus scale="   91.162">  7  8 -1 -1</clus>
<clus scale="  142.522">  7  9 -1 -1</clus>
<clus scale="  168.438">  2  5  1 -1</clus>
<clus scale="  476.144">  1  5  2 -1</clus>
</clustering>
</event>
<event>
 9    2  0.3897980E-005  0.5737036E+03  0.7546771E-02  0.1023428E+00
          2   -1    0    0  502    0 -0.00000000000E+00  0.00000000000E+00  0.27224250531E+04  0.27224250531E+04  0.00000000000E+00 0. -1.
         21   -1    0    0  501  502  0.00000000000E+00 -0.00000000000E+00 -0.69955692043E+02  0.69955692043E+02  0.00000000000E+00 0. -1.
         24    2    1    2    0    0  0.18142927140E+03  0.13823128942E+03  0.41858314474E+03  0.48600188378E+03  0.94665263329E+02 0.  0.
         23    2    1    2    0    0  0.40365616270E+02  0.85446550118E+02  0.17529245215E+03  0.22382441214E+03  0.10217351803E+03 0.  0.
        -13    1    3    3    0    0  0.54877385332E+02  0.15208912822E+02  0.18289527331E+03  0.19155552576E+03  0.00000000000E+00 0.  1.
         14    1    3    3    0    0  0.12655188607E+03  0.12302237660E+03  0.23568787143E+03  0.29444635802E+03  0.00000000000E+00 0. -1.
        -11    1    4    4    0    0  0.71243269851E+02  0.59204108492E+02  0.88850458114E+02  0.12835549801E+03  0.00000000000E+00 0.  1.
         11    1    4    4    0    0 -0.30877653581E+02  0.26242441626E+02  0.86441994038E+02  0.95468914136E+02  0.00000000000E+00 0. -1.
          1    1    1    2  501    0 -0.22179488767E+03 -0.22367783954E+03  0.20585937642E+04  0.20825544492E+04  0.00000000000E+00 0. -1.
<scales pt_clust_5="13000.00000" pt_clust_6="13000.00000" pt_clust_7="13000.00000" pt_clust_8="13000.00000" pt_clust_9="13000.00000"></scales>
<clustering>
<clus scale="   94.665">  5  6 -1 -1</clus>
<clus scale="  102.174">  7  8 -1 -1</clus>
<clus scale="  246.954">  1  5  2 -1</clus>
<clus scale="  112.680">  7  9 -1 -1</clus>
<clus scale="  573.704">  2  5  1 -1</clus>
</clustering>
</event>
<event>
 9    2  0.3897980E-005  0.2717398E+03  0.7546771E-02  0.1124540E+00
          2   -1    0    0  502    0 -0.00000000000E+00  0.00000000000E+00  0.34061338232E+03  0.34061338232E+03  0.00000000000E+00 0. -1.
         21   -1    0    0  501  502  0.00000000000E+00 -0.00000000000E+00 -0.14056252475E+03  0.14056252475E+03  0.00000000000E+00 0. -1.
         24    2    1    2    0    0 -0.12203628712E+03  0.18662055368E+02  0.13989861819E+03  0.20285810649E+03  0.79615703923E+02 0.  0.
         23    2    1    2    0    0 -0.35904299834E+02 -0.45794553261E+02  0.28326785361E+01  0.10812105120E+03  0.91081709414E+02 0.  0.
        -11    1    3    3    0    0 -0.25230937594E+02 -0.27394166587E+02  0.20956832565E+02  0.42734405414E+02  0.00000000000E+00 0.  1.
         12    1    3    3    0    0 -0.96805349524E+02  0.46056221955E+02  0.11894178563E+03  0.16012370107E+03  0.00000000000E+00 0. -1.
        -11    1    4    4    0    0  0.30419866847E+02 -0.12206389990E+02  0.75205575730E+01  0.33629199244E+02  0.00000000000E+00 0.  1.
         11    1    4    4    0    0 -0.66324166681E+02 -0.33588163270E+02 -0.46878790369E+01  0.74491851955E+02  0.00000000000E+00 0. -1.
          1    1    1    2  501    0  0.15794058695E+03  0.27132497893E+02  0.57319560845E+02  0.17019674939E+03  0.00000000000E+00 0. -1.
<scales pt_clust_5="13000.00000" pt_clust_6="13000.00000" pt_clust_7="13000.00000" pt_clust_8="13000.00000" pt_clust_9="13000.00000"></scales>
<clustering>
<clus scale="   79.616">  5  6 -1 -1</clus>
<clus scale="   91.082">  7  8 -1 -1</clus>
<clus scale="  146.901">  1  5  2 -1</clus>
<clus scale="   85.653">  7  9 -1 -1</clus>
<clus scale="  271.740">  2  5  1 -1</clus>
</clustering>
</event>
<event>
 9    2  0.3897980E-005  0.1782279E+03  0.7546771E-02  0.1195649E+00
         21   -1    0    0  501  502  0.00000000000E+00  0.00000000000E+00  0.62007204698E+02  0.62007204698E+02  0.00000000000E+00 0. -1.
          2   -1    0    0  502    0 -0.00000000000E+00 -0.00000000000E+00 -0.85524964009E+03  0.85524964009E+03  0.00000000000E+00 0. -1.
         24    2    1    2    0    0  0.24991460481E+01  0.38689110387E+02 -0.71625807828E+03  0.72311317047E+03  0.91454522101E+02 0.  0.
         23    2    1    2    0    0  0.89543282537E+01 -0.15188593769E+02 -0.11654242066E+03  0.14672746668E+03  0.87383867447E+02 0.  0.
        -11    1    3    3    0    0 -0.41788972505E+02  0.46660366473E+01 -0.24843178927E+03  0.25196516434E+03  0.00000000000E+00 0.  1.
         12    1    3    3    0    0  0.44288118553E+02  0.34023073739E+02 -0.46782628901E+03  0.47114800613E+03  0.00000000000E+00 0. -1.
        -13    1    4    4    0    0  0.26523834540E+02  0.57280240185E+01 -0.11628568785E+03  0.11940973686E+03  0.00000000000E+00 0. -1.
         13    1    4    4    0    0 -0.17569506286E+02 -0.20916617787E+02 -0.25673280883E+00  0.27317729820E+02  0.00000000000E+00 0.  1.
          1    1    1    2  501    0 -0.11453474302E+02 -0.23500516618E+02  0.39558063549E+02  0.47416207637E+02  0.00000000000E+00 0. -1.
<scales pt_clust_5="13000.00000" pt_clust_6="13000.00000" pt_clust_7="13000.00000" pt_clust_8="13000.00000" pt_clust_9="13000.00000"></scales>
<clustering>
<clus scale="   87.384">  7  8 -1 -1</clus>
<clus scale="   26.143">  7  9 -1 -1</clus>
<clus scale="   91.455">  5  6 -1 -1</clus>
<clus scale="   99.333">  2  5  1 -1</clus>
<clus scale="  178.228">  1  5  2 -1</clus>
</clustering>
</event>
<event>
 9    2  0.3897980E-005  0.1160778E+04  0.7546771E-02  0.9834676E-01
         21   -1    0    0  501  502  0.00000000000E+00  0.00000000000E+00  0.80312332776E+03  0.80312332776E+03  0.00000000000E+00 0. -1.
          2   -1    0    0  502    0 -0.00000000000E+00 -0.00000000000E+00 -0.50236759106E+03  0.50236759106E+03  0.00000000000E+00 0. -1.
         24    2    1    2    0    0 -0.39203090320E+02  0.50551885033E+02  0.59267813370E+02  0.11985947294E+03  0.82226785059E+02 0.  0.
         23    2    1    2    0    0  0.14771241198E+03 -0.41776788361E+02  0.69584115986E+03  0.71841828387E+03  0.91463949930E+02 0.  0.
        -13    1    3    3    0    0  0.21828411456E+02  0.32555030385E+02  0.32140653071E+02  0.50688570012E+02  0.00000000000E+00 0.  1.
         14    1    3    3    0    0 -0.61031501776E+02  0.17996854649E+02  0.27127160299E+02  0.69170902930E+02  0.00000000000E+00 0. -1.
        -11    1    4    4    0    0  0.10308518145E+02 -0.38091118870E+02  0.20124856084E+03  0.20508091604E+03  0.00000000000E+00 0.  1.
         11    1    4    4    0    0  0.13740389384E+03 -0.36856694907E+01  0.49459259902E+03  0.51333736782E+03  0.00000000000E+00 0. -1.
          1    1    1    2  501    0 -0.10850932166E+03 -0.87750966722E+01 -0.45435323653E+03  0.46721316201E+03  0.00000000000E+00 0. -1.
<scales pt_clust_5="13000.00000" pt_clust_6="13000.00000" pt_clust_7="13000.00000" pt_clust_8="13000.00000" pt_clust_9="13000.00000"></scales>
<clustering>
<clus scale="   82.227">  5  6 -1 -1</clus>
<clus scale="   91.464">  7  8 -1 -1</clus>
<clus scale="  104.181">  2  5  1 -1</clus>
<clus scale="  152.278">  7  9 -1 -1</clus>
<clus scale=" 1160.778">  1  5  2 -1</clus>
</clustering>
</event>
<event>
 9    2  0.3897980E-005  0.4756237E+03  0.7546771E-02  0.1028677E+00
         21   -1    0    0  501  502  0.00000000000E+00  0.00000000000E+00  0.26202084823E+04  0.26202084823E+04  0.00000000000E+00 0.  1.
         -3   -1    0    0    0  501 -0.00000000000E+00 -0.00000000000E+00 -0.70680747421E+02  0.70680747421E+02  0.00000000000E+00 0.  1.
         24    2    1    2    0    0 -0.34858215274E+03 -0.93418931916E+02  0.13668234859E+04  0.14161315247E+04  0.83578941088E+02 0.  0.
         23    2    1    2    0    0  0.14282245213E+03 -0.51866115404E+02  0.23979563855E+03  0.29878565273E+03  0.93180315785E+02 0.  0.
        -13    1    3    3    0    0 -0.25216349879E+03 -0.98285655049E+02  0.91914488313E+03  0.95816168589E+03  0.00000000000E+00 0.  1.
         14    1    3    3    0    0 -0.96418653957E+02  0.48667231339E+01  0.44767860279E+03  0.45796983876E+03  0.00000000000E+00 0. -1.
        -11    1    4    4    0    0  0.12606150421E+03 -0.11217538187E+02  0.13451923546E+03  0.18469640147E+03  0.00000000000E+00 0.  1.
         11    1    4    4    0    0  0.16760947912E+02 -0.40648577217E+02  0.10527640309E+03  0.11408925126E+03  0.00000000000E+00 0. -1.
         -4    1    1    2    0  502  0.20575970062E+03  0.14528504732E+03  0.94290861041E+03  0.97597205234E+03  0.00000000000E+00 0.  1.
<scales pt_clust_5="13000.00000" pt_clust_6="13000.00000" pt_clust_7="13000.00000" pt_clust_8="13000.00000" pt_clust_9="13000.00000"></scales>
<clustering>
<clus scale="   83.579">  5  6 -1 -1</clus>
<clus scale="   93.180">  7  8 -1 -1</clus>
<clus scale="  251.883">  7  9 -1 -1</clus>
<clus scale="  370.435">  2  5  1 -1</clus>
<clus scale="  475.624">  1  5  2 -1</clus>
</clustering>
</event>
<event>
 9    2  0.3897980E-005  0.2094866E+03  0.7546771E-02  0.1174472E+00
         -1   -1    0    0    0  501 -0.00000000000E+00  0.00000000000E+00  0.14488200055E+03  0.14488200055E+03  0.00000000000E+00 0.  1.
         21   -1    0    0  501  502  0.00000000000E+00 -0.00000000000E+00 -0.16884336236E+03  0.16884336236E+03  0.00000000000E+00 0.  1.
         24    2    1    2    0    0  0.52309215653E+02 -0.22022798671E+02  0.18983335398E+02  0.99882270046E+02  0.79967763150E+02 0.  0.
         23    2    1    2    0    0  0.44243322385E+02  0.46436938237E+02 -0.25149936283E+02  0.11267443997E+03  0.89158001994E+02 0.  0.
        -13    1    3    3    0    0  0.12281041926E+02 -0.40024147878E+02  0.33537352783E+02  0.53642431300E+02  0.00000000000E+00 0.  1.
         14    1    3    3    0    0  0.40028173727E+02  0.18001349207E+02 -0.14554017385E+02  0.46239838746E+02  0.00000000000E+00 0. -1.
        -11    1    4    4    0    0  0.89953041064E+01  0.39290703829E+02  0.27585163085E+02  0.48842769431E+02  0.00000000000E+00 0. -1.
         11    1    4    4    0    0  0.35248018278E+02  0.71462344080E+01 -0.52735099367E+02  0.63831670541E+02  0.00000000000E+00 0.  1.
         -2    1    1    2    0  502 -0.96552538038E+02 -0.24414139566E+02 -0.17794760919E+02  0.10116865289E+03  0.00000000000E+00 0.  1.
<scales pt_clust_5="13000.00000" pt_clust_6="13000.00000" pt_clust_7="13000.00000" pt_clust_8="13000.00000" pt_clust_9="13000.00000"></scales>
<clustering>
<clus scale="   79.968">  5  6 -1 -1</clus>
<clus scale="   89.158">  7  8 -1 -1</clus>
<clus scale="   98.062">  1  5  2 -1</clus>
<clus scale="   79.258">  7  9 -1 -1</clus>
<clus scale="  209.487">  2  5  1 -1</clus>
</clustering>
</event>
<event>
 9    2  0.3897980E-005  0.2252409E+03  0.7546771E-02  0.1172971E+00
          2   -1    0    0  502    0 -0.00000000000E+00  0.00000000000E+00  0.84362624653E+03  0.84362624653E+03  0.00000000000E+00 0. -1.
         21   -1    0    0  501  502  0.00000000000E+00 -0.00000000000E+00 -0.28978745667E+02  0.28978745667E+02  0.00000000000E+00 0. -1.
         24    2    1    2    0    0 -0.33488834129E+01 -0.53691554257E+01  0.14918746209E+03  0.17005925601E+03  0.81383099360E+02 0.  0.
         23    2    1    2    0    0  0.66415068422E+02  0.22941159596E+02  0.16217728279E+03  0.19502268105E+03  0.82432499376E+02 0.  0.
        -11    1    3    3    0    0 -0.38904974482E+02  0.78612446811E+00  0.43418647061E+02  0.58304321828E+02  0.00000000000E+00 0.  1.
         12    1    3    3    0    0  0.35556091069E+02 -0.61552798938E+01  0.10576881503E+03  0.11175493419E+03  0.00000000000E+00 0. -1.
        -11    1    4    4    0    0 -0.16347530727E+02  0.13399389008E+02  0.57353346849E+02  0.61124395959E+02  0.00000000000E+00 0.  1.
         11    1    4    4    0    0  0.82762599149E+02  0.95417705876E+01  0.10482393594E+03  0.13389828509E+03  0.00000000000E+00 0. -1.
          1    1    1    2  501    0 -0.63066185009E+02 -0.17572004170E+02  0.50328275599E+03  0.50752305514E+03  0.00000000000E+00 0. -1.
<scales pt_clust_5="13000.00000" pt_clust_6="13000.00000" pt_clust_7="13000.00000" pt_clust_8="13000.00000" pt_clust_9="13000.00000"></scales>
<clustering>
<clus scale="   81.383">  5  6 -1 -1</clus>
<clus scale="   81.629">  1  5  2 -1</clus>
<clus scale="   82.432">  7  8 -1 -1</clus>
<clus scale="   68.989">  7  9 -1 -1</clus>
<clus scale="  225.241">  2  5  1 -1</clus>
</clustering>
</event>
<event>
 9    2  0.3897980E-005  0.2658871E+03  0.7546771E-02  0.1113014E+00
          2   -1    0    0  502    0 -0.00000000000E+00  0.00000000000E+00  0.15703590575E+04  0.15703590575E+04  0.00000000000E+00 0. -1.
         21   -1    0    0  501  502  0.00000000000E+00 -0.00000000000E+00 -0.45216645304E+02  0.45216645304E+02  0.00000000000E+00 0.  1.
         24    2    1    2    0    0 -0.92479801112E+02 -0.16953969525E+03  0.32689517906E+03  0.38818319664E+03  0.80805409362E+02 0.  0.
         23    2    1    2    0    0  0.10644907482E+02  0.26013702607E+02  0.29717295729E+03  0.31129670824E+03  0.88339386677E+02 0.  0.
        -11    1    3    3    0    0 -0.60902385464E+02 -0.16600764646E+03  0.28809132052E+03  0.33802995163E+03  0.00000000000E+00 0.  1.
         12    1    3    3    0    0 -0.31577415648E+02 -0.35320487877E+01  0.38803858541E+02  0.50153245012E+02  0.00000000000E+00 0. -1.
        -13    1    4    4    0    0 -0.36724423970E+02  0.11448072058E+02  0.18017369439E+03  0.18423436656E+03  0.00000000000E+00 0.  1.
         13    1    4    4    0    0  0.47369331452E+02  0.14565630549E+02  0.11699926290E+03  0.12706234168E+03  0.00000000000E+00 0. -1.
          1    1    1    2  501    0  0.81834893629E+02  0.14352599264E+03  0.90107427585E+03  0.91609579793E+03  0.00000000000E+00 0. -1.
<scales pt_clust_5="13000.00000" pt_clust_6="13000.00000" pt_clust_7="13000.00000" pt_clust_8="13000.00000" pt_clust_9="13000.00000"></scales>
<clustering>
<clus scale="   80.805">  5  6 -1 -1</clus>
<clus scale="   88.339">  7  8 -1 -1</clus>
<clus scale="  165.217">  7  9 -1 -1</clus>
<clus scale="  209.346">  1  5  2 -1</clus>
<clus scale="  265.887">  2  5  1 -1</clus>
</clustering>
</event>
<event>
 9    2  0.3897980E-005  0.2397270E+03  0.7546771E-02  0.1165031E+00
          2   -1    0    0  502    0 -0.00000000000E+00  0.00000000000E+00  0.10059358855E+03  0.10059358855E+03  0.00000000000E+00 0. -1.
         21   -1    0    0  501  502  0.00000000000E+00 -0.00000000000E+00 -0.35149305429E+03  0.35149305429E+03  0.00000000000E+00 0. -1.
         24    2    1    2    0    0  0.11676543816E+02 -0.13638144359E+02  0.26520478343E+02  0.85438483450E+02  0.79208951676E+02 0.  0.
         23    2    1    2    0    0  0.58188023436E+02  0.83302924690E+02 -0.20047731862E+03  0.24153058672E+03  0.88434414730E+02 0.  0.
        -11    1    3    3    0    0 -0.13843034484E+01  0.32851506183E+02  0.12189032672E+02  0.35067225040E+02  0.00000000000E+00 0.  1.
         12    1    3    3    0    0  0.13060847265E+02 -0.46489650542E+02  0.14331445670E+02  0.50371258410E+02  0.00000000000E+00 0. -1.
        -13    1    4    4    0    0 -0.13773803626E+02  0.50614135574E+02 -0.55224179282E+02  0.76165729587E+02  0.00000000000E+00 0.  1.
         13    1    4    4    0    0  0.71961827063E+02  0.32688789116E+02 -0.14525313933E+03  0.16536485713E+03  0.00000000000E+00 0. -1.
          1    1    1    2  501    0 -0.69864567253E+02 -0.69664780331E+02 -0.76942625475E+02  0.12511757267E+03  0.00000000000E+00 0. -1.
<scales pt_clust_5="13000.00000" pt_clust_6="13000.00000" pt_clust_7="13000.00000" pt_clust_8="13000.00000" pt_clust_9="13000.00000"></scales>
<clustering>
<clus scale="   79.209">  5  6 -1 -1</clus>
<clus scale="   81.218">  1  5  2 -1</clus>
<clus scale="   88.434">  7  8 -1 -1</clus>
<clus scale="   99.866">  7  9 -1 -1</clus>
<clus scale="  239.727">  2  5  1 -1</clus>
</clustering>
</event>
<event>
 9    2  0.3897980E-005  0.7260639E+03  0.7546771E-02  0.1000590E+00
          2   -1    0    0  502    0 -0.00000000000E+00  0.00000000000E+00  0.21311666396E+04  0.21311666396E+04  0.00000000000E+00 0. -1.
         21   -1    0    0  501  502  0.00000000000E+00 -0.00000000000E+00 -0.11296755426E+03  0.11296755426E+03  0.00000000000E+00 0. -1.
         24    2    1    2    0    0 -0.23092542917E+03  0.26332934840E+02  0.38567093516E+03  0.45742857402E+03  0.80491321274E+02 0.  0.
         23    2    1    2    0    0 -0.21372738427E+03 -0.74192040974E+02  0.33637348482E+03  0.41556611744E+03  0.91456125782E+02 0.  0.
        -11    1    3    3    0    0 -0.59415423581E+02  0.42562866512E+02  0.12988816448E+03  0.14903934191E+03  0.00000000000E+00 0.  1.
         12    1    3    3    0    0 -0.17151000559E+03 -0.16229931672E+02  0.25578277068E+03  0.30838923211E+03  0.00000000000E+00 0. -1.
        -13    1    4    4    0    0 -0.73640691583E+02 -0.19943052032E+02  0.47236657659E+02  0.89732817898E+02  0.00000000000E+00 0. -1.
         13    1    4    4    0    0 -0.14008669269E+03 -0.54248988941E+02  0.28913682716E+03  0.32583329954E+03  0.00000000000E+00 0.  1.
          1    1    1    2  501    0  0.44465281344E+03  0.47859106133E+02  0.12961546654E+04  0.13711395024E+04  0.00000000000E+00 0. -1.
<scales pt_clust_5="13000.00000" pt_clust_6="13000.00000" pt_clust_7="13000.00000" pt_clust_8="13000.00000" pt_clust_9="13000.00000"></scales>
<clustering>
<clus scale="   80.491">  5  6 -1 -1</clus>
<clus scale="   91.456">  7  8 -1 -1</clus>
<clus scale="  245.965">  1  5  2 -1</clus>
<clus scale="  273.212">  7  9 -1 -1</clus>
<clus scale="  726.064">  2  5  1 -1</clus>
</clustering>
</event>
<event>
 9    2  0.3897980E-005  0.1502503E+03  0.7546771E-02  0.1222020E+00
         21   -1    0    0  501  502  0.00000000000E+00  0.00000000000E+00  0.36383467969E+02  0.36383467969E+02  0.00000000000E+00 0. -1.
          2   -1    0    0  502    0 -0.00000000000E+00 -0.00000000000E+00 -0.72648649649E+03  0.72648649649E+03  0.00000000000E+00 0. -1.
         24    2    1    2    0    0 -0.18140379497E+02 -0.52677442611E+02 -0.54803561459E+03  0.55608912973E+03  0.76079557139E+02 0.  0.
         23    2    1    2    0    0  0.23261041653E+02 -0.47101118950E+01 -0.79164706459E+02  0.12147958503E+03  0.89033575789E+02 0.  0.
        -11    1    3    3    0    0 -0.99409179448E+01 -0.26455241144E+02 -0.51098733957E+02  0.58393340764E+02  0.00000000000E+00 0.  1.
         12    1    3    3    0    0 -0.81994615523E+01 -0.26222201467E+02 -0.49693688063E+03  0.49769578896E+03  0.00000000000E+00 0. -1.
        -13    1    4    4    0    0 -0.20089228131E+02 -0.33275604600E+02 -0.44342959765E+02  0.58967287788E+02  0.00000000000E+00 0.  1.
         13    1    4    4    0    0  0.43350269784E+02  0.28565492705E+02 -0.34821746695E+02  0.62512297243E+02  0.00000000000E+00 0. -1.
          1    1    1    2  501    0 -0.51206621555E+01  0.57387554506E+02 -0.62902707475E+02  0.85301249702E+02  0.00000000000E+00 0. -1.
<scales pt_clust_5="13000.00000" pt_clust_6="13000.00000" pt_clust_7="13000.00000" pt_clust_8="13000.00000" pt_clust_9="13000.00000"></scales>
<clustering>
<clus scale="   76.080">  5  6 -1 -1</clus>
<clus scale="   89.034">  7  8 -1 -1</clus>
<clus scale="   57.616">  7  9 -1 -1</clus>
<clus scale="   94.298">  2  5  1 -1</clus>
<clus scale="  150.250">  1  5  2 -1</clus>
</clustering>
</event>
<event>
 9    2  0.3897980E-005  0.1951633E+03  0.7546771E-02  0.1186029E+00
         21   -1    0    0  501  502  0.00000000000E+00  0.00000000000E+00  0.41026021436E+02  0.41026021436E+02  0.00000000000E+00 0. -1.
         -1   -1    0    0    0  501 -0.00000000000E+00 -0.00000000000E+00 -0.55793510859E+03  0.55793510859E+03  0.00000000000E+00 0.  1.
         24    2    1    2    0    0 -0.36030926336E+02 -0.31577592733E+02 -0.91168646879E+02  0.13061975375E+03  0.80339441619E+02 0.  0.
         23    2    1    2    0    0 -0.47253390588E+02  0.82882132369E+01 -0.24040841551E+03  0.26382577285E+03  0.97500024468E+02 0.  0.
        -13    1    3    3    0    0  0.13375717576E+02 -0.27741843587E+02 -0.49767493064E+01  0.31197559839E+02  0.00000000000E+00 0.  1.
         14    1    3    3    0    0 -0.49406643912E+02 -0.38357491462E+01 -0.86191897573E+02  0.99422193907E+02  0.00000000000E+00 0. -1.
        -13    1    4    4    0    0 -0.10601891695E+02  0.42354259562E+02 -0.18080966951E+03  0.18600650526E+03  0.00000000000E+00 0.  1.
         13    1    4    4    0    0 -0.36651498893E+02 -0.34066046326E+02 -0.59598745994E+02  0.77819267584E+02  0.00000000000E+00 0. -1.
         -2    1    1    2    0  502  0.83284316924E+02  0.23289379496E+02 -0.18533202477E+03  0.20451560343E+03  0.00000000000E+00 0.  1.
<scales pt_clust_5="13000.00000" pt_clust_6="13000.00000" pt_clust_7="13000.00000" pt_clust_8="13000.00000" pt_clust_9="13000.00000"></scales>
<clustering>
<clus scale="   80.339">  5  6 -1 -1</clus>
<clus scale="   93.540">  2  5  1 -1</clus>
<clus scale="   97.500">  7  8 -1 -1</clus>
<clus scale="   68.241">  7  9 -1 -1</clus>
<clus scale="  195.163">  1  5  2 -1</clus>
</clustering>
</event>
<event>
 9    2  0.3897980E-005  0.1904860E+03  0.7546771E-02  0.1186553E+00
         21   -1    0    0  501  502  0.00000000000E+00  0.00000000000E+00  0.15371739341E+03  0.15371739341E+03  0.00000000000E+00 0.  1.
          2   -1    0    0  502    0 -0.00000000000E+00 -0.00000000000E+00 -0.14039216083E+03  0.14039216083E+03  0.00000000000E+00 0. -1.
         24    2    1    2    0    0 -0.56534756464E+02 -0.18365215212E+02 -0.18035061066E+02  0.10105931517E+03  0.79713624532E+02 0.  0.
         23    2    1    2    0    0  0.52702464032E+02 -0.33332762389E+02  0.66549958368E+02  0.13039499304E+03  0.93195141974E+02 0.  0.
        -11    1    3    3    0    0  0.70063335374E+01 -0.29856192333E+02 -0.19729154260E+02  0.36465332277E+02  0.00000000000E+00 0.  1.
         12    1    3    3    0    0 -0.63541090002E+02  0.11490977120E+02  0.16940931947E+01  0.64593982890E+02  0.00000000000E+00 0. -1.
        -13    1    4    4    0    0  0.29468335170E+01 -0.56969573919E+02  0.34352703373E+02  0.66590723148E+02  0.00000000000E+00 0.  1.
         13    1    4    4    0    0  0.49755630515E+02  0.23636811530E+02  0.32197254995E+02  0.63804269892E+02  0.00000000000E+00 0. -1.
          1    1    1    2  501    0  0.38322924318E+01  0.51697977602E+02 -0.35189664721E+02  0.62655246042E+02  0.00000000000E+00 0. -1.
<scales pt_clust_5="13000.00000" pt_clust_6="13000.00000" pt_clust_7="13000.00000" pt_clust_8="13000.00000" pt_clust_9="13000.00000"></scales>
<clustering>
<clus scale="   79.714">  5  6 -1 -1</clus>
<clus scale="   93.195">  7  8 -1 -1</clus>
<clus scale="   51.840">  7  9 -1 -1</clus>
<clus scale="   99.437">  2  5  1 -1</clus>
<clus scale="  190.486">  1  5  2 -1</clus>
</clustering>
</event>
<event>
 9    2  0.3897980E-005  0.2718819E+03  0.7546771E-02  0.1147109E+00
         21   -1    0    0  501  502  0.00000000000E+00  0.00000000000E+00  0.32819806548E+03  0.32819806548E+03  0.00000000000E+00 0. -1.
          2   -1    0    0  502    0 -0.00000000000E+00 -0.00000000000E+00 -0.10952269498E+03  0.10952269498E+03  0.00000000000E+00 0. -1.
         24    2    1    2    0    0  0.21415064803E+02 -0.10713966285E+02 -0.60844699062E+01  0.84964839899E+02  0.81293352563E+02 0.  0.
         23    2    1    2    0    0  0.55282326895E+02  0.98392359074E+02  0.17196419448E+03  0.22485998363E+03  0.90846772448E+02 0.  0.
        -11    1    3    3    0    0  0.83366122058E-02  0.26408173332E+02 -0.26575707449E+02  0.37465449612E+02  0.00000000000E+00 0.  1.
         12    1    3    3    0    0  0.21406728190E+02 -0.37122139618E+02  0.20491237543E+02  0.47499390287E+02  0.00000000000E+00 0. -1.
        -13    1    4    4    0    0 -0.22978653397E+02  0.43253687995E+02  0.63382190797E+02  0.80101199412E+02  0.00000000000E+00 0.  1.
         13    1    4    4    0    0  0.78260980291E+02  0.55138671080E+02  0.10858200369E+03  0.14475878422E+03  0.00000000000E+00 0. -1.
          1    1    1    2  501    0 -0.76697391697E+02 -0.87678392789E+02  0.52795645925E+02  0.12789593693E+03  0.00000000000E+00 0. -1.
<scales pt_clust_5="13000.00000" pt_clust_6="13000.00000" pt_clust_7="13000.00000" pt_clust_8="13000.00000" pt_clust_9="13000.00000"></scales>
<clustering>
<clus scale="   81.293">  5  6 -1 -1</clus>
<clus scale="   84.747">  2  5  1 -1</clus>
<clus scale="   90.847">  7  8 -1 -1</clus>
<clus scale="  113.764">  7  9 -1 -1</clus>
<clus scale="  271.882">  1  5  2 -1</clus>
</clustering>
</event>
<event>
 9    2  0.3897980E-005  0.2424669E+03  0.7546771E-02  0.1163606E+00
          2   -1    0    0  502    0 -0.00000000000E+00  0.00000000000E+00  0.47908435513E+03  0.47908435513E+03  0.00000000000E+00 0. -1.
         21   -1    0    0  501  502  0.00000000000E+00 -0.00000000000E+00 -0.26909242658E+03  0.26909242658E+03  0.00000000000E+00 0. -1.
         24    2    1    2    0    0  0.24068000407E+02  0.38543434716E+00  0.41978239415E+03  0.42754888790E+03  0.77468547821E+02 0.  0.
         23    2    1    2    0    0 -0.69380457916E+01 -0.86256078215E+02 -0.44166974677E+02  0.13328237459E+03  0.91242655687E+02 0.  0.
        -11    1    3    3    0    0  0.31652384104E+02  0.20232672140E+02  0.96276423669E+02  0.10334594426E+03  0.00000000000E+00 0.  1.
         12    1    3    3    0    0 -0.75843836973E+01 -0.19847237792E+02  0.32350597048E+03  0.32420294363E+03  0.00000000000E+00 0. -1.
        -13    1    4    4    0    0  0.39749218287E+02 -0.43111990778E+02 -0.36935154568E+02  0.69302595523E+02  0.00000000000E+00 0.  1.
         13    1    4    4    0    0 -0.46687264078E+02 -0.43144087437E+02 -0.72318201088E+01  0.63979779071E+02  0.00000000000E+00 0. -1.
          1    1    1    2  501    0 -0.17129954615E+02  0.85870643868E+02 -0.16562349092E+03  0.18734551921E+03  0.00000000000E+00 0. -1.
<scales pt_clust_5="13000.00000" pt_clust_6="13000.00000" pt_clust_7="13000.00000" pt_clust_8="13000.00000" pt_clust_9="13000.00000"></scales>
<clustering>
<clus scale="   77.469">  5  6 -1 -1</clus>
<clus scale="   81.122">  1  5  2 -1</clus>
<clus scale="   91.243">  7  8 -1 -1</clus>
<clus scale="   86.838">  7  9 -1 -1</clus>
<clus scale="  242.467">  2  5  1 -1</clus>
</clustering>
</event>
<event>
 9    2  0.3897980E-005  0.2153162E+03  0.7546771E-02  0.1161453E+00
          2   -1    0    0  502    0 -0.00000000000E+00  0.00000000000E+00  0.13522666666E+03  0.13522666666E+03  0.00000000000E+00 0. -1.
         21   -1    0    0  501  502  0.00000000000E+00 -0.00000000000E+00 -0.21908432729E+03  0.21908432729E+03  0.00000000000E+00 0. -1.
         24    2    1    2    0    0 -0.71391893137E+01  0.89010529127E+02  0.38151961992E+01  0.12182957819E+03  0.82789178520E+02 0.  0.
         23    2    1    2    0    0 -0.65341960232E+02 -0.52875864952E+02 -0.89056710842E+02  0.15148051425E+03  0.89161760804E+02 0.  0.
        -13    1    3    3    0    0 -0.22594113555E+02  0.30556485344E+02 -0.33600331309E+02  0.50726472655E+02  0.00000000000E+00 0.  1.
         14    1    3    3    0    0  0.15454924241E+02  0.58454043782E+02  0.37415527508E+02  0.71103105533E+02  0.00000000000E+00 0. -1.
        -13    1    4    4    0    0 -0.56622336952E+01 -0.30547006239E+02 -0.81614158625E+02  0.87327265895E+02  0.00000000000E+00 0. -1.
         13    1    4    4    0    0 -0.59679726536E+02 -0.22328858713E+02 -0.74425522174E+01  0.64153248354E+02  0.00000000000E+00 0.  1.
          1    1    1    2  501    0  0.72481149545E+02 -0.36134664175E+02  0.13838540193E+01  0.81000901516E+02  0.00000000000E+00 0. -1.
<scales pt_clust_5="13000.00000" pt_clust_6="13000.00000" pt_clust_7="13000.00000" pt_clust_8="13000.00000" pt_clust_9="13000.00000"></scales>
<clustering>
<clus scale="   82.789">  5  6 -1 -1</clus>
<clus scale="   89.162">  7  8 -1 -1</clus>
<clus scale="   80.989">  7  9 -1 -1</clus>
<clus scale="  121.770">  1  5  2 -1</clus>
<clus scale="  215.316">  2  5  1 -1</clus>
</clustering>
</event>
<event>
 9    2  0.3897980E-005  0.4706764E+03  0.7546771E-02  0.1066223E+00
         21   -1    0    0  501  502  0.00000000000E+00  0.00000000000E+00  0.11790865145E+03  0.11790865145E+03  0.00000000000E+00 0. -1.
          2   -1    0    0  502    0 -0.00000000000E+00 -0.00000000000E+00 -0.78717624289E+03  0.78717624289E+03  0.00000000000E+00 0. -1.
         24    2    1    2    0    0  0.77618751248E+02 -0.66474226100E+02 -0.21244252863E+03  0.24916918242E+03  0.80684324500E+02 0.  0.
         23    2    1    2    0    0 -0.21109521961E+03 -0.22072614984E+02 -0.43718767115E+03  0.49453994600E+03  0.91587697385E+02 0.  0.
        -11    1    3    3    0    0  0.45021735195E+02 -0.25692146739E+01 -0.14054802927E+03  0.14760523715E+03  0.00000000000E+00 0.  1.
         12    1    3    3    0    0  0.32597016052E+02 -0.63905011426E+02 -0.71894499356E+02  0.10156394527E+03  0.00000000000E+00 0. -1.
        -11    1    4    4    0    0 -0.22125166807E+02  0.27933926758E+02 -0.71360308618E+02  0.79762904388E+02  0.00000000000E+00 0.  1.
         11    1    4    4    0    0 -0.18897005280E+03 -0.50006541742E+02 -0.36582736253E+03  0.41477704161E+03  0.00000000000E+00 0. -1.
          1    1    1    2  501    0  0.13347646836E+03  0.88546841084E+02 -0.19637391669E+02  0.16137576591E+03  0.00000000000E+00 0. -1.
<scales pt_clust_5="13000.00000" pt_clust_6="13000.00000" pt_clust_7="13000.00000" pt_clust_8="13000.00000" pt_clust_9="13000.00000"></scales>
<clustering>
<clus scale="   80.684">  5  6 -1 -1</clus>
<clus scale="   91.588">  7  8 -1 -1</clus>
<clus scale="  130.205">  2  5  1 -1</clus>
<clus scale="  165.495">  7  9 -1 -1</clus>
<clus scale="  470.676">  1  5  2 -1</clus>
</clustering>
</event>
<event>
 9    2  0.3897980E-005  0.1901915E+03  0.7546771E-02  0.1187638E+00
         -1   -1    0    0    0  501 -0.00000000000E+00  0.00000000000E+00  0.61287582275E+03  0.61287582275E+03  0.00000000000E+00 0.  1.
         21   -1    0    0  501  502  0.00000000000E+00 -0.00000000000E+00 -0.34072183987E+02  0.34072183987E+02  0.00000000000E+00 0.  1.
         24    2    1    2    0    0 -0.38598589625E+02  0.42155845441E+02  0.22604110111E+03  0.24618095997E+03  0.79015942917E+02 0.  0.
         23    2    1    2    0    0  0.42919210020E+02  0.19542510262E+02  0.11205113253E+03  0.15223669567E+03  0.91632892090E+02 0.  0.
        -13    1    3    3    0    0 -0.42449914546E+02  0.56777885798E+02  0.21761456002E+03  0.22887075019E+03  0.00000000000E+00 0.  1.
         14    1    3    3    0    0  0.38513249210E+01 -0.14622040357E+02  0.84265410916E+01  0.17310209780E+02  0.00000000000E+00 0. -1.
        -13    1    4    4    0    0 -0.30523198477E+01 -0.32643248300E+02  0.27767957919E+02  0.42964611054E+02  0.00000000000E+00 0.  1.
         13    1    4    4    0    0  0.45971529867E+02  0.52185758561E+02  0.84283174607E+02  0.10927208462E+03  0.00000000000E+00 0. -1.
         -2    1    1    2    0  502 -0.43206203943E+01 -0.61698355703E+02  0.24071140512E+03  0.24853035109E+03  0.00000000000E+00 0.  1.
<scales pt_clust_5="13000.00000" pt_clust_6="13000.00000" pt_clust_7="13000.00000" pt_clust_8="13000.00000" pt_clust_9="13000.00000"></scales>
<clustering>
<clus scale="   79.016">  5  6 -1 -1</clus>
<clus scale="   91.633">  7  8 -1 -1</clus>
<clus scale="   61.849">  7  9 -1 -1</clus>
<clus scale="   97.522">  1  5  2 -1</clus>
<clus scale="  190.192">  2  5  1 -1</clus>
</clustering>
</event>
<event>
 9    2  0.3897980E-005  0.2248591E+03  0.7546771E-02  0.1156316E+00
          2   -1    0    0  502    0 -0.00000000000E+00  0.00000000000E+00  0.18191839236E+03  0.18191839236E+03  0.00000000000E+00 0. -1.
         21   -1    0    0  501  502  0.00000000000E+00 -0.00000000000E+00 -0.18804487262E+03  0.18804487262E+03  0.00000000000E+00 0.  1.
         24    2    1    2    0    0 -0.14589841217E+01 -0.90462932378E+02 -0.65808421421E+02  0.13731854468E+03  0.79623888470E+02 0.  0.
         23    2    1    2    0    0 -0.13738074667E+02  0.70147449532E+02 -0.45042516466E+02  0.12489092006E+03  0.91975617704E+02 0.  0.
        -11    1    3    3    0    0  0.62287964483E+01 -0.64020855026E+02 -0.82885264133E+02  0.10491632282E+03  0.00000000000E+00 0.  1.
         12    1    3    3    0    0 -0.76877805700E+01 -0.26442077352E+02  0.17076842712E+02  0.32402221865E+02  0.00000000000E+00 0. -1.
        -11    1    4    4    0    0 -0.43821247023E+02  0.35145465530E+02  0.55044089962E+01  0.56442926540E+02  0.00000000000E+00 0.  1.
         11    1    4    4    0    0  0.30083172356E+02  0.35001984002E+02 -0.50546925462E+02  0.68447993519E+02  0.00000000000E+00 0. -1.
          1    1    1    2  501    0  0.15197058789E+02  0.20315482845E+02  0.10472445763E+03  0.10775380024E+03  0.00000000000E+00 0. -1.
<scales pt_clust_5="13000.00000" pt_clust_6="13000.00000" pt_clust_7="13000.00000" pt_clust_8="13000.00000" pt_clust_9="13000.00000"></scales>
<clustering>
<clus scale="   79.624">  5  6 -1 -1</clus>
<clus scale="   91.976">  7  8 -1 -1</clus>
<clus scale="   25.371">  7  9 -1 -1</clus>
<clus scale="  120.522">  1  5  2 -1</clus>
<clus scale="  224.859">  2  5  1 -1</clus>
</clustering>
</event>
<event>
 9    2  0.3897980E-005  0.2014333E+03  0.7546771E-02  0.1169101E+00
          2   -1    0    0  502    0 -0.00000000000E+00  0.00000000000E+00  0.63750000553E+03  0.63750000553E+03  0.00000000000E+00 0. -1.
         21   -1    0    0  501  502  0.00000000000E+00 -0.00000000000E+00 -0.42025848981E+02  0.42025848981E+02  0.00000000000E+00 0. -1.
         24    2    1    2    0    0  0.51894027749E+02 -0.86606761183E+02  0.19926922418E+03  0.23505567674E+03  0.73138404860E+02 0.  0.
         23    2    1    2    0    0  0.30037873777E+02  0.45114941000E+02  0.17585350211E+03  0.20574615206E+03  0.92029305784E+02 0.  0.
        -13    1    3    3    0    0  0.43018639758E+02 -0.55541709034E+02  0.18823120828E+03  0.20091409254E+03  0.00000000000E+00 0.  1.
         14    1    3    3    0    0  0.88753879908E+01 -0.31065052150E+02  0.11038015897E+02  0.34141584204E+02  0.00000000000E+00 0. -1.
        -13    1    4    4    0    0  0.39207758654E+02  0.10071359598E+02  0.18915494884E+02  0.44681949034E+02  0.00000000000E+00 0. -1.
         13    1    4    4    0    0 -0.91698848766E+01  0.35043581402E+02  0.15693800722E+03  0.16106420303E+03  0.00000000000E+00 0.  1.
          1    1    1    2  501    0 -0.81931901526E+02  0.41491820183E+02  0.22035143026E+03  0.23872402570E+03  0.00000000000E+00 0. -1.
<scales pt_clust_5="13000.00000" pt_clust_6="13000.00000" pt_clust_7="13000.00000" pt_clust_8="13000.00000" pt_clust_9="13000.00000"></scales>
<clustering>
<clus scale="   73.138">  5  6 -1 -1</clus>
<clus scale="   92.029">  7  8 -1 -1</clus>
<clus scale="   91.839">  7  9 -1 -1</clus>
<clus scale="  124.671">  1  5  2 -1</clus>
<clus scale="  201.433">  2  5  1 -1</clus>
</clustering>
</event>
<event>
 9    2  0.3897980E-005  0.1870087E+03  0.7546771E-02  0.1196492E+00
          2   -1    0    0  502    0 -0.00000000000E+00  0.00000000000E+00  0.60696890478E+03  0.60696890478E+03  0.00000000000E+00 0. -1.
         21   -1    0    0  501  502  0.00000000000E+00 -0.00000000000E+00 -0.30704736426E+02  0.30704736426E+02  0.00000000000E+00 0. -1.
         24    2    1    2    0    0  0.59916026978E+01  0.16483653447E+02  0.14848871131E+03  0.17080740829E+03  0.82575197286E+02 0.  0.
         23    2    1    2    0    0  0.55840463139E+02 -0.47591284185E+02  0.21252310643E+03  0.24075903820E+03  0.86114784188E+02 0.  0.
        -11    1    3    3    0    0 -0.21905061251E+02 -0.24722015325E+02  0.76164631758E+02  0.83018436995E+02  0.00000000000E+00 0.  1.
         12    1    3    3    0    0  0.27896663949E+02  0.41205668771E+02  0.72324079554E+02  0.87788971299E+02  0.00000000000E+00 0. -1.
        -11    1    4    4    0    0  0.25251273468E+02 -0.69507023016E+02  0.15872055873E+03  0.17510302346E+03  0.00000000000E+00 0. -1.
         11    1    4    4    0    0  0.30589189672E+02  0.21915738831E+02  0.53802547701E+02  0.65656014747E+02  0.00000000000E+00 0.  1.
          1    1    1    2  501    0 -0.61832065837E+02  0.31107630738E+02  0.21525235061E+03  0.22610719471E+03  0.00000000000E+00 0. -1.
<scales pt_clust_5="13000.00000" pt_clust_6="13000.00000" pt_clust_7="13000.00000" pt_clust_8="13000.00000" pt_clust_9="13000.00000"></scales>
<clustering>
<clus scale="   82.575">  5  6 -1 -1</clus>
<clus scale="   84.417">  1  5  2 -1</clus>
<clus scale="   86.115">  7  8 -1 -1</clus>
<clus scale="   70.754">  7  9 -1 -1</clus>
<clus scale="  187.009">  2  5  1 -1</clus>
</clustering>
</event>
<event>
 9    2  0.3897980E-005  0.7070014E+03  0.7546771E-02  0.9989408E-01
          2   -1    0    0  502    0 -0.00000000000E+00  0.00000000000E+00  0.98504959997E+03  0.98504959997E+03  0.00000000000E+00 0. -1.
         21   -1    0    0  501  502  0.00000000000E+00 -0.00000000000E+00 -0.34244712552E+03  0.34244712552E+03  0.00000000000E+00 0. -1.
         24    2    1    2    0    0 -0.10602211384E+03  0.25052445384E+03  0.54604429080E+03  0.61393205986E+03  0.68884076624E+02 0.  0.
         23    2    1    2    0    0  0.25242673734E+03 -0.19233888841E+02 -0.17990757435E+03  0.32451074317E+03  0.94081278256E+02 0.  0.
        -13    1    3    3    0    0 -0.39016095690E+02  0.44996455429E+02  0.17064314410E+03  0.18073743207E+03  0.00000000000E+00 0.  1.
         14    1    3    3    0    0 -0.67006018150E+02  0.20552799841E+03  0.37540114670E+03  0.43319462779E+03  0.00000000000E+00 0. -1.
        -13    1    4    4    0    0  0.19978871141E+03 -0.15872166807E+02 -0.88741680068E+02  0.21918608684E+03  0.00000000000E+00 0. -1.
         13    1    4    4    0    0  0.52638025933E+02 -0.33617220338E+01 -0.91165894284E+02  0.10532465632E+03  0.00000000000E+00 0.  1.
          1    1    1    2  501    0 -0.14640462350E+03 -0.23129056500E+03  0.27646575800E+03  0.38905392247E+03  0.00000000000E+00 0. -1.
<scales pt_clust_5="13000.00000" pt_clust_6="13000.00000" pt_clust_7="13000.00000" pt_clust_8="13000.00000" pt_clust_9="13000.00000"></scales>
<clustering>
<clus scale="   68.884">  5  6 -1 -1</clus>
<clus scale="   94.081">  7  8 -1 -1</clus>
<clus scale="  273.733">  7  9 -1 -1</clus>
<clus scale="  280.621">  1  5  2 -1</clus>
<clus scale="  707.001">  2  5  1 -1</clus>
</clustering>
</event>
<event>
 9    2  0.3897980E-005  0.3715821E+03  0.7546771E-02  0.1107433E+00
          2   -1    0    0  502    0 -0.00000000000E+00  0.00000000000E+00  0.33429495649E+03  0.33429495649E+03  0.00000000000E+00 0. -1.
         21   -1    0    0  501  502  0.00000000000E+00 -0.00000000000E+00 -0.17719797573E+03  0.17719797573E+03  0.00000000000E+00 0.  1.
         24    2    1    2    0    0  0.16517724600E+02  0.29052154506E+02 -0.32676092020E+02  0.94255537007E+02  0.81850573361E+02 0.  0.
         23    2    1    2    0    0 -0.29752640848E+02  0.68486441626E+02  0.26711281473E+03  0.29205602108E+03  0.91497821461E+02 0.  0.
        -13    1    3    3    0    0  0.13436583411E+02  0.47956706034E+02 -0.48420059035E+02  0.69461424866E+02  0.00000000000E+00 0.  1.
         14    1    3    3    0    0  0.30811411882E+01 -0.18904551528E+02  0.15743967016E+02  0.24794112142E+02  0.00000000000E+00 0. -1.
        -11    1    4    4    0    0 -0.39811261929E+02  0.19799291239E+02  0.21684378446E+03  0.22135531475E+03  0.00000000000E+00 0. -1.
         11    1    4    4    0    0  0.10058621081E+02  0.48687150387E+02  0.50269030265E+02  0.70700706324E+02  0.00000000000E+00 0.  1.
          1    1    1    2  501    0  0.13234916249E+02 -0.97538596132E+02 -0.77339741951E+02  0.12518137413E+03  0.00000000000E+00 0. -1.
<scales pt_clust_5="13000.00000" pt_clust_6="13000.00000" pt_clust_7="13000.00000" pt_clust_8="13000.00000" pt_clust_9="13000.00000"></scales>
<clustering>
<clus scale="   81.851">  5  6 -1 -1</clus>
<clus scale="   88.410">  1  5  2 -1</clus>
<clus scale="   91.498">  7  8 -1 -1</clus>
<clus scale="   96.352">  7  9 -1 -1</clus>
<clus scale="  371.582">  2  5  1 -1</clus>
</clustering>
</event>
<event>
 9    2  0.3897980E-005  0.3396085E+03  0.7546771E-02  0.1122398E+00
         21   -1    0    0  501  502  0.00000000000E+00  0.00000000000E+00  0.37655136147E+02  0.37655136147E+02  0.00000000000E+00 0. -1.
         -3   -1    0    0    0  501 -0.00000000000E+00 -0.00000000000E+00 -0.12332230846E+04  0.12332230846E+04  0.00000000000E+00 0.  1.
         24    2    1    2    0    0 -0.18580530889E+01  0.53755816638E-01 -0.12816997947E+03  0.15075663334E+03  0.79350889138E+02 0.  0.
         23    2    1    2    0    0  0.15352710408E+03 -0.23846889252E+02 -0.47559289406E+03  0.50872739302E+03  0.92063639475E+02 0.  0.
        -13    1    3    3    0    0  0.12220107345E+02  0.36564219902E+02 -0.48157334118E+02  0.61687940717E+02  0.00000000000E+00 0.  1.
         14    1    3    3    0    0 -0.14078160434E+02 -0.36510464085E+02 -0.80012645357E+02  0.89068692625E+02  0.00000000000E+00 0. -1.
        -11    1    4    4    0    0  0.13201156619E+03 -0.47680298156E+02 -0.31351674736E+03  0.34350140511E+03  0.00000000000E+00 0. -1.
         11    1    4    4    0    0  0.21515537898E+02  0.23833408904E+02 -0.16207614669E+03  0.16522598790E+03  0.00000000000E+00 0.  1.
         -4    1    1    2    0  502 -0.15166905100E+03  0.23793133436E+02 -0.59180507495E+03  0.61139419442E+03  0.00000000000E+00 0.  1.
<scales pt_clust_5="13000.00000" pt_clust_6="13000.00000" pt_clust_7="13000.00000" pt_clust_8="13000.00000" pt_clust_9="13000.00000"></scales>
<clustering>
<clus scale="   79.351">  5  6 -1 -1</clus>
<clus scale="   79.373">  2  5  1 -1</clus>
<clus scale="   92.064">  7  8 -1 -1</clus>
<clus scale="  154.538">  7  9 -1 -1</clus>
<clus scale="  339.609">  1  5  2 -1</clus>
</clustering>
</event>
<event>
 9    2  0.3897980E-005  0.2425647E+03  0.7546771E-02  0.1158170E+00
         21   -1    0    0  501  502  0.00000000000E+00  0.00000000000E+00  0.35897427425E+02  0.35897427425E+02  0.00000000000E+00 0. -1.
          2   -1    0    0  502    0 -0.00000000000E+00 -0.00000000000E+00 -0.99719410843E+03  0.99719410843E+03  0.00000000000E+00 0. -1.
         24    2    1    2    0    0 -0.47479199134E+02 -0.72022048731E+01 -0.53304911234E+03  0.54091921717E+03  0.78397048620E+02 0.  0.
         23    2    1    2    0    0  0.41508701555E+02 -0.96712633558E+02 -0.18659012844E+03  0.22905208210E+03  0.81072032698E+02 0.  0.
        -11    1    3    3    0    0 -0.41866337357E+02  0.23490291377E+02 -0.17350504402E+03  0.18002384368E+03  0.00000000000E+00 0.  1.
         12    1    3    3    0    0 -0.56128617772E+01 -0.30692496250E+02 -0.35954406831E+03  0.36089537348E+03  0.00000000000E+00 0. -1.
        -13    1    4    4    0    0  0.46757986027E+02 -0.15596915028E+02 -0.91686397031E+02  0.10409595773E+03  0.00000000000E+00 0.  1.
         13    1    4    4    0    0 -0.52492844716E+01 -0.81115718531E+02 -0.94903731412E+02  0.12495612436E+03  0.00000000000E+00 0. -1.
          1    1    1    2  501    0  0.59704975792E+01  0.10391483843E+03 -0.24165744023E+03  0.26312023659E+03  0.00000000000E+00 0. -1.
<scales pt_clust_5="13000.00000" pt_clust_6="13000.00000" pt_clust_7="13000.00000" pt_clust_8="13000.00000" pt_clust_9="13000.00000"></scales>
<clustering>
<clus scale="   78.397">  5  6 -1 -1</clus>
<clus scale="   81.072">  7  8 -1 -1</clus>
<clus scale="   91.936">  2  5  1 -1</clus>
<clus scale="  101.959">  7  9 -1 -1</clus>
<clus scale="  242.565">  1  5  2 -1</clus>
</clustering>
</event>
<event>
 9    2  0.3897980E-005  0.5720709E+03  0.7546771E-02  0.1038754E+00
         21   -1    0    0  501  502  0.00000000000E+00  0.00000000000E+00  0.13172075034E+04  0.13172075034E+04  0.00000000000E+00 0. -1.
          2   -1    0    0  502    0 -0.00000000000E+00 -0.00000000000E+00 -0.12491557233E+03  0.12491557233E+03  0.00000000000E+00 0. -1.
         24    2    1    2    0    0  0.12885657899E+03 -0.56427878007E+02  0.59249800774E+03  0.61325767686E+03  0.72408326121E+02 0.  0.
         23    2    1    2    0    0  0.16148972790E+03  0.17467277790E+03  0.22366417591E+03  0.33921611504E+03  0.91936921601E+02 0.  0.
        -11    1    3    3    0    0  0.88613092315E+02 -0.99741637692E+01  0.25333969931E+03  0.26857544065E+03  0.00000000000E+00 0.  1.
         12    1    3    3    0    0  0.40243486675E+02 -0.46453714238E+02  0.33915830843E+03  0.34468223622E+03  0.00000000000E+00 0. -1.
        -13    1    4    4    0    0  0.15946451575E+03  0.13363346548E+03  0.21074831856E+03  0.29614470898E+03  0.00000000000E+00 0. -1.
         13    1    4    4    0    0  0.20252121509E+01  0.41039312426E+02  0.12915857357E+02  0.43071406059E+02  0.00000000000E+00 0.  1.
          1    1    1    2  501    0 -0.29034630689E+03 -0.11824489990E+03  0.37612974746E+03  0.48964928388E+03  0.00000000000E+00 0. -1.
<scales pt_clust_5="13000.00000" pt_clust_6="13000.00000" pt_clust_7="13000.00000" pt_clust_8="13000.00000" pt_clust_9="13000.00000"></scales>
<clustering>
<clus scale="   72.408">  5  6 -1 -1</clus>
<clus scale="   91.937">  7  8 -1 -1</clus>
<clus scale="  158.212">  2  5  1 -1</clus>
<clus scale="  269.582">  7  9 -1 -1</clus>
<clus scale="  572.071">  1  5  2 -1</clus>
</clustering>
</event>
<event>
 9    2  0.3897980E-005  0.1583084E+03  0.7546771E-02  0.1215462E+00
          2   -1    0    0  502    0 -0.00000000000E+00  0.00000000000E+00  0.24690512723E+03  0.24690512723E+03  0.00000000000E+00 0. -1.
         21   -1    0    0  501  502  0.00000000000E+00 -0.00000000000E+00 -0.81341247946E+02  0.81341247946E+02  0.00000000000E+00 0.  1.
         24    2    1    2    0    0  0.23907528068E+02  0.40107677209E+02  0.14009217509E+03  0.16790188579E+03  0.79906383106E+02 0.  0.
         23    2    1    2    0    0 -0.49765200417E+02 -0.41706865762E+02  0.52076306246E+02  0.12320984958E+03  0.90844303826E+02 0.  0.
        -13    1    3    3    0    0  0.91881802663E+01  0.57512810514E+02  0.13099466628E+03  0.14335881077E+03  0.00000000000E+00 0.  1.
         14    1    3    3    0    0  0.14719347802E+02 -0.17405133305E+02  0.90975088058E+01  0.24543075023E+02  0.00000000000E+00 0. -1.
        -13    1    4    4    0    0  0.54271923453E+00 -0.53421182999E+02  0.47267782593E+02  0.71332745695E+02  0.00000000000E+00 0. -1.
         13    1    4    4    0    0 -0.50307919652E+02  0.11714317236E+02  0.48085236527E+01  0.51877103887E+02  0.00000000000E+00 0.  1.
          1    1    1    2  501    0  0.25857672349E+02  0.15991885534E+01 -0.26604602049E+02  0.37134639806E+02  0.00000000000E+00 0. -1.
<scales pt_clust_5="13000.00000" pt_clust_6="13000.00000" pt_clust_7="13000.00000" pt_clust_8="13000.00000" pt_clust_9="13000.00000"></scales>
<clustering>
<clus scale="   79.906">  5  6 -1 -1</clus>
<clus scale="   90.844">  7  8 -1 -1</clus>
<clus scale="   25.907">  7  9 -1 -1</clus>
<clus scale="   92.549">  1  5  2 -1</clus>
<clus scale="  158.308">  2  5  1 -1</clus>
</clustering>
</event>
<event>
 9    2  0.3897980E-005  0.2824086E+03  0.7546771E-02  0.1119120E+00
          2   -1    0    0  502    0 -0.00000000000E+00  0.00000000000E+00  0.51675738302E+03  0.51675738302E+03  0.00000000000E+00 0. -1.
         21   -1    0    0  501  502  0.00000000000E+00 -0.00000000000E+00 -0.93035952347E+02  0.93035952347E+02  0.00000000000E+00 0. -1.
         24    2    1    2    0    0  0.10542686230E+03  0.70747390905E+02  0.19786757721E+03  0.24817948191E+03  0.79507612956E+02 0.  0.
         23    2    1    2    0    0  0.49896864543E+02  0.49004450681E+00  0.11050447949E+03  0.15544472289E+03  0.97272219314E+02 0.  0.
        -11    1    3    3    0    0  0.10050118389E+03  0.83040051806E+02  0.19510253027E+03  0.23465109308E+03  0.00000000000E+00 0.  1.
         12    1    3    3    0    0  0.49256784071E+01 -0.12292660902E+02  0.27650469439E+01  0.13528388833E+02  0.00000000000E+00 0. -1.
        -11    1    4    4    0    0 -0.88129245071E+01  0.20327429884E+02  0.85995174803E+02  0.88803390327E+02  0.00000000000E+00 0. -1.
         11    1    4    4    0    0  0.58709789050E+02 -0.19837385377E+02  0.24509304690E+02  0.66641332560E+02  0.00000000000E+00 0.  1.
          1    1    1    2  501    0 -0.15532372684E+03 -0.71237435411E+02  0.11534937397E+03  0.20616913057E+03  0.00000000000E+00 0. -1.
<scales pt_clust_5="13000.00000" pt_clust_6="13000.00000" pt_clust_7="13000.00000" pt_clust_8="13000.00000" pt_clust_9="13000.00000"></scales>
<clustering>
<clus scale="   79.508">  5  6 -1 -1</clus>
<clus scale="   97.272">  7  8 -1 -1</clus>
<clus scale="  149.805">  1  5  2 -1</clus>
<clus scale="  102.897">  7  9 -1 -1</clus>
<clus scale="  282.409">  2  5  1 -1</clus>
</clustering>
</event>
<event>
 9    2  0.3897980E-005  0.4312635E+03  0.7546771E-02  0.1082809E+00
          2   -1    0    0  502    0 -0.00000000000E+00  0.00000000000E+00  0.11308734520E+04  0.11308734520E+04  0.00000000000E+00 0. -1.
         21   -1    0    0  501  502  0.00000000000E+00 -0.00000000000E+00 -0.77994038061E+02  0.77994038061E+02  0.00000000000E+00 0.  1.
         24    2    1    2    0    0 -0.33610544655E+02  0.63130107144E+02  0.53313040537E+02  0.12023479999E+03  0.80616671335E+02 0.  0.
         23    2    1    2    0    0 -0.14947762778E+02  0.16930131031E+03  0.44078252072E+03  0.48149047686E+03  0.93045577269E+02 0.  0.
        -11    1    3    3    0    0 -0.10108325191E+01  0.29986843605E+02 -0.18087066322E+02  0.35033905576E+02  0.00000000000E+00 0.  1.
         12    1    3    3    0    0 -0.32599712136E+02  0.33143263539E+02  0.71400106859E+02  0.85200894413E+02  0.00000000000E+00 0. -1.
        -11    1    4    4    0    0 -0.42379308890E+02  0.14322724338E+03  0.29219031409E+03  0.32815427578E+03  0.00000000000E+00 0.  1.
         11    1    4    4    0    0  0.27431546112E+02  0.26074066929E+02  0.14859220664E+03  0.15333620108E+03  0.00000000000E+00 0. -1.
          1    1    1    2  501    0  0.48558307433E+02 -0.23243141746E+03  0.55878385266E+03  0.60714221319E+03  0.00000000000E+00 0. -1.
<scales pt_clust_5="13000.00000" pt_clust_6="13000.00000" pt_clust_7="13000.00000" pt_clust_8="13000.00000" pt_clust_9="13000.00000"></scales>
<clustering>
<clus scale="   80.617">  5  6 -1 -1</clus>
<clus scale="   93.046">  7  8 -1 -1</clus>
<clus scale="  107.769">  1  5  2 -1</clus>
<clus scale="  199.421">  7  9 -1 -1</clus>
<clus scale="  431.263">  2  5  1 -1</clus>
</clustering>
</event>
<event>
 9    2  0.3897980E-005  0.2672323E+03  0.7546771E-02  0.1128585E+00
          2   -1    0    0  502    0 -0.00000000000E+00  0.00000000000E+00  0.76002956670E+03  0.76002956670E+03  0.00000000000E+00 0. -1.
         21   -1    0    0  501  502  0.00000000000E+00 -0.00000000000E+00 -0.56498807001E+02  0.56498807001E+02  0.00000000000E+00 0. -1.
         24    2    1    2    0    0 -0.95355185462E+02  0.63423326177E+02  0.17222000447E+03  0.22179801805E+03  0.80121789644E+02 0.  0.
         23    2    1    2    0    0 -0.45320807201E+02 -0.29805045301E+02  0.12836704332E+03  0.16661406457E+03  0.91322682890E+02 0.  0.
        -13    1    3    3    0    0 -0.33968025136E+02  0.70074965748E+02  0.91000642237E+02  0.11977246947E+03  0.00000000000E+00 0.  1.
         14    1    3    3    0    0 -0.61387160326E+02 -0.66516395711E+01  0.81219362233E+02  0.10202554858E+03  0.00000000000E+00 0. -1.
        -13    1    4    4    0    0 -0.10235048376E+02 -0.29400745353E+02 -0.23977142875E+01  0.31223534015E+02  0.00000000000E+00 0. -1.
         13    1    4    4    0    0 -0.35085758826E+02 -0.40429994743E+00  0.13076475761E+03  0.13539053056E+03  0.00000000000E+00 0.  1.
          1    1    1    2  501    0  0.14067599266E+03 -0.33618280876E+02  0.40294371190E+03  0.42811629107E+03  0.00000000000E+00 0. -1.
<scales pt_clust_5="13000.00000" pt_clust_6="13000.00000" pt_clust_7="13000.00000" pt_clust_8="13000.00000" pt_clust_9="13000.00000"></scales>
<clustering>
<clus scale="   80.122">  5  6 -1 -1</clus>
<clus scale="   91.323">  7  8 -1 -1</clus>
<clus scale="  139.766">  1  5  2 -1</clus>
<clus scale="   71.527">  7  9 -1 -1</clus>
<clus scale="  267.232">  2  5  1 -1</clus>
</clustering>
</event>
<event>
 9    2  0.3897980E-005  0.6318768E+03  0.7546771E-02  0.1034114E+00
         21   -1    0    0  501  502  0.00000000000E+00  0.00000000000E+00  0.44365918309E+03  0.44365918309E+03  0.00000000000E+00 0.  1.
         -1   -1    0    0    0  501 -0.00000000000E+00 -0.00000000000E+00 -0.33179046160E+03  0.33179046160E+03  0.00000000000E+00 0.  1.
         24    2    1    2    0    0 -0.61324746543E+02  0.77877143339E+02  0.49609593548E+01  0.13459275130E+03  0.90912175154E+02 0.  0.
         23    2    1    2    0    0 -0.55396419109E+02  0.14218968304E+03 -0.18629741944E+03  0.25611994808E+03  0.87201090013E+02 0.  0.
        -11    1    3    3    0    0 -0.32008347099E+02  0.64050809201E+02  0.43852668419E+02  0.83964855569E+02  0.00000000000E+00 0.  1.
         12    1    3    3    0    0 -0.29316399445E+02  0.13826334139E+02 -0.38891709064E+02  0.50627895730E+02  0.00000000000E+00 0. -1.
        -13    1    4    4    0    0 -0.25031929097E+02  0.14269949665E+03 -0.16105892626E+03  0.21663268808E+03  0.00000000000E+00 0.  1.
         13    1    4    4    0    0 -0.30364490011E+02 -0.50981361280E+00 -0.25238493183E+02  0.39487259993E+02  0.00000000000E+00 0. -1.
         -2    1    1    2    0  502  0.11672116565E+03 -0.22006682638E+03  0.29320518158E+03  0.38473694531E+03  0.00000000000E+00 0.  1.
<scales pt_clust_5="13000.00000" pt_clust_6="13000.00000" pt_clust_7="13000.00000" pt_clust_8="13000.00000" pt_clust_9="13000.00000"></scales>
<clustering>
<clus scale="   87.201">  7  8 -1 -1</clus>
<clus scale="   90.912">  5  6 -1 -1</clus>
<clus scale="  134.501">  2  5  1 -1</clus>
<clus scale="  232.405">  7  9 -1 -1</clus>
<clus scale="  631.877">  1  5  2 -1</clus>
</clustering>
</event>
<event>
 9    2  0.3897980E-005  0.2382399E+03  0.7546771E-02  0.1133231E+00
          2   -1    0    0  502    0 -0.00000000000E+00  0.00000000000E+00  0.67622884468E+03  0.67622884468E+03  0.00000000000E+00 0. -1.
         21   -1    0    0  501  502  0.00000000000E+00 -0.00000000000E+00 -0.74935816717E+02  0.74935816717E+02  0.00000000000E+00 0. -1.
         24    2    1    2    0    0  0.15445829530E+03 -0.29494349046E+02  0.40808649904E+03  0.44442857783E+03  0.79087852964E+02 0.  0.
         23    2    1    2    0    0 -0.89025580693E+02 -0.47129872153E+02  0.12548145391E+03  0.18533016443E+03  0.91950506824E+02 0.  0.
        -11    1    3    3    0    0  0.90904306253E+01  0.20257571059E+02  0.45364441828E+02  0.50506808417E+02  0.00000000000E+00 0.  1.
         12    1    3    3    0    0  0.14536786467E+03 -0.49751920105E+02  0.36272205721E+03  0.39392176942E+03  0.00000000000E+00 0. -1.
        -13    1    4    4    0    0 -0.29801286933E+02 -0.51115707466E+02  0.16820107761E+02  0.61512992755E+02  0.00000000000E+00 0.  1.
         13    1    4    4    0    0 -0.59224293760E+02  0.39858353129E+01  0.10866134615E+03  0.12381717167E+03  0.00000000000E+00 0. -1.
          1    1    1    2  501    0 -0.65432714606E+02  0.76624221199E+02  0.67725075018E+02  0.12140591914E+03  0.00000000000E+00 0. -1.
<scales pt_clust_5="13000.00000" pt_clust_6="13000.00000" pt_clust_7="13000.00000" pt_clust_8="13000.00000" pt_clust_9="13000.00000"></scales>
<clustering>
<clus scale="   79.088">  5  6 -1 -1</clus>
<clus scale="   91.951">  7  8 -1 -1</clus>
<clus scale="  100.761">  7  9 -1 -1</clus>
<clus scale="  176.018">  1  5  2 -1</clus>
<clus scale="  238.240">  2  5  1 -1</clus>
</clustering>
</event>
<event>
 9    2  0.3897980E-005  0.3513568E+03  0.7546771E-02  0.1072812E+00
         21   -1    0    0  501  502  0.00000000000E+00  0.00000000000E+00  0.17896692438E+03  0.17896692438E+03  0.00000000000E+00 0.  1.
          2   -1    0    0  502    0 -0.00000000000E+00 -0.00000000000E+00 -0.69653272713E+03  0.69653272713E+03  0.00000000000E+00 0. -1.
         24    2    1    2    0    0  0.30763001173E+02  0.24653280735E+03 -0.14085724070E+02  0.26154217147E+03  0.80505356933E+02 0.  0.
         23    2    1    2    0    0  0.79297096735E+01 -0.17435724820E+03 -0.14181085486E+03  0.24313263639E+03  0.92411200759E+02 0.  0.
        -11    1    3    3    0    0  0.42750697732E+02  0.24415090089E+03 -0.82608896449E+01  0.24800307832E+03  0.00000000000E+00 0.  1.
         12    1    3    3    0    0 -0.11987696559E+02  0.23819064627E+01 -0.58248344246E+01  0.13539093148E+02  0.00000000000E+00 0. -1.
        -13    1    4    4    0    0 -0.22957106166E+02 -0.36587841779E+01 -0.24166810250E+02  0.33532821874E+02  0.00000000000E+00 0.  1.
         13    1    4    4    0    0  0.30886815840E+02 -0.17069846402E+03 -0.11764404461E+03  0.20959981452E+03  0.00000000000E+00 0. -1.
          1    1    1    2  501    0 -0.38692710846E+02 -0.72175559146E+02 -0.36166922382E+03  0.37082484365E+03  0.00000000000E+00 0. -1.
<scales pt_clust_5="13000.00000" pt_clust_6="13000.00000" pt_clust_7="13000.00000" pt_clust_8="13000.00000" pt_clust_9="13000.00000"></scales>
<clustering>
<clus scale="   80.505">  5  6 -1 -1</clus>
<clus scale="   92.411">  7  8 -1 -1</clus>
<clus scale="   81.893">  7  9 -1 -1</clus>
<clus scale="  261.163">  2  5  1 -1</clus>
<clus scale="  351.357">  1  5  2 -1</clus>
</clustering>
</event>
<event>
 9    2  0.3897980E-005  0.2305669E+03  0.7546771E-02  0.1161221E+00
         -3   -1    0    0    0  501 -0.00000000000E+00  0.00000000000E+00  0.44673015355E+02  0.44673015355E+02  0.00000000000E+00 0.  1.
         21   -1    0    0  501  502  0.00000000000E+00 -0.00000000000E+00 -0.67632668428E+03  0.67632668428E+03  0.00000000000E+00 0.  1.
         24    2    1    2    0    0  0.38589113704E+02  0.46900217574E+02 -0.98632425458E+02  0.14024782892E+03  0.79071790543E+02 0.  0.
         23    2    1    2    0    0  0.60593877588E+02  0.12228474643E+02 -0.19643564287E+03  0.22491014392E+03  0.90423765969E+02 0.  0.
        -13    1    3    3    0    0 -0.41435844639E+01  0.23322598684E+02 -0.86874253162E+02  0.90045814806E+02  0.00000000000E+00 0.  1.
         14    1    3    3    0    0  0.42732698168E+02  0.23577618890E+02 -0.11758172297E+02  0.50202014113E+02  0.00000000000E+00 0. -1.
        -13    1    4    4    0    0  0.79194670984E+02 -0.79417369053E+01 -0.12289098873E+03  0.14641400960E+03  0.00000000000E+00 0.  1.
         13    1    4    4    0    0 -0.18600793396E+02  0.20170211548E+02 -0.73544654143E+02  0.78496134311E+02  0.00000000000E+00 0. -1.
         -4    1    1    2    0  502 -0.99182991292E+02 -0.59128692217E+02 -0.33658560059E+03  0.35584172680E+03  0.00000000000E+00 0.  1.
<scales pt_clust_5="13000.00000" pt_clust_6="13000.00000" pt_clust_7="13000.00000" pt_clust_8="13000.00000" pt_clust_9="13000.00000"></scales>
<clustering>
<clus scale="   79.072">  5  6 -1 -1</clus>
<clus scale="   90.424">  7  8 -1 -1</clus>
<clus scale="   99.705">  1  5  2 -1</clus>
<clus scale="   92.780">  7  9 -1 -1</clus>
<clus scale="  230.567">  2  5  1 -1</clus>
</clustering>
</event>
<event>
 9    2  0.3897980E-005  0.3749675E+03  0.7546771E-02  0.1089713E+00
          2   -1    0    0  502    0 -0.00000000000E+00  0.00000000000E+00  0.15410958546E+04  0.15410958546E+04  0.00000000000E+00 0. -1.
         21   -1    0    0  501  502  0.00000000000E+00 -0.00000000000E+00 -0.42441451412E+02  0.42441451412E+02  0.00000000000E+00 0.  1.
         24    2    1    2    0    0 -0.75815681425E+02  0.80094679614E+02  0.38653043609E+03  0.40990177208E+03  0.80315063835E+02 0.  0.
         23    2    1    2    0    0 -0.50781299648E+02  0.52290687910E+02  0.12259705934E+03  0.16729752793E+03  0.87437791918E+02 0.  0.
        -11    1    3    3    0    0 -0.75546706035E+02  0.90390625965E+02  0.37967104498E+03  0.39752719712E+03  0.00000000000E+00 0.  1.
         12    1    3    3    0    0 -0.26897539015E+00 -0.10295946351E+02  0.68593911084E+01  0.12374574958E+02  0.00000000000E+00 0. -1.
        -13    1    4    4    0    0 -0.53539811173E+02  0.19528755586E+02  0.21370076212E+02  0.60865128213E+02  0.00000000000E+00 0.  1.
         13    1    4    4    0    0  0.27585115242E+01  0.32761932324E+02  0.10122698313E+03  0.10643239972E+03  0.00000000000E+00 0. -1.
          1    1    1    2  501    0  0.12659698107E+03 -0.13238536752E+03  0.98952690773E+03  0.10063380060E+04  0.00000000000E+00 0. -1.
<scales pt_clust_5="13000.00000" pt_clust_6="13000.00000" pt_clust_7="13000.00000" pt_clust_8="13000.00000" pt_clust_9="13000.00000"></scales>
<clustering>
<clus scale="   80.315">  5  6 -1 -1</clus>
<clus scale="   87.438">  7  8 -1 -1</clus>
<clus scale="  136.432">  1  5  2 -1</clus>
<clus scale="   86.877">  7  9 -1 -1</clus>
<clus scale="  374.968">  2  5  1 -1</clus>
</clustering>
</event>
<event>
 9    2  0.3897980E-005  0.2511617E+03  0.7546771E-02  0.1150162E+00
         21   -1    0    0  501  502  0.00000000000E+00  0.00000000000E+00  0.10588865895E+03  0.10588865895E+03  0.00000000000E+00 0. -1.
          2   -1    0    0  502    0 -0.00000000000E+00 -0.00000000000E+00 -0.37140254230E+03  0.37140254230E+03  0.00000000000E+00 0. -1.
         24    2    1    2    0    0  0.38368961902E+02 -0.27823612509E+02 -0.19054132861E+03  0.21517850272E+03  0.88031014270E+02 0.  0.
         23    2    1    2    0    0  0.68034266420E+02  0.62648173913E+02 -0.75539407585E+02  0.15015414194E+03  0.91030814239E+02 0.  0.
        -11    1    3    3    0    0  0.28336005001E+02  0.21808882507E+02 -0.13656460928E+03  0.14116815874E+03  0.00000000000E+00 0.  1.
         12    1    3    3    0    0  0.10032956901E+02 -0.49632495016E+02 -0.53976719333E+02  0.74010343977E+02  0.00000000000E+00 0. -1.
        -11    1    4    4    0    0  0.84542676012E+02  0.24869211051E+02 -0.45772210766E+02  0.99302754262E+02  0.00000000000E+00 0. -1.
         11    1    4    4    0    0 -0.16508409592E+02  0.37778962861E+02 -0.29767196819E+02  0.50851387676E+02  0.00000000000E+00 0.  1.
          1    1    1    2  501    0 -0.10640322832E+03 -0.34824561404E+02  0.56685284276E+00  0.11195855660E+03  0.00000000000E+00 0. -1.
<scales pt_clust_5="13000.00000" pt_clust_6="13000.00000" pt_clust_7="13000.00000" pt_clust_8="13000.00000" pt_clust_9="13000.00000"></scales>
<clustering>
<clus scale="   88.031">  5  6 -1 -1</clus>
<clus scale="   91.031">  7  8 -1 -1</clus>
<clus scale="   99.979">  2  5  1 -1</clus>
<clus scale="  103.546">  7  9 -1 -1</clus>
<clus scale="  251.162">  1  5  2 -1</clus>
</clustering>
</event>
<event>
 9    2  0.3897980E-005  0.4028599E+03  0.7546771E-02  0.1073687E+00
         -3   -1    0    0    0  501 -0.00000000000E+00  0.00000000000E+00  0.13794397206E+04  0.13794397206E+04  0.00000000000E+00 0.  1.
         21   -1    0    0  501  502  0.00000000000E+00 -0.00000000000E+00 -0.62170188749E+02  0.62170188749E+02  0.00000000000E+00 0.  1.
         24    2    1    2    0    0 -0.11596402128E+03  0.94233863507E+02  0.54390947497E+03  0.56961110391E+03  0.79319716733E+02 0.  0.
         23    2    1    2    0    0  0.11769359334E+02  0.12297383009E+03  0.21799755605E+03  0.26663675091E+03  0.91165463789E+02 0.  0.
        -11    1    3    3    0    0 -0.96739282350E+02  0.98663882141E+02  0.52265363989E+03  0.54061065258E+03  0.00000000000E+00 0.  1.
         12    1    3    3    0    0 -0.19224738935E+02 -0.44300186336E+01  0.21255835083E+02  0.29000451329E+02  0.00000000000E+00 0. -1.
        -11    1    4    4    0    0  0.29342854364E+02  0.63731207783E+02  0.46054214128E+02  0.83926518972E+02  0.00000000000E+00 0.  1.
         11    1    4    4    0    0 -0.17573495030E+02  0.59242622311E+02  0.17194334192E+03  0.18271023194E+03  0.00000000000E+00 0. -1.
         -4    1    1    2    0  502  0.10419466195E+03 -0.21720769360E+03  0.55536250084E+03  0.60536205454E+03  0.00000000000E+00 0.  1.
<scales pt_clust_5="13000.00000" pt_clust_6="13000.00000" pt_clust_7="13000.00000" pt_clust_8="13000.00000" pt_clust_9="13000.00000"></scales>
<clustering>
<clus scale="   79.320">  5  6 -1 -1</clus>
<clus scale="   91.165">  7  8 -1 -1</clus>
<clus scale="  169.172">  1  5  2 -1</clus>
<clus scale="  152.384">  7  9 -1 -1</clus>
<clus scale="  402.860">  2  5  1 -1</clus>
</clustering>
</event>
<event>
 9    2  0.3897980E-005  0.2929306E+03  0.7546771E-02  0.1130914E+00
          4   -1    0    0  502    0 -0.00000000000E+00  0.00000000000E+00  0.10661888896E+04  0.10661888896E+04  0.00000000000E+00 0. -1.
         21   -1    0    0  501  502  0.00000000000E+00 -0.00000000000E+00 -0.36862777850E+02  0.36862777850E+02  0.00000000000E+00 0. -1.
         24    2    1    2    0    0 -0.56128873304E+02 -0.20502698585E+02  0.20406203163E+03  0.22734102706E+03  0.80447615032E+02 0.  0.
         23    2    1    2    0    0 -0.32208432496E+02 -0.46389070965E+02  0.12486777724E+03  0.16660347675E+03  0.94738733603E+02 0.  0.
        -13    1    3    3    0    0 -0.10851836128E+02 -0.32089082886E+02  0.24524314954E+02  0.41820014488E+02  0.00000000000E+00 0.  1.
         14    1    3    3    0    0 -0.45277037176E+02  0.11586384302E+02  0.17953771668E+03  0.18552101257E+03  0.00000000000E+00 0. -1.
        -13    1    4    4    0    0  0.78395353084E+01 -0.56276941121E+02  0.10800472684E+03  0.12203922908E+03  0.00000000000E+00 0.  1.
         13    1    4    4    0    0 -0.40047967805E+02  0.98878701556E+01  0.16863050398E+02  0.44564247668E+02  0.00000000000E+00 0. -1.
          3    1    1    2  501    0  0.88337305801E+02  0.66891769550E+02  0.70039630290E+03  0.70910716365E+03  0.00000000000E+00 0. -1.
<scales pt_clust_5="13000.00000" pt_clust_6="13000.00000" pt_clust_7="13000.00000" pt_clust_8="13000.00000" pt_clust_9="13000.00000"></scales>
<clustering>
<clus scale="   80.448">  5  6 -1 -1</clus>
<clus scale="   94.739">  7  8 -1 -1</clus>
<clus scale="  100.213">  1  5  2 -1</clus>
<clus scale="   65.113">  7  9 -1 -1</clus>
<clus scale="  292.931">  2  5  1 -1</clus>
</clustering>
</event>
<event>
 9    2  0.3897980E-005  0.3268014E+03  0.7546771E-02  0.1110178E+00
          2   -1    0    0  502    0 -0.00000000000E+00  0.00000000000E+00  0.62721356517E+03  0.62721356517E+03  0.00000000000E+00 0. -1.
         21   -1    0    0  501  502  0.00000000000E+00 -0.00000000000E+00 -0.97751550488E+02  0.97751550488E+02  0.00000000000E+00 0. -1.
         24    2    1    2    0    0 -0.28510731725E+02  0.85035707168E+02  0.24719873553E+02  0.12366336778E+03  0.81471608957E+02 0.  0.
         23    2    1    2    0    0 -0.68756541428E+02  0.65453716621E+02  0.12357967366E+03  0.18012148278E+03  0.90333613941E+02 0.  0.
        -13    1    3    3    0    0 -0.36063504496E+02  0.17262969409E+02  0.36881445343E+02  0.54395105294E+02  0.00000000000E+00 0.  1.
         14    1    3    3    0    0  0.75527727717E+01  0.67772737759E+02 -0.12161571790E+02  0.69268262489E+02  0.00000000000E+00 0. -1.
        -11    1    4    4    0    0 -0.14430006531E+02  0.74436038012E+02  0.67237491651E+02  0.10134016542E+03  0.00000000000E+00 0.  1.
         11    1    4    4    0    0 -0.54326534898E+02 -0.89823213912E+01  0.56342182005E+02  0.78781317358E+02  0.00000000000E+00 0. -1.
          1    1    1    2  501    0  0.97267273153E+02 -0.15048942379E+03  0.38116246747E+03  0.42118026510E+03  0.00000000000E+00 0. -1.
<scales pt_clust_5="13000.00000" pt_clust_6="13000.00000" pt_clust_7="13000.00000" pt_clust_8="13000.00000" pt_clust_9="13000.00000"></scales>
<clustering>
<clus scale="   81.472">  5  6 -1 -1</clus>
<clus scale="   90.334">  7  8 -1 -1</clus>
<clus scale="  121.168">  1  5  2 -1</clus>
<clus scale="  117.266">  7  9 -1 -1</clus>
<clus scale="  326.801">  2  5  1 -1</clus>
</clustering>
</event>
<event>
 9    2  0.3897980E-005  0.2964679E+03  0.7546771E-02  0.1128892E+00
          2   -1    0    0  502    0 -0.00000000000E+00  0.00000000000E+00  0.14105454351E+04  0.14105454351E+04  0.00000000000E+00 0. -1.
         21   -1    0    0  501  502  0.00000000000E+00 -0.00000000000E+00 -0.28172099971E+02  0.28172099971E+02  0.00000000000E+00 0.  1.
         24    2    1    2    0    0 -0.46261513438E+02  0.41555721046E+02  0.38906160458E+03  0.40210698896E+03  0.80337368841E+02 0.  0.
         23    2    1    2    0    0 -0.88341505132E+01  0.97310631733E+02  0.34129890535E+03  0.36770089575E+03  0.95768495246E+02 0.  0.
        -13    1    3    3    0    0 -0.37555409707E+02  0.34215772502E+01  0.60956486470E+02  0.71678513042E+02  0.00000000000E+00 0.  1.
         14    1    3    3    0    0 -0.87061037305E+01  0.38134143796E+02  0.32810511811E+03  0.33042847592E+03  0.00000000000E+00 0. -1.
        -13    1    4    4    0    0 -0.23875085041E+02  0.72005934984E+02  0.32563670181E+03  0.33435630086E+03  0.00000000000E+00 0. -1.
         13    1    4    4    0    0  0.15040934527E+02  0.25304696749E+02  0.15662203541E+02  0.33344594896E+02  0.00000000000E+00 0.  1.
          1    1    1    2  501    0  0.55095663951E+02 -0.13886635278E+03  0.65201282519E+03  0.66890965035E+03  0.00000000000E+00 0. -1.
<scales pt_clust_5="13000.00000" pt_clust_6="13000.00000" pt_clust_7="13000.00000" pt_clust_8="13000.00000" pt_clust_9="13000.00000"></scales>
<clustering>
<clus scale="   80.337">  5  6 -1 -1</clus>
<clus scale="   95.768">  7  8 -1 -1</clus>
<clus scale="  101.593">  1  5  2 -1</clus>
<clus scale="  114.584">  7  9 -1 -1</clus>
<clus scale="  296.468">  2  5  1 -1</clus>
</clustering>
</event>
<event>
 9    2  0.3897980E-005  0.1656833E+03  0.7546771E-02  0.1213962E+00
         21   -1    0    0  501  502  0.00000000000E+00  0.00000000000E+00  0.19531307211E+03  0.19531307211E+03  0.00000000000E+00 0.  1.
          2   -1    0    0  502    0 -0.00000000000E+00 -0.00000000000E+00 -0.80166652584E+02  0.80166652584E+02  0.00000000000E+00 0. -1.
         24    2    1    2    0    0 -0.20312836026E+02  0.50719899782E+01  0.25788513608E+02  0.87235771808E+02  0.80664093989E+02 0.  0.
         23    2    1    2    0    0 -0.70752392677E+01  0.54448074478E+02  0.65965086366E+02  0.11867406897E+03  0.81960296502E+02 0.  0.
        -13    1    3    3    0    0  0.11972822750E+02  0.36235992098E+02  0.15554165398E+02  0.41210771276E+02  0.00000000000E+00 0.  1.
         14    1    3    3    0    0 -0.32285658776E+02 -0.31164002120E+02  0.10234348210E+02  0.46025000533E+02  0.00000000000E+00 0. -1.
        -11    1    4    4    0    0  0.24033435796E+02  0.12374689148E+02 -0.78914408029E+01  0.28160500805E+02  0.00000000000E+00 0. -1.
         11    1    4    4    0    0 -0.31108675064E+02  0.42073385330E+02  0.73856527169E+02  0.90513568170E+02  0.00000000000E+00 0.  1.
          1    1    1    2  501    0  0.27388075294E+02 -0.59520064456E+02  0.23392819557E+02  0.69569883916E+02  0.00000000000E+00 0. -1.
<scales pt_clust_5="13000.00000" pt_clust_6="13000.00000" pt_clust_7="13000.00000" pt_clust_8="13000.00000" pt_clust_9="13000.00000"></scales>
<clustering>
<clus scale="   80.664">  5  6 -1 -1</clus>
<clus scale="   81.960">  7  8 -1 -1</clus>
<clus scale="   65.519">  7  9 -1 -1</clus>
<clus scale="   83.337">  2  5  1 -1</clus>
<clus scale="  165.683">  1  5  2 -1</clus>
</clustering>
</event>
<event>
 9    2  0.3897980E-005  0.3062989E+03  0.7546771E-02  0.1130003E+00
         21   -1    0    0  501  502  0.00000000000E+00  0.00000000000E+00  0.10587726310E+03  0.10587726310E+03  0.00000000000E+00 0. -1.
          2   -1    0    0  502    0 -0.00000000000E+00 -0.00000000000E+00 -0.41762926701E+03  0.41762926701E+03  0.00000000000E+00 0. -1.
         24    2    1    2    0    0 -0.49105785929E+02  0.12149636230E+02 -0.15590869482E+03  0.17984076951E+03  0.74001279634E+02 0.  0.
         23    2    1    2    0    0 -0.11090747409E+03  0.14780127324E+02 -0.87396781063E+02  0.16755675246E+03  0.88983975989E+02 0.  0.
        -13    1    3    3    0    0 -0.70580682352E+01 -0.27282463905E+02 -0.77929605088E+02  0.82868404794E+02  0.00000000000E+00 0.  1.
         14    1    3    3    0    0 -0.42047717694E+02  0.39432100135E+02 -0.77979089730E+02  0.96972364720E+02  0.00000000000E+00 0. -1.
        -11    1    4    4    0    0 -0.40013791745E+02  0.68715515854E+01 -0.87238582119E+02  0.96223136309E+02  0.00000000000E+00 0.  1.
         11    1    4    4    0    0 -0.70893682343E+02  0.79085757390E+01 -0.15819894320E+00  0.71333616152E+02  0.00000000000E+00 0. -1.
          1    1    1    2  501    0  0.16001326002E+03 -0.26929763554E+02 -0.68446528030E+02  0.17610900813E+03  0.00000000000E+00 0. -1.
<scales pt_clust_5="13000.00000" pt_clust_6="13000.00000" pt_clust_7="13000.00000" pt_clust_8="13000.00000" pt_clust_9="13000.00000"></scales>
<clustering>
<clus scale="   74.001">  5  6 -1 -1</clus>
<clus scale="   88.984">  7  8 -1 -1</clus>
<clus scale="   89.639">  2  5  1 -1</clus>
<clus scale="  137.581">  7  9 -1 -1</clus>
<clus scale="  306.299">  1  5  2 -1</clus>
</clustering>
</event>
<event>
 9    2  0.3897980E-005  0.7265380E+03  0.7546771E-02  0.1037954E+00
         21   -1    0    0  501  502  0.00000000000E+00  0.00000000000E+00  0.42780317868E+03  0.42780317868E+03  0.00000000000E+00 0. -1.
          2   -1    0    0  502    0 -0.00000000000E+00 -0.00000000000E+00 -0.38157526463E+03  0.38157526463E+03  0.00000000000E+00 0. -1.
         24    2    1    2    0    0 -0.15845534123E+01 -0.13202417816E+01 -0.14232905754E+02  0.80329120972E+02  0.79031248389E+02 0.  0.
         23    2    1    2    0    0 -0.26918852404E+03 -0.16324079662E+03 -0.13779095604E+03  0.35528179907E+03  0.90159802744E+02 0.  0.
        -13    1    3    3    0    0 -0.17018593729E+02 -0.20929120241E+02 -0.37510912404E+02  0.46203129287E+02  0.00000000000E+00 0.  1.
         14    1    3    3    0    0  0.15434040316E+02  0.19608878459E+02  0.23278006649E+02  0.34125991685E+02  0.00000000000E+00 0. -1.
        -13    1    4    4    0    0 -0.62764469468E+02 -0.77123239659E+02 -0.16343963664E+02  0.10076952849E+03  0.00000000000E+00 0. -1.
         13    1    4    4    0    0 -0.20642405457E+03 -0.86117556961E+02 -0.12144699237E+03  0.25451227058E+03  0.00000000000E+00 0.  1.
          1    1    1    2  501    0  0.27077307745E+03  0.16456103840E+03  0.19825177584E+03  0.37376752327E+03  0.00000000000E+00 0. -1.
<scales pt_clust_5="13000.00000" pt_clust_6="13000.00000" pt_clust_7="13000.00000" pt_clust_8="13000.00000" pt_clust_9="13000.00000"></scales>
<clustering>
<clus scale="   79.031">  5  6 -1 -1</clus>
<clus scale="   79.058">  2  5  1 -1</clus>
<clus scale="   90.160">  7  8 -1 -1</clus>
<clus scale="  316.322">  7  9 -1 -1</clus>
<clus scale="  726.538">  1  5  2 -1</clus>
</clustering>
</event>
<event>
 9    2  0.3897980E-005  0.4302441E+03  0.7546771E-02  0.1083349E+00
         21   -1    0    0  501  502  0.00000000000E+00  0.00000000000E+00  0.13995866583E+03  0.13995866583E+03  0.00000000000E+00 0.  1.
          4   -1    0    0  502    0 -0.00000000000E+00 -0.00000000000E+00 -0.52080308658E+03  0.52080308658E+03  0.00000000000E+00 0. -1.
         24    2    1    2    0    0  0.66426893231E+02 -0.20343758240E+02 -0.50355586812E+02  0.11823721150E+03  0.81350798507E+02 0.  0.
         23    2    1    2    0    0  0.12633578713E+03 -0.62587962082E+02 -0.28164031130E+03  0.32706851443E+03  0.88173488529E+02 0.  0.
        -11    1    3    3    0    0  0.31474534203E+02  0.11827632099E+02  0.15509682770E+02  0.37028224964E+02  0.00000000000E+00 0.  1.
         12    1    3    3    0    0  0.34952359028E+02 -0.32171390338E+02 -0.65865269582E+02  0.81208986541E+02  0.00000000000E+00 0. -1.
        -13    1    4    4    0    0  0.10710058659E+03 -0.84871174303E+02 -0.22534261465E+03  0.26353926815E+03  0.00000000000E+00 0.  1.
         13    1    4    4    0    0  0.19235200539E+02  0.22283212221E+02 -0.56297696643E+02  0.63529246289E+02  0.00000000000E+00 0. -1.
          3    1    1    2  501    0 -0.19276268036E+03  0.82931720322E+02 -0.48848522646E+02  0.21545602647E+03  0.00000000000E+00 0. -1.
<scales pt_clust_5="13000.00000" pt_clust_6="13000.00000" pt_clust_7="13000.00000" pt_clust_8="13000.00000" pt_clust_9="13000.00000"></scales>
<clustering>
<clus scale="   81.351">  5  6 -1 -1</clus>
<clus scale="   88.173">  7  8 -1 -1</clus>
<clus scale="  106.978">  2  5  1 -1</clus>
<clus scale="  188.952">  7  9 -1 -1</clus>
<clus scale="  430.244">  1  5  2 -1</clus>
</clustering>
</event>
<event>
 9    2  0.3897980E-005  0.3140815E+03  0.7546771E-02  0.1082933E+00
         21   -1    0    0  501  502  0.00000000000E+00  0.00000000000E+00  0.46867567755E+02  0.46867567755E+02  0.00000000000E+00 0. -1.
          2   -1    0    0  502    0 -0.00000000000E+00 -0.00000000000E+00 -0.25684042606E+04  0.25684042606E+04  0.00000000000E+00 0. -1.
         24    2    1    2    0    0  0.26139698765E+03  0.49504329903E+02 -0.18857146823E+04  0.19061055326E+04  0.80866397967E+02 0.  0.
         23    2    1    2    0    0 -0.81795378425E+02  0.10252211702E+02 -0.18934463144E+03  0.22422337922E+03  0.87344962960E+02 0.  0.
        -13    1    3    3    0    0  0.99957977049E+02  0.31677812915E+02 -0.49808861874E+03  0.50900624075E+03  0.00000000000E+00 0.  1.
         14    1    3    3    0    0  0.16143901060E+03  0.17826516987E+02 -0.13876260636E+04  0.13970992918E+04  0.00000000000E+00 0. -1.
        -11    1    4    4    0    0 -0.29457197689E+02 -0.36417968228E+01 -0.15980753582E+03  0.16254057243E+03  0.00000000000E+00 0.  1.
         11    1    4    4    0    0 -0.52338180736E+02  0.13894008525E+02 -0.29537095623E+02  0.61682806790E+02  0.00000000000E+00 0. -1.
          1    1    1    2  501    0 -0.17960160923E+03 -0.59756541605E+02 -0.44647737908E+03  0.48494291657E+03  0.00000000000E+00 0. -1.
<scales pt_clust_5="13000.00000" pt_clust_6="13000.00000" pt_clust_7="13000.00000" pt_clust_8="13000.00000" pt_clust_9="13000.00000"></scales>
<clustering>
<clus scale="   80.866">  5  6 -1 -1</clus>
<clus scale="   87.345">  7  8 -1 -1</clus>
<clus scale="  189.282">  7  9 -1 -1</clus>
<clus scale="  278.062">  2  5  1 -1</clus>
<clus scale="  314.082">  1  5  2 -1</clus>
</clustering>
</event>
<event>
 9    2  0.3897980E-005  0.3790138E+03  0.7546771E-02  0.1057056E+00
         21   -1    0    0  501  502  0.00000000000E+00  0.00000000000E+00  0.44470624453E+03  0.44470624453E+03  0.00000000000E+00 0.  1.
         -3   -1    0    0    0  501 -0.00000000000E+00 -0.00000000000E+00 -0.44394063870E+03  0.44394063870E+03  0.00000000000E+00 0.  1.
         24    2    1    2    0    0  0.53409628274E+02  0.30726714098E+03 -0.27212738693E+03  0.42161152833E+03  0.80232672823E+02 0.  0.
         23    2    1    2    0    0  0.24032070051E+02 -0.71885245784E+02  0.13550441749E+03  0.18370255793E+03  0.98184284277E+02 0.  0.
        -11    1    3    3    0    0  0.67872830245E+01  0.23700899993E+03 -0.18914367016E+03  0.30330621692E+03  0.00000000000E+00 0.  1.
         12    1    3    3    0    0  0.46622345250E+02  0.70258141045E+02 -0.82983716769E+02  0.11830531141E+03  0.00000000000E+00 0. -1.
        -13    1    4    4    0    0  0.22783122524E+02 -0.46377071746E+02  0.14691051271E+03  0.15573246997E+03  0.00000000000E+00 0.  1.
         13    1    4    4    0    0  0.12489475268E+01 -0.25508174038E+02 -0.11406095223E+02  0.27970087967E+02  0.00000000000E+00 0. -1.
         -4    1    1    2    0  502 -0.77441698325E+02 -0.23538189520E+03  0.13738857527E+03  0.28333279697E+03  0.00000000000E+00 0.  1.
<scales pt_clust_5="13000.00000" pt_clust_6="13000.00000" pt_clust_7="13000.00000" pt_clust_8="13000.00000" pt_clust_9="13000.00000"></scales>
<clustering>
<clus scale="   80.233">  5  6 -1 -1</clus>
<clus scale="   98.184">  7  8 -1 -1</clus>
<clus scale="  247.794">  7  9 -1 -1</clus>
<clus scale="  322.029">  2  5  1 -1</clus>
<clus scale="  379.014">  1  5  2 -1</clus>
</clustering>
</event>
<event>
 9    2  0.3897980E-005  0.2616500E+03  0.7546771E-02  0.1147541E+00
         21   -1    0    0  501  502  0.00000000000E+00  0.00000000000E+00  0.10354099865E+03  0.10354099865E+03  0.00000000000E+00 0.  1.
         -1   -1    0    0    0  501 -0.00000000000E+00 -0.00000000000E+00 -0.30651302133E+03  0.30651302133E+03  0.00000000000E+00 0.  1.
         24    2    1    2    0    0  0.37869774533E+02  0.21147729939E+02 -0.63765843799E+02  0.11367744107E+03  0.83517252522E+02 0.  0.
         23    2    1    2    0    0  0.58694322144E+02  0.61166254230E+02 -0.10542299317E+03  0.16506960881E+03  0.94591934950E+02 0.  0.
        -11    1    3    3    0    0  0.47345992501E+02  0.45386655083E+02 -0.56731117664E+02  0.86717997999E+02  0.00000000000E+00 0.  1.
         12    1    3    3    0    0 -0.94762179683E+01 -0.24238925144E+02 -0.70347261351E+01  0.26959443075E+02  0.00000000000E+00 0. -1.
        -13    1    4    4    0    0  0.38176879445E+02  0.13471937287E+02  0.71403766708E+01  0.41109028174E+02  0.00000000000E+00 0. -1.
         13    1    4    4    0    0  0.20517442698E+02  0.47694316944E+02 -0.11256336984E+03  0.12396058064E+03  0.00000000000E+00 0.  1.
         -2    1    1    2    0  502 -0.96564096677E+02 -0.82313984169E+02 -0.33783185721E+02  0.13130697009E+03  0.00000000000E+00 0.  1.
<scales pt_clust_5="13000.00000" pt_clust_6="13000.00000" pt_clust_7="13000.00000" pt_clust_8="13000.00000" pt_clust_9="13000.00000"></scales>
<clustering>
<clus scale="   83.517">  5  6 -1 -1</clus>
<clus scale="   94.109">  2  5  1 -1</clus>
<clus scale="   94.592">  7  8 -1 -1</clus>
<clus scale="  110.811">  7  9 -1 -1</clus>
<clus scale="  261.650">  1  5  2 -1</clus>
</clustering>
</event>
<event>
 9    2  0.3897980E-005  0.4054971E+03  0.7546771E-02  0.1100591E+00
         21   -1    0    0  501  502  0.00000000000E+00  0.00000000000E+00  0.81826423971E+02  0.81826423971E+02  0.00000000000E+00 0.  1.
          2   -1    0    0  502    0 -0.00000000000E+00 -0.00000000000E+00 -0.75293482512E+03  0.75293482512E+03  0.00000000000E+00 0. -1.
         24    2    1    2    0    0 -0.15116343699E+02  0.39903715517E+02 -0.58190888049E+02  0.99849154651E+02  0.69013505010E+02 0.  0.
         23    2    1    2    0    0 -0.16234561852E+03  0.52333572017E+02 -0.21142233721E+03  0.28636015597E+03  0.90597084065E+02 0.  0.
        -11    1    3    3    0    0 -0.42137191177E+02  0.30229853742E+02 -0.31628716430E+02  0.60743416438E+02  0.00000000000E+00 0.  1.
         12    1    3    3    0    0  0.27020847478E+02  0.96738617751E+01 -0.26562171619E+02  0.39105738213E+02  0.00000000000E+00 0. -1.
        -13    1    4    4    0    0 -0.13393551206E+03  0.45314762056E+02 -0.21452677580E+03  0.25693167688E+03  0.00000000000E+00 0. -1.
         13    1    4    4    0    0 -0.28410106461E+02  0.70188099610E+01  0.31044385866E+01  0.29428479086E+02  0.00000000000E+00 0.  1.
          1    1    1    2  501    0  0.17746196222E+03 -0.92237287534E+02 -0.40149517589E+03  0.44855193847E+03  0.00000000000E+00 0. -1.
<scales pt_clust_5="13000.00000" pt_clust_6="13000.00000" pt_clust_7="13000.00000" pt_clust_8="13000.00000" pt_clust_9="13000.00000"></scales>
<clustering>
<clus scale="   69.014">  5  6 -1 -1</clus>
<clus scale="   81.140">  2  5  1 -1</clus>
<clus scale="   90.597">  7  8 -1 -1</clus>
<clus scale="  180.827">  7  9 -1 -1</clus>
<clus scale="  405.497">  1  5  2 -1</clus>
</clustering>
</event>
<event>
 9    2  0.3897980E-005  0.1793710E+03  0.7546771E-02  0.1201116E+00
          2   -1    0    0  502    0 -0.00000000000E+00  0.00000000000E+00  0.79356466776E+02  0.79356466776E+02  0.00000000000E+00 0. -1.
         21   -1    0    0  501  502  0.00000000000E+00 -0.00000000000E+00 -0.22372853734E+03  0.22372853734E+03  0.00000000000E+00 0.  1.
         24    2    1    2    0    0  0.45565143578E+00 -0.31191809858E+02 -0.56716266121E+02  0.10344162197E+03  0.80686415793E+02 0.  0.
         23    2    1    2    0    0 -0.55446007603E+02 -0.14793917121E+02 -0.57463731465E+02  0.12186043011E+03  0.90855733164E+02 0.  0.
        -11    1    3    3    0    0  0.27092028745E+02 -0.22216112247E+01 -0.58013106823E+02  0.64065857844E+02  0.00000000000E+00 0.  1.
         12    1    3    3    0    0 -0.26636377310E+02 -0.28970198634E+02  0.12968407025E+01  0.39375764131E+02  0.00000000000E+00 0. -1.
        -11    1    4    4    0    0  0.20738586496E+02  0.33330040741E+01  0.51130414839E+01  0.21618072977E+02  0.00000000000E+00 0. -1.
         11    1    4    4    0    0 -0.76184594099E+02 -0.18126921195E+02 -0.62576772949E+02  0.10024235713E+03  0.00000000000E+00 0.  1.
          1    1    1    2  501    0  0.54990356167E+02  0.45985726979E+02 -0.30192072982E+02  0.77782952040E+02  0.00000000000E+00 0. -1.
<scales pt_clust_5="13000.00000" pt_clust_6="13000.00000" pt_clust_7="13000.00000" pt_clust_8="13000.00000" pt_clust_9="13000.00000"></scales>
<clustering>
<clus scale="   80.686">  5  6 -1 -1</clus>
<clus scale="   86.507">  1  5  2 -1</clus>
<clus scale="   90.856">  7  8 -1 -1</clus>
<clus scale="   64.160">  7  9 -1 -1</clus>
<clus scale="  179.371">  2  5  1 -1</clus>
</clustering>
</event>
<event>
 9    2  0.3897980E-005  0.1904821E+03  0.7546771E-02  0.1187834E+00
         21   -1    0    0  501  502  0.00000000000E+00  0.00000000000E+00  0.14648808522E+03  0.14648808522E+03  0.00000000000E+00 0.  1.
          2   -1    0    0  502    0 -0.00000000000E+00 -0.00000000000E+00 -0.14195684319E+03  0.14195684319E+03  0.00000000000E+00 0. -1.
         24    2    1    2    0    0  0.34589957297E+02 -0.42625407803E+02 -0.11268908973E+02  0.97308666106E+02  0.79552483643E+02 0.  0.
         23    2    1    2    0    0  0.14857534390E+02  0.36327712279E+01  0.64770859009E+02  0.11136402162E+03  0.89290188602E+02 0.  0.
        -11    1    3    3    0    0 -0.14586927899E+02 -0.44504588071E+02 -0.10939456724E+02  0.48094787018E+02  0.00000000000E+00 0.  1.
         12    1    3    3    0    0  0.49176885196E+02  0.18791802679E+01 -0.32945224866E+00  0.49213879088E+02  0.00000000000E+00 0. -1.
        -11    1    4    4    0    0 -0.37065292093E+02  0.99191138431E+00  0.37170399895E+02  0.52501984673E+02  0.00000000000E+00 0.  1.
         11    1    4    4    0    0  0.51922826484E+02  0.26408598436E+01  0.27600459113E+02  0.58862036951E+02  0.00000000000E+00 0. -1.
          1    1    1    2  501    0 -0.49447491688E+02  0.38992636575E+02 -0.48970708009E+02  0.79772240687E+02  0.00000000000E+00 0. -1.
<scales pt_clust_5="13000.00000" pt_clust_6="13000.00000" pt_clust_7="13000.00000" pt_clust_8="13000.00000" pt_clust_9="13000.00000"></scales>
<clustering>
<clus scale="   79.552">  5  6 -1 -1</clus>
<clus scale="   89.290">  7  8 -1 -1</clus>
<clus scale="   62.972">  7  9 -1 -1</clus>
<clus scale="   96.654">  2  5  1 -1</clus>
<clus scale="  190.482">  1  5  2 -1</clus>
</clustering>
</event>
<event>
 9    2  0.3897980E-005  0.1964337E+03  0.7546771E-02  0.1189366E+00
          2   -1    0    0  502    0 -0.00000000000E+00  0.00000000000E+00  0.94222259804E+03  0.94222259804E+03  0.00000000000E+00 0. -1.
         21   -1    0    0  501  502  0.00000000000E+00 -0.00000000000E+00 -0.44124264791E+02  0.44124264791E+02  0.00000000000E+00 0.  1.
         24    2    1    2    0    0 -0.10212751907E+02  0.23733516507E+02  0.70760828014E+03  0.71271819789E+03  0.81179870508E+02 0.  0.
         23    2    1    2    0    0  0.46834922144E+02 -0.22666676177E+02  0.29831124068E+02  0.10884513123E+03  0.90829942686E+02 0.  0.
        -13    1    3    3    0    0  0.19225551709E+02  0.39824975300E+02  0.24995441094E+03  0.25383628197E+03  0.00000000000E+00 0.  1.
         14    1    3    3    0    0 -0.29438303615E+02 -0.16091458793E+02  0.45765386920E+03  0.45888191592E+03  0.00000000000E+00 0. -1.
        -13    1    4    4    0    0  0.46274943092E+02  0.20759005745E+02 -0.78818282411E+01  0.51326697674E+02  0.00000000000E+00 0.  1.
         13    1    4    4    0    0  0.55997905255E+00 -0.43425681923E+02  0.37712952309E+02  0.57518433557E+02  0.00000000000E+00 0. -1.
          1    1    1    2  501    0 -0.36622170237E+02 -0.10668403302E+01  0.16065892905E+03  0.16478353371E+03  0.00000000000E+00 0. -1.
<scales pt_clust_5="13000.00000" pt_clust_6="13000.00000" pt_clust_7="13000.00000" pt_clust_8="13000.00000" pt_clust_9="13000.00000"></scales>
<clustering>
<clus scale="   81.180">  5  6 -1 -1</clus>
<clus scale="   85.192">  1  5  2 -1</clus>
<clus scale="   90.830">  7  8 -1 -1</clus>
<clus scale="   46.471">  7  9 -1 -1</clus>
<clus scale="  196.434">  2  5  1 -1</clus>
</clustering>
</event>
<event>
 9    2  0.3897980E-005  0.1573185E+03  0.7546771E-02  0.1229259E+00
          2   -1    0    0  502    0 -0.00000000000E+00  0.00000000000E+00  0.72154527747E+03  0.72154527747E+03  0.00000000000E+00 0. -1.
         21   -1    0    0  501  502  0.00000000000E+00 -0.00000000000E+00 -0.45721005994E+02  0.45721005994E+02  0.00000000000E+00 0. -1.
         24    2    1    2    0    0 -0.19006159011E+02  0.41994762984E+01  0.57737233732E+03  0.58168098798E+03  0.67934425654E+02 0.  0.
         23    2    1    2    0    0  0.82063113401E+00  0.43238942380E+02  0.85574642181E+02  0.13317402151E+03  0.92423054741E+02 0.  0.
        -13    1    3    3    0    0  0.31570743682E+01  0.29249882234E+02  0.14143442202E+03  0.14446182354E+03  0.00000000000E+00 0.  1.
         14    1    3    3    0    0 -0.22163233380E+02 -0.25050405936E+02  0.43593791530E+03  0.43721916443E+03  0.00000000000E+00 0. -1.
        -11    1    4    4    0    0 -0.32848469509E+02  0.56561466154E+02  0.60786877651E+02  0.89293145857E+02  0.00000000000E+00 0. -1.
         11    1    4    4    0    0  0.33669100643E+02 -0.13322523774E+02  0.24787764530E+02  0.43880875654E+02  0.00000000000E+00 0.  1.
          1    1    1    2  501    0  0.18185527877E+02 -0.47438418678E+02  0.12877291971E+02  0.52411273972E+02  0.00000000000E+00 0. -1.
<scales pt_clust_5="13000.00000" pt_clust_6="13000.00000" pt_clust_7="13000.00000" pt_clust_8="13000.00000" pt_clust_9="13000.00000"></scales>
<clustering>
<clus scale="   67.934">  5  6 -1 -1</clus>
<clus scale="   70.668">  1  5  2 -1</clus>
<clus scale="   92.423">  7  8 -1 -1</clus>
<clus scale="   48.484">  7  9 -1 -1</clus>
<clus scale="  157.319">  2  5  1 -1</clus>
</clustering>
</event>
<event>
 9    2  0.3897980E-005  0.1803126E+03  0.7546771E-02  0.1193273E+00
         21   -1    0    0  501  502  0.00000000000E+00  0.00000000000E+00  0.23075134907E+03  0.23075134907E+03  0.00000000000E+00 0. -1.
          2   -1    0    0  502    0 -0.00000000000E+00 -0.00000000000E+00 -0.90493540819E+02  0.90493540819E+02  0.00000000000E+00 0. -1.
         24    2    1    2    0    0  0.48008718020E+02  0.37497706577E+02  0.16127492416E+02  0.10233630022E+03  0.80633165179E+02 0.  0.
         23    2    1    2    0    0  0.15824682099E+02 -0.22069192526E+01  0.10722834315E+03  0.14403657005E+03  0.94833142309E+02 0.  0.
        -13    1    3    3    0    0  0.43926097954E+02  0.70212636078E+01  0.42726420104E+02  0.61679390391E+02  0.00000000000E+00 0.  1.
         14    1    3    3    0    0  0.40826200664E+01  0.30476442969E+02 -0.26598927689E+02  0.40656909829E+02  0.00000000000E+00 0. -1.
        -11    1    4    4    0    0  0.20643551658E+02  0.21458041105E+02 -0.41556133617E+01  0.30064478634E+02  0.00000000000E+00 0.  1.
         11    1    4    4    0    0 -0.48188695592E+01 -0.23664960358E+02  0.11138395652E+03  0.11397209142E+03  0.00000000000E+00 0. -1.
          1    1    1    2  501    0 -0.63833400119E+02 -0.35290787324E+02  0.16901972676E+02  0.74872019614E+02  0.00000000000E+00 0. -1.
<scales pt_clust_5="13000.00000" pt_clust_6="13000.00000" pt_clust_7="13000.00000" pt_clust_8="13000.00000" pt_clust_9="13000.00000"></scales>
<clustering>
<clus scale="   80.633">  5  6 -1 -1</clus>
<clus scale="   94.833">  7  8 -1 -1</clus>
<clus scale="   72.939">  7  9 -1 -1</clus>
<clus scale="  101.058">  2  5  1 -1</clus>
<clus scale="  180.313">  1  5  2 -1</clus>
</clustering>
</event>
<event>
 9    2  0.3897980E-005  0.2506359E+03  0.7546771E-02  0.1140263E+00
         -3   -1    0    0    0  501 -0.00000000000E+00  0.00000000000E+00  0.27713497548E+03  0.27713497548E+03  0.00000000000E+00 0.  1.
         21   -1    0    0  501  502  0.00000000000E+00 -0.00000000000E+00 -0.15199032742E+03  0.15199032742E+03  0.00000000000E+00 0. -1.
         24    2    1    2    0    0  0.77810868274E+02  0.59842737233E+02 -0.34397536544E+02  0.13201916448E+03  0.81303043292E+02 0.  0.
         23    2    1    2    0    0 -0.15499797422E+02  0.47738695042E+02  0.81983233032E+01  0.10124547756E+03  0.87545459603E+02 0.  0.
        -13    1    3    3    0    0  0.23937360186E+02 -0.18270127417E+02  0.24818155977E+01  0.30215131593E+02  0.00000000000E+00 0.  1.
         14    1    3    3    0    0  0.53873508087E+02  0.78112864650E+02 -0.36879352141E+02  0.10180403289E+03  0.00000000000E+00 0. -1.
        -13    1    4    4    0    0  0.16481471466E+02  0.55422104869E+02  0.26501110551E+02  0.63604696919E+02  0.00000000000E+00 0.  1.
         13    1    4    4    0    0 -0.31981268888E+02 -0.76834098266E+01 -0.18302787248E+02  0.37640780641E+02  0.00000000000E+00 0. -1.
         -4    1    1    2    0  502 -0.62311070851E+02 -0.10758143227E+03  0.15134386129E+03  0.19586066086E+03  0.00000000000E+00 0.  1.
<scales pt_clust_5="13000.00000" pt_clust_6="13000.00000" pt_clust_7="13000.00000" pt_clust_8="13000.00000" pt_clust_9="13000.00000"></scales>
<clustering>
<clus scale="   81.303">  5  6 -1 -1</clus>
<clus scale="   87.545">  7  8 -1 -1</clus>
<clus scale="  124.324">  7  9 -1 -1</clus>
<clus scale="  127.459">  1  5  2 -1</clus>
<clus scale="  250.636">  2  5  1 -1</clus>
</clustering>
</event>
<event>
 9    2  0.3897980E-005  0.3041653E+03  0.7546771E-02  0.1128094E+00
          2   -1    0    0  502    0 -0.00000000000E+00  0.00000000000E+00  0.30533944695E+03  0.30533944695E+03  0.00000000000E+00 0. -1.
         21   -1    0    0  501  502  0.00000000000E+00 -0.00000000000E+00 -0.13191872479E+03  0.13191872479E+03  0.00000000000E+00 0. -1.
         24    2    1    2    0    0  0.19392633375E+02  0.39082748560E+02  0.56864187472E+02  0.11152522534E+03  0.85444745923E+02 0.  0.
         23    2    1    2    0    0  0.86798541634E+02 -0.11046531858E+03  0.10488092200E+03  0.19724809560E+03  0.90389324488E+02 0.  0.
        -11    1    3    3    0    0  0.32575620303E+02  0.57476281873E+02  0.21380105891E+02  0.69439203221E+02  0.00000000000E+00 0.  1.
         12    1    3    3    0    0 -0.13182986928E+02 -0.18393533313E+02  0.35484081581E+02  0.42086022118E+02  0.00000000000E+00 0. -1.
        -11    1    4    4    0    0  0.38971716950E+02 -0.69755760709E+01  0.65680574119E+02  0.76690228844E+02  0.00000000000E+00 0.  1.
         11    1    4    4    0    0  0.47826824685E+02 -0.10348974251E+03  0.39200347879E+02  0.12055786676E+03  0.00000000000E+00 0. -1.
          1    1    1    2  501    0 -0.10619117501E+03  0.71382570018E+02  0.11675612689E+02  0.12848485080E+03  0.00000000000E+00 0. -1.
<scales pt_clust_5="13000.00000" pt_clust_6="13000.00000" pt_clust_7="13000.00000" pt_clust_8="13000.00000" pt_clust_9="13000.00000"></scales>
<clustering>
<clus scale="   85.445">  5  6 -1 -1</clus>
<clus scale="   90.389">  7  8 -1 -1</clus>
<clus scale="   95.939">  1  5  2 -1</clus>
<clus scale="  130.484">  7  9 -1 -1</clus>
<clus scale="  304.165">  2  5  1 -1</clus>
</clustering>
</event>
<event>
 9    2  0.3897980E-005  0.1728021E+03  0.7546771E-02  0.1200991E+00
          2   -1    0    0  502    0 -0.00000000000E+00  0.00000000000E+00  0.14800038191E+03  0.14800038191E+03  0.00000000000E+00 0. -1.
         21   -1    0    0  501  502  0.00000000000E+00 -0.00000000000E+00 -0.21322920679E+03  0.21322920679E+03  0.00000000000E+00 0. -1.
         24    2    1    2    0    0 -0.49612013562E+02 -0.24957256720E+02  0.87471913156E+02  0.13062586464E+03  0.79545989015E+02 0.  0.
         23    2    1    2    0    0  0.80683456635E+01 -0.33854758228E+02 -0.68502161080E+02  0.11981505223E+03  0.91933986168E+02 0.  0.
        -13    1    3    3    0    0 -0.23845196083E+01 -0.36687655877E+02  0.82933098384E+01  0.37688844710E+02  0.00000000000E+00 0.  1.
         14    1    3    3    0    0 -0.47227493954E+02  0.11730399157E+02  0.79178603318E+02  0.92937019927E+02  0.00000000000E+00 0. -1.
        -13    1    4    4    0    0 -0.42009950495E+02 -0.17222932543E+02 -0.34757246209E+02  0.57179817331E+02  0.00000000000E+00 0. -1.
         13    1    4    4    0    0  0.50078296158E+02 -0.16631825686E+02 -0.33744914871E+02  0.62635234903E+02  0.00000000000E+00 0.  1.
          1    1    1    2  501    0  0.41543667899E+02  0.58812014948E+02 -0.84198576955E+02  0.11078867183E+03  0.00000000000E+00 0. -1.
<scales pt_clust_5="13000.00000" pt_clust_6="13000.00000" pt_clust_7="13000.00000" pt_clust_8="13000.00000" pt_clust_9="13000.00000"></scales>
<clustering>
<clus scale="   79.546">  5  6 -1 -1</clus>
<clus scale="   91.934">  7  8 -1 -1</clus>
<clus scale="   72.005">  7  9 -1 -1</clus>
<clus scale="   97.014">  1  5  2 -1</clus>
<clus scale="  172.802">  2  5  1 -1</clus>
</clustering>
</event>
<event>
 9    2  0.3897980E-005  0.2187439E+03  0.7546771E-02  0.1164013E+00
         21   -1    0    0  501  502  0.00000000000E+00  0.00000000000E+00  0.89524598384E+02  0.89524598384E+02  0.00000000000E+00 0. -1.
          2   -1    0    0  502    0 -0.00000000000E+00 -0.00000000000E+00 -0.34243082332E+03  0.34243082332E+03  0.00000000000E+00 0. -1.
         24    2    1    2    0    0 -0.59383854149E+02 -0.28132907381E+02 -0.16102226244E+03  0.19469696240E+03  0.87526199243E+02 0.  0.
         23    2    1    2    0    0 -0.34021710036E+02  0.38580685454E+01 -0.10133333999E+03  0.14028857761E+03  0.90774874109E+02 0.  0.
        -11    1    3    3    0    0 -0.34691541853E+01  0.27315592738E+02 -0.23385329166E+02  0.36125479341E+02  0.00000000000E+00 0.  1.
         12    1    3    3    0    0 -0.55914699963E+02 -0.55448500119E+02 -0.13763693327E+03  0.15857148306E+03  0.00000000000E+00 0. -1.
        -13    1    4    4    0    0  0.13165879230E+02  0.35773093662E+02 -0.54682076652E+02  0.66657213511E+02  0.00000000000E+00 0.  1.
         13    1    4    4    0    0 -0.47187589266E+02 -0.31915025117E+02 -0.46651263335E+02  0.73631364103E+02  0.00000000000E+00 0. -1.
          1    1    1    2  501    0  0.93405564184E+02  0.24274838835E+02  0.94493774892E+01  0.96969881695E+02  0.00000000000E+00 0. -1.
<scales pt_clust_5="13000.00000" pt_clust_6="13000.00000" pt_clust_7="13000.00000" pt_clust_8="13000.00000" pt_clust_9="13000.00000"></scales>
<clustering>
<clus scale="   87.526">  5  6 -1 -1</clus>
<clus scale="   90.775">  7  8 -1 -1</clus>
<clus scale="   96.508">  7  9 -1 -1</clus>
<clus scale="  109.447">  2  5  1 -1</clus>
<clus scale="  218.744">  1  5  2 -1</clus>
</clustering>
</event>
<event>
 9    2  0.3897980E-005  0.1432408E+03  0.7546771E-02  0.1231280E+00
         21   -1    0    0  501  502  0.00000000000E+00  0.00000000000E+00  0.19773782624E+03  0.19773782624E+03  0.00000000000E+00 0.  1.
          2   -1    0    0  502    0 -0.00000000000E+00 -0.00000000000E+00 -0.37282994051E+03  0.37282994051E+03  0.00000000000E+00 0. -1.
         24    2    1    2    0    0 -0.20015551239E+02 -0.19419575014E+02 -0.34027794139E+03  0.35192587790E+03  0.85352234601E+02 0.  0.
         23    2    1    2    0    0  0.40769208415E+02 -0.68969506965E+01  0.79963380456E+02  0.12706602288E+03  0.89676840231E+02 0.  0.
        -11    1    3    3    0    0  0.18546572443E+02 -0.37811531423E+02 -0.11141131712E+03  0.11910570448E+03  0.00000000000E+00 0.  1.
         12    1    3    3    0    0 -0.38562123683E+02  0.18391956408E+02 -0.22886662428E+03  0.23282017342E+03  0.00000000000E+00 0. -1.
        -13    1    4    4    0    0 -0.25387416387E+02 -0.12407171533E+02  0.41913529896E+02  0.50549013883E+02  0.00000000000E+00 0. -1.
         13    1    4    4    0    0  0.66156624801E+02  0.55102208362E+01  0.38049850560E+02  0.76517009001E+02  0.00000000000E+00 0.  1.
          1    1    1    2  501    0 -0.20753657175E+02  0.26316525711E+02  0.85222446668E+02  0.91575865968E+02  0.00000000000E+00 0. -1.
<scales pt_clust_5="13000.00000" pt_clust_6="13000.00000" pt_clust_7="13000.00000" pt_clust_8="13000.00000" pt_clust_9="13000.00000"></scales>
<clustering>
<clus scale="   85.352">  5  6 -1 -1</clus>
<clus scale="   89.677">  7  8 -1 -1</clus>
<clus scale="   33.515">  7  9 -1 -1</clus>
<clus scale="   89.793">  2  5  1 -1</clus>
<clus scale="  143.241">  1  5  2 -1</clus>
</clustering>
</event>
<event>
 9    2  0.3897980E-005  0.3729599E+03  0.7546771E-02  0.1105752E+00
          2   -1    0    0  502    0 -0.00000000000E+00  0.00000000000E+00  0.38181530945E+03  0.38181530945E+03  0.00000000000E+00 0. -1.
         21   -1    0    0  501  502  0.00000000000E+00 -0.00000000000E+00 -0.14308582321E+03  0.14308582321E+03  0.00000000000E+00 0. -1.
         24    2    1    2    0    0  0.40253404988E+02 -0.73145667667E+01  0.23373839309E+02  0.94230575960E+02  0.81604078216E+02 0.  0.
         23    2    1    2    0    0  0.21254557506E+02 -0.96367309229E+02 -0.45621727465E+02  0.14319473022E+03  0.93193209215E+02 0.  0.
        -13    1    3    3    0    0  0.25412013483E+01 -0.40171684436E+02  0.34820988005E+01  0.40402313631E+02  0.00000000000E+00 0.  1.
         14    1    3    3    0    0  0.37712203639E+02  0.32857117669E+02  0.19891740509E+02  0.53828262328E+02  0.00000000000E+00 0. -1.
        -11    1    4    4    0    0  0.39142867999E+02 -0.39733545040E+02  0.15581965083E+02  0.57911280011E+02  0.00000000000E+00 0.  1.
         11    1    4    4    0    0 -0.17888310493E+02 -0.56633764189E+02 -0.61203692548E+02  0.85283450212E+02  0.00000000000E+00 0. -1.
          1    1    1    2  501    0 -0.61507962494E+02  0.10368187600E+03  0.26097737440E+03  0.28747582648E+03  0.00000000000E+00 0. -1.
<scales pt_clust_5="13000.00000" pt_clust_6="13000.00000" pt_clust_7="13000.00000" pt_clust_8="13000.00000" pt_clust_9="13000.00000"></scales>
<clustering>
<clus scale="   81.604">  5  6 -1 -1</clus>
<clus scale="   91.286">  1  5  2 -1</clus>
<clus scale="   93.193">  7  8 -1 -1</clus>
<clus scale="  101.232">  7  9 -1 -1</clus>
<clus scale="  372.960">  2  5  1 -1</clus>
</clustering>
</event>
<event>
 9    2  0.3897980E-005  0.3300524E+03  0.7546771E-02  0.1122726E+00
          2   -1    0    0  502    0 -0.00000000000E+00  0.00000000000E+00  0.47196234353E+03  0.47196234353E+03  0.00000000000E+00 0. -1.
         21   -1    0    0  501  502  0.00000000000E+00 -0.00000000000E+00 -0.10069990286E+03  0.10069990286E+03  0.00000000000E+00 0. -1.
         24    2    1    2    0    0  0.16064068782E+02  0.25965832152E+02  0.15778756921E+03  0.17958959063E+03  0.80145026796E+02 0.  0.
         23    2    1    2    0    0  0.15229982593E+02 -0.41973335071E+02  0.29138828446E+03  0.30759717549E+03  0.87836079284E+02 0.  0.
        -11    1    3    3    0    0 -0.23501329389E+02  0.37534068926E+02  0.88655478756E+02  0.99100518297E+02  0.00000000000E+00 0.  1.
         12    1    3    3    0    0  0.39565398171E+02 -0.11568236774E+02  0.69132090453E+02  0.80489072332E+02  0.00000000000E+00 0. -1.
        -11    1    4    4    0    0  0.86292528075E+01 -0.67550388982E+02  0.16541890504E+03  0.17888804655E+03  0.00000000000E+00 0. -1.
         11    1    4    4    0    0  0.66007297856E+01  0.25577053911E+02  0.12596937942E+03  0.12870912894E+03  0.00000000000E+00 0.  1.
          1    1    1    2  501    0 -0.31294051375E+02  0.16007502920E+02 -0.77913413003E+02  0.85475480267E+02  0.00000000000E+00 0. -1.
<scales pt_clust_5="13000.00000" pt_clust_6="13000.00000" pt_clust_7="13000.00000" pt_clust_8="13000.00000" pt_clust_9="13000.00000"></scales>
<clustering>
<clus scale="   80.145">  5  6 -1 -1</clus>
<clus scale="   85.764">  1  5  2 -1</clus>
<clus scale="   87.836">  7  8 -1 -1</clus>
<clus scale="   35.122">  7  9 -1 -1</clus>
<clus scale="  330.052">  2  5  1 -1</clus>
</clustering>
</event>
<event>
 9    2  0.3897980E-005  0.5113841E+03  0.7546771E-02  0.1051726E+00
         21   -1    0    0  501  502  0.00000000000E+00  0.00000000000E+00  0.13762435727E+03  0.13762435727E+03  0.00000000000E+00 0. -1.
          2   -1    0    0  502    0 -0.00000000000E+00 -0.00000000000E+00 -0.85466453550E+03  0.85466453550E+03  0.00000000000E+00 0. -1.
         24    2    1    2    0    0  0.32231880988E+01 -0.12776207519E+03 -0.28340207899E+03  0.32179976579E+03  0.83095210992E+02 0.  0.
         23    2    1    2    0    0  0.15871793785E+03  0.13351229950E+03 -0.24721751256E+02  0.23063622770E+03  0.97800749642E+02 0.  0.
        -13    1    3    3    0    0  0.39140674531E+02 -0.76240202009E+02 -0.19834374605E+03  0.21606666194E+03  0.00000000000E+00 0.  1.
         14    1    3    3    0    0 -0.35917486432E+02 -0.51521873177E+02 -0.85058332944E+02  0.10573310385E+03  0.00000000000E+00 0. -1.
        -11    1    4    4    0    0  0.38165180320E+02  0.80059153330E+02 -0.41100201658E+02  0.97751090005E+02  0.00000000000E+00 0.  1.
         11    1    4    4    0    0  0.12055275753E+03  0.53453146168E+02  0.16378450401E+02  0.13288513769E+03  0.00000000000E+00 0. -1.
          1    1    1    2  501    0 -0.16194112595E+03 -0.57502243124E+01 -0.40891634798E+03  0.43985289928E+03  0.00000000000E+00 0. -1.
<scales pt_clust_5="13000.00000" pt_clust_6="13000.00000" pt_clust_7="13000.00000" pt_clust_8="13000.00000" pt_clust_9="13000.00000"></scales>
<clustering>
<clus scale="   83.095">  5  6 -1 -1</clus>
<clus scale="   97.801">  7  8 -1 -1</clus>
<clus scale="  152.441">  2  5  1 -1</clus>
<clus scale="  190.361">  7  9 -1 -1</clus>
<clus scale="  511.384">  1  5  2 -1</clus>
</clustering>
</event>
<event>
 9    2  0.3897980E-005  0.2244969E+03  0.7546771E-02  0.1154809E+00
         21   -1    0    0  501  502  0.00000000000E+00  0.00000000000E+00  0.40973094853E+02  0.40973094853E+02  0.00000000000E+00 0. -1.
          2   -1    0    0  502    0 -0.00000000000E+00 -0.00000000000E+00 -0.97014645680E+03  0.97014645680E+03  0.00000000000E+00 0. -1.
         24    2    1    2    0    0  0.88422647589E+02 -0.38297197875E+02 -0.59804114131E+03  0.61106031180E+03  0.80350843036E+02 0.  0.
         23    2    1    2    0    0  0.26658794855E+02  0.11028191653E+02 -0.92087529035E+02  0.13335771816E+03  0.92042683762E+02 0.  0.
        -11    1    3    3    0    0  0.14194726362E+02 -0.48447543746E+02 -0.23137886666E+03  0.23682236948E+03  0.00000000000E+00 0.  1.
         12    1    3    3    0    0  0.74227921227E+02  0.10150345871E+02 -0.36666227466E+03  0.37423794231E+03  0.00000000000E+00 0. -1.
        -13    1    4    4    0    0  0.26667788691E+01  0.39625002002E+02 -0.87062382075E+02  0.95692794221E+02  0.00000000000E+00 0.  1.
         13    1    4    4    0    0  0.23992015986E+02 -0.28596810349E+02 -0.50251469601E+01  0.37664923937E+02  0.00000000000E+00 0. -1.
          1    1    1    2  501    0 -0.11508144244E+03  0.27269006222E+02 -0.23904469160E+03  0.26670152170E+03  0.00000000000E+00 0. -1.
<scales pt_clust_5="13000.00000" pt_clust_6="13000.00000" pt_clust_7="13000.00000" pt_clust_8="13000.00000" pt_clust_9="13000.00000"></scales>
<clustering>
<clus scale="   80.351">  5  6 -1 -1</clus>
<clus scale="   92.043">  7  8 -1 -1</clus>
<clus scale="  118.268">  7  9 -1 -1</clus>
<clus scale="  125.465">  2  5  1 -1</clus>
<clus scale="  224.497">  1  5  2 -1</clus>
</clustering>
</event>
<event>
 9    2  0.3897980E-005  0.1884452E+03  0.7546771E-02  0.1202718E+00
          2   -1    0    0  502    0 -0.00000000000E+00  0.00000000000E+00  0.67928367215E+02  0.67928367215E+02  0.00000000000E+00 0. -1.
         21   -1    0    0  501  502  0.00000000000E+00 -0.00000000000E+00 -0.26213533809E+03  0.26213533809E+03  0.00000000000E+00 0.  1.
         24    2    1    2    0    0 -0.79832471398E+01 -0.20776831123E+02 -0.88038017392E+02  0.11376892233E+03  0.68536605069E+02 0.  0.
         23    2    1    2    0    0 -0.60348187392E+02 -0.14734140038E+02 -0.57164597282E+02  0.12501696013E+03  0.92208733496E+02 0.  0.
        -13    1    3    3    0    0  0.19691499594E+02 -0.73429589217E+01 -0.78938760383E+02  0.81688445284E+02  0.00000000000E+00 0.  1.
         14    1    3    3    0    0 -0.27674746734E+02 -0.13433872201E+02 -0.90992570086E+01  0.32080477041E+02  0.00000000000E+00 0. -1.
        -11    1    4    4    0    0 -0.30684799856E+02 -0.52405424701E+02 -0.44902237914E+02  0.75525468883E+02  0.00000000000E+00 0. -1.
         11    1    4    4    0    0 -0.29663387536E+02  0.37671284663E+02 -0.12262359368E+02  0.49491491244E+02  0.00000000000E+00 0.  1.
          1    1    1    2  501    0  0.68331434532E+02  0.35510971161E+02 -0.49004356202E+02  0.91277822853E+02  0.00000000000E+00 0. -1.
<scales pt_clust_5="13000.00000" pt_clust_6="13000.00000" pt_clust_7="13000.00000" pt_clust_8="13000.00000" pt_clust_9="13000.00000"></scales>
<clustering>
<clus scale="   68.537">  5  6 -1 -1</clus>
<clus scale="   72.060">  1  5  2 -1</clus>
<clus scale="   92.209">  7  8 -1 -1</clus>
<clus scale="   70.838">  7  9 -1 -1</clus>
<clus scale="  188.445">  2  5  1 -1</clus>
</clustering>
</event>
<event>
 9    2  0.3897980E-005  0.1831319E+03  0.7546771E-02  0.1196631E+00
          4   -1    0    0  502    0 -0.00000000000E+00  0.00000000000E+00  0.61328674605E+03  0.61328674605E+03  0.00000000000E+00 0. -1.
         21   -1    0    0  501  502  0.00000000000E+00 -0.00000000000E+00 -0.30896074650E+02  0.30896074650E+02  0.00000000000E+00 0. -1.
         24    2    1    2    0    0 -0.44675433006E+02  0.10963467427E+01  0.23436702361E+03  0.25091733372E+03  0.77682110651E+02 0.  0.
         23    2    1    2    0    0  0.69074016298E+02 -0.45337883867E+02  0.17825705768E+03  0.21614039110E+03  0.90079668128E+02 0.  0.
        -11    1    3    3    0    0 -0.20398313632E+01 -0.33633126948E+02  0.72080076491E+02  0.79566862243E+02  0.00000000000E+00 0.  1.
         12    1    3    3    0    0 -0.42635601643E+02  0.34729473691E+02  0.16228694712E+03  0.17135047147E+03  0.00000000000E+00 0. -1.
        -11    1    4    4    0    0 -0.19163782549E+02 -0.22930582522E+02  0.31346536166E+02  0.43308977198E+02  0.00000000000E+00 0.  1.
         11    1    4    4    0    0  0.88237798847E+02 -0.22407301346E+02  0.14691052152E+03  0.17283141390E+03  0.00000000000E+00 0. -1.
          3    1    1    2  501    0 -0.24398583292E+02  0.44241537125E+02  0.16976659011E+03  0.17712509589E+03  0.00000000000E+00 0. -1.
<scales pt_clust_5="13000.00000" pt_clust_6="13000.00000" pt_clust_7="13000.00000" pt_clust_8="13000.00000" pt_clust_9="13000.00000"></scales>
<clustering>
<clus scale="   77.682">  5  6 -1 -1</clus>
<clus scale="   89.619">  1  5  2 -1</clus>
<clus scale="   90.080">  7  8 -1 -1</clus>
<clus scale="   63.683">  7  9 -1 -1</clus>
<clus scale="  183.132">  2  5  1 -1</clus>
</clustering>
</event>
<event>
 9    2  0.3897980E-005  0.2387156E+03  0.7546771E-02  0.1162361E+00
          4   -1    0    0  502    0 -0.00000000000E+00  0.00000000000E+00  0.75460952319E+02  0.75460952319E+02  0.00000000000E+00 0. -1.
         21   -1    0    0  501  502  0.00000000000E+00 -0.00000000000E+00 -0.35272533838E+03  0.35272533838E+03  0.00000000000E+00 0. -1.
         24    2    1    2    0    0 -0.15693544699E+02  0.16425662496E+02 -0.78735857765E+02  0.11770486258E+03  0.84492660297E+02 0.  0.
         23    2    1    2    0    0  0.50872867840E+02  0.25512159399E+02 -0.16852875877E+02  0.12073842202E+03  0.10514194294E+03 0.  0.
        -11    1    3    3    0    0 -0.37142443812E+02  0.58170286759E+01 -0.23611392426E+01  0.37669270413E+02  0.00000000000E+00 0.  1.
         12    1    3    3    0    0  0.21448899113E+02  0.10608633820E+02 -0.76374718522E+02  0.80035592170E+02  0.00000000000E+00 0. -1.
        -11    1    4    4    0    0  0.21808851565E+02 -0.26083204986E+02  0.29909617793E+02  0.45282941881E+02  0.00000000000E+00 0. -1.
         11    1    4    4    0    0  0.29064016275E+02  0.51595364385E+02 -0.46762493670E+02  0.75455480134E+02  0.00000000000E+00 0.  1.
          3    1    1    2  501    0 -0.35179323141E+02 -0.41937821894E+02 -0.18167565242E+03  0.18974300610E+03  0.00000000000E+00 0. -1.
<scales pt_clust_5="13000.00000" pt_clust_6="13000.00000" pt_clust_7="13000.00000" pt_clust_8="13000.00000" pt_clust_9="13000.00000"></scales>
<clustering>
<clus scale="   84.493">  5  6 -1 -1</clus>
<clus scale="   87.493">  1  5  2 -1</clus>
<clus scale="  105.142">  7  8 -1 -1</clus>
<clus scale="   54.583">  7  9 -1 -1</clus>
<clus scale="  238.716">  2  5  1 -1</clus>
</clustering>
</event>
<event>
 9    2  0.3897980E-005  0.1696008E+03  0.7546771E-02  0.1207711E+00
         21   -1    0    0  501  502  0.00000000000E+00  0.00000000000E+00  0.33073916798E+02  0.33073916798E+02  0.00000000000E+00 0. -1.
          2   -1    0    0  502    0 -0.00000000000E+00 -0.00000000000E+00 -0.52383517326E+03  0.52383517326E+03  0.00000000000E+00 0. -1.
         24    2    1    2    0    0 -0.10748859727E+02  0.38507611104E+02 -0.12066261988E+03  0.14980046547E+03  0.79261198069E+02 0.  0.
         23    2    1    2    0    0  0.54848441606E+02  0.47641378177E+01 -0.20905238292E+03  0.23461771702E+03  0.91167569778E+02 0.  0.
        -13    1    3    3    0    0  0.26586509990E+02  0.37008950510E+02 -0.92141444897E+02  0.10279372938E+03  0.00000000000E+00 0.  1.
         14    1    3    3    0    0 -0.37335369717E+02  0.14986605939E+01 -0.28521174984E+02  0.47006736091E+02  0.00000000000E+00 0. -1.
        -13    1    4    4    0    0  0.20665635185E+02 -0.19764479647E+02 -0.86915714362E+01  0.29887230506E+02  0.00000000000E+00 0.  1.
         13    1    4    4    0    0  0.34182806421E+02  0.24528617465E+02 -0.20036081148E+03  0.20473048651E+03  0.00000000000E+00 0. -1.
          1    1    1    2  501    0 -0.44099581879E+02 -0.43271748921E+02 -0.16104625366E+03  0.17249090757E+03  0.00000000000E+00 0. -1.
<scales pt_clust_5="13000.00000" pt_clust_6="13000.00000" pt_clust_7="13000.00000" pt_clust_8="13000.00000" pt_clust_9="13000.00000"></scales>
<clustering>
<clus scale="   79.261">  5  6 -1 -1</clus>
<clus scale="   88.773">  2  5  1 -1</clus>
<clus scale="   91.168">  7  8 -1 -1</clus>
<clus scale="   55.572">  7  9 -1 -1</clus>
<clus scale="  169.601">  1  5  2 -1</clus>
</clustering>
</event>
<event>
 9    2  0.3897980E-005  0.4298927E+03  0.7546771E-02  0.1073095E+00
         21   -1    0    0  501  502  0.00000000000E+00  0.00000000000E+00  0.15099061026E+03  0.15099061026E+03  0.00000000000E+00 0. -1.
          2   -1    0    0  502    0 -0.00000000000E+00 -0.00000000000E+00 -0.54320609062E+03  0.54320609062E+03  0.00000000000E+00 0. -1.
         24    2    1    2    0    0 -0.11624752392E+03 -0.68050168855E+01 -0.76665538782E+02  0.16092423645E+03  0.80369210331E+02 0.  0.
         23    2    1    2    0    0 -0.49198211022E+02 -0.11327099882E+02  0.61541950089E+02  0.12108396431E+03  0.91242246968E+02 0.  0.
        -13    1    3    3    0    0 -0.40629028049E+02 -0.14154902924E+02  0.11505122100E+02  0.44535907216E+02  0.00000000000E+00 0.  1.
         14    1    3    3    0    0 -0.75618495868E+02  0.73498860382E+01 -0.88170660881E+02  0.11638832924E+03  0.00000000000E+00 0. -1.
        -11    1    4    4    0    0 -0.12519891149E+01  0.23656986164E+02 -0.12018890132E+02  0.26564528814E+02  0.00000000000E+00 0.  1.
         11    1    4    4    0    0 -0.47946221907E+02 -0.34984086046E+02  0.73560840221E+02  0.94519435491E+02  0.00000000000E+00 0. -1.
          1    1    1    2  501    0  0.16544573494E+03  0.18132116768E+02 -0.37709189166E+03  0.41218850012E+03  0.00000000000E+00 0. -1.
<scales pt_clust_5="13000.00000" pt_clust_6="13000.00000" pt_clust_7="13000.00000" pt_clust_8="13000.00000" pt_clust_9="13000.00000"></scales>
<clustering>
<clus scale="   80.369">  5  6 -1 -1</clus>
<clus scale="   91.242">  7  8 -1 -1</clus>
<clus scale="  141.489">  2  5  1 -1</clus>
<clus scale="   58.555">  7  9 -1 -1</clus>
<clus scale="  429.893">  1  5  2 -1</clus>
</clustering>
</event>
<event>
 9    2  0.3897980E-005  0.1821249E+03  0.7546771E-02  0.1184442E+00
          2   -1    0    0  502    0 -0.00000000000E+00  0.00000000000E+00  0.55444687450E+03  0.55444687450E+03  0.00000000000E+00 0. -1.
         21   -1    0    0  501  502  0.00000000000E+00 -0.00000000000E+00 -0.46776491559E+02  0.46776491559E+02  0.00000000000E+00 0. -1.
         24    2    1    2    0    0 -0.81018002613E+02  0.34395845357E+02  0.31149769704E+03  0.33354219559E+03  0.80452408615E+02 0.  0.
         23    2    1    2    0    0  0.24470879573E+02  0.72658463666E+01  0.45940164826E+02  0.10184063239E+03  0.87231870273E+02 0.  0.
        -11    1    3    3    0    0 -0.25910419128E+02 -0.25868846142E+02  0.11704862407E+03  0.12264145880E+03  0.00000000000E+00 0.  1.
         12    1    3    3    0    0 -0.55107583485E+02  0.60264691498E+02  0.19444907297E+03  0.21090073679E+03  0.00000000000E+00 0. -1.
        -13    1    4    4    0    0  0.17942814371E+02 -0.17275638507E+02  0.65312180650E+02  0.69900452177E+02  0.00000000000E+00 0.  1.
         13    1    4    4    0    0  0.65280652015E+01  0.24541484873E+02 -0.19372015824E+02  0.31940180214E+02  0.00000000000E+00 0. -1.
          1    1    1    2  501    0  0.56547123040E+02 -0.41661691723E+02  0.15023252107E+03  0.16584053808E+03  0.00000000000E+00 0. -1.
<scales pt_clust_5="13000.00000" pt_clust_6="13000.00000" pt_clust_7="13000.00000" pt_clust_8="13000.00000" pt_clust_9="13000.00000"></scales>
<clustering>
<clus scale="   80.452">  5  6 -1 -1</clus>
<clus scale="   87.232">  7  8 -1 -1</clus>
<clus scale="   70.237">  7  9 -1 -1</clus>
<clus scale="  119.246">  1  5  2 -1</clus>
<clus scale="  182.125">  2  5  1 -1</clus>
</clustering>
</event>
<event>
 9    2  0.3897980E-005  0.3766968E+03  0.7546771E-02  0.1111327E+00
         21   -1    0    0  501  502  0.00000000000E+00  0.00000000000E+00  0.20154022604E+03  0.20154022604E+03  0.00000000000E+00 0.  1.
         -1   -1    0    0    0  501 -0.00000000000E+00 -0.00000000000E+00 -0.26484581187E+03  0.26484581187E+03  0.00000000000E+00 0.  1.
         24    2    1    2    0    0  0.94464562137E+01  0.10964900987E+00  0.22455352000E+02  0.80050127900E+02  0.76253082466E+02 0.  0.
         23    2    1    2    0    0 -0.18240923180E+03 -0.10345483194E+02 -0.43773108764E+02  0.20805559188E+03  0.89391763567E+02 0.  0.
        -11    1    3    3    0    0  0.25179076937E+02 -0.15095647850E+02 -0.17728894997E+02  0.34295454760E+02  0.00000000000E+00 0.  1.
         12    1    3    3    0    0 -0.15732620723E+02  0.15205296860E+02  0.40184246997E+02  0.45754673140E+02  0.00000000000E+00 0. -1.
        -13    1    4    4    0    0 -0.30519826194E+02  0.17098549655E+02  0.20849148965E+02  0.40724773834E+02  0.00000000000E+00 0. -1.
         13    1    4    4    0    0 -0.15188940561E+03 -0.27444032849E+02 -0.64622257730E+02  0.16733081805E+03  0.00000000000E+00 0.  1.
         -2    1    1    2    0  502  0.17296277559E+03  0.10235834185E+02 -0.41987829067E+02  0.17828031812E+03  0.00000000000E+00 0.  1.
<scales pt_clust_5="13000.00000" pt_clust_6="13000.00000" pt_clust_7="13000.00000" pt_clust_8="13000.00000" pt_clust_9="13000.00000"></scales>
<clustering>
<clus scale="   76.253">  5  6 -1 -1</clus>
<clus scale="   76.836">  2  5  1 -1</clus>
<clus scale="   89.392">  7  8 -1 -1</clus>
<clus scale="  177.668">  7  9 -1 -1</clus>
<clus scale="  376.697">  1  5  2 -1</clus>
</clustering>
</event>
<event>
 9    2  0.3897980E-005  0.4592599E+03  0.7546771E-02  0.1057955E+00
          2   -1    0    0  502    0 -0.00000000000E+00  0.00000000000E+00  0.34107028069E+03  0.34107028069E+03  0.00000000000E+00 0. -1.
         21   -1    0    0  501  502  0.00000000000E+00 -0.00000000000E+00 -0.89195373984E+03  0.89195373984E+03  0.00000000000E+00 0. -1.
         24    2    1    2    0    0 -0.14600575237E+03 -0.59683775205E+02  0.25224719651E+03  0.30785456696E+03  0.79157776013E+02 0.  0.
         23    2    1    2    0    0 -0.83021714696E+02 -0.81737263425E+02 -0.11917379376E+03  0.19015212058E+03  0.91552446720E+02 0.  0.
        -11    1    3    3    0    0 -0.11848137341E+02 -0.38290641002E+02  0.47718623680E+02  0.62318685743E+02  0.00000000000E+00 0.  1.
         12    1    3    3    0    0 -0.13415761503E+03 -0.21393134203E+02  0.20452857283E+03  0.24553588122E+03  0.00000000000E+00 0. -1.
        -11    1    4    4    0    0 -0.18655564302E+02  0.17051846130E+02 -0.44919626044E+01  0.25670474556E+02  0.00000000000E+00 0.  1.
         11    1    4    4    0    0 -0.64366150393E+02 -0.98789109555E+02 -0.11468183115E+03  0.16448164603E+03  0.00000000000E+00 0. -1.
          1    1    1    2  501    0  0.22902746707E+03  0.14142103863E+03 -0.68395686190E+03  0.73501733298E+03  0.00000000000E+00 0. -1.
<scales pt_clust_5="13000.00000" pt_clust_6="13000.00000" pt_clust_7="13000.00000" pt_clust_8="13000.00000" pt_clust_9="13000.00000"></scales>
<clustering>
<clus scale="   79.158">  5  6 -1 -1</clus>
<clus scale="   91.552">  7  8 -1 -1</clus>
<clus scale="  176.482">  1  5  2 -1</clus>
<clus scale="  204.363">  7  9 -1 -1</clus>
<clus scale="  459.260">  2  5  1 -1</clus>
</clustering>
</event>
<event>
 9    2  0.3897980E-005  0.2165689E+03  0.7546771E-02  0.1173427E+00
          2   -1    0    0  502    0 -0.00000000000E+00  0.00000000000E+00  0.36671220777E+03  0.36671220777E+03  0.00000000000E+00 0. -1.
         21   -1    0    0  501  502  0.00000000000E+00 -0.00000000000E+00 -0.64579410942E+02  0.64579410942E+02  0.00000000000E+00 0. -1.
         24    2    1    2    0    0  0.14287115572E+02  0.39090066290E+02  0.80391296562E+02  0.12133775877E+03  0.80795644604E+02 0.  0.
         23    2    1    2    0    0 -0.58218989781E+02  0.45261972871E+02  0.15391585342E+03  0.19313950101E+03  0.90413936744E+02 0.  0.
        -13    1    3    3    0    0  0.13312307349E+02  0.48621642363E+02  0.92831208449E+02  0.10563576523E+03  0.00000000000E+00 0.  1.
         14    1    3    3    0    0  0.97480822324E+00 -0.95315760731E+01 -0.12439911887E+02  0.15701993544E+02  0.00000000000E+00 0. -1.
        -11    1    4    4    0    0 -0.57030408480E+02  0.67221838955E+02  0.14438876062E+03  0.16917256668E+03  0.00000000000E+00 0. -1.
         11    1    4    4    0    0 -0.11885813011E+01 -0.21959866084E+02  0.95270927970E+01  0.23966934328E+02  0.00000000000E+00 0.  1.
          1    1    1    2  501    0  0.43931874209E+02 -0.84352039162E+02  0.67825646855E+02  0.11681435894E+03  0.00000000000E+00 0. -1.
<scales pt_clust_5="13000.00000" pt_clust_6="13000.00000" pt_clust_7="13000.00000" pt_clust_8="13000.00000" pt_clust_9="13000.00000"></scales>
<clustering>
<clus scale="   80.796">  5  6 -1 -1</clus>
<clus scale="   90.414">  7  8 -1 -1</clus>
<clus scale="   90.885">  1  5  2 -1</clus>
<clus scale="   86.023">  7  9 -1 -1</clus>
<clus scale="  216.569">  2  5  1 -1</clus>
</clustering>
</event>
<event>
 9    2  0.3897980E-005  0.3610320E+03  0.7546771E-02  0.1088542E+00
         21   -1    0    0  501  502  0.00000000000E+00  0.00000000000E+00  0.97044065851E+02  0.97044065851E+02  0.00000000000E+00 0. -1.
          4   -1    0    0  502    0 -0.00000000000E+00 -0.00000000000E+00 -0.69334170476E+03  0.69334170476E+03  0.00000000000E+00 0. -1.
         24    2    1    2    0    0  0.57922950601E+01 -0.13622458365E+03 -0.18812564724E+03  0.24545595962E+03  0.79162371677E+02 0.  0.
         23    2    1    2    0    0  0.71764021870E+02 -0.72463528724E+02 -0.18029538667E+03  0.22634943236E+03  0.91250212304E+02 0.  0.
        -13    1    3    3    0    0 -0.27965928608E+02 -0.87070022055E+02 -0.14662041919E+03  0.17280286233E+03  0.00000000000E+00 0.  1.
         14    1    3    3    0    0  0.33758223668E+02 -0.49154561597E+02 -0.41505228047E+02  0.72653097293E+02  0.00000000000E+00 0. -1.
        -11    1    4    4    0    0  0.57082480142E+02 -0.93741341516E+02 -0.15694301391E+03  0.19151229272E+03  0.00000000000E+00 0. -1.
         11    1    4    4    0    0  0.14681541728E+02  0.21277812792E+02 -0.23352372757E+02  0.34837139637E+02  0.00000000000E+00 0.  1.
          3    1    1    2  501    0 -0.77556316930E+02  0.20868811238E+03 -0.22787660500E+03  0.31858037863E+03  0.00000000000E+00 0. -1.
<scales pt_clust_5="13000.00000" pt_clust_6="13000.00000" pt_clust_7="13000.00000" pt_clust_8="13000.00000" pt_clust_9="13000.00000"></scales>
<clustering>
<clus scale="   79.162">  5  6 -1 -1</clus>
<clus scale="   91.250">  7  8 -1 -1</clus>
<clus scale="  157.662">  2  5  1 -1</clus>
<clus scale="  150.210">  7  9 -1 -1</clus>
<clus scale="  361.032">  1  5  2 -1</clus>
</clustering>
</event>
<event>
 9    2  0.3897980E-005  0.1492753E+03  0.7546771E-02  0.1230377E+00
         21   -1    0    0  501  502  0.00000000000E+00  0.00000000000E+00  0.51440941153E+02  0.51440941153E+02  0.00000000000E+00 0. -1.
          2   -1    0    0  502    0 -0.00000000000E+00 -0.00000000000E+00 -0.46424941344E+03  0.46424941344E+03  0.00000000000E+00 0. -1.
         24    2    1    2    0    0 -0.18111825489E+02  0.25133592396E+01 -0.34024234872E+03  0.34971155200E+03  0.78733465236E+02 0.  0.
         23    2    1    2    0    0  0.17078444780E+02 -0.22516190487E+02 -0.97516292512E+02  0.13398361445E+03  0.87427281355E+02 0.  0.
        -11    1    3    3    0    0 -0.94239571520E+00  0.38851542853E+02 -0.13094359937E+03  0.13658900654E+03  0.00000000000E+00 0.  1.
         12    1    3    3    0    0 -0.17169429774E+02 -0.36338183614E+02 -0.20929874934E+03  0.21312254546E+03  0.00000000000E+00 0. -1.
        -11    1    4    4    0    0 -0.20768564425E+02  0.24111797403E+02 -0.33219051660E+02  0.46002363368E+02  0.00000000000E+00 0.  1.
         11    1    4    4    0    0  0.37847009205E+02 -0.46627987890E+02 -0.64297240852E+02  0.87981251080E+02  0.00000000000E+00 0. -1.
          1    1    1    2  501    0  0.10333807090E+01  0.20002831247E+02  0.24950168944E+02  0.31995188137E+02  0.00000000000E+00 0. -1.
<scales pt_clust_5="13000.00000" pt_clust_6="13000.00000" pt_clust_7="13000.00000" pt_clust_8="13000.00000" pt_clust_9="13000.00000"></scales>
<clustering>
<clus scale="   78.733">  5  6 -1 -1</clus>
<clus scale="   80.829">  2  5  1 -1</clus>
<clus scale="   87.427">  7  8 -1 -1</clus>
<clus scale="   20.083">  7  9 -1 -1</clus>
<clus scale="  149.275">  1  5  2 -1</clus>
</clustering>
</event>
<event>
 9    2  0.3897980E-005  0.3646890E+03  0.7546771E-02  0.1065000E+00
         21   -1    0    0  501  502  0.00000000000E+00  0.00000000000E+00  0.13423475483E+03  0.13423475483E+03  0.00000000000E+00 0. -1.
          2   -1    0    0  502    0 -0.00000000000E+00 -0.00000000000E+00 -0.10572697704E+04  0.10572697704E+04  0.00000000000E+00 0. -1.
         24    2    1    2    0    0 -0.27405364348E+03  0.45932184554E+02 -0.71556718056E+03  0.77193213122E+03  0.81410443037E+02 0.  0.
         23    2    1    2    0    0  0.82464928026E+02  0.14575588704E+02  0.10401463524E+02  0.12320360726E+03  0.89766509675E+02 0.  0.
        -11    1    3    3    0    0 -0.10781758844E+02  0.22250989236E+02 -0.49545539509E+02  0.55372496160E+02  0.00000000000E+00 0.  1.
         12    1    3    3    0    0 -0.26327188463E+03  0.23681195317E+02 -0.66602164105E+03  0.71655963506E+03  0.00000000000E+00 0. -1.
        -13    1    4    4    0    0  0.88054975188E+01 -0.21803919858E+02  0.30611679025E+02  0.38600810878E+02  0.00000000000E+00 0. -1.
         13    1    4    4    0    0  0.73659430507E+02  0.36379508563E+02 -0.20210215500E+02  0.84602796387E+02  0.00000000000E+00 0.  1.
          1    1    1    2  501    0  0.19158871545E+03 -0.60507773258E+02 -0.21786929852E+03  0.29636878673E+03  0.00000000000E+00 0. -1.
<scales pt_clust_5="13000.00000" pt_clust_6="13000.00000" pt_clust_7="13000.00000" pt_clust_8="13000.00000" pt_clust_9="13000.00000"></scales>
<clustering>
<clus scale="   81.410">  5  6 -1 -1</clus>
<clus scale="   89.767">  7  8 -1 -1</clus>
<clus scale="  200.917">  7  9 -1 -1</clus>
<clus scale="  289.556">  2  5  1 -1</clus>
<clus scale="  364.689">  1  5  2 -1</clus>
</clustering>
</event>
<event>
 9    2  0.3897980E-005  0.2660088E+03  0.7546771E-02  0.1107651E+00
         21   -1    0    0  501  502  0.00000000000E+00  0.00000000000E+00  0.49970226347E+02  0.49970226347E+02  0.00000000000E+00 0.  1.
          2   -1    0    0  502    0 -0.00000000000E+00 -0.00000000000E+00 -0.13512056886E+04  0.13512056886E+04  0.00000000000E+00 0. -1.
         24    2    1    2    0    0  0.25924318785E+02 -0.22414139028E+03 -0.78006532157E+03  0.81604430188E+03  0.80715324345E+02 0.  0.
         23    2    1    2    0    0 -0.49074042701E+02  0.10971209095E+03 -0.29248309415E+03  0.32836763679E+03  0.88509547274E+02 0.  0.
        -13    1    3    3    0    0  0.43596451444E+02 -0.16607834229E+03 -0.65346913476E+03  0.67565122396E+03  0.00000000000E+00 0.  1.
         14    1    3    3    0    0 -0.17672132659E+02 -0.58063047985E+02 -0.12659618680E+03  0.14039307792E+03  0.00000000000E+00 0. -1.
        -13    1    4    4    0    0  0.92047911348E+00  0.53285100149E+02 -0.20985270590E+03  0.21651398882E+03  0.00000000000E+00 0. -1.
         13    1    4    4    0    0 -0.49994521815E+02  0.56426990799E+02 -0.82630388251E+02  0.11185364797E+03  0.00000000000E+00 0.  1.
          1    1    1    2  501    0  0.23149723917E+02  0.11442929933E+03 -0.22868704657E+03  0.25676397631E+03  0.00000000000E+00 0. -1.
<scales pt_clust_5="13000.00000" pt_clust_6="13000.00000" pt_clust_7="13000.00000" pt_clust_8="13000.00000" pt_clust_9="13000.00000"></scales>
<clustering>
<clus scale="   80.715">  5  6 -1 -1</clus>
<clus scale="   88.510">  7  8 -1 -1</clus>
<clus scale="  116.748">  7  9 -1 -1</clus>
<clus scale="  239.638">  2  5  1 -1</clus>
<clus scale="  266.009">  1  5  2 -1</clus>
</clustering>
</event>
<event>
 9    2  0.3897980E-005  0.5547263E+03  0.7546771E-02  0.1033578E+00
          2   -1    0    0  502    0 -0.00000000000E+00  0.00000000000E+00  0.73996136399E+03  0.73996136399E+03  0.00000000000E+00 0. -1.
         21   -1    0    0  501  502  0.00000000000E+00 -0.00000000000E+00 -0.19670880911E+03  0.19670880911E+03  0.00000000000E+00 0. -1.
         24    2    1    2    0    0  0.32396711546E+02  0.18261273215E+03  0.20059959721E+03  0.28464846683E+03  0.79922427433E+02 0.  0.
         23    2    1    2    0    0 -0.86298028720E+02 -0.34544030584E+03  0.15831574941E+03  0.40023136273E+03  0.91350492839E+02 0.  0.
        -11    1    3    3    0    0  0.38391185985E+02  0.38912189069E+02  0.80325131136E+02  0.97160528567E+02  0.00000000000E+00 0.  1.
         12    1    3    3    0    0 -0.59944744384E+01  0.14370054308E+03  0.12027446608E+03  0.18748793827E+03  0.00000000000E+00 0. -1.
        -13    1    4    4    0    0  0.11078310916E+01 -0.11984948378E+03  0.86689002744E+02  0.14791926598E+03  0.00000000000E+00 0.  1.
         13    1    4    4    0    0 -0.87405859811E+02 -0.22559082206E+03  0.71626746663E+02  0.25231209675E+03  0.00000000000E+00 0. -1.
          1    1    1    2  501    0  0.53901317174E+02  0.16282757369E+03  0.18433720826E+03  0.25179034354E+03  0.00000000000E+00 0. -1.
<scales pt_clust_5="13000.00000" pt_clust_6="13000.00000" pt_clust_7="13000.00000" pt_clust_8="13000.00000" pt_clust_9="13000.00000"></scales>
<clustering>
<clus scale="   79.922">  5  6 -1 -1</clus>
<clus scale="   91.350">  7  8 -1 -1</clus>
<clus scale="  171.517">  7  9 -1 -1</clus>
<clus scale="  201.952">  1  5  2 -1</clus>
<clus scale="  554.726">  2  5  1 -1</clus>
</clustering>
</event>
<event>
 9    2  0.3897980E-005  0.7650377E+03  0.7546771E-02  0.1030124E+00
          2   -1    0    0  502    0 -0.00000000000E+00  0.00000000000E+00  0.12976871271E+04  0.12976871271E+04  0.00000000000E+00 0. -1.
         21   -1    0    0  501  502  0.00000000000E+00 -0.00000000000E+00 -0.16069784348E+03  0.16069784348E+03  0.00000000000E+00 0. -1.
         24    2    1    2    0    0  0.24684717282E+02  0.93197475510E+01  0.35230959703E+03  0.36248131330E+03  0.81083027638E+02 0.  0.
         23    2    1    2    0    0  0.52760403062E+02 -0.36595281651E+03  0.52029194666E+03  0.64525327222E+03  0.94567179871E+02 0.  0.
        -11    1    3    3    0    0  0.43845893439E+02  0.32474752180E+02  0.24780059378E+03  0.25373648964E+03  0.00000000000E+00 0.  1.
         12    1    3    3    0    0 -0.19161176157E+02 -0.23155004629E+02  0.10450900325E+03  0.10874482365E+03  0.00000000000E+00 0. -1.
        -13    1    4    4    0    0 -0.15070911600E+02 -0.13933539274E+03  0.14522258184E+03  0.20181942999E+03  0.00000000000E+00 0.  1.
         13    1    4    4    0    0  0.67831314663E+02 -0.22661742376E+03  0.37506936483E+03  0.44343384223E+03  0.00000000000E+00 0. -1.
          1    1    1    2  501    0 -0.77445120344E+02  0.35663306895E+03  0.26438773996E+03  0.45065038509E+03  0.00000000000E+00 0. -1.
<scales pt_clust_5="13000.00000" pt_clust_6="13000.00000" pt_clust_7="13000.00000" pt_clust_8="13000.00000" pt_clust_9="13000.00000"></scales>
<clustering>
<clus scale="   81.083">  5  6 -1 -1</clus>
<clus scale="   85.268">  1  5  2 -1</clus>
<clus scale="   94.567">  7  8 -1 -1</clus>
<clus scale="  366.551">  7  9 -1 -1</clus>
<clus scale="  765.038">  2  5  1 -1</clus>
</clustering>
</event>
<event>
 9    2  0.3897980E-005  0.1795094E+03  0.7546771E-02  0.1194001E+00
         -3   -1    0    0    0  501 -0.00000000000E+00  0.00000000000E+00  0.43227807884E+03  0.43227807884E+03  0.00000000000E+00 0.  1.
         21   -1    0    0  501  502  0.00000000000E+00 -0.00000000000E+00 -0.54550644557E+02  0.54550644557E+02  0.00000000000E+00 0. -1.
         24    2    1    2    0    0  0.40677014417E+02  0.45232701836E+02  0.24084001176E+03  0.26108151790E+03  0.80368096313E+02 0.  0.
         23    2    1    2    0    0 -0.29360957727E+02 -0.79650942117E+02  0.76921515593E+02  0.15568595803E+03  0.10542703424E+03 0.  0.
        -13    1    3    3    0    0  0.46934736284E+02  0.61481110269E+02  0.22350973200E+03  0.23651510880E+03  0.00000000000E+00 0.  1.
         14    1    3    3    0    0 -0.62577218673E+01 -0.16248408433E+02  0.17330279764E+02  0.24566409104E+02  0.00000000000E+00 0. -1.
        -13    1    4    4    0    0 -0.41684649632E+02 -0.46781962916E+01  0.67020367422E+02  0.79064689874E+02  0.00000000000E+00 0.  1.
         13    1    4    4    0    0  0.12323691904E+02 -0.74972745826E+02  0.99011481702E+01  0.76621268156E+02  0.00000000000E+00 0. -1.
         -4    1    1    2    0  502 -0.11316056690E+02  0.34418240281E+02  0.59965906928E+02  0.70061247468E+02  0.00000000000E+00 0.  1.
<scales pt_clust_5="13000.00000" pt_clust_6="13000.00000" pt_clust_7="13000.00000" pt_clust_8="13000.00000" pt_clust_9="13000.00000"></scales>
<clustering>
<clus scale="   80.368">  5  6 -1 -1</clus>
<clus scale="  100.795">  1  5  2 -1</clus>
<clus scale="  105.427">  7  8 -1 -1</clus>
<clus scale="   50.742">  7  9 -1 -1</clus>
<clus scale="  179.509">  2  5  1 -1</clus>
</clustering>
</event>
<event>
 9    2  0.3897980E-005  0.6186224E+03  0.7546771E-02  0.1036312E+00
          2   -1    0    0  502    0 -0.00000000000E+00  0.00000000000E+00  0.13317231982E+04  0.13317231982E+04  0.00000000000E+00 0. -1.
         21   -1    0    0  501  502  0.00000000000E+00 -0.00000000000E+00 -0.20153407014E+03  0.20153407014E+03  0.00000000000E+00 0. -1.
         24    2    1    2    0    0 -0.10319724539E+03 -0.26116719828E+02  0.83870816505E+03  0.84940435869E+03  0.82003804272E+02 0.  0.
         23    2    1    2    0    0 -0.15012114452E+03 -0.30526915976E+02 -0.10734744952E+03  0.20799283486E+03  0.90935657499E+02 0.  0.
        -13    1    3    3    0    0 -0.81920330339E+02 -0.53464096177E+02  0.55088004003E+03  0.55949813995E+03  0.00000000000E+00 0.  1.
         14    1    3    3    0    0 -0.21276915047E+02  0.27347376348E+02  0.28782812503E+03  0.28990621874E+03  0.00000000000E+00 0. -1.
        -13    1    4    4    0    0 -0.96426224487E+02  0.25899373186E+02 -0.67313243230E+02  0.12041539359E+03  0.00000000000E+00 0.  1.
         13    1    4    4    0    0 -0.53694920028E+02 -0.56426289161E+02 -0.40034206294E+02  0.87577441267E+02  0.00000000000E+00 0. -1.
          1    1    1    2  501    0  0.25331838990E+03  0.56643635804E+02  0.39882841248E+03  0.47586007475E+03  0.00000000000E+00 0. -1.
<scales pt_clust_5="13000.00000" pt_clust_6="13000.00000" pt_clust_7="13000.00000" pt_clust_8="13000.00000" pt_clust_9="13000.00000"></scales>
<clustering>
<clus scale="   82.004">  5  6 -1 -1</clus>
<clus scale="   90.936">  7  8 -1 -1</clus>
<clus scale="  134.374">  1  5  2 -1</clus>
<clus scale="  164.167">  7  9 -1 -1</clus>
<clus scale="  618.622">  2  5  1 -1</clus>
</clustering>
</event>
<event>
 9    2  0.3897980E-005  0.1997679E+03  0.7546771E-02  0.1161815E+00
         21   -1    0    0  501  502  0.00000000000E+00  0.00000000000E+00  0.17223986360E+03  0.17223986360E+03  0.00000000000E+00 0. -1.
          2   -1    0    0  502    0 -0.00000000000E+00 -0.00000000000E+00 -0.18222261727E+03  0.18222261727E+03  0.00000000000E+00 0. -1.
         24    2    1    2    0    0  0.40078343966E+01 -0.12818746408E+03 -0.28430031585E+02  0.15384466029E+03  0.80073866644E+02 0.  0.
         23    2    1    2    0    0 -0.42047935980E+02  0.77452540657E+02  0.38551324292E+02  0.13409523446E+03  0.93425918925E+02 0.  0.
        -13    1    3    3    0    0 -0.23499589014E+02 -0.11450747435E+02  0.98725052321E+01  0.27943096825E+02  0.00000000000E+00 0.  1.
         14    1    3    3    0    0  0.27507423410E+02 -0.11673671664E+03 -0.38302536817E+02  0.12590156346E+03  0.00000000000E+00 0. -1.
        -13    1    4    4    0    0  0.34775140672E+01  0.79001644221E+02  0.39794283331E+02  0.88526481233E+02  0.00000000000E+00 0. -1.
         13    1    4    4    0    0 -0.45525450047E+02 -0.15491035639E+01 -0.12429590391E+01  0.45568753231E+02  0.00000000000E+00 0.  1.
          1    1    1    2  501    0  0.38040101583E+02  0.50734923422E+02 -0.20104046379E+02  0.66522586119E+02  0.00000000000E+00 0. -1.
<scales pt_clust_5="13000.00000" pt_clust_6="13000.00000" pt_clust_7="13000.00000" pt_clust_8="13000.00000" pt_clust_9="13000.00000"></scales>
<clustering>
<clus scale="   80.074">  5  6 -1 -1</clus>
<clus scale="   93.426">  7  8 -1 -1</clus>
<clus scale="   63.412">  7  9 -1 -1</clus>
<clus scale="  151.195">  2  5  1 -1</clus>
<clus scale="  199.768">  1  5  2 -1</clus>
</clustering>
</event>
<event>
 9    2  0.3897980E-005  0.2450667E+03  0.7546771E-02  0.1161760E+00
          2   -1    0    0  502    0 -0.00000000000E+00  0.00000000000E+00  0.65724806945E+03  0.65724806945E+03  0.00000000000E+00 0. -1.
         21   -1    0    0  501  502  0.00000000000E+00 -0.00000000000E+00 -0.43084157933E+02  0.43084157933E+02  0.00000000000E+00 0.  1.
         24    2    1    2    0    0 -0.74997057386E+01 -0.12218243294E+02  0.90280412281E+02  0.12196245271E+03  0.80738813302E+02 0.  0.
         23    2    1    2    0    0  0.36100684932E+02 -0.77304734460E+02  0.16095065367E+03  0.20346628050E+03  0.90631854003E+02 0.  0.
        -13    1    3    3    0    0 -0.34215884829E+02  0.20388726005E+02  0.42595765213E+02  0.58316602583E+02  0.00000000000E+00 0.  1.
         14    1    3    3    0    0  0.26716179090E+02 -0.32606969299E+02  0.47684647069E+02  0.63645850125E+02  0.00000000000E+00 0. -1.
        -13    1    4    4    0    0 -0.26662640414E+02 -0.45302969005E+02  0.84395454623E+02  0.99427602584E+02  0.00000000000E+00 0. -1.
         13    1    4    4    0    0  0.62763325346E+02 -0.32001765455E+02  0.76555199045E+02  0.10403867791E+03  0.00000000000E+00 0.  1.
          1    1    1    2  501    0 -0.28600979193E+02  0.89522977754E+02  0.36293284556E+03  0.37490349418E+03  0.00000000000E+00 0. -1.
<scales pt_clust_5="13000.00000" pt_clust_6="13000.00000" pt_clust_7="13000.00000" pt_clust_8="13000.00000" pt_clust_9="13000.00000"></scales>
<clustering>
<clus scale="   80.739">  5  6 -1 -1</clus>
<clus scale="   82.002">  1  5  2 -1</clus>
<clus scale="   90.632">  7  8 -1 -1</clus>
<clus scale="   88.019">  7  9 -1 -1</clus>
<clus scale="  245.067">  2  5  1 -1</clus>
</clustering>
</event>
<event>
 9    2  0.3897980E-005  0.4301216E+03  0.7546771E-02  0.1054428E+00
         21   -1    0    0  501  502  0.00000000000E+00  0.00000000000E+00  0.55986256440E+02  0.55986256440E+02  0.00000000000E+00 0.  1.
          2   -1    0    0  502    0 -0.00000000000E+00 -0.00000000000E+00 -0.21211252371E+04  0.21211252371E+04  0.00000000000E+00 0. -1.
         24    2    1    2    0    0 -0.13492191381E+03  0.17751268133E+03 -0.49207133563E+03  0.54629991331E+03  0.81207888050E+02 0.  0.
         23    2    1    2    0    0 -0.75820958895E+02  0.39213810382E+02 -0.42356694936E+03  0.44222637926E+03  0.94173611968E+02 0.  0.
        -13    1    3    3    0    0 -0.12552564537E+03  0.18345502488E+03 -0.48386172658E+03  0.53247967497E+03  0.00000000000E+00 0.  1.
         14    1    3    3    0    0 -0.93962684361E+01 -0.59423435460E+01 -0.82096090420E+01  0.13820238347E+02  0.00000000000E+00 0. -1.
        -11    1    4    4    0    0 -0.70860655305E+02 -0.46952344943E+01 -0.34360543458E+03  0.35086745699E+03  0.00000000000E+00 0.  1.
         11    1    4    4    0    0 -0.49603035898E+01  0.43909044876E+02 -0.79961514782E+02  0.91358922278E+02  0.00000000000E+00 0. -1.
          1    1    1    2  501    0  0.21074287270E+03 -0.21672649171E+03 -0.11495006957E+04  0.11885852010E+04  0.00000000000E+00 0. -1.
<scales pt_clust_5="13000.00000" pt_clust_6="13000.00000" pt_clust_7="13000.00000" pt_clust_8="13000.00000" pt_clust_9="13000.00000"></scales>
<clustering>
<clus scale="   81.208">  5  6 -1 -1</clus>
<clus scale="   94.174">  7  8 -1 -1</clus>
<clus scale="  237.296">  2  5  1 -1</clus>
<clus scale="  142.155">  7  9 -1 -1</clus>
<clus scale="  430.122">  1  5  2 -1</clus>
</clustering>
</event>
<event>
 9    2  0.3897980E-005  0.4475406E+03  0.7546771E-02  0.1088141E+00
          2   -1    0    0  502    0 -0.00000000000E+00  0.00000000000E+00  0.10405217820E+04  0.10405217820E+04  0.00000000000E+00 0. -1.
         21   -1    0    0  501  502  0.00000000000E+00 -0.00000000000E+00 -0.80216632396E+02  0.80216632396E+02  0.00000000000E+00 0. -1.
         24    2    1    2    0    0  0.23277094278E+02  0.52853129713E+01  0.37345946600E+03  0.38271374812E+03  0.80175324185E+02 0.  0.
         23    2    1    2    0    0  0.91453166952E+02  0.18335838476E+03  0.25635438014E+03  0.34056526054E+03  0.91011809470E+02 0.  0.
        -13    1    3    3    0    0  0.49021676185E+02 -0.12245672796E+02  0.26921367577E+03  0.27391437432E+03  0.00000000000E+00 0.  1.
         14    1    3    3    0    0 -0.25744581907E+02  0.17530985767E+02  0.10424579023E+03  0.10879937380E+03  0.00000000000E+00 0. -1.
        -11    1    4    4    0    0  0.10919428063E+03  0.16977727053E+03  0.23074082689E+03  0.30657632280E+03  0.00000000000E+00 0. -1.
         11    1    4    4    0    0 -0.17741113678E+02  0.13581114224E+02  0.25613553255E+02  0.33988937736E+02  0.00000000000E+00 0.  1.
          1    1    1    2  501    0 -0.11473026123E+03 -0.18864369773E+03  0.33049130344E+03  0.39745940570E+03  0.00000000000E+00 0. -1.
<scales pt_clust_5="13000.00000" pt_clust_6="13000.00000" pt_clust_7="13000.00000" pt_clust_8="13000.00000" pt_clust_9="13000.00000"></scales>
<clustering>
<clus scale="   80.175">  5  6 -1 -1</clus>
<clus scale="   83.653">  1  5  2 -1</clus>
<clus scale="   91.012">  7  8 -1 -1</clus>
<clus scale="  211.875">  7  9 -1 -1</clus>
<clus scale="  447.541">  2  5  1 -1</clus>
</clustering>
</event>
<event>
 9    2  0.3897980E-005  0.1549043E+03  0.7546771E-02  0.1221234E+00
         21   -1    0    0  501  502  0.00000000000E+00  0.00000000000E+00  0.17340141534E+03  0.17340141534E+03  0.00000000000E+00 0.  1.
         -1   -1    0    0    0  501 -0.00000000000E+00 -0.00000000000E+00 -0.12770679838E+03  0.12770679838E+03  0.00000000000E+00 0.  1.
         24    2    1    2    0    0  0.26641122726E+02 -0.30310616035E+02  0.10372646445E+03  0.13569046001E+03  0.77615969011E+02 0.  0.
         23    2    1    2    0    0 -0.20429090249E+02  0.67964789138E+02 -0.36693086629E+02  0.12169397512E+03  0.91795864191E+02 0.  0.
        -13    1    3    3    0    0  0.36727369330E+02  0.10170169357E+02  0.77636669891E+02  0.86485747464E+02  0.00000000000E+00 0.  1.
         14    1    3    3    0    0 -0.10086246604E+02 -0.40480785392E+02  0.26089794563E+02  0.49204712547E+02  0.00000000000E+00 0. -1.
        -13    1    4    4    0    0 -0.86771977897E-01  0.73592967965E+02  0.62360735063E+01  0.73856760530E+02  0.00000000000E+00 0.  1.
         13    1    4    4    0    0 -0.20342318271E+02 -0.56281788272E+01 -0.42929160135E+02  0.47837214587E+02  0.00000000000E+00 0. -1.
         -2    1    1    2    0  502 -0.62120324776E+01 -0.37654173102E+02 -0.21338760867E+02  0.43723778598E+02  0.00000000000E+00 0.  1.
<scales pt_clust_5="13000.00000" pt_clust_6="13000.00000" pt_clust_7="13000.00000" pt_clust_8="13000.00000" pt_clust_9="13000.00000"></scales>
<clustering>
<clus scale="   77.616">  5  6 -1 -1</clus>
<clus scale="   87.480">  2  5  1 -1</clus>
<clus scale="   91.796">  7  8 -1 -1</clus>
<clus scale="   46.506">  7  9 -1 -1</clus>
<clus scale="  154.904">  1  5  2 -1</clus>
</clustering>
</event>
<event>
 9    2  0.3897980E-005  0.2168803E+03  0.7546771E-02  0.1153666E+00
         21   -1    0    0  501  502  0.00000000000E+00  0.00000000000E+00  0.25651822391E+02  0.25651822391E+02  0.00000000000E+00 0. -1.
          2   -1    0    0  502    0 -0.00000000000E+00 -0.00000000000E+00 -0.13022689926E+04  0.13022689926E+04  0.00000000000E+00 0. -1.
         24    2    1    2    0    0  0.57799420510E+02 -0.10201651759E+03 -0.62579364988E+03  0.64191183250E+03  0.81761638924E+02 0.  0.
         23    2    1    2    0    0 -0.28022667907E+02  0.24538480428E+02 -0.16474617082E+03  0.19289571868E+03  0.93166788866E+02 0.  0.
        -13    1    3    3    0    0  0.63187031747E+02 -0.75380066378E+02 -0.58285325144E+03  0.59109446631E+03  0.00000000000E+00 0.  1.
         14    1    3    3    0    0 -0.53876112367E+01 -0.26636451215E+02 -0.42940398434E+02  0.50817366183E+02  0.00000000000E+00 0. -1.
        -11    1    4    4    0    0 -0.45629097205E+02  0.36109815004E+02 -0.16139262621E+03  0.17156198019E+03  0.00000000000E+00 0.  1.
         11    1    4    4    0    0  0.17606429298E+02 -0.11571334576E+02 -0.33535446061E+01  0.21333738489E+02  0.00000000000E+00 0. -1.
          1    1    1    2  501    0 -0.29776752603E+02  0.77478037164E+02 -0.48607734948E+03  0.49311326378E+03  0.00000000000E+00 0. -1.
<scales pt_clust_5="13000.00000" pt_clust_6="13000.00000" pt_clust_7="13000.00000" pt_clust_8="13000.00000" pt_clust_9="13000.00000"></scales>
<clustering>
<clus scale="   81.762">  5  6 -1 -1</clus>
<clus scale="   93.167">  7  8 -1 -1</clus>
<clus scale="   83.003">  7  9 -1 -1</clus>
<clus scale="  142.944">  2  5  1 -1</clus>
<clus scale="  216.880">  1  5  2 -1</clus>
</clustering>
</event>
<event>
 9    2  0.3897980E-005  0.5431043E+03  0.7546771E-02  0.1055014E+00
          2   -1    0    0  502    0 -0.00000000000E+00  0.00000000000E+00  0.38788827913E+03  0.38788827913E+03  0.00000000000E+00 0. -1.
         21   -1    0    0  501  502  0.00000000000E+00 -0.00000000000E+00 -0.29223208636E+03  0.29223208636E+03  0.00000000000E+00 0. -1.
         24    2    1    2    0    0  0.50887380258E+02  0.64738724160E+02  0.72055149045E+02  0.13650346948E+03  0.81612650983E+02 0.  0.
         23    2    1    2    0    0  0.12117104618E+03  0.17047171660E+03  0.88596841776E+02  0.24503272477E+03  0.91916305644E+02 0.  0.
        -13    1    3    3    0    0  0.50019877157E+02 -0.10734444437E+01  0.33746603082E+02  0.60348766460E+02  0.00000000000E+00 0.  1.
         14    1    3    3    0    0  0.86750310098E+00  0.65812168604E+02  0.38308545963E+02  0.76154703018E+02  0.00000000000E+00 0. -1.
        -11    1    4    4    0    0  0.15240792036E+02  0.14309189735E+02  0.47516789866E+02  0.51912233356E+02  0.00000000000E+00 0.  1.
         11    1    4    4    0    0  0.10593025414E+03  0.15616252686E+03  0.41080051909E+02  0.19312049141E+03  0.00000000000E+00 0. -1.
          1    1    1    2  501    0 -0.17205842644E+03 -0.23521044076E+03 -0.64995798050E+02  0.29858417124E+03  0.00000000000E+00 0. -1.
<scales pt_clust_5="13000.00000" pt_clust_6="13000.00000" pt_clust_7="13000.00000" pt_clust_8="13000.00000" pt_clust_9="13000.00000"></scales>
<clustering>
<clus scale="   81.613">  5  6 -1 -1</clus>
<clus scale="   91.916">  7  8 -1 -1</clus>
<clus scale="  115.936">  1  5  2 -1</clus>
<clus scale="  257.537">  7  9 -1 -1</clus>
<clus scale="  543.104">  2  5  1 -1</clus>
</clustering>
</event>
<event>
 9    2  0.3897980E-005  0.1967324E+03  0.7546771E-02  0.1169033E+00
         21   -1    0    0  501  502  0.00000000000E+00  0.00000000000E+00  0.11363797952E+03  0.11363797952E+03  0.00000000000E+00 0.  1.
          2   -1    0    0  502    0 -0.00000000000E+00 -0.00000000000E+00 -0.53640040698E+03  0.53640040698E+03  0.00000000000E+00 0. -1.
         24    2    1    2    0    0 -0.55837602830E+02  0.92715525390E+02 -0.43277140381E+03  0.45305152847E+03  0.79060691579E+02 0.  0.
         23    2    1    2    0    0  0.43591767915E+01 -0.99260024938E+02 -0.21603602899E+02  0.13622326705E+03  0.90655986313E+02 0.  0.
        -11    1    3    3    0    0 -0.35296903714E+02  0.45815846438E+02 -0.93524683755E+02  0.10996285586E+03  0.00000000000E+00 0.  1.
         12    1    3    3    0    0 -0.20540699116E+02  0.46899678952E+02 -0.33924672006E+03  0.34308867261E+03  0.00000000000E+00 0. -1.
        -11    1    4    4    0    0 -0.21329548354E+01 -0.33389448217E+02 -0.53225507880E+02  0.62867793326E+02  0.00000000000E+00 0. -1.
         11    1    4    4    0    0  0.64921316269E+01 -0.65870576721E+02  0.31621904981E+02  0.73355473723E+02  0.00000000000E+00 0.  1.
          1    1    1    2  501    0  0.51478426038E+02  0.65444995481E+01  0.31612579258E+02  0.60763590982E+02  0.00000000000E+00 0. -1.
<scales pt_clust_5="13000.00000" pt_clust_6="13000.00000" pt_clust_7="13000.00000" pt_clust_8="13000.00000" pt_clust_9="13000.00000"></scales>
<clustering>
<clus scale="   79.061">  5  6 -1 -1</clus>
<clus scale="   90.656">  7  8 -1 -1</clus>
<clus scale="   51.893">  7  9 -1 -1</clus>
<clus scale="  134.032">  2  5  1 -1</clus>
<clus scale="  196.732">  1  5  2 -1</clus>
</clustering>
</event>
<event>
 9    2  0.3897980E-005  0.2100317E+03  0.7546771E-02  0.1170219E+00
          2   -1    0    0  502    0 -0.00000000000E+00  0.00000000000E+00  0.70201400185E+03  0.70201400185E+03  0.00000000000E+00 0. -1.
         21   -1    0    0  501  502  0.00000000000E+00 -0.00000000000E+00 -0.41444480353E+02  0.41444480353E+02  0.00000000000E+00 0. -1.
         24    2    1    2    0    0 -0.63997385309E+02  0.37561298112E+02  0.36806344666E+03  0.38335694123E+03  0.77364896300E+02 0.  0.
         23    2    1    2    0    0  0.99198791450E+01  0.55442188332E+02  0.14981214787E+03  0.18139624739E+03  0.85373758654E+02 0.  0.
        -13    1    3    3    0    0  0.67914683451E+01  0.35213881452E+02  0.14193610676E+03  0.14639672091E+03  0.00000000000E+00 0.  1.
         14    1    3    3    0    0 -0.70788853654E+02  0.23474166600E+01  0.22612733990E+03  0.23696022032E+03  0.00000000000E+00 0. -1.
        -13    1    4    4    0    0 -0.28582643912E+02 -0.59380220612E+01  0.52516196901E+02  0.60084761595E+02  0.00000000000E+00 0. -1.
         13    1    4    4    0    0  0.38502523057E+02  0.61380210393E+02  0.97295950973E+02  0.12131148579E+03  0.00000000000E+00 0.  1.
          1    1    1    2  501    0  0.54077506164E+02 -0.93003486444E+02  0.14269392697E+03  0.17870529359E+03  0.00000000000E+00 0. -1.
<scales pt_clust_5="13000.00000" pt_clust_6="13000.00000" pt_clust_7="13000.00000" pt_clust_8="13000.00000" pt_clust_9="13000.00000"></scales>
<clustering>
<clus scale="   77.365">  5  6 -1 -1</clus>
<clus scale="   85.374">  7  8 -1 -1</clus>
<clus scale="  107.200">  1  5  2 -1</clus>
<clus scale="   77.846">  7  9 -1 -1</clus>
<clus scale="  210.032">  2  5  1 -1</clus>
</clustering>
</event>
<event>
 9    2  0.3897980E-005  0.1336328E+04  0.7546771E-02  0.9636048E-01
          2   -1    0    0  502    0 -0.00000000000E+00  0.00000000000E+00  0.21048322850E+04  0.21048322850E+04  0.00000000000E+00 0. -1.
         21   -1    0    0  501  502  0.00000000000E+00 -0.00000000000E+00 -0.25617182439E+03  0.25617182439E+03  0.00000000000E+00 0. -1.
         24    2    1    2    0    0 -0.76535176898E+02  0.71508228472E+02  0.16696465889E+03  0.21301117782E+03  0.80780594904E+02 0.  0.
         23    2    1    2    0    0 -0.48423606744E+03 -0.23679965409E+02  0.14928785900E+03  0.51550218608E+03  0.91707847162E+02 0.  0.
        -13    1    3    3    0    0 -0.30167128409E+02 -0.12395945824E+02  0.22461035947E+02  0.39600672281E+02  0.00000000000E+00 0.  1.
         14    1    3    3    0    0 -0.46368048489E+02  0.83904174296E+02  0.14450362295E+03  0.17341050553E+03  0.00000000000E+00 0. -1.
        -13    1    4    4    0    0 -0.11119321240E+03  0.11287757435E+02  0.71961799175E+02  0.13292796730E+03  0.00000000000E+00 0.  1.
         13    1    4    4    0    0 -0.37304285505E+03 -0.34967722843E+02  0.77326059824E+02  0.38257421877E+03  0.00000000000E+00 0. -1.
          1    1    1    2  501    0  0.56077124434E+03 -0.47828263063E+02  0.15324079427E+04  0.16324907455E+04  0.00000000000E+00 0. -1.
<scales pt_clust_5="13000.00000" pt_clust_6="13000.00000" pt_clust_7="13000.00000" pt_clust_8="13000.00000" pt_clust_9="13000.00000"></scales>
<clustering>
<clus scale="   80.781">  5  6 -1 -1</clus>
<clus scale="   91.708">  7  8 -1 -1</clus>
<clus scale="  132.275">  1  5  2 -1</clus>
<clus scale="  497.650">  7  9 -1 -1</clus>
<clus scale=" 1336.328">  2  5  1 -1</clus>
</clustering>
</event>
<event>
 9    2  0.3897980E-005  0.7860095E+03  0.7546771E-02  0.1005887E+00
         -1   -1    0    0    0  501 -0.00000000000E+00  0.00000000000E+00  0.28001572415E+03  0.28001572415E+03  0.00000000000E+00 0.  1.
         21   -1    0    0  501  502  0.00000000000E+00 -0.00000000000E+00 -0.82157413951E+03  0.82157413951E+03  0.00000000000E+00 0.  1.
         24    2    1    2    0    0 -0.91841197821E+02 -0.10914989546E+03 -0.39521863039E+02  0.16893151508E+03  0.81408684009E+02 0.  0.
         23    2    1    2    0    0 -0.13858731541E+03 -0.22559123665E+03 -0.44013182069E+03  0.52158521515E+03  0.90759390871E+02 0.  0.
        -13    1    3    3    0    0 -0.26471739356E+02 -0.46455876577E+02  0.23688611452E+02  0.58481208654E+02  0.00000000000E+00 0.  1.
         14    1    3    3    0    0 -0.65369458465E+02 -0.62694018879E+02 -0.63210474491E+02  0.11045030642E+03  0.00000000000E+00 0. -1.
        -13    1    4    4    0    0 -0.68803819900E+02 -0.94049714488E+02 -0.11377112269E+03  0.16285939575E+03  0.00000000000E+00 0.  1.
         13    1    4    4    0    0 -0.69783495506E+02 -0.13154152217E+03 -0.32636069800E+03  0.35872581939E+03  0.00000000000E+00 0. -1.
         -2    1    1    2    0  502  0.23042851323E+03  0.33474113211E+03 -0.61904731630E+02  0.41107313344E+03  0.00000000000E+00 0.  1.
<scales pt_clust_5="13000.00000" pt_clust_6="13000.00000" pt_clust_7="13000.00000" pt_clust_8="13000.00000" pt_clust_9="13000.00000"></scales>
<clustering>
<clus scale="   81.409">  5  6 -1 -1</clus>
<clus scale="   90.759">  7  8 -1 -1</clus>
<clus scale="  164.243">  1  5  2 -1</clus>
<clus scale="  291.472">  7  9 -1 -1</clus>
<clus scale="  786.009">  2  5  1 -1</clus>
</clustering>
</event>
<event>
 9    2  0.3897980E-005  0.1547107E+03  0.7546771E-02  0.1218819E+00
         21   -1    0    0  501  502  0.00000000000E+00  0.00000000000E+00  0.10743289524E+03  0.10743289524E+03  0.00000000000E+00 0. -1.
         -3   -1    0    0    0  501 -0.00000000000E+00 -0.00000000000E+00 -0.28916053246E+03  0.28916053246E+03  0.00000000000E+00 0.  1.
         24    2    1    2    0    0 -0.21610955909E+02  0.38906283332E+02 -0.21880178374E+03  0.23750256957E+03  0.80947623096E+02 0.  0.
         23    2    1    2    0    0 -0.21245409918E+02 -0.82334228804E+01 -0.19313915628E-01  0.94643846829E+02  0.91860223572E+02 0.  0.
        -13    1    3    3    0    0  0.10474295484E+02  0.53680984025E+02 -0.15782579430E+03  0.16703394941E+03  0.00000000000E+00 0.  1.
         14    1    3    3    0    0 -0.32085251392E+02 -0.14774700693E+02 -0.60975989444E+02  0.70468620152E+02  0.00000000000E+00 0. -1.
        -13    1    4    4    0    0 -0.53203429358E+02 -0.18655282891E+02  0.14208830636E+02  0.58142199332E+02  0.00000000000E+00 0. -1.
         13    1    4    4    0    0  0.31958019440E+02  0.10421860010E+02 -0.14228144552E+02  0.36501647497E+02  0.00000000000E+00 0.  1.
         -4    1    1    2    0  502  0.42856365827E+02 -0.30672860452E+02  0.37093460435E+02  0.64447011313E+02  0.00000000000E+00 0.  1.
<scales pt_clust_5="13000.00000" pt_clust_6="13000.00000" pt_clust_7="13000.00000" pt_clust_8="13000.00000" pt_clust_9="13000.00000"></scales>
<clustering>
<clus scale="   80.948">  5  6 -1 -1</clus>
<clus scale="   91.860">  7  8 -1 -1</clus>
<clus scale="   52.702">  7  9 -1 -1</clus>
<clus scale="   92.376">  2  5  1 -1</clus>
<clus scale="  154.711">  1  5  2 -1</clus>
</clustering>
</event>
<event>
 9    2  0.3897980E-005  0.2558857E+03  0.7546771E-02  0.1143681E+00
         21   -1    0    0  501  502  0.00000000000E+00  0.00000000000E+00  0.52023305345E+02  0.52023305345E+02  0.00000000000E+00 0.  1.
          2   -1    0    0  502    0 -0.00000000000E+00 -0.00000000000E+00 -0.81449865705E+03  0.81449865705E+03  0.00000000000E+00 0. -1.
         24    2    1    2    0    0 -0.57954500131E+02 -0.47368564225E+02 -0.76179223328E+02  0.13407409983E+03  0.81056062178E+02 0.  0.
         23    2    1    2    0    0 -0.17855361909E+02  0.10874109782E+03 -0.27700027097E+03  0.31169042419E+03  0.90985329086E+02 0.  0.
        -11    1    3    3    0    0 -0.98453218091E+01 -0.59002368792E+02 -0.50655031611E+02  0.78384578280E+02  0.00000000000E+00 0.  1.
         12    1    3    3    0    0 -0.48109178322E+02  0.11633804567E+02 -0.25524191717E+02  0.55689521549E+02  0.00000000000E+00 0. -1.
        -13    1    4    4    0    0 -0.46616770372E+02  0.10358414893E+03 -0.21564986077E+03  0.24373686968E+03  0.00000000000E+00 0.  1.
         13    1    4    4    0    0  0.28761408463E+02  0.51569488804E+01 -0.61350410197E+02  0.67953554505E+02  0.00000000000E+00 0. -1.
          1    1    1    2  501    0  0.75809862041E+02 -0.61372533590E+02 -0.40929585740E+03  0.42075743838E+03  0.00000000000E+00 0. -1.
<scales pt_clust_5="13000.00000" pt_clust_6="13000.00000" pt_clust_7="13000.00000" pt_clust_8="13000.00000" pt_clust_9="13000.00000"></scales>
<clustering>
<clus scale="   81.056">  5  6 -1 -1</clus>
<clus scale="   90.985">  7  8 -1 -1</clus>
<clus scale="   97.538">  7  9 -1 -1</clus>
<clus scale="  110.330">  2  5  1 -1</clus>
<clus scale="  255.886">  1  5  2 -1</clus>
</clustering>
</event>
<event>
 9    2  0.3897980E-005  0.2015135E+03  0.7546771E-02  0.1166494E+00
         21   -1    0    0  501  502  0.00000000000E+00  0.00000000000E+00  0.51396728324E+02  0.51396728324E+02  0.00000000000E+00 0. -1.
          2   -1    0    0  502    0 -0.00000000000E+00 -0.00000000000E+00 -0.57400253136E+03  0.57400253136E+03  0.00000000000E+00 0. -1.
         24    2    1    2    0    0 -0.99697167850E+02  0.31291089607E+02 -0.13743878098E+03  0.19070241884E+03  0.80989730627E+02 0.  0.
         23    2    1    2    0    0  0.14748852034E+02  0.26525890289E+02 -0.14992064902E+03  0.17798713018E+03  0.91005857036E+02 0.  0.
        -11    1    3    3    0    0 -0.25397778178E+02 -0.11942244571E+02  0.61590034958E+00  0.28072115613E+02  0.00000000000E+00 0.  1.
         12    1    3    3    0    0 -0.74299389672E+02  0.43233334178E+02 -0.13805468133E+03  0.16263030322E+03  0.00000000000E+00 0. -1.
        -11    1    4    4    0    0 -0.24055805814E+02  0.10956473901E+02 -0.12814890206E+03  0.13084673176E+03  0.00000000000E+00 0.  1.
         11    1    4    4    0    0  0.38804657848E+02  0.15569416388E+02 -0.21771746963E+02  0.47140398420E+02  0.00000000000E+00 0. -1.
          1    1    1    2  501    0  0.84948315816E+02 -0.57816979897E+02 -0.23524637304E+03  0.25670971067E+03  0.00000000000E+00 0. -1.
<scales pt_clust_5="13000.00000" pt_clust_6="13000.00000" pt_clust_7="13000.00000" pt_clust_8="13000.00000" pt_clust_9="13000.00000"></scales>
<clustering>
<clus scale="   80.990">  5  6 -1 -1</clus>
<clus scale="   91.006">  7  8 -1 -1</clus>
<clus scale="  102.757">  7  9 -1 -1</clus>
<clus scale="  132.204">  2  5  1 -1</clus>
<clus scale="  201.514">  1  5  2 -1</clus>
</clustering>
</event>
<event>
 9    2  0.3897980E-005  0.2670440E+03  0.7546771E-02  0.1129370E+00
          2   -1    0    0  502    0 -0.00000000000E+00  0.00000000000E+00  0.47557970866E+03  0.47557970866E+03  0.00000000000E+00 0. -1.
         21   -1    0    0  501  502  0.00000000000E+00 -0.00000000000E+00 -0.99194325953E+02  0.99194325953E+02  0.00000000000E+00 0. -1.
         24    2    1    2    0    0  0.19707483708E+02 -0.10899061030E+03  0.23600477868E+03  0.27308008642E+03  0.81284315777E+02 0.  0.
         23    2    1    2    0    0 -0.62253530587E+02  0.49341967827E+01  0.15277889609E+03  0.18859389981E+03  0.91249216915E+02 0.  0.
        -13    1    3    3    0    0  0.20614383483E+02 -0.38081233138E+02  0.23956236385E+02  0.49487719541E+02  0.00000000000E+00 0.  1.
         14    1    3    3    0    0 -0.90689977456E+00 -0.70909377162E+02  0.21204854229E+03  0.22359236688E+03  0.00000000000E+00 0. -1.
        -13    1    4    4    0    0 -0.28671067382E+02 -0.35679610908E+02  0.29319264079E+02  0.54357004935E+02  0.00000000000E+00 0. -1.
         13    1    4    4    0    0 -0.33582463205E+02  0.40613807691E+02  0.12345963201E+03  0.13423689488E+03  0.00000000000E+00 0.  1.
          1    1    1    2  501    0  0.42546046878E+02  0.10405641352E+03 -0.12398292057E+02  0.11310004839E+03  0.00000000000E+00 0. -1.
<scales pt_clust_5="13000.00000" pt_clust_6="13000.00000" pt_clust_7="13000.00000" pt_clust_8="13000.00000" pt_clust_9="13000.00000"></scales>
<clustering>
<clus scale="   81.284">  5  6 -1 -1</clus>
<clus scale="   91.249">  7  8 -1 -1</clus>
<clus scale="  112.418">  7  9 -1 -1</clus>
<clus scale="  137.384">  1  5  2 -1</clus>
<clus scale="  267.044">  2  5  1 -1</clus>
</clustering>
</event>
<event>
 9    2  0.3897980E-005  0.1003369E+04  0.7546771E-02  0.9782309E-01
          4   -1    0    0  502    0 -0.00000000000E+00  0.00000000000E+00  0.62328889360E+03  0.62328889360E+03  0.00000000000E+00 0. -1.
         21   -1    0    0  501  502  0.00000000000E+00 -0.00000000000E+00 -0.58694293730E+03  0.58694293730E+03  0.00000000000E+00 0. -1.
         24    2    1    2    0    0 -0.78002489723E+02 -0.15519795182E+03 -0.63826448787E+02  0.20187520444E+03  0.80678311522E+02 0.  0.
         23    2    1    2    0    0 -0.44048376887E+03  0.12809344020E+03 -0.35992189644E+02  0.47160393503E+03  0.10334869985E+03 0.  0.
        -11    1    3    3    0    0 -0.55172323010E+02 -0.30127834468E+02 -0.93301233311E+01  0.63550946786E+02  0.00000000000E+00 0.  1.
         12    1    3    3    0    0 -0.22830166712E+02 -0.12507011735E+03 -0.54496325456E+02  0.13832425765E+03  0.00000000000E+00 0. -1.
        -11    1    4    4    0    0 -0.33826976210E+03  0.64124497195E+02 -0.57668487912E+02  0.34909030005E+03  0.00000000000E+00 0.  1.
         11    1    4    4    0    0 -0.10221400677E+03  0.63968943004E+02  0.21676298268E+02  0.12251363498E+03  0.00000000000E+00 0. -1.
          3    1    1    2  501    0  0.51848625859E+03  0.27104511622E+02  0.13616459473E+03  0.53675269143E+03  0.00000000000E+00 0. -1.
<scales pt_clust_5="13000.00000" pt_clust_6="13000.00000" pt_clust_7="13000.00000" pt_clust_8="13000.00000" pt_clust_9="13000.00000"></scales>
<clustering>
<clus scale="   80.678">  5  6 -1 -1</clus>
<clus scale="  103.349">  7  8 -1 -1</clus>
<clus scale="  191.520">  1  5  2 -1</clus>
<clus scale="  475.891">  7  9 -1 -1</clus>
<clus scale=" 1003.369">  2  5  1 -1</clus>
</clustering>
</event>
<event>
 9    2  0.3897980E-005  0.3477527E+03  0.7546771E-02  0.1096630E+00
          2   -1    0    0  502    0 -0.00000000000E+00  0.00000000000E+00  0.11131355828E+04  0.11131355828E+04  0.00000000000E+00 0. -1.
         21   -1    0    0  501  502  0.00000000000E+00 -0.00000000000E+00 -0.67576529030E+02  0.67576529030E+02  0.00000000000E+00 0. -1.
         24    2    1    2    0    0 -0.10773616212E+03  0.46897431995E+02  0.59338101442E+03  0.61027637438E+03  0.80807023846E+02 0.  0.
         23    2    1    2    0    0 -0.92743247755E+02  0.21584252493E+01  0.12794010433E+03  0.18608081108E+03  0.98241687453E+02 0.  0.
        -11    1    3    3    0    0 -0.48183422289E+02  0.76284360265E+00  0.98076754996E+02  0.10927613639E+03  0.00000000000E+00 0.  1.
         12    1    3    3    0    0 -0.59552739828E+02  0.46134588392E+02  0.49530425942E+03  0.50100023799E+03  0.00000000000E+00 0. -1.
        -13    1    4    4    0    0 -0.77516368709E+02 -0.15599133226E+02  0.28694870956E+02  0.84116086419E+02  0.00000000000E+00 0. -1.
         13    1    4    4    0    0 -0.15226879045E+02  0.17757558476E+02  0.99245233370E+02  0.10196472466E+03  0.00000000000E+00 0.  1.
          1    1    1    2  501    0  0.20047940987E+03 -0.49055857244E+02  0.32423793502E+03  0.38435492636E+03  0.00000000000E+00 0. -1.
<scales pt_clust_5="13000.00000" pt_clust_6="13000.00000" pt_clust_7="13000.00000" pt_clust_8="13000.00000" pt_clust_9="13000.00000"></scales>
<clustering>
<clus scale="   80.807">  5  6 -1 -1</clus>
<clus scale="   98.242">  7  8 -1 -1</clus>
<clus scale="  142.605">  1  5  2 -1</clus>
<clus scale="  126.912">  7  9 -1 -1</clus>
<clus scale="  347.753">  2  5  1 -1</clus>
</clustering>
</event>
<event>
 9    2  0.3897980E-005  0.1778651E+03  0.7546771E-02  0.1178563E+00
         21   -1    0    0  501  502  0.00000000000E+00  0.00000000000E+00  0.92957186733E+02  0.92957186733E+02  0.00000000000E+00 0.  1.
         -3   -1    0    0    0  501 -0.00000000000E+00 -0.00000000000E+00 -0.36775964844E+03  0.36775964844E+03  0.00000000000E+00 0.  1.
         24    2    1    2    0    0 -0.79144802458E+02 -0.92012253322E+02 -0.23775583737E+03  0.27903452917E+03  0.81254389094E+02 0.  0.
         23    2    1    2    0    0  0.26896549937E+02  0.25668104941E+02 -0.28610246307E+02  0.96814182483E+02  0.84688628081E+02 0.  0.
        -13    1    3    3    0    0 -0.85130580988E+02 -0.56198861419E+02 -0.20953878543E+03  0.23304941631E+03  0.00000000000E+00 0.  1.
         14    1    3    3    0    0  0.59857785298E+01 -0.35813391903E+02 -0.28217051942E+02  0.45985112858E+02  0.00000000000E+00 0. -1.
        -13    1    4    4    0    0  0.56136994847E+02  0.13248534348E+02 -0.63603553032E+01  0.58028785722E+02  0.00000000000E+00 0.  1.
         13    1    4    4    0    0 -0.29240444909E+02  0.12419570593E+02 -0.22249891004E+02  0.38785396761E+02  0.00000000000E+00 0. -1.
         -4    1    1    2    0  502  0.52248252521E+02  0.66344148381E+02 -0.84363780298E+01  0.84868123522E+02  0.00000000000E+00 0.  1.
<scales pt_clust_5="13000.00000" pt_clust_6="13000.00000" pt_clust_7="13000.00000" pt_clust_8="13000.00000" pt_clust_9="13000.00000"></scales>
<clustering>
<clus scale="   81.254">  5  6 -1 -1</clus>
<clus scale="   84.689">  7  8 -1 -1</clus>
<clus scale="   84.448">  7  9 -1 -1</clus>
<clus scale="  146.056">  2  5  1 -1</clus>
<clus scale="  177.865">  1  5  2 -1</clus>
</clustering>
</event>
<event>
 9    2  0.3897980E-005  0.1607975E+03  0.7546771E-02  0.1214012E+00
         21   -1    0    0  501  502  0.00000000000E+00  0.00000000000E+00  0.49203488564E+02  0.49203488564E+02  0.00000000000E+00 0.  1.
          2   -1    0    0  502    0 -0.00000000000E+00 -0.00000000000E+00 -0.35912708944E+03  0.35912708944E+03  0.00000000000E+00 0. -1.
         24    2    1    2    0    0  0.22938786009E+02 -0.16994272415E+02 -0.53385741950E+02  0.10556413140E+03  0.86479796458E+02 0.  0.
         23    2    1    2    0    0  0.14592566375E+02  0.22985648908E+01 -0.81497235289E+02  0.12314521692E+03  0.91130229322E+02 0.  0.
        -13    1    3    3    0    0 -0.65919534959E+01  0.31266113066E+02 -0.77631512532E+01  0.32882977275E+02  0.00000000000E+00 0.  1.
         14    1    3    3    0    0  0.29530739505E+02 -0.48260385481E+02 -0.45622590696E+02  0.72681154121E+02  0.00000000000E+00 0. -1.
        -13    1    4    4    0    0  0.25671646906E+02  0.40494102182E+02 -0.63303710905E+02  0.79411369342E+02  0.00000000000E+00 0. -1.
         13    1    4    4    0    0 -0.11079080531E+02 -0.38195537291E+02 -0.18193524384E+02  0.43733847577E+02  0.00000000000E+00 0.  1.
          1    1    1    2  501    0 -0.37531352385E+02  0.14695707525E+02 -0.17504062364E+03  0.17962122969E+03  0.00000000000E+00 0. -1.
<scales pt_clust_5="13000.00000" pt_clust_6="13000.00000" pt_clust_7="13000.00000" pt_clust_8="13000.00000" pt_clust_9="13000.00000"></scales>
<clustering>
<clus scale="   86.480">  5  6 -1 -1</clus>
<clus scale="   91.070">  2  5  1 -1</clus>
<clus scale="   91.130">  7  8 -1 -1</clus>
<clus scale="   23.317">  7  9 -1 -1</clus>
<clus scale="  160.798">  1  5  2 -1</clus>
</clustering>
</event>
<event>
 9    2  0.3897980E-005  0.4257746E+03  0.7546771E-02  0.1082180E+00
         21   -1    0    0  501  502  0.00000000000E+00  0.00000000000E+00  0.20830579737E+03  0.20830579737E+03  0.00000000000E+00 0.  1.
         -3   -1    0    0    0  501 -0.00000000000E+00 -0.00000000000E+00 -0.35894607209E+03  0.35894607209E+03  0.00000000000E+00 0.  1.
         24    2    1    2    0    0 -0.22077370234E+02  0.76685199676E+02 -0.70651817408E+02  0.13402886373E+03  0.81265164019E+02 0.  0.
         23    2    1    2    0    0 -0.95805091777E+02  0.12779109241E+03 -0.64923899203E+02  0.19671979267E+03  0.94733231916E+02 0.  0.
        -11    1    3    3    0    0 -0.32482485004E+02  0.54388848857E+02 -0.84642769613E+02  0.10572443975E+03  0.00000000000E+00 0.  1.
         12    1    3    3    0    0  0.10405114769E+02  0.22296350819E+02  0.13990952206E+02  0.28304423980E+02  0.00000000000E+00 0. -1.
        -13    1    4    4    0    0 -0.92761048518E+02  0.56622068687E+02 -0.14940930484E+02  0.10969914397E+03  0.00000000000E+00 0.  1.
         13    1    4    4    0    0 -0.30440432585E+01  0.71169023725E+02 -0.49982968718E+02  0.87020648695E+02  0.00000000000E+00 0. -1.
         -4    1    1    2    0  502  0.11788246201E+03 -0.20447629209E+03 -0.15064558107E+02  0.23650321306E+03  0.00000000000E+00 0.  1.
<scales pt_clust_5="13000.00000" pt_clust_6="13000.00000" pt_clust_7="13000.00000" pt_clust_8="13000.00000" pt_clust_9="13000.00000"></scales>
<clustering>
<clus scale="   81.265">  5  6 -1 -1</clus>
<clus scale="   94.733">  7  8 -1 -1</clus>
<clus scale="  113.895">  2  5  1 -1</clus>
<clus scale="  198.275">  7  9 -1 -1</clus>
<clus scale="  425.775">  1  5  2 -1</clus>
</clustering>
</event>
<event>
 9    2  0.3897980E-005  0.1479361E+03  0.7546771E-02  0.1229144E+00
         -3   -1    0    0    0  501 -0.00000000000E+00  0.00000000000E+00  0.24746222889E+02  0.24746222889E+02  0.00000000000E+00 0.  1.
         21   -1    0    0  501  502  0.00000000000E+00 -0.00000000000E+00 -0.56889682092E+03  0.56889682092E+03  0.00000000000E+00 0. -1.
         24    2    1    2    0    0  0.32709501779E+02 -0.11349321991E+02 -0.25488946093E+03  0.26874751496E+03  0.77832325480E+02 0.  0.
         23    2    1    2    0    0  0.97299033957E+01  0.22514072985E+02 -0.23624158311E+03  0.25607091201E+03  0.95711398944E+02 0.  0.
        -11    1    3    3    0    0  0.56869245659E+02 -0.59544889099E+01 -0.14010561989E+03  0.15132465683E+03  0.00000000000E+00 0.  1.
         12    1    3    3    0    0 -0.24159743880E+02 -0.53948330808E+01 -0.11478384103E+03  0.11742285813E+03  0.00000000000E+00 0. -1.
        -13    1    4    4    0    0  0.35353597222E+02 -0.82963770707E+01 -0.33497104410E+02  0.49404075873E+02  0.00000000000E+00 0. -1.
         13    1    4    4    0    0 -0.25623693826E+02  0.30810450056E+02 -0.20274447870E+03  0.20666683614E+03  0.00000000000E+00 0.  1.
         -4    1    1    2    0  502 -0.42439405175E+02 -0.11164750994E+02 -0.53019553994E+02  0.68824616832E+02  0.00000000000E+00 0.  1.
<scales pt_clust_5="13000.00000" pt_clust_6="13000.00000" pt_clust_7="13000.00000" pt_clust_8="13000.00000" pt_clust_9="13000.00000"></scales>
<clustering>
<clus scale="   77.832">  5  6 -1 -1</clus>
<clus scale="   85.186">  1  5  2 -1</clus>
<clus scale="   95.711">  7  8 -1 -1</clus>
<clus scale="   32.289">  7  9 -1 -1</clus>
<clus scale="  147.936">  2  5  1 -1</clus>
</clustering>
</event>
<event>
 9    2  0.3897980E-005  0.2472848E+03  0.7546771E-02  0.1128006E+00
          2   -1    0    0  502    0 -0.00000000000E+00  0.00000000000E+00  0.56949239116E+03  0.56949239116E+03  0.00000000000E+00 0. -1.
         21   -1    0    0  501  502  0.00000000000E+00 -0.00000000000E+00 -0.84895279071E+02  0.84895279071E+02  0.00000000000E+00 0. -1.
         24    2    1    2    0    0  0.38297469773E+02 -0.15383782020E+03  0.12618672561E+03  0.21894790884E+03  0.82959785128E+02 0.  0.
         23    2    1    2    0    0  0.70358014918E+01  0.19763015401E+02  0.20808088487E+03  0.22896913922E+03  0.93215517953E+02 0.  0.
        -13    1    3    3    0    0  0.37601392767E+02 -0.52467125298E+02  0.10956210568E+02  0.65472914438E+02  0.00000000000E+00 0.  1.
         14    1    3    3    0    0  0.69607700580E+00 -0.10137069491E+03  0.11523051505E+03  0.15347499440E+03  0.00000000000E+00 0. -1.
        -13    1    4    4    0    0  0.51180072507E+01  0.50805923553E+02  0.65589730456E+02  0.83123093106E+02  0.00000000000E+00 0. -1.
         13    1    4    4    0    0  0.19177942411E+01 -0.31042908151E+02  0.14249115442E+03  0.14584604612E+03  0.00000000000E+00 0.  1.
          1    1    1    2  501    0 -0.45333271265E+02  0.13407480480E+03  0.15032950160E+03  0.20647062217E+03  0.00000000000E+00 0. -1.
<scales pt_clust_5="13000.00000" pt_clust_6="13000.00000" pt_clust_7="13000.00000" pt_clust_8="13000.00000" pt_clust_9="13000.00000"></scales>
<clustering>
<clus scale="   82.960">  5  6 -1 -1</clus>
<clus scale="   93.216">  7  8 -1 -1</clus>
<clus scale="  141.532">  7  9 -1 -1</clus>
<clus scale="  178.928">  1  5  2 -1</clus>
<clus scale="  247.285">  2  5  1 -1</clus>
</clustering>
</event>
<event>
 9    2  0.3897980E-005  0.6376964E+03  0.7546771E-02  0.1043145E+00
          2   -1    0    0  502    0 -0.00000000000E+00  0.00000000000E+00  0.34754148775E+03  0.34754148775E+03  0.00000000000E+00 0. -1.
         21   -1    0    0  501  502  0.00000000000E+00 -0.00000000000E+00 -0.39373142484E+03  0.39373142484E+03  0.00000000000E+00 0. -1.
         24    2    1    2    0    0 -0.55241118769E+02 -0.21188054325E+02 -0.23059510571E+02  0.10315719095E+03  0.81296679927E+02 0.  0.
         23    2    1    2    0    0  0.81095234068E+02 -0.14114324661E+03 -0.27808799376E+03  0.33476238370E+03  0.90747276639E+02 0.  0.
        -11    1    3    3    0    0  0.83639298989E+01 -0.34408672357E+02 -0.52666402028E+01  0.35800133460E+02  0.00000000000E+00 0.  1.
         12    1    3    3    0    0 -0.63605048668E+02  0.13220618032E+02 -0.17792870368E+02  0.67357057486E+02  0.00000000000E+00 0. -1.
        -11    1    4    4    0    0  0.18081120493E+02 -0.93928787518E+02 -0.20963836595E+03  0.23042957389E+03  0.00000000000E+00 0. -1.
         11    1    4    4    0    0  0.63014113575E+02 -0.47214459093E+02 -0.68449627806E+02  0.10433280981E+03  0.00000000000E+00 0.  1.
          1    1    1    2  501    0 -0.25854115299E+02  0.16233130094E+03  0.25495756725E+03  0.30335333794E+03  0.00000000000E+00 0. -1.
<scales pt_clust_5="13000.00000" pt_clust_6="13000.00000" pt_clust_7="13000.00000" pt_clust_8="13000.00000" pt_clust_9="13000.00000"></scales>
<clustering>
<clus scale="   81.297">  5  6 -1 -1</clus>
<clus scale="   90.747">  7  8 -1 -1</clus>
<clus scale="  100.547">  1  5  2 -1</clus>
<clus scale="  162.028">  7  9 -1 -1</clus>
<clus scale="  637.696">  2  5  1 -1</clus>
</clustering>
</event>
<event>
 9    2  0.6686463E-005  0.3390790E+03  0.7546771E-02  0.1115208E+00
          2   -1    0    0  502    0 -0.00000000000E+00  0.00000000000E+00  0.67260561320E+03  0.67260561320E+03  0.00000000000E+00 0. -1.
         21   -1    0    0  501  502  0.00000000000E+00 -0.00000000000E+00 -0.34224013314E+03  0.34224013314E+03  0.00000000000E+00 0. -1.
         24    2    1    2    0    0 -0.33340188252E+02  0.16009388678E+02  0.58377657608E+03  0.59153527344E+03  0.88039878840E+02 0.  0.
         23    2    1    2    0    0 -0.48871888176E+02  0.36174807097E+02  0.38896056475E+02  0.11521067218E+03  0.89797091562E+02 0.  0.
        -11    1    3    3    0    0 -0.39183678276E+01 -0.19640206186E+02  0.31498128485E+02  0.37325907940E+02  0.00000000000E+00 0.  1.
         12    1    3    3    0    0 -0.29421820425E+02  0.35649594863E+02  0.55227844759E+03  0.55420936550E+03  0.00000000000E+00 0. -1.
        -11    1    4    4    0    0  0.20256606325E+02 -0.10174021668E+02  0.19144410651E+02  0.29670680408E+02  0.00000000000E+00 0.  1.
         11    1    4    4    0    0 -0.69128494502E+02  0.46348828765E+02  0.19751645824E+02  0.85539991774E+02  0.00000000000E+00 0. -1.
          1    1    1    2  501    0  0.82212076428E+02 -0.52184195775E+02 -0.29230715250E+03  0.30809980072E+03  0.00000000000E+00 0. -1.
<scales pt_clust_5="13000.00000" pt_clust_6="13000.00000" pt_clust_7="13000.00000" pt_clust_8="13000.00000" pt_clust_9="13000.00000"></scales>
<clustering>
<clus scale="   88.040">  5  6 -1 -1</clus>
<clus scale="   89.797">  7  8 -1 -1</clus>
<clus scale="   95.493">  1  5  2 -1</clus>
<clus scale="   93.963">  7  9 -1 -1</clus>
<clus scale="  339.079">  2  5  1 -1</clus>
</clustering>
</event>
<event>
 9    2  0.3897980E-005  0.2081971E+03  0.7546771E-02  0.1177530E+00
         21   -1    0    0  501  502  0.00000000000E+00  0.00000000000E+00  0.11897925998E+03  0.11897925998E+03  0.00000000000E+00 0. -1.
          2   -1    0    0  502    0 -0.00000000000E+00 -0.00000000000E+00 -0.19970677883E+03  0.19970677883E+03  0.00000000000E+00 0. -1.
         24    2    1    2    0    0  0.39652958102E+02  0.20683534679E+02  0.54135654978E+01  0.93372205397E+02  0.81785673294E+02 0.  0.
         23    2    1    2    0    0  0.26719493329E+02  0.17715072494E+02  0.17576525141E+02  0.96328958866E+02  0.89121147675E+02 0.  0.
        -13    1    3    3    0    0 -0.40627430279E+01  0.43405054347E+02 -0.15056363990E+01  0.43620769878E+02  0.00000000000E+00 0.  1.
         14    1    3    3    0    0  0.43715701130E+02 -0.22721519668E+02  0.69192018968E+01  0.49751435519E+02  0.00000000000E+00 0. -1.
        -11    1    4    4    0    0 -0.14719444753E+02  0.19950054119E+02 -0.26157002855E+02  0.36039638061E+02  0.00000000000E+00 0.  1.
         11    1    4    4    0    0  0.41438938081E+02 -0.22349816255E+01  0.43733527996E+02  0.60289320805E+02  0.00000000000E+00 0. -1.
          1    1    1    2  501    0 -0.66372451431E+02 -0.38398607172E+02 -0.10371760949E+03  0.12898487454E+03  0.00000000000E+00 0. -1.
<scales pt_clust_5="13000.00000" pt_clust_6="13000.00000" pt_clust_7="13000.00000" pt_clust_8="13000.00000" pt_clust_9="13000.00000"></scales>
<clustering>
<clus scale="   81.786">  5  6 -1 -1</clus>
<clus scale="   89.121">  7  8 -1 -1</clus>
<clus scale="   76.680">  7  9 -1 -1</clus>
<clus scale="   93.215">  2  5  1 -1</clus>
<clus scale="  208.197">  1  5  2 -1</clus>
</clustering>
</event>
<event>
 9    2  0.3897980E-005  0.2203731E+03  0.7546771E-02  0.1174384E+00
         21   -1    0    0  501  502  0.00000000000E+00  0.00000000000E+00  0.18930475716E+03  0.18930475716E+03  0.00000000000E+00 0. -1.
          4   -1    0    0  502    0 -0.00000000000E+00 -0.00000000000E+00 -0.13418318531E+03  0.13418318531E+03  0.00000000000E+00 0. -1.
         24    2    1    2    0    0 -0.12941437615E+02 -0.23937457907E+02 -0.26527267598E+02  0.88475561830E+02  0.79898350523E+02 0.  0.
         23    2    1    2    0    0 -0.34879589610E+02  0.81076102973E+02  0.43473652503E+01  0.12764761306E+03  0.92114566117E+02 0.  0.
        -11    1    3    3    0    0  0.29726617104E+02 -0.24022013862E+02  0.26497645949E-01  0.38219492626E+02  0.00000000000E+00 0.  1.
         12    1    3    3    0    0 -0.42668054719E+02  0.84555954895E-01 -0.26553765244E+02  0.50256069204E+02  0.00000000000E+00 0. -1.
        -13    1    4    4    0    0 -0.63997441528E+02  0.72415499477E+02 -0.17748933820E+01  0.96658301936E+02  0.00000000000E+00 0. -1.
         13    1    4    4    0    0  0.29117851918E+02  0.86606034958E+01  0.61222586323E+01  0.30989311125E+02  0.00000000000E+00 0.  1.
          3    1    1    2  501    0  0.47821027225E+02 -0.57138645066E+02  0.77301474192E+02  0.10736476758E+03  0.00000000000E+00 0. -1.
<scales pt_clust_5="13000.00000" pt_clust_6="13000.00000" pt_clust_7="13000.00000" pt_clust_8="13000.00000" pt_clust_9="13000.00000"></scales>
<clustering>
<clus scale="   79.898">  5  6 -1 -1</clus>
<clus scale="   84.405">  2  5  1 -1</clus>
<clus scale="   92.115">  7  8 -1 -1</clus>
<clus scale="   76.640">  7  9 -1 -1</clus>
<clus scale="  220.373">  1  5  2 -1</clus>
</clustering>
</event>
<event>
 9    2  0.3897980E-005  0.2199603E+03  0.7546771E-02  0.1173523E+00
          2   -1    0    0  502    0 -0.00000000000E+00  0.00000000000E+00  0.14410039921E+03  0.14410039921E+03  0.00000000000E+00 0. -1.
         21   -1    0    0  501  502  0.00000000000E+00 -0.00000000000E+00 -0.49952174319E+03  0.49952174319E+03  0.00000000000E+00 0.  1.
         24    2    1    2    0    0  0.26760390617E+02  0.16039254372E+02  0.10337242431E+03  0.13482528112E+03  0.80737984461E+02 0.  0.
         23    2    1    2    0    0  0.26211220106E+02 -0.82728003023E+02 -0.33534209739E+03  0.35881787679E+03  0.93621556703E+02 0.  0.
        -13    1    3    3    0    0  0.10540946990E+02 -0.25927641054E+02  0.75858551888E+01  0.28998264310E+02  0.00000000000E+00 0.  1.
         14    1    3    3    0    0  0.16219443627E+02  0.41966895425E+02  0.95786569117E+02  0.10582701681E+03  0.00000000000E+00 0. -1.
        -11    1    4    4    0    0  0.14037805769E+02 -0.60962123289E+02 -0.32637448893E+03  0.33231573464E+03  0.00000000000E+00 0.  1.
         11    1    4    4    0    0  0.12173414337E+02 -0.21765879734E+02 -0.89676084668E+01  0.26502142155E+02  0.00000000000E+00 0. -1.
          1    1    1    2  501    0 -0.52971610722E+02  0.66688748651E+02 -0.12345167090E+03  0.14997898448E+03  0.00000000000E+00 0. -1.
<scales pt_clust_5="13000.00000" pt_clust_6="13000.00000" pt_clust_7="13000.00000" pt_clust_8="13000.00000" pt_clust_9="13000.00000"></scales>
<clustering>
<clus scale="   80.738">  5  6 -1 -1</clus>
<clus scale="   86.556">  1  5  2 -1</clus>
<clus scale="   93.622">  7  8 -1 -1</clus>
<clus scale="   84.606">  7  9 -1 -1</clus>
<clus scale="  219.960">  2  5  1 -1</clus>
</clustering>
</event>
<event>
 9    2  0.3897980E-005  0.2455523E+03  0.7546771E-02  0.1157885E+00
          2   -1    0    0  502    0 -0.00000000000E+00  0.00000000000E+00  0.11051257523E+04  0.11051257523E+04  0.00000000000E+00 0. -1.
         21   -1    0    0  501  502  0.00000000000E+00 -0.00000000000E+00 -0.26506761908E+02  0.26506761908E+02  0.00000000000E+00 0. -1.
         24    2    1    2    0    0 -0.19052061882E+02  0.30559344513E+02  0.19334205968E+03  0.21293169359E+03  0.81620460010E+02 0.  0.
         23    2    1    2    0    0  0.99169639804E+00  0.80786028177E+02  0.31881583942E+03  0.34111780774E+03  0.90501124213E+02 0.  0.
        -11    1    3    3    0    0 -0.32255507414E+02 -0.63356116969E+01  0.28532956738E+02  0.43528006551E+02  0.00000000000E+00 0.  1.
         12    1    3    3    0    0  0.13203445532E+02  0.36894956210E+02  0.16480910295E+03  0.16940368704E+03  0.00000000000E+00 0. -1.
        -11    1    4    4    0    0  0.43963461423E+02  0.42408727978E+02  0.19910061437E+03  0.20826027176E+03  0.00000000000E+00 0.  1.
         11    1    4    4    0    0 -0.42971765025E+02  0.38377300199E+02  0.11971522505E+03  0.13285753599E+03  0.00000000000E+00 0. -1.
          1    1    1    2  501    0  0.18060365484E+02 -0.11134537269E+03  0.56646109129E+03  0.57758301288E+03  0.00000000000E+00 0. -1.
<scales pt_clust_5="13000.00000" pt_clust_6="13000.00000" pt_clust_7="13000.00000" pt_clust_8="13000.00000" pt_clust_9="13000.00000"></scales>
<clustering>
<clus scale="   81.620">  5  6 -1 -1</clus>
<clus scale="   89.212">  1  5  2 -1</clus>
<clus scale="   90.501">  7  8 -1 -1</clus>
<clus scale="   92.159">  7  9 -1 -1</clus>
<clus scale="  245.552">  2  5  1 -1</clus>
</clustering>
</event>
<event>
 9    2  0.3897980E-005  0.4397526E+03  0.7546771E-02  0.1070700E+00
         21   -1    0    0  501  502  0.00000000000E+00  0.00000000000E+00  0.19476901652E+03  0.19476901652E+03  0.00000000000E+00 0.  1.
         -1   -1    0    0    0  501 -0.00000000000E+00 -0.00000000000E+00 -0.64478552901E+03  0.64478552901E+03  0.00000000000E+00 0.  1.
         24    2    1    2    0    0  0.89551643567E+02  0.74862883155E+02 -0.36543485754E+03  0.39174161173E+03  0.79340450706E+02 0.  0.
         23    2    1    2    0    0 -0.10000646592E+03  0.45588931370E+02 -0.22256392401E+03  0.26435435670E+03  0.90933391812E+02 0.  0.
        -11    1    3    3    0    0  0.62219899728E+02  0.88220770148E+02 -0.31333177590E+03  0.33140763721E+03  0.00000000000E+00 0.  1.
         12    1    3    3    0    0  0.27331743838E+02 -0.13357886993E+02 -0.52103081633E+02  0.60333974524E+02  0.00000000000E+00 0. -1.
        -11    1    4    4    0    0 -0.11346568568E+03  0.24643823748E+02 -0.19698883272E+03  0.22866215273E+03  0.00000000000E+00 0. -1.
         11    1    4    4    0    0  0.13459219755E+02  0.20945107622E+02 -0.25575091290E+02  0.35692203970E+02  0.00000000000E+00 0.  1.
         -2    1    1    2    0  502  0.10454822357E+02 -0.12045181453E+03  0.13798226906E+03  0.18345857709E+03  0.00000000000E+00 0.  1.
<scales pt_clust_5="13000.00000" pt_clust_6="13000.00000" pt_clust_7="13000.00000" pt_clust_8="13000.00000" pt_clust_9="13000.00000"></scales>
<clustering>
<clus scale="   79.340">  5  6 -1 -1</clus>
<clus scale="   90.933">  7  8 -1 -1</clus>
<clus scale="  120.905">  7  9 -1 -1</clus>
<clus scale="  141.134">  2  5  1 -1</clus>
<clus scale="  439.753">  1  5  2 -1</clus>
</clustering>
</event>
<event>
 9    2  0.3897980E-005  0.1890818E+03  0.7546771E-02  0.1184922E+00
         21   -1    0    0  501  502  0.00000000000E+00  0.00000000000E+00  0.22451488581E+03  0.22451488581E+03  0.00000000000E+00 0.  1.
          2   -1    0    0  502    0 -0.00000000000E+00 -0.00000000000E+00 -0.99156961666E+02  0.99156961666E+02  0.00000000000E+00 0. -1.
         24    2    1    2    0    0 -0.24987178995E+02  0.63529315842E+02  0.20301282434E+02  0.10736460817E+03  0.80341047627E+02 0.  0.
         23    2    1    2    0    0  0.17594051390E+02 -0.35265397647E+02  0.13956665042E+03  0.17109166556E+03  0.90776148834E+02 0.  0.
        -11    1    3    3    0    0  0.28114549371E+02  0.16301068565E+02  0.15855919483E+02  0.36160239287E+02  0.00000000000E+00 0.  1.
         12    1    3    3    0    0 -0.53101728366E+02  0.47228247277E+02  0.44453629517E+01  0.71204368884E+02  0.00000000000E+00 0. -1.
        -13    1    4    4    0    0 -0.30720675380E+02 -0.34314734861E+02  0.93977971160E+02  0.10465715450E+03  0.00000000000E+00 0.  1.
         13    1    4    4    0    0  0.48314726770E+02 -0.95066278621E+00  0.45588679264E+02  0.66434511059E+02  0.00000000000E+00 0. -1.
          1    1    1    2  501    0  0.73931276052E+01 -0.28263918195E+02 -0.34510008716E+02  0.45215573745E+02  0.00000000000E+00 0. -1.
<scales pt_clust_5="13000.00000" pt_clust_6="13000.00000" pt_clust_7="13000.00000" pt_clust_8="13000.00000" pt_clust_9="13000.00000"></scales>
<clustering>
<clus scale="   80.341">  5  6 -1 -1</clus>
<clus scale="   90.776">  7  8 -1 -1</clus>
<clus scale="   29.215">  7  9 -1 -1</clus>
<clus scale="  105.428">  2  5  1 -1</clus>
<clus scale="  189.082">  1  5  2 -1</clus>
</clustering>
</event>
<event>
 9    2  0.3897980E-005  0.3719458E+03  0.7546771E-02  0.1087083E+00
          2   -1    0    0  502    0 -0.00000000000E+00  0.00000000000E+00  0.14777389658E+04  0.14777389658E+04  0.00000000000E+00 0. -1.
         21   -1    0    0  501  502  0.00000000000E+00 -0.00000000000E+00 -0.55434654766E+02  0.55434654766E+02  0.00000000000E+00 0. -1.
         24    2    1    2    0    0 -0.56400269825E+02 -0.10101678022E+03  0.75009768381E+03  0.76492533057E+03  0.95282977300E+02 0.  0.
         23    2    1    2    0    0 -0.10530882372E+03  0.98137310382E+02  0.51808033724E+03  0.54483603532E+03  0.87853227052E+02 0.  0.
        -11    1    3    3    0    0 -0.49967234048E+02 -0.43230950392E+01  0.19010784636E+03  0.19661232636E+03  0.00000000000E+00 0.  1.
         12    1    3    3    0    0 -0.64330357776E+01 -0.96693685180E+02  0.55998983744E+03  0.56831300420E+03  0.00000000000E+00 0. -1.
        -11    1    4    4    0    0 -0.68809574571E+02  0.10517760932E+03  0.45053257557E+03  0.46773570390E+03  0.00000000000E+00 0. -1.
         11    1    4    4    0    0 -0.36499249154E+02 -0.70402989384E+01  0.67547761672E+02  0.77100331418E+02  0.00000000000E+00 0.  1.
          1    1    1    2  501    0  0.16170909355E+03  0.28794698375E+01  0.15412629003E+03  0.22341225472E+03  0.00000000000E+00 0. -1.
<scales pt_clust_5="13000.00000" pt_clust_6="13000.00000" pt_clust_7="13000.00000" pt_clust_8="13000.00000" pt_clust_9="13000.00000"></scales>
<clustering>
<clus scale="   87.853">  7  8 -1 -1</clus>
<clus scale="   95.283">  5  6 -1 -1</clus>
<clus scale="  149.881">  1  5  2 -1</clus>
<clus scale="  148.810">  7  9 -1 -1</clus>
<clus scale="  371.946">  2  5  1 -1</clus>
</clustering>
</event>
<event>
 9    2  0.3897980E-005  0.2798890E+03  0.7546771E-02  0.1110050E+00
          2   -1    0    0  502    0 -0.00000000000E+00  0.00000000000E+00  0.19185960306E+04  0.19185960306E+04  0.00000000000E+00 0. -1.
         21   -1    0    0  501  502  0.00000000000E+00 -0.00000000000E+00 -0.30800579800E+02  0.30800579800E+02  0.00000000000E+00 0. -1.
         24    2    1    2    0    0  0.12578112621E+03 -0.12280625365E+03  0.99915062334E+03  0.10177166719E+04  0.80888741212E+02 0.  0.
         23    2    1    2    0    0 -0.46902013184E+02 -0.80574808000E+01  0.19430045952E+03  0.22072189984E+03  0.93277900185E+02 0.  0.
        -13    1    3    3    0    0  0.33264419489E+00 -0.46643942985E+02  0.22696071265E+03  0.23170440901E+03  0.00000000000E+00 0.  1.
         14    1    3    3    0    0  0.12544848202E+03 -0.76162310669E+02  0.77218991070E+03  0.78601226288E+03  0.00000000000E+00 0. -1.
        -11    1    4    4    0    0  0.18113022976E+02 -0.25388453691E+02  0.10089377575E+03  0.10560402060E+03  0.00000000000E+00 0.  1.
         11    1    4    4    0    0 -0.65015036159E+02  0.17330972891E+02  0.93406683775E+02  0.11511787925E+03  0.00000000000E+00 0. -1.
          1    1    1    2  501    0 -0.78879113029E+02  0.13086373445E+03  0.69434436790E+03  0.71095803863E+03  0.00000000000E+00 0. -1.
<scales pt_clust_5="13000.00000" pt_clust_6="13000.00000" pt_clust_7="13000.00000" pt_clust_8="13000.00000" pt_clust_9="13000.00000"></scales>
<clustering>
<clus scale="   80.889">  5  6 -1 -1</clus>
<clus scale="   93.278">  7  8 -1 -1</clus>
<clus scale="  152.798">  7  9 -1 -1</clus>
<clus scale="  193.508">  1  5  2 -1</clus>
<clus scale="  279.889">  2  5  1 -1</clus>
</clustering>
</event>
<event>
 9    2  0.3897980E-005  0.2016995E+03  0.7546771E-02  0.1186504E+00
         21   -1    0    0  501  502  0.00000000000E+00  0.00000000000E+00  0.50859438510E+03  0.50859438510E+03  0.00000000000E+00 0. -1.
         -3   -1    0    0    0  501 -0.00000000000E+00 -0.00000000000E+00 -0.40274801803E+02  0.40274801803E+02  0.00000000000E+00 0.  1.
         24    2    1    2    0    0  0.12609130663E+01  0.23250022142E+02  0.12058782224E+03  0.14687405847E+03  0.80550684325E+02 0.  0.
         23    2    1    2    0    0 -0.68299763976E+02 -0.49135481464E+02  0.17398545908E+03  0.21397374139E+03  0.91840452623E+02 0.  0.
        -13    1    3    3    0    0  0.23730851196E+02  0.39312398199E+02  0.10626189182E+03  0.11575926573E+03  0.00000000000E+00 0.  1.
         14    1    3    3    0    0 -0.22469938130E+02 -0.16062376057E+02  0.14325930428E+02  0.31114792732E+02  0.00000000000E+00 0. -1.
        -11    1    4    4    0    0 -0.31950841658E+02 -0.64470091756E+02  0.15348581235E+03  0.16951443481E+03  0.00000000000E+00 0.  1.
         11    1    4    4    0    0 -0.36348922319E+02  0.15334610291E+02  0.20499646722E+02  0.44459306588E+02  0.00000000000E+00 0. -1.
         -4    1    1    2    0  502  0.67038850910E+02  0.25885459323E+02  0.17374630198E+03  0.18802138705E+03  0.00000000000E+00 0.  1.
<scales pt_clust_5="13000.00000" pt_clust_6="13000.00000" pt_clust_7="13000.00000" pt_clust_8="13000.00000" pt_clust_9="13000.00000"></scales>
<clustering>
<clus scale="   80.551">  5  6 -1 -1</clus>
<clus scale="   83.848">  2  5  1 -1</clus>
<clus scale="   91.840">  7  8 -1 -1</clus>
<clus scale="   74.585">  7  9 -1 -1</clus>
<clus scale="  201.700">  1  5  2 -1</clus>
</clustering>
</event>
<event>
 9    2  0.3897980E-005  0.2193749E+03  0.7546771E-02  0.1164771E+00
          2   -1    0    0  502    0 -0.00000000000E+00  0.00000000000E+00  0.68312074140E+03  0.68312074140E+03  0.00000000000E+00 0. -1.
         21   -1    0    0  501  502  0.00000000000E+00 -0.00000000000E+00 -0.39037314801E+02  0.39037314801E+02  0.00000000000E+00 0. -1.
         24    2    1    2    0    0 -0.37673359926E+02  0.60446772991E+02  0.19045679692E+03  0.21827070542E+03  0.79342390545E+02 0.  0.
         23    2    1    2    0    0  0.80175155266E+02 -0.60789549861E+02  0.16968416558E+03  0.21678137206E+03  0.89877818885E+02 0.  0.
        -11    1    3    3    0    0 -0.13270994691E+02 -0.18674352103E+02  0.53994568654E+02  0.58653765188E+02  0.00000000000E+00 0.  1.
         12    1    3    3    0    0 -0.24402365235E+02  0.79121125093E+02  0.13646222827E+03  0.15961694023E+03  0.00000000000E+00 0. -1.
        -13    1    4    4    0    0  0.54050110813E+02 -0.22278775602E+02  0.15847501884E+03  0.16891444556E+03  0.00000000000E+00 0.  1.
         13    1    4    4    0    0  0.26125044453E+02 -0.38510774259E+02  0.11209146738E+02  0.47866926497E+02  0.00000000000E+00 0. -1.
          1    1    1    2  501    0 -0.42501795340E+02  0.34277686998E+00  0.28394246409E+03  0.28710597872E+03  0.00000000000E+00 0. -1.
<scales pt_clust_5="13000.00000" pt_clust_6="13000.00000" pt_clust_7="13000.00000" pt_clust_8="13000.00000" pt_clust_9="13000.00000"></scales>
<clustering>
<clus scale="   79.342">  5  6 -1 -1</clus>
<clus scale="   89.878">  7  8 -1 -1</clus>
<clus scale="   42.503">  7  9 -1 -1</clus>
<clus scale="  106.622">  1  5  2 -1</clus>
<clus scale="  219.375">  2  5  1 -1</clus>
</clustering>
</event>
<event>
 9    2  0.3897980E-005  0.4603239E+03  0.7546771E-02  0.1026852E+00
         21   -1    0    0  501  502  0.00000000000E+00  0.00000000000E+00  0.13913658723E+03  0.13913658723E+03  0.00000000000E+00 0. -1.
          2   -1    0    0  502    0 -0.00000000000E+00 -0.00000000000E+00 -0.15664442942E+04  0.15664442942E+04  0.00000000000E+00 0. -1.
         24    2    1    2    0    0 -0.35741592363E+03  0.22777546138E+03 -0.94512882665E+03  0.10389516432E+04  0.80772610515E+02 0.  0.
         23    2    1    2    0    0  0.16019968856E+03 -0.86759709492E+02 -0.14151586138E+03  0.24850129357E+03  0.92384882293E+02 0.  0.
        -13    1    3    3    0    0 -0.13922652739E+03  0.11889581681E+03 -0.33245310719E+03  0.37953301525E+03  0.00000000000E+00 0.  1.
         14    1    3    3    0    0 -0.21818939624E+03  0.10887964457E+03 -0.61267571947E+03  0.65941862793E+03  0.00000000000E+00 0. -1.
        -11    1    4    4    0    0  0.63974787926E+02  0.11687313999E+01 -0.85092222953E+02  0.10646513904E+03  0.00000000000E+00 0.  1.
         11    1    4    4    0    0  0.96224900638E+02 -0.87928440892E+02 -0.56423638423E+02  0.14203615453E+03  0.00000000000E+00 0. -1.
          1    1    1    2  501    0  0.19721623507E+03 -0.14101575189E+03 -0.34066301898E+03  0.41812794472E+03  0.00000000000E+00 0. -1.
<scales pt_clust_5="13000.00000" pt_clust_6="13000.00000" pt_clust_7="13000.00000" pt_clust_8="13000.00000" pt_clust_9="13000.00000"></scales>
<clustering>
<clus scale="   80.773">  5  6 -1 -1</clus>
<clus scale="   92.385">  7  8 -1 -1</clus>
<clus scale="  242.445">  7  9 -1 -1</clus>
<clus scale="  431.453">  2  5  1 -1</clus>
<clus scale="  460.324">  1  5  2 -1</clus>
</clustering>
</event>
<event>
 9    2  0.3897980E-005  0.2946132E+03  0.7546771E-02  0.1111115E+00
         21   -1    0    0  501  502  0.00000000000E+00  0.00000000000E+00  0.10311360479E+03  0.10311360479E+03  0.00000000000E+00 0.  1.
          2   -1    0    0  502    0 -0.00000000000E+00 -0.00000000000E+00 -0.51513691048E+03  0.51513691048E+03  0.00000000000E+00 0. -1.
         24    2    1    2    0    0 -0.13934298278E+03 -0.18360421208E+02 -0.10433368464E+03  0.19225776003E+03  0.79523308696E+02 0.  0.
         23    2    1    2    0    0 -0.23361925716E+02 -0.19520159530E+02 -0.21388236918E+03  0.23440041158E+03  0.90945417158E+02 0.  0.
        -11    1    3    3    0    0 -0.62692421143E+02 -0.48249351375E+02 -0.54592556828E+02  0.96118087985E+02  0.00000000000E+00 0.  1.
         12    1    3    3    0    0 -0.76650561635E+02  0.29888930167E+02 -0.49741127811E+02  0.96139672047E+02  0.00000000000E+00 0. -1.
        -11    1    4    4    0    0  0.14757921413E+02 -0.44654428466E+02 -0.78326881551E+02  0.91361450292E+02  0.00000000000E+00 0. -1.
         11    1    4    4    0    0 -0.38119847129E+02  0.25134268936E+02 -0.13555548763E+03  0.14303896129E+03  0.00000000000E+00 0.  1.
          1    1    1    2  501    0  0.16270490849E+03  0.37880580738E+02 -0.93807251863E+02  0.19159234366E+03  0.00000000000E+00 0. -1.
<scales pt_clust_5="13000.00000" pt_clust_6="13000.00000" pt_clust_7="13000.00000" pt_clust_8="13000.00000" pt_clust_9="13000.00000"></scales>
<clustering>
<clus scale="   79.523">  5  6 -1 -1</clus>
<clus scale="   90.945">  7  8 -1 -1</clus>
<clus scale="  161.485">  2  5  1 -1</clus>
<clus scale="  112.771">  7  9 -1 -1</clus>
<clus scale="  294.613">  1  5  2 -1</clus>
</clustering>
</event>
<event>
 9    2  0.3897980E-005  0.1396645E+03  0.7546771E-02  0.1236653E+00
          2   -1    0    0  502    0 -0.00000000000E+00  0.00000000000E+00  0.61511817984E+03  0.61511817984E+03  0.00000000000E+00 0. -1.
         21   -1    0    0  501  502  0.00000000000E+00 -0.00000000000E+00 -0.14114716860E+03  0.14114716860E+03  0.00000000000E+00 0. -1.
         24    2    1    2    0    0  0.35321030587E+02  0.56789471997E+01  0.57650971698E+03  0.58300152292E+03  0.79041105219E+02 0.  0.
         23    2    1    2    0    0 -0.35958007974E+02 -0.36140195230E+02 -0.97929216569E+02  0.14244920622E+03  0.90014181365E+02 0.  0.
        -13    1    3    3    0    0 -0.20226088100E+02  0.10683984857E+02  0.75283788492E+02  0.78682215157E+02  0.00000000000E+00 0.  1.
         14    1    3    3    0    0  0.55547118687E+02 -0.50050376575E+01  0.50122592849E+03  0.50431930777E+03  0.00000000000E+00 0. -1.
        -11    1    4    4    0    0 -0.39842845985E+01  0.28741944553E+02 -0.15914001049E+02  0.33094249196E+02  0.00000000000E+00 0.  1.
         11    1    4    4    0    0 -0.31973723375E+02 -0.64882139783E+02 -0.82015215521E+02  0.10935495703E+03  0.00000000000E+00 0. -1.
          1    1    1    2  501    0  0.63697738650E+00  0.30461248030E+02 -0.46094891698E+01  0.30814619292E+02  0.00000000000E+00 0. -1.
<scales pt_clust_5="13000.00000" pt_clust_6="13000.00000" pt_clust_7="13000.00000" pt_clust_8="13000.00000" pt_clust_9="13000.00000"></scales>
<clustering>
<clus scale="   79.041">  5  6 -1 -1</clus>
<clus scale="   86.760">  1  5  2 -1</clus>
<clus scale="   90.014">  7  8 -1 -1</clus>
<clus scale="   35.339">  7  9 -1 -1</clus>
<clus scale="  139.664">  2  5  1 -1</clus>
</clustering>
</event>
<event>
 9    2  0.3933746E-005  0.4137317E+03  0.7546771E-02  0.1062429E+00
         21   -1    0    0  501  502  0.00000000000E+00  0.00000000000E+00  0.84176853960E+02  0.84176853960E+02  0.00000000000E+00 0. -1.
          2   -1    0    0  502    0 -0.00000000000E+00 -0.00000000000E+00 -0.11860671497E+04  0.11860671497E+04  0.00000000000E+00 0. -1.
         24    2    1    2    0    0  0.18662888172E+03 -0.64788968124E+02 -0.45463344457E+03  0.50205434262E+03  0.79618114399E+02 0.  0.
         23    2    1    2    0    0  0.34334257582E+02 -0.97033333857E+02 -0.26879684782E+03  0.30102465756E+03  0.88146411919E+02 0.  0.
        -13    1    3    3    0    0  0.46453567787E+02 -0.54001855865E+02 -0.12883356729E+03  0.14721488531E+03  0.00000000000E+00 0.  1.
         14    1    3    3    0    0  0.14017531394E+03 -0.10787112259E+02 -0.32579987728E+03  0.35483945731E+03  0.00000000000E+00 0. -1.
        -11    1    4    4    0    0  0.25619439956E+02 -0.22871336740E+02 -0.18757734494E+03  0.19069534363E+03  0.00000000000E+00 0.  1.
         11    1    4    4    0    0  0.87148176257E+01 -0.74161997117E+02 -0.81219502884E+02  0.11032931393E+03  0.00000000000E+00 0. -1.
          1    1    1    2  501    0 -0.22096313930E+03  0.16182230198E+03 -0.37846000338E+03  0.46716500351E+03  0.00000000000E+00 0. -1.
<scales pt_clust_5="13000.00000" pt_clust_6="13000.00000" pt_clust_7="13000.00000" pt_clust_8="13000.00000" pt_clust_9="13000.00000"></scales>
<clustering>
<clus scale="   79.618">  5  6 -1 -1</clus>
<clus scale="   88.146">  7  8 -1 -1</clus>
<clus scale="  212.995">  2  5  1 -1</clus>
<clus scale="  164.743">  7  9 -1 -1</clus>
<clus scale="  413.732">  1  5  2 -1</clus>
</clustering>
</event>
<event>
 9    2  0.8661137E-005  0.3094066E+03  0.7546771E-02  0.1106955E+00
          2   -1    0    0  502    0 -0.00000000000E+00  0.00000000000E+00  0.67701738430E+03  0.67701738430E+03  0.00000000000E+00 0. -1.
         21   -1    0    0  501  502  0.00000000000E+00 -0.00000000000E+00 -0.91559662747E+02  0.91559662747E+02  0.00000000000E+00 0. -1.
         24    2    1    2    0    0  0.80508317271E+02 -0.11296507931E+03  0.76305588437E+02  0.17278487685E+03  0.69205292781E+02 0.  0.
         23    2    1    2    0    0  0.32694961842E+02  0.20889998191E+02  0.42760753807E+02  0.10710646173E+03  0.90210639744E+02 0.  0.
        -11    1    3    3    0    0  0.43139070637E+02 -0.14016516344E+02  0.41378786724E+02  0.61397444056E+02  0.00000000000E+00 0.  1.
         12    1    3    3    0    0  0.37369246634E+02 -0.98948562968E+02  0.34926801713E+02  0.11138743280E+03  0.00000000000E+00 0. -1.
        -13    1    4    4    0    0  0.20108408088E+02 -0.10459952898E+02  0.63528676639E+02  0.67451104112E+02  0.00000000000E+00 0.  1.
         13    1    4    4    0    0  0.12586553755E+02  0.31349951090E+02 -0.20767922832E+02  0.39655357614E+02  0.00000000000E+00 0. -1.
          1    1    1    2  501    0 -0.11320327911E+03  0.92075081120E+02  0.46639137931E+03  0.48868570847E+03  0.00000000000E+00 0. -1.
<scales pt_clust_5="13000.00000" pt_clust_6="13000.00000" pt_clust_7="13000.00000" pt_clust_8="13000.00000" pt_clust_9="13000.00000"></scales>
<clustering>
<clus scale="   69.205">  5  6 -1 -1</clus>
<clus scale="   90.211">  7  8 -1 -1</clus>
<clus scale="  145.921">  7  9 -1 -1</clus>
<clus scale="  155.023">  1  5  2 -1</clus>
<clus scale="  309.407">  2  5  1 -1</clus>
</clustering>
</event>
<event>
 9    2  0.3897980E-005  0.3465199E+03  0.7546771E-02  0.1105650E+00
          2   -1    0    0  502    0 -0.00000000000E+00  0.00000000000E+00  0.21923746751E+03  0.21923746751E+03  0.00000000000E+00 0. -1.
         21   -1    0    0  501  502  0.00000000000E+00 -0.00000000000E+00 -0.24961357936E+03  0.24961357936E+03  0.00000000000E+00 0. -1.
         24    2    1    2    0    0 -0.69964852322E+02  0.37924934733E+02 -0.43396083857E+02  0.12208666807E+03  0.81783575316E+02 0.  0.
         23    2    1    2    0    0 -0.94367878050E+02 -0.25222506156E+02  0.92521668326E+02  0.16376952182E+03  0.93374118166E+02 0.  0.
        -13    1    3    3    0    0  0.77975819046E+01  0.30660104725E+02 -0.28494417864E+02  0.42576709064E+02  0.00000000000E+00 0.  1.
         14    1    3    3    0    0 -0.77762434227E+02  0.72648300080E+01 -0.14901665993E+02  0.79509959007E+02  0.00000000000E+00 0. -1.
        -13    1    4    4    0    0 -0.83605000008E+02 -0.18289472494E+01  0.18844526831E+02  0.85721976563E+02  0.00000000000E+00 0.  1.
         13    1    4    4    0    0 -0.10762878043E+02 -0.23393558907E+02  0.73677141495E+02  0.78047545259E+02  0.00000000000E+00 0. -1.
          1    1    1    2  501    0  0.16433273037E+03 -0.12702428577E+02 -0.79501696325E+02  0.18299485698E+03  0.00000000000E+00 0. -1.
<scales pt_clust_5="13000.00000" pt_clust_6="13000.00000" pt_clust_7="13000.00000" pt_clust_8="13000.00000" pt_clust_9="13000.00000"></scales>
<clustering>
<clus scale="   81.784">  5  6 -1 -1</clus>
<clus scale="   93.374">  7  8 -1 -1</clus>
<clus scale="  114.114">  1  5  2 -1</clus>
<clus scale="  144.218">  7  9 -1 -1</clus>
<clus scale="  346.520">  2  5  1 -1</clus>
</clustering>
</event>
<event>
 9    2  0.3897980E-005  0.1145472E+04  0.7546771E-02  0.9430007E-01
          2   -1    0    0  502    0 -0.00000000000E+00  0.00000000000E+00  0.15136953502E+04  0.15136953502E+04  0.00000000000E+00 0. -1.
         21   -1    0    0  501  502  0.00000000000E+00 -0.00000000000E+00 -0.43009976167E+03  0.43009976167E+03  0.00000000000E+00 0. -1.
         24    2    1    2    0    0 -0.14715225590E+03 -0.39540495316E+03  0.49648670663E+03  0.65662643884E+03  0.81611071042E+02 0.  0.
         23    2    1    2    0    0 -0.33443928277E+03  0.33496087308E+03 -0.51516469700E+02  0.48503013348E+03  0.92476285518E+02 0.  0.
        -13    1    3    3    0    0 -0.10504529456E+03 -0.21615656342E+03  0.33109909310E+03  0.40912685474E+03  0.00000000000E+00 0.  1.
         14    1    3    3    0    0 -0.42106961340E+02 -0.17924838974E+03  0.16538761354E+03  0.24749958410E+03  0.00000000000E+00 0. -1.
        -13    1    4    4    0    0 -0.56421611607E+02  0.27025209332E+02 -0.30571941568E+02  0.69630480445E+02  0.00000000000E+00 0.  1.
         13    1    4    4    0    0 -0.27801767116E+03  0.30793566374E+03 -0.20944528133E+02  0.41539965304E+03  0.00000000000E+00 0. -1.
          1    1    1    2  501    0  0.48159153867E+03  0.60444080083E+02  0.63862535159E+03  0.80213853955E+03  0.00000000000E+00 0. -1.
<scales pt_clust_5="13000.00000" pt_clust_6="13000.00000" pt_clust_7="13000.00000" pt_clust_8="13000.00000" pt_clust_9="13000.00000"></scales>
<clustering>
<clus scale="   81.611">  5  6 -1 -1</clus>
<clus scale="   92.476">  7  8 -1 -1</clus>
<clus scale="  429.720">  1  5  2 -1</clus>
<clus scale="  441.666">  7  9 -1 -1</clus>
<clus scale=" 1145.472">  2  5  1 -1</clus>
</clustering>
</event>
<event>
 9    2  0.3897980E-005  0.2157956E+03  0.7546771E-02  0.1175087E+00
          2   -1    0    0  502    0 -0.00000000000E+00  0.00000000000E+00  0.28900743002E+03  0.28900743002E+03  0.00000000000E+00 0. -1.
         21   -1    0    0  501  502  0.00000000000E+00 -0.00000000000E+00 -0.19914400006E+03  0.19914400006E+03  0.00000000000E+00 0. -1.
         24    2    1    2    0    0 -0.20842003775E+02  0.30695166532E+02  0.21932900153E+03  0.23649874061E+03  0.80311026810E+02 0.  0.
         23    2    1    2    0    0 -0.44285241796E+02 -0.53038002228E+02 -0.10972936658E+02  0.11460793419E+03  0.90776433723E+02 0.  0.
        -11    1    3    3    0    0  0.49306825101E+01 -0.25513947502E+02  0.78580324715E+02  0.82765576054E+02  0.00000000000E+00 0.  1.
         12    1    3    3    0    0 -0.25772686285E+02  0.56209114034E+02  0.14074867681E+03  0.15373316455E+03  0.00000000000E+00 0. -1.
        -13    1    4    4    0    0  0.23484094263E+02  0.20990809830E+01 -0.13569292384E+02  0.27203575502E+02  0.00000000000E+00 0.  1.
         13    1    4    4    0    0 -0.67769336058E+02 -0.55137083211E+02  0.25963557263E+01  0.87404358689E+02  0.00000000000E+00 0. -1.
          1    1    1    2  501    0  0.65127245571E+02  0.22342835696E+02 -0.11849263491E+03  0.13704475528E+03  0.00000000000E+00 0. -1.
<scales pt_clust_5="13000.00000" pt_clust_6="13000.00000" pt_clust_7="13000.00000" pt_clust_8="13000.00000" pt_clust_9="13000.00000"></scales>
<clustering>
<clus scale="   80.311">  5  6 -1 -1</clus>
<clus scale="   88.467">  1  5  2 -1</clus>
<clus scale="   90.776">  7  8 -1 -1</clus>
<clus scale="   67.591">  7  9 -1 -1</clus>
<clus scale="  215.796">  2  5  1 -1</clus>
</clustering>
</event>
<event>
 9    2  0.3897980E-005  0.1960757E+03  0.7546771E-02  0.1167561E+00
          2   -1    0    0  502    0 -0.00000000000E+00  0.00000000000E+00  0.95174643588E+03  0.95174643588E+03  0.00000000000E+00 0. -1.
         21   -1    0    0  501  502  0.00000000000E+00 -0.00000000000E+00 -0.30566771562E+02  0.30566771562E+02  0.00000000000E+00 0.  1.
         24    2    1    2    0    0  0.98670417751E+02  0.53039800346E+02  0.46881497137E+03  0.48928227509E+03  0.84027350153E+02 0.  0.
         23    2    1    2    0    0 -0.12595812536E+03 -0.56776682910E+02  0.35069086576E+03  0.38769266575E+03  0.90733007637E+02 0.  0.
        -13    1    3    3    0    0  0.75247264310E+02  0.67712837009E+02  0.42921415966E+03  0.44098976625E+03  0.00000000000E+00 0.  1.
         14    1    3    3    0    0  0.23423153441E+02 -0.14673036663E+02  0.39600811714E+02  0.48292508844E+02  0.00000000000E+00 0. -1.
        -11    1    4    4    0    0 -0.84780796806E+01 -0.44666531876E+02  0.12418851260E+03  0.13224886981E+03  0.00000000000E+00 0.  1.
         11    1    4    4    0    0 -0.11748004568E+03 -0.12110151034E+02  0.22650235317E+03  0.25544379594E+03  0.00000000000E+00 0. -1.
          1    1    1    2  501    0  0.27287707612E+02  0.37368825633E+01  0.10167382718E+03  0.10533826661E+03  0.00000000000E+00 0. -1.
<scales pt_clust_5="13000.00000" pt_clust_6="13000.00000" pt_clust_7="13000.00000" pt_clust_8="13000.00000" pt_clust_9="13000.00000"></scales>
<clustering>
<clus scale="   84.027">  5  6 -1 -1</clus>
<clus scale="   90.733">  7  8 -1 -1</clus>
<clus scale="   27.542">  7  9 -1 -1</clus>
<clus scale="  140.035">  1  5  2 -1</clus>
<clus scale="  196.076">  2  5  1 -1</clus>
</clustering>
</event>
<event>
 9    2  0.3897980E-005  0.3130488E+03  0.7546771E-02  0.1111636E+00
         21   -1    0    0  501  502  0.00000000000E+00  0.00000000000E+00  0.11929159512E+03  0.11929159512E+03  0.00000000000E+00 0. -1.
          2   -1    0    0  502    0 -0.00000000000E+00 -0.00000000000E+00 -0.42450814794E+03  0.42450814794E+03  0.00000000000E+00 0. -1.
         24    2    1    2    0    0 -0.78495669591E+02  0.78764788712E+02 -0.12598152143E+03  0.18307165865E+03  0.72652779525E+02 0.  0.
         23    2    1    2    0    0 -0.20954187562E+02 -0.15258352272E+03 -0.69808388911E+02  0.19545960689E+03  0.98032838270E+02 0.  0.
        -13    1    3    3    0    0 -0.65485015604E+02  0.14376437110E+02 -0.60152286422E+02  0.90073674147E+02  0.00000000000E+00 0.  1.
         14    1    3    3    0    0 -0.13010653987E+02  0.64388351603E+02 -0.65829235008E+02  0.92997984500E+02  0.00000000000E+00 0. -1.
        -13    1    4    4    0    0 -0.17224414783E+01 -0.41849909059E+02 -0.71716658611E+02  0.83052157198E+02  0.00000000000E+00 0.  1.
         13    1    4    4    0    0 -0.19231746084E+02 -0.11073361366E+03  0.19082697000E+01  0.11240744969E+03  0.00000000000E+00 0. -1.
          1    1    1    2  501    0  0.99449857153E+02  0.73818734008E+02 -0.10942664248E+03  0.16526847753E+03  0.00000000000E+00 0. -1.
<scales pt_clust_5="13000.00000" pt_clust_6="13000.00000" pt_clust_7="13000.00000" pt_clust_8="13000.00000" pt_clust_9="13000.00000"></scales>
<clustering>
<clus scale="   72.653">  5  6 -1 -1</clus>
<clus scale="   98.033">  7  8 -1 -1</clus>
<clus scale="  123.853">  7  9 -1 -1</clus>
<clus scale="  132.830">  2  5  1 -1</clus>
<clus scale="  313.049">  1  5  2 -1</clus>
</clustering>
</event>
<event>
 9    2  0.3897980E-005  0.4586127E+03  0.7546771E-02  0.1032939E+00
         21   -1    0    0  501  502  0.00000000000E+00  0.00000000000E+00  0.95968583033E+02  0.95968583033E+02  0.00000000000E+00 0. -1.
         -3   -1    0    0    0  501 -0.00000000000E+00 -0.00000000000E+00 -0.19115275383E+04  0.19115275383E+04  0.00000000000E+00 0.  1.
         24    2    1    2    0    0  0.31672103029E+02  0.35388167360E+03 -0.53414687861E+03  0.64648821978E+03  0.79992308138E+02 0.  0.
         23    2    1    2    0    0 -0.47354342109E+02 -0.62389539708E+00 -0.29257496844E+03  0.31084800084E+03  0.93720566078E+02 0.  0.
        -11    1    3    3    0    0 -0.20329933939E+02  0.30874732825E+02 -0.57735510452E+02  0.68556141287E+02  0.00000000000E+00 0.  1.
         12    1    3    3    0    0  0.52002036968E+02  0.32300694078E+03 -0.47641136816E+03  0.57793207849E+03  0.00000000000E+00 0. -1.
        -13    1    4    4    0    0 -0.42565500763E+02  0.31981724299E+02 -0.25657861599E+03  0.26204434496E+03  0.00000000000E+00 0.  1.
         13    1    4    4    0    0 -0.47888413465E+01 -0.32605619696E+02 -0.35996352458E+02  0.48803655883E+02  0.00000000000E+00 0. -1.
         -4    1    1    2    0  502  0.15682239080E+02 -0.35325777821E+03 -0.98883710824E+03  0.10501599007E+04  0.00000000000E+00 0.  1.
<scales pt_clust_5="13000.00000" pt_clust_6="13000.00000" pt_clust_7="13000.00000" pt_clust_8="13000.00000" pt_clust_9="13000.00000"></scales>
<clustering>
<clus scale="   79.992">  5  6 -1 -1</clus>
<clus scale="   93.721">  7  8 -1 -1</clus>
<clus scale="  353.606">  7  9 -1 -1</clus>
<clus scale="  364.190">  2  5  1 -1</clus>
<clus scale="  458.613">  1  5  2 -1</clus>
</clustering>
</event>
<event>
 9    2  0.3897980E-005  0.1613563E+03  0.7546771E-02  0.1217773E+00
         21   -1    0    0  501  502  0.00000000000E+00  0.00000000000E+00  0.25166599877E+02  0.25166599877E+02  0.00000000000E+00 0. -1.
          2   -1    0    0  502    0 -0.00000000000E+00 -0.00000000000E+00 -0.59579471318E+03  0.59579471318E+03  0.00000000000E+00 0. -1.
         24    2    1    2    0    0 -0.18592094118E+02  0.91704521858E+01 -0.20912269501E+03  0.22507998566E+03  0.80615973748E+02 0.  0.
         23    2    1    2    0    0  0.66614680512E+02 -0.37185268900E+01 -0.27334499765E+03  0.29534202134E+03  0.89766801909E+02 0.  0.
        -13    1    3    3    0    0  0.29621153746E+02 -0.62593849909E+00 -0.46138806520E+02  0.54832417559E+02  0.00000000000E+00 0.  1.
         14    1    3    3    0    0 -0.48213247864E+02  0.97963906849E+01 -0.16298388849E+03  0.17024756811E+03  0.00000000000E+00 0. -1.
        -11    1    4    4    0    0  0.58804464212E+02 -0.42236613333E+02 -0.16994532619E+03  0.18472495882E+03  0.00000000000E+00 0. -1.
         11    1    4    4    0    0  0.78102162998E+01  0.38518086443E+02 -0.10339967146E+03  0.11061706252E+03  0.00000000000E+00 0.  1.
          1    1    1    2  501    0 -0.48022586394E+02 -0.54519252958E+01 -0.88160420642E+02  0.10053930605E+03  0.00000000000E+00 0. -1.
<scales pt_clust_5="13000.00000" pt_clust_6="13000.00000" pt_clust_7="13000.00000" pt_clust_8="13000.00000" pt_clust_9="13000.00000"></scales>
<clustering>
<clus scale="   80.616">  5  6 -1 -1</clus>
<clus scale="   83.239">  2  5  1 -1</clus>
<clus scale="   89.767">  7  8 -1 -1</clus>
<clus scale="   52.750">  7  9 -1 -1</clus>
<clus scale="  161.356">  1  5  2 -1</clus>
</clustering>
</event>
<event>
 9    2  0.3897980E-005  0.4139759E+03  0.7546771E-02  0.1058539E+00
          2   -1    0    0  502    0 -0.00000000000E+00  0.00000000000E+00  0.15906546745E+04  0.15906546745E+04  0.00000000000E+00 0. -1.
         21   -1    0    0  501  502  0.00000000000E+00 -0.00000000000E+00 -0.75214900516E+02  0.75214900516E+02  0.00000000000E+00 0. -1.
         24    2    1    2    0    0 -0.22298571139E+03  0.26250990343E+01  0.84766450359E+03  0.88018522917E+03  0.80382886135E+02 0.  0.
         23    2    1    2    0    0 -0.65478138420E+02  0.27016791101E+01  0.28683210092E+03  0.30781672235E+03  0.90464328659E+02 0.  0.
        -13    1    3    3    0    0 -0.98406492476E+02 -0.22017220941E+02  0.49965277951E+03  0.50972688359E+03  0.00000000000E+00 0.  1.
         14    1    3    3    0    0 -0.12457921891E+03  0.24642319976E+02  0.34801172407E+03  0.37045834558E+03  0.00000000000E+00 0. -1.
        -13    1    4    4    0    0 -0.29321501073E+02  0.39036983437E+02  0.20896052740E+03  0.21458830004E+03  0.00000000000E+00 0.  1.
         13    1    4    4    0    0 -0.36156637348E+02 -0.36335304327E+02  0.77871573519E+02  0.93228422313E+02  0.00000000000E+00 0. -1.
          1    1    1    2  501    0  0.28846384981E+03 -0.53267781444E+01  0.38094316947E+03  0.47786762348E+03  0.00000000000E+00 0. -1.
<scales pt_clust_5="13000.00000" pt_clust_6="13000.00000" pt_clust_7="13000.00000" pt_clust_8="13000.00000" pt_clust_9="13000.00000"></scales>
<clustering>
<clus scale="   80.383">  5  6 -1 -1</clus>
<clus scale="   90.464">  7  8 -1 -1</clus>
<clus scale="  237.046">  1  5  2 -1</clus>
<clus scale="  156.753">  7  9 -1 -1</clus>
<clus scale="  413.976">  2  5  1 -1</clus>
</clustering>
</event>
<event>
 9    2  0.3897980E-005  0.1683452E+03  0.7546771E-02  0.1213199E+00
         -1   -1    0    0    0  501 -0.00000000000E+00  0.00000000000E+00  0.48548023958E+03  0.48548023958E+03  0.00000000000E+00 0.  1.
         21   -1    0    0  501  502  0.00000000000E+00 -0.00000000000E+00 -0.34341309602E+02  0.34341309602E+02  0.00000000000E+00 0.  1.
         24    2    1    2    0    0 -0.10549111846E+00 -0.43642613645E+01  0.87246287569E+02  0.11887522958E+03  0.80624733222E+02 0.  0.
         23    2    1    2    0    0  0.51550751495E+01  0.43934490472E+02  0.33923250359E+03  0.35404830497E+03  0.91184957654E+02 0.  0.
        -11    1    3    3    0    0  0.17982307279E+02  0.21641938667E+02  0.23200386656E+01  0.28233304159E+02  0.00000000000E+00 0.  1.
         12    1    3    3    0    0 -0.18087798398E+02 -0.26006200031E+02  0.84926248904E+02  0.90641925420E+02  0.00000000000E+00 0. -1.
        -11    1    4    4    0    0 -0.27901740829E+02  0.58171783201E+02  0.19514918235E+03  0.20553750722E+03  0.00000000000E+00 0.  1.
         11    1    4    4    0    0  0.33056815979E+02 -0.14237292729E+02  0.14408332124E+03  0.14851079774E+03  0.00000000000E+00 0. -1.
         -2    1    1    2    0  502 -0.50495840311E+01 -0.39570229107E+02  0.24660138816E+02  0.46898014637E+02  0.00000000000E+00 0.  1.
<scales pt_clust_5="13000.00000" pt_clust_6="13000.00000" pt_clust_7="13000.00000" pt_clust_8="13000.00000" pt_clust_9="13000.00000"></scales>
<clustering>
<clus scale="   80.625">  5  6 -1 -1</clus>
<clus scale="   80.743">  1  5  2 -1</clus>
<clus scale="   91.185">  7  8 -1 -1</clus>
<clus scale="   40.297">  7  9 -1 -1</clus>
<clus scale="  168.345">  2  5  1 -1</clus>
</clustering>
</event>
<event>
 9    2  0.3897980E-005  0.2393232E+03  0.7546771E-02  0.1164077E+00
         21   -1    0    0  501  502  0.00000000000E+00  0.00000000000E+00  0.30491402239E+02  0.30491402239E+02  0.00000000000E+00 0.  1.
         -1   -1    0    0    0  501 -0.00000000000E+00 -0.00000000000E+00 -0.10456886484E+04  0.10456886484E+04  0.00000000000E+00 0.  1.
         24    2    1    2    0    0  0.20926251012E+02 -0.43907523428E+01 -0.10017428224E+03  0.13037741599E+03  0.80661001062E+02 0.  0.
         23    2    1    2    0    0  0.88347398799E+02  0.13198241986E+02 -0.55551599518E+03  0.56995218168E+03  0.90928609552E+02 0.  0.
        -13    1    3    3    0    0  0.45344018277E+02 -0.85931966601E+01 -0.27794776970E+02  0.53874601151E+02  0.00000000000E+00 0.  1.
         14    1    3    3    0    0 -0.24417767265E+02  0.42024443173E+01 -0.72379505266E+02  0.76502814844E+02  0.00000000000E+00 0. -1.
        -13    1    4    4    0    0  0.69688529628E+02  0.48019263436E+02 -0.43404189130E+03  0.44221567615E+03  0.00000000000E+00 0.  1.
         13    1    4    4    0    0  0.18658869171E+02 -0.34821021450E+02 -0.12147410388E+03  0.12773650553E+03  0.00000000000E+00 0. -1.
         -2    1    1    2    0  502 -0.10927364981E+03 -0.88074896437E+01 -0.35950696874E+03  0.37585045296E+03  0.00000000000E+00 0.  1.
<scales pt_clust_5="13000.00000" pt_clust_6="13000.00000" pt_clust_7="13000.00000" pt_clust_8="13000.00000" pt_clust_9="13000.00000"></scales>
<clustering>
<clus scale="   80.661">  5  6 -1 -1</clus>
<clus scale="   83.447">  2  5  1 -1</clus>
<clus scale="   90.929">  7  8 -1 -1</clus>
<clus scale="  101.553">  7  9 -1 -1</clus>
<clus scale="  239.323">  1  5  2 -1</clus>
</clustering>
</event>
<event>
 9    2  0.3897980E-005  0.3470689E+03  0.7546771E-02  0.1106429E+00
          2   -1    0    0  502    0 -0.00000000000E+00  0.00000000000E+00  0.54960140202E+03  0.54960140202E+03  0.00000000000E+00 0. -1.
         21   -1    0    0  501  502  0.00000000000E+00 -0.00000000000E+00 -0.98672438129E+02  0.98672438129E+02  0.00000000000E+00 0. -1.
         24    2    1    2    0    0 -0.67882367621E+02  0.37005328201E+02  0.16262838257E+03  0.19708204529E+03  0.80099510667E+02 0.  0.
         23    2    1    2    0    0 -0.78444355101E+02  0.24330928436E+02 -0.24763719011E+00  0.12189903672E+03  0.90076650149E+02 0.  0.
        -11    1    3    3    0    0 -0.19979745240E+02 -0.13496688037E+02  0.47978339919E+01  0.24583938229E+02  0.00000000000E+00 0.  1.
         12    1    3    3    0    0 -0.47902622382E+02  0.50502016238E+02  0.15783054858E+03  0.17249810706E+03  0.00000000000E+00 0. -1.
        -11    1    4    4    0    0 -0.33654459094E+02 -0.10298942469E+02 -0.39577441443E+02  0.52962861555E+02  0.00000000000E+00 0. -1.
         11    1    4    4    0    0 -0.44789896008E+02  0.34629870904E+02  0.39329804253E+02  0.68936175161E+02  0.00000000000E+00 0.  1.
          1    1    1    2  501    0  0.14632672272E+03 -0.61336256636E+02  0.28854821852E+03  0.32929275815E+03  0.00000000000E+00 0. -1.
<scales pt_clust_5="13000.00000" pt_clust_6="13000.00000" pt_clust_7="13000.00000" pt_clust_8="13000.00000" pt_clust_9="13000.00000"></scales>
<clustering>
<clus scale="   80.100">  5  6 -1 -1</clus>
<clus scale="   90.077">  7  8 -1 -1</clus>
<clus scale="  111.325">  1  5  2 -1</clus>
<clus scale="   94.634">  7  9 -1 -1</clus>
<clus scale="  347.069">  2  5  1 -1</clus>
</clustering>
</event>
<event>
 9    2  0.3897980E-005  0.4598993E+03  0.7546771E-02  0.1076882E+00
          2   -1    0    0  502    0 -0.00000000000E+00  0.00000000000E+00  0.92096742885E+03  0.92096742885E+03  0.00000000000E+00 0. -1.
         21   -1    0    0  501  502  0.00000000000E+00 -0.00000000000E+00 -0.91149666501E+02  0.91149666501E+02  0.00000000000E+00 0. -1.
         24    2    1    2    0    0  0.61470828334E+02 -0.33333257108E+02  0.25824354164E+03  0.27849288739E+03  0.77322653622E+02 0.  0.
         23    2    1    2    0    0  0.14881790354E+03 -0.10355847918E+03  0.31643862498E+03  0.37577665602E+03  0.90573532607E+02 0.  0.
        -11    1    3    3    0    0 -0.15126196195E+02 -0.21757010042E+02  0.57160662016E+02  0.63004052087E+02  0.00000000000E+00 0.  1.
         12    1    3    3    0    0  0.76597024529E+02 -0.11576247066E+02  0.20108287963E+03  0.21548883531E+03  0.00000000000E+00 0. -1.
        -13    1    4    4    0    0  0.37232214143E+02 -0.38223718920E+02  0.29320700118E+02  0.60885087776E+02  0.00000000000E+00 0.  1.
         13    1    4    4    0    0  0.11158568940E+03 -0.65334760261E+02  0.28711792486E+03  0.31489156825E+03  0.00000000000E+00 0. -1.
          1    1    1    2  501    0 -0.21028873188E+03  0.13689173629E+03  0.25513559573E+03  0.35784755193E+03  0.00000000000E+00 0. -1.
<scales pt_clust_5="13000.00000" pt_clust_6="13000.00000" pt_clust_7="13000.00000" pt_clust_8="13000.00000" pt_clust_9="13000.00000"></scales>
<clustering>
<clus scale="   77.323">  5  6 -1 -1</clus>
<clus scale="   90.574">  7  8 -1 -1</clus>
<clus scale="  104.252">  1  5  2 -1</clus>
<clus scale="  218.200">  7  9 -1 -1</clus>
<clus scale="  459.899">  2  5  1 -1</clus>
</clustering>
</event>
<event>
 9    2  0.3897980E-005  0.3939390E+03  0.7546771E-02  0.1080201E+00
         21   -1    0    0  501  502  0.00000000000E+00  0.00000000000E+00  0.86802542490E+02  0.86802542490E+02  0.00000000000E+00 0. -1.
          2   -1    0    0  502    0 -0.00000000000E+00 -0.00000000000E+00 -0.10355061119E+04  0.10355061119E+04  0.00000000000E+00 0. -1.
         24    2    1    2    0    0 -0.74178050502E+02 -0.10370422929E+03 -0.51287586584E+03  0.53482781856E+03  0.82110848160E+02 0.  0.
         23    2    1    2    0    0  0.18345590614E+03 -0.44013633674E+02 -0.25089993899E+03  0.32678849824E+03  0.90811198378E+02 0.  0.
        -11    1    3    3    0    0 -0.20022320483E+02 -0.29674058723E+01 -0.18589931005E+02  0.27482437117E+02  0.00000000000E+00 0.  1.
         12    1    3    3    0    0 -0.54155730020E+02 -0.10073682342E+03 -0.49428593484E+03  0.50734538144E+03  0.00000000000E+00 0. -1.
        -13    1    4    4    0    0  0.76167507083E+02 -0.38737176495E+02 -0.17657044511E+03  0.19616110742E+03  0.00000000000E+00 0. -1.
         13    1    4    4    0    0  0.10728839906E+03 -0.52764571791E+01 -0.74329493884E+02  0.13062739083E+03  0.00000000000E+00 0.  1.
          1    1    1    2  501    0 -0.10927785564E+03  0.14771786297E+03 -0.18492776460E+03  0.26069233762E+03  0.00000000000E+00 0. -1.
<scales pt_clust_5="13000.00000" pt_clust_6="13000.00000" pt_clust_7="13000.00000" pt_clust_8="13000.00000" pt_clust_9="13000.00000"></scales>
<clustering>
<clus scale="   82.111">  5  6 -1 -1</clus>
<clus scale="   90.811">  7  8 -1 -1</clus>
<clus scale="  151.655">  2  5  1 -1</clus>
<clus scale="  174.823">  7  9 -1 -1</clus>
<clus scale="  393.939">  1  5  2 -1</clus>
</clustering>
</event>
<event>
 9    2  0.3897980E-005  0.1103844E+04  0.7546771E-02  0.9663810E-01
          2   -1    0    0  502    0 -0.00000000000E+00  0.00000000000E+00  0.22720517946E+04  0.22720517946E+04  0.00000000000E+00 0. -1.
         21   -1    0    0  501  502  0.00000000000E+00 -0.00000000000E+00 -0.20669878929E+03  0.20669878929E+03  0.00000000000E+00 0. -1.
         24    2    1    2    0    0  0.19463123305E+03  0.36936510572E+02  0.12809292809E+03  0.24907595696E+03  0.79908769345E+02 0.  0.
         23    2    1    2    0    0  0.42867512117E+03  0.11157365741E+03  0.93579291513E+03  0.10407664900E+04  0.10618599831E+03 0.  0.
        -11    1    3    3    0    0  0.48145247084E+02  0.32319462356E+02  0.59485362226E+01  0.58291487774E+02  0.00000000000E+00 0.  1.
         12    1    3    3    0    0  0.14648598597E+03  0.46170482159E+01  0.12214439187E+03  0.19078446919E+03  0.00000000000E+00 0. -1.
        -13    1    4    4    0    0  0.28475741247E+03  0.27099287395E+02  0.53617602481E+03  0.60770542610E+03  0.00000000000E+00 0. -1.
         13    1    4    4    0    0  0.14391770871E+03  0.84474370013E+02  0.39961689033E+03  0.43306106394E+03  0.00000000000E+00 0.  1.
          1    1    1    2  501    0 -0.62330635422E+03 -0.14851016798E+03  0.10014671621E+04  0.11889081369E+04  0.00000000000E+00 0. -1.
<scales pt_clust_5="13000.00000" pt_clust_6="13000.00000" pt_clust_7="13000.00000" pt_clust_8="13000.00000" pt_clust_9="13000.00000"></scales>
<clustering>
<clus scale="   79.909">  5  6 -1 -1</clus>
<clus scale="  106.186">  7  8 -1 -1</clus>
<clus scale="  213.614">  1  5  2 -1</clus>
<clus scale="  536.753">  7  9 -1 -1</clus>
<clus scale=" 1103.844">  2  5  1 -1</clus>
</clustering>
</event>
<event>
 9    2  0.3897980E-005  0.1876831E+03  0.7546771E-02  0.1199528E+00
          2   -1    0    0  502    0 -0.00000000000E+00  0.00000000000E+00  0.15959572584E+03  0.15959572584E+03  0.00000000000E+00 0. -1.
         21   -1    0    0  501  502  0.00000000000E+00 -0.00000000000E+00 -0.12498730832E+03  0.12498730832E+03  0.00000000000E+00 0. -1.
         24    2    1    2    0    0 -0.13810306296E+02  0.49983491276E+01  0.55321307215E+02  0.95760459617E+02  0.76771808238E+02 0.  0.
         23    2    1    2    0    0 -0.24585657992E+02 -0.36052536734E+02  0.36825115107E+02  0.11299886691E+03  0.97511101099E+02 0.  0.
        -11    1    3    3    0    0  0.11922678276E+02  0.21533669566E+02 -0.76315946807E+01  0.25769951874E+02  0.00000000000E+00 0.  1.
         12    1    3    3    0    0 -0.25732984572E+02 -0.16535320438E+02  0.62952901896E+02  0.69990507743E+02  0.00000000000E+00 0. -1.
        -13    1    4    4    0    0 -0.44751524322E+02 -0.18268597054E+01  0.53623900569E+02  0.69868154819E+02  0.00000000000E+00 0.  1.
         13    1    4    4    0    0  0.20165866330E+02 -0.34225677028E+02 -0.16798785462E+02  0.43130712096E+02  0.00000000000E+00 0. -1.
          1    1    1    2  501    0  0.38395964289E+02  0.31054187606E+02 -0.57538004804E+02  0.75823707627E+02  0.00000000000E+00 0. -1.
<scales pt_clust_5="13000.00000" pt_clust_6="13000.00000" pt_clust_7="13000.00000" pt_clust_8="13000.00000" pt_clust_9="13000.00000"></scales>
<clustering>
<clus scale="   76.772">  5  6 -1 -1</clus>
<clus scale="   78.164">  1  5  2 -1</clus>
<clus scale="   97.511">  7  8 -1 -1</clus>
<clus scale="   48.575">  7  9 -1 -1</clus>
<clus scale="  187.683">  2  5  1 -1</clus>
</clustering>
</event>
<event>
 9    2  0.3897980E-005  0.5906920E+03  0.7546771E-02  0.1040167E+00
         21   -1    0    0  501  502  0.00000000000E+00  0.00000000000E+00  0.47809641790E+03  0.47809641790E+03  0.00000000000E+00 0.  1.
         -1   -1    0    0    0  501 -0.00000000000E+00 -0.00000000000E+00 -0.28713569524E+03  0.28713569524E+03  0.00000000000E+00 0.  1.
         24    2    1    2    0    0  0.54116432179E+02 -0.10044116627E+03 -0.17079401622E+02  0.13897514500E+03  0.77494314979E+02 0.  0.
         23    2    1    2    0    0 -0.14939870821E+03 -0.20611743324E+03  0.87346407966E+02  0.28329361702E+03  0.88439290837E+02 0.  0.
        -11    1    3    3    0    0  0.55815412838E+02 -0.67276812412E+02  0.19506434801E+02  0.89565790329E+02  0.00000000000E+00 0.  1.
         12    1    3    3    0    0 -0.16989806593E+01 -0.33164353856E+02 -0.36585836423E+02  0.49409354668E+02  0.00000000000E+00 0. -1.
        -11    1    4    4    0    0 -0.78952164224E+02 -0.61362622558E+02 -0.29995655629E+00  0.99994528134E+02  0.00000000000E+00 0. -1.
         11    1    4    4    0    0 -0.70446543984E+02 -0.14475481068E+03  0.87646364522E+02  0.18329908889E+03  0.00000000000E+00 0.  1.
         -2    1    1    2    0  502  0.95282276029E+02  0.30655859950E+03  0.12069371631E+03  0.34296335112E+03  0.00000000000E+00 0.  1.
<scales pt_clust_5="13000.00000" pt_clust_6="13000.00000" pt_clust_7="13000.00000" pt_clust_8="13000.00000" pt_clust_9="13000.00000"></scales>
<clustering>
<clus scale="   77.494">  5  6 -1 -1</clus>
<clus scale="   88.439">  7  8 -1 -1</clus>
<clus scale="  137.922">  2  5  1 -1</clus>
<clus scale="  281.932">  7  9 -1 -1</clus>
<clus scale="  590.692">  1  5  2 -1</clus>
</clustering>
</event>
<event>
 9    2  0.3897980E-005  0.2719668E+03  0.7546771E-02  0.1126535E+00
          2   -1    0    0  502    0 -0.00000000000E+00  0.00000000000E+00  0.54298418806E+03  0.54298418806E+03  0.00000000000E+00 0. -1.
         21   -1    0    0  501  502  0.00000000000E+00 -0.00000000000E+00 -0.94843040292E+02  0.94843040292E+02  0.00000000000E+00 0. -1.
         24    2    1    2    0    0  0.61287497766E+02 -0.96157242138E+02  0.29354077047E+03  0.32498989736E+03  0.80311125379E+02 0.  0.
         23    2    1    2    0    0  0.41376395234E+02  0.42256655597E+02  0.16332878570E+03  0.19655606307E+03  0.91980229760E+02 0.  0.
        -11    1    3    3    0    0  0.30795666458E+01 -0.22007150017E+02  0.69338619083E+01  0.23278247863E+02  0.00000000000E+00 0.  1.
         12    1    3    3    0    0  0.58207931121E+02 -0.74150092122E+02  0.28660690857E+03  0.30171164950E+03  0.00000000000E+00 0. -1.
        -13    1    4    4    0    0  0.59763347219E+02  0.54818226198E+02  0.15022926425E+03  0.17072061220E+03  0.00000000000E+00 0. -1.
         13    1    4    4    0    0 -0.18386951985E+02 -0.12561570601E+02  0.13099521451E+02  0.25835450867E+02  0.00000000000E+00 0.  1.
          1    1    1    2  501    0 -0.10266389300E+03  0.53900586542E+02 -0.87284084057E+01  0.11628126792E+03  0.00000000000E+00 0. -1.
<scales pt_clust_5="13000.00000" pt_clust_6="13000.00000" pt_clust_7="13000.00000" pt_clust_8="13000.00000" pt_clust_9="13000.00000"></scales>
<clustering>
<clus scale="   80.311">  5  6 -1 -1</clus>
<clus scale="   91.980">  7  8 -1 -1</clus>
<clus scale="  115.953">  7  9 -1 -1</clus>
<clus scale="  139.471">  1  5  2 -1</clus>
<clus scale="  271.967">  2  5  1 -1</clus>
</clustering>
</event>
<event>
 9    2  0.3897980E-005  0.3793354E+03  0.7546771E-02  0.1088497E+00
         21   -1    0    0  501  502  0.00000000000E+00  0.00000000000E+00  0.35027294483E+03  0.35027294483E+03  0.00000000000E+00 0. -1.
          2   -1    0    0  502    0 -0.00000000000E+00 -0.00000000000E+00 -0.33246904024E+03  0.33246904024E+03  0.00000000000E+00 0. -1.
         24    2    1    2    0    0 -0.55382118150E+02  0.94428267268E+02 -0.20257269091E+03  0.24403799855E+03  0.80839179622E+02 0.  0.
         23    2    1    2    0    0  0.13901374979E+03  0.28233898333E+02 -0.49329569809E+01  0.16888061629E+03  0.91511490257E+02 0.  0.
        -11    1    3    3    0    0 -0.22134026929E+02 -0.99036169010E+01 -0.21383106472E+02  0.32330079155E+02  0.00000000000E+00 0.  1.
         12    1    3    3    0    0 -0.33248091222E+02  0.10433188417E+03 -0.18118958444E+03  0.21170791939E+03  0.00000000000E+00 0. -1.
        -13    1    4    4    0    0  0.31649239229E+02  0.17892703643E+02 -0.41328529183E+02  0.55044259572E+02  0.00000000000E+00 0.  1.
         13    1    4    4    0    0  0.10736451056E+03  0.10341194690E+02  0.36395572202E+02  0.11383635672E+03  0.00000000000E+00 0. -1.
          1    1    1    2  501    0 -0.83631631639E+02 -0.12266216560E+03  0.22530955249E+03  0.26982337023E+03  0.00000000000E+00 0. -1.
<scales pt_clust_5="13000.00000" pt_clust_6="13000.00000" pt_clust_7="13000.00000" pt_clust_8="13000.00000" pt_clust_9="13000.00000"></scales>
<clustering>
<clus scale="   80.839">  5  6 -1 -1</clus>
<clus scale="   91.511">  7  8 -1 -1</clus>
<clus scale="  136.084">  2  5  1 -1</clus>
<clus scale="  140.371">  7  9 -1 -1</clus>
<clus scale="  379.335">  1  5  2 -1</clus>
</clustering>
</event>
<event>
 9    2  0.3897980E-005  0.2192351E+03  0.7546771E-02  0.1160491E+00
         21   -1    0    0  501  502  0.00000000000E+00  0.00000000000E+00  0.13078465366E+03  0.13078465366E+03  0.00000000000E+00 0. -1.
          2   -1    0    0  502    0 -0.00000000000E+00 -0.00000000000E+00 -0.26019353841E+03  0.26019353841E+03  0.00000000000E+00 0. -1.
         24    2    1    2    0    0 -0.21132821450E+02  0.76336348090E+02 -0.12475367274E+03  0.17169367723E+03  0.87415134604E+02 0.  0.
         23    2    1    2    0    0  0.35001234291E+02  0.21121934122E+02  0.46031700582E+02  0.10856137925E+03  0.89417185731E+02 0.  0.
        -13    1    3    3    0    0  0.17304782133E+02 -0.10637889776E+02 -0.99359398265E+01  0.22612896404E+02  0.00000000000E+00 0.  1.
         14    1    3    3    0    0 -0.38437603583E+02  0.86974237865E+02 -0.11481773291E+03  0.14908078083E+03  0.00000000000E+00 0. -1.
        -11    1    4    4    0    0 -0.26931534043E+02 -0.84892377752E+01  0.52741963001E+01  0.28726152380E+02  0.00000000000E+00 0.  1.
         11    1    4    4    0    0  0.61932768334E+02  0.29611171898E+02  0.40757504282E+02  0.79835226874E+02  0.00000000000E+00 0. -1.
          1    1    1    2  501    0 -0.13868412841E+02 -0.97458282212E+02 -0.50686912589E+02  0.11072313559E+03  0.00000000000E+00 0. -1.
<scales pt_clust_5="13000.00000" pt_clust_6="13000.00000" pt_clust_7="13000.00000" pt_clust_8="13000.00000" pt_clust_9="13000.00000"></scales>
<clustering>
<clus scale="   87.415">  5  6 -1 -1</clus>
<clus scale="   89.417">  7  8 -1 -1</clus>
<clus scale="   98.440">  7  9 -1 -1</clus>
<clus scale="  117.963">  2  5  1 -1</clus>
<clus scale="  219.235">  1  5  2 -1</clus>
</clustering>
</event>
<event>
 9    2  0.3897980E-005  0.2522330E+03  0.7546771E-02  0.1153360E+00
          2   -1    0    0  502    0 -0.00000000000E+00  0.00000000000E+00  0.38376882275E+03  0.38376882275E+03  0.00000000000E+00 0. -1.
         21   -1    0    0  501  502  0.00000000000E+00 -0.00000000000E+00 -0.77283642163E+02  0.77283642163E+02  0.00000000000E+00 0. -1.
         24    2    1    2    0    0  0.25617678448E+02 -0.35226308723E+02  0.94638440806E+02  0.13165831436E+03  0.80500428487E+02 0.  0.
         23    2    1    2    0    0  0.26847435558E+02 -0.70748283677E+02  0.16462639619E+03  0.20206401559E+03  0.89453404812E+02 0.  0.
        -13    1    3    3    0    0  0.43743532138E+02  0.27589460981E+01  0.25476943791E+02  0.50696972813E+02  0.00000000000E+00 0.  1.
         14    1    3    3    0    0 -0.18125853690E+02 -0.37985254821E+02  0.69161497014E+02  0.80961341547E+02  0.00000000000E+00 0. -1.
        -11    1    4    4    0    0 -0.18680859635E+02 -0.68797634175E+02  0.93194153179E+02  0.11733387904E+03  0.00000000000E+00 0.  1.
         11    1    4    4    0    0  0.45528295193E+02 -0.19506495022E+01  0.71432243015E+02  0.84730136544E+02  0.00000000000E+00 0. -1.
          1    1    1    2  501    0 -0.52465114005E+02  0.10597459240E+03  0.47220343590E+02  0.12733013497E+03  0.00000000000E+00 0. -1.
<scales pt_clust_5="13000.00000" pt_clust_6="13000.00000" pt_clust_7="13000.00000" pt_clust_8="13000.00000" pt_clust_9="13000.00000"></scales>
<clustering>
<clus scale="   80.500">  5  6 -1 -1</clus>
<clus scale="   89.453">  7  8 -1 -1</clus>
<clus scale="   91.529">  1  5  2 -1</clus>
<clus scale="  104.431">  7  9 -1 -1</clus>
<clus scale="  252.233">  2  5  1 -1</clus>
</clustering>
</event>
<event>
 9    2  0.3897980E-005  0.5256163E+03  0.7546771E-02  0.1047197E+00
         21   -1    0    0  501  502  0.00000000000E+00  0.00000000000E+00  0.18860131225E+03  0.18860131225E+03  0.00000000000E+00 0. -1.
          2   -1    0    0  502    0 -0.00000000000E+00 -0.00000000000E+00 -0.69595775146E+03  0.69595775146E+03  0.00000000000E+00 0. -1.
         24    2    1    2    0    0 -0.46093941527E+02 -0.12989368489E+03 -0.25639395249E+03  0.30210332977E+03  0.80817956938E+02 0.  0.
         23    2    1    2    0    0 -0.16861033674E+03 -0.80592249039E+02 -0.30471860868E+02  0.20960405891E+03  0.89893108457E+02 0.  0.
        -11    1    3    3    0    0 -0.18409868585E+01 -0.76818529648E+02 -0.72460750417E+02  0.10561740425E+03  0.00000000000E+00 0.  1.
         12    1    3    3    0    0 -0.44252954669E+02 -0.53075155239E+02 -0.18393320207E+03  0.19648592552E+03  0.00000000000E+00 0. -1.
        -11    1    4    4    0    0 -0.13775267346E+03 -0.20250714361E+02 -0.14600873637E+02  0.13999669992E+03  0.00000000000E+00 0.  1.
         11    1    4    4    0    0 -0.30857663278E+02 -0.60341534678E+02 -0.15870987231E+02  0.69607358993E+02  0.00000000000E+00 0. -1.
          1    1    1    2  501    0  0.21470427827E+03  0.21048593393E+03 -0.22049062585E+03  0.37285167503E+03  0.00000000000E+00 0. -1.
<scales pt_clust_5="13000.00000" pt_clust_6="13000.00000" pt_clust_7="13000.00000" pt_clust_8="13000.00000" pt_clust_9="13000.00000"></scales>
<clustering>
<clus scale="   80.818">  5  6 -1 -1</clus>
<clus scale="   89.893">  7  8 -1 -1</clus>
<clus scale="  159.777">  2  5  1 -1</clus>
<clus scale="  216.817">  7  9 -1 -1</clus>
<clus scale="  525.616">  1  5  2 -1</clus>
</clustering>
</event>
<event>
 9    2  0.3897980E-005  0.2109423E+03  0.7546771E-02  0.1165597E+00
          4   -1    0    0  502    0 -0.00000000000E+00  0.00000000000E+00  0.38425661130E+03  0.38425661130E+03  0.00000000000E+00 0. -1.
         21   -1    0    0  501  502  0.00000000000E+00 -0.00000000000E+00 -0.85495426799E+02  0.85495426799E+02  0.00000000000E+00 0. -1.
         24    2    1    2    0    0 -0.63844498225E+02 -0.48167956815E+02  0.21036818138E+03  0.24103832120E+03  0.86304278755E+02 0.  0.
         23    2    1    2    0    0  0.37187249747E+02  0.10683058533E+03  0.58235747779E+02  0.15757039022E+03  0.92958915924E+02 0.  0.
        -13    1    3    3    0    0 -0.32631700114E+02 -0.67378293453E+02  0.10119483577E+03  0.12587715070E+03  0.00000000000E+00 0.  1.
         14    1    3    3    0    0 -0.31212798111E+02  0.19210336638E+02  0.10917334561E+03  0.11516117050E+03  0.00000000000E+00 0. -1.
        -11    1    4    4    0    0  0.17722218250E+02 -0.14751300539E+02  0.60558043003E+01  0.23840105978E+02  0.00000000000E+00 0.  1.
         11    1    4    4    0    0  0.19465031496E+02  0.12158188587E+03  0.52179943479E+02  0.13373028424E+03  0.00000000000E+00 0. -1.
          3    1    1    2  501    0  0.26657248478E+02 -0.58662628515E+02  0.30157255337E+02  0.71143326674E+02  0.00000000000E+00 0. -1.
<scales pt_clust_5="13000.00000" pt_clust_6="13000.00000" pt_clust_7="13000.00000" pt_clust_8="13000.00000" pt_clust_9="13000.00000"></scales>
<clustering>
<clus scale="   86.304">  5  6 -1 -1</clus>
<clus scale="   92.959">  7  8 -1 -1</clus>
<clus scale="   64.435">  7  9 -1 -1</clus>
<clus scale="  117.664">  1  5  2 -1</clus>
<clus scale="  210.942">  2  5  1 -1</clus>
</clustering>
</event>
<event>
 9    2  0.3897980E-005  0.3863255E+03  0.7546771E-02  0.1070186E+00
          2   -1    0    0  502    0 -0.00000000000E+00  0.00000000000E+00  0.12603787022E+04  0.12603787022E+04  0.00000000000E+00 0. -1.
         21   -1    0    0  501  502  0.00000000000E+00 -0.00000000000E+00 -0.11158033030E+03  0.11158033030E+03  0.00000000000E+00 0. -1.
         24    2    1    2    0    0 -0.14920140012E+02 -0.19453613682E+03  0.87075158267E+03  0.89597858896E+03  0.80637423357E+02 0.  0.
         23    2    1    2    0    0 -0.77507959007E+01 -0.52872634048E+02  0.18066619283E+03  0.20913207497E+03  0.90776435709E+02 0.  0.
        -13    1    3    3    0    0 -0.37295997927E+02 -0.10301113014E+03  0.34911554576E+03  0.36590155600E+03  0.00000000000E+00 0.  1.
         14    1    3    3    0    0  0.22375857915E+02 -0.91525006679E+02  0.52163603691E+03  0.53007703296E+03  0.00000000000E+00 0. -1.
        -13    1    4    4    0    0 -0.34849445648E+02 -0.17100941936E+02  0.22818651955E+02  0.45029067880E+02  0.00000000000E+00 0. -1.
         13    1    4    4    0    0  0.27098649748E+02 -0.35771692112E+02  0.15784754088E+03  0.16410300709E+03  0.00000000000E+00 0.  1.
          1    1    1    2  501    0  0.22670935913E+02  0.24740877087E+03  0.97380596349E+02  0.26684836853E+03  0.00000000000E+00 0. -1.
<scales pt_clust_5="13000.00000" pt_clust_6="13000.00000" pt_clust_7="13000.00000" pt_clust_8="13000.00000" pt_clust_9="13000.00000"></scales>
<clustering>
<clus scale="   80.637">  5  6 -1 -1</clus>
<clus scale="   90.776">  7  8 -1 -1</clus>
<clus scale="  211.114">  1  5  2 -1</clus>
<clus scale="  154.216">  7  9 -1 -1</clus>
<clus scale="  386.325">  2  5  1 -1</clus>
</clustering>
</event>
<event>
 9    2  0.3897980E-005  0.1509899E+03  0.7546771E-02  0.1225864E+00
          2   -1    0    0  502    0 -0.00000000000E+00  0.00000000000E+00  0.99207207758E+02  0.99207207758E+02  0.00000000000E+00 0. -1.
         21   -1    0    0  501  502  0.00000000000E+00 -0.00000000000E+00 -0.30327713970E+03  0.30327713970E+03  0.00000000000E+00 0. -1.
         24    2    1    2    0    0 -0.13395749251E+02  0.37114446344E+02  0.55529976557E+02  0.10216774359E+03  0.76142900583E+02 0.  0.
         23    2    1    2    0    0  0.37136569667E+02  0.73255341635E+01 -0.16276929000E+03  0.19116209365E+03  0.92824113375E+02 0.  0.
        -11    1    3    3    0    0  0.74091007152E+01  0.49449585562E+02  0.10557695462E+02  0.51104023512E+02  0.00000000000E+00 0.  1.
         12    1    3    3    0    0 -0.20804849967E+02 -0.12335139218E+02  0.44972281095E+02  0.51063720082E+02  0.00000000000E+00 0. -1.
        -11    1    4    4    0    0  0.74241023427E+01 -0.39348104094E+02 -0.40480429526E+02  0.56939053083E+02  0.00000000000E+00 0.  1.
         11    1    4    4    0    0  0.29712467324E+02  0.46673638258E+02 -0.12228886048E+03  0.13422304057E+03  0.00000000000E+00 0. -1.
          1    1    1    2  501    0 -0.23740820416E+02 -0.44439980508E+02 -0.96830618497E+02  0.10915451021E+03  0.00000000000E+00 0. -1.
<scales pt_clust_5="13000.00000" pt_clust_6="13000.00000" pt_clust_7="13000.00000" pt_clust_8="13000.00000" pt_clust_9="13000.00000"></scales>
<clustering>
<clus scale="   76.143">  5  6 -1 -1</clus>
<clus scale="   85.759">  1  5  2 -1</clus>
<clus scale="   92.824">  7  8 -1 -1</clus>
<clus scale="   43.304">  7  9 -1 -1</clus>
<clus scale="  150.990">  2  5  1 -1</clus>
</clustering>
</event>
<event>
 9    2  0.3897980E-005  0.2228648E+03  0.7546771E-02  0.1164592E+00
          2   -1    0    0  502    0 -0.00000000000E+00  0.00000000000E+00  0.49736475951E+03  0.49736475951E+03  0.00000000000E+00 0. -1.
         21   -1    0    0  501  502  0.00000000000E+00 -0.00000000000E+00 -0.54264718247E+02  0.54264718247E+02  0.00000000000E+00 0. -1.
         24    2    1    2    0    0 -0.53704539772E+02 -0.32554637223E+02  0.17883970652E+03  0.20593851385E+03  0.80517382361E+02 0.  0.
         23    2    1    2    0    0  0.83609228943E+02 -0.49150656103E+02  0.13806921581E+03  0.19241264225E+03  0.92483654683E+02 0.  0.
        -13    1    3    3    0    0 -0.57721779559E+02  0.95364353953E+01  0.11977239102E+03  0.13329731087E+03  0.00000000000E+00 0.  1.
         14    1    3    3    0    0  0.40172397871E+01 -0.42091072618E+02  0.59067315500E+02  0.72641202978E+02  0.00000000000E+00 0. -1.
        -13    1    4    4    0    0  0.69540728844E+02 -0.70711281570E+02  0.75158040815E+02  0.12443765270E+03  0.00000000000E+00 0. -1.
         13    1    4    4    0    0  0.14068500098E+02  0.21560625467E+02  0.62911174996E+02  0.67974989554E+02  0.00000000000E+00 0.  1.
          1    1    1    2  501    0 -0.29904689171E+02  0.81705293326E+02  0.12619111893E+03  0.15327832165E+03  0.00000000000E+00 0. -1.
<scales pt_clust_5="13000.00000" pt_clust_6="13000.00000" pt_clust_7="13000.00000" pt_clust_8="13000.00000" pt_clust_9="13000.00000"></scales>
<clustering>
<clus scale="   80.517">  5  6 -1 -1</clus>
<clus scale="   92.484">  7  8 -1 -1</clus>
<clus scale="   87.006">  7  9 -1 -1</clus>
<clus scale="  102.113">  1  5  2 -1</clus>
<clus scale="  222.865">  2  5  1 -1</clus>
</clustering>
</event>
<event>
 9    2  0.3897980E-005  0.3389755E+03  0.7546771E-02  0.1114764E+00
          2   -1    0    0  502    0 -0.00000000000E+00  0.00000000000E+00  0.11692554753E+03  0.11692554753E+03  0.00000000000E+00 0. -1.
         21   -1    0    0  501  502  0.00000000000E+00 -0.00000000000E+00 -0.42091826699E+03  0.42091826699E+03  0.00000000000E+00 0. -1.
         24    2    1    2    0    0 -0.48241653601E+02  0.27156036871E+02 -0.11324114683E+03  0.14888292063E+03  0.79232942888E+02 0.  0.
         23    2    1    2    0    0  0.63234709473E+02  0.52404385411E+02  0.51804545255E+02  0.13324987958E+03  0.91252240557E+02 0.  0.
        -11    1    3    3    0    0 -0.36802905210E+01 -0.25127015824E+02 -0.47159117072E+02  0.53562055464E+02  0.00000000000E+00 0.  1.
         12    1    3    3    0    0 -0.44561363080E+02  0.52283052695E+02 -0.66082029758E+02  0.95320865164E+02  0.00000000000E+00 0. -1.
        -13    1    4    4    0    0  0.72416916111E+02  0.12519708852E+02  0.90217009284E+01  0.74042852028E+02  0.00000000000E+00 0. -1.
         13    1    4    4    0    0 -0.91822066377E+01  0.39884676559E+02  0.42782844327E+02  0.59207027553E+02  0.00000000000E+00 0.  1.
          1    1    1    2  501    0 -0.14993055873E+02 -0.79560422282E+02 -0.24255611788E+03  0.25571101431E+03  0.00000000000E+00 0. -1.
<scales pt_clust_5="13000.00000" pt_clust_6="13000.00000" pt_clust_7="13000.00000" pt_clust_8="13000.00000" pt_clust_9="13000.00000"></scales>
<clustering>
<clus scale="   79.233">  5  6 -1 -1</clus>
<clus scale="   91.252">  7  8 -1 -1</clus>
<clus scale="   80.961">  7  9 -1 -1</clus>
<clus scale="   96.657">  1  5  2 -1</clus>
<clus scale="  338.976">  2  5  1 -1</clus>
</clustering>
</event>
<event>
 9    2  0.3897980E-005  0.8469528E+03  0.7546771E-02  0.9889414E-01
         21   -1    0    0  501  502  0.00000000000E+00  0.00000000000E+00  0.46077875302E+03  0.46077875302E+03  0.00000000000E+00 0. -1.
          2   -1    0    0  502    0 -0.00000000000E+00 -0.00000000000E+00 -0.72663931763E+03  0.72663931763E+03  0.00000000000E+00 0. -1.
         24    2    1    2    0    0  0.20779603889E+03  0.27401353372E+02 -0.25580727402E+03  0.34040561852E+03  0.80675868349E+02 0.  0.
         23    2    1    2    0    0  0.30005336620E+03  0.84600863968E+02 -0.16142346212E+02  0.32692342944E+03  0.97103164832E+02 0.  0.
        -13    1    3    3    0    0  0.83733001099E+02  0.21175323948E+02 -0.16599272648E+03  0.18711813130E+03  0.00000000000E+00 0.  1.
         14    1    3    3    0    0  0.12406303779E+03  0.62260294241E+01 -0.89814547539E+02  0.15328748722E+03  0.00000000000E+00 0. -1.
        -11    1    4    4    0    0  0.12687887682E+03 -0.13288084538E+02 -0.43100297389E+01  0.12764559894E+03  0.00000000000E+00 0.  1.
         11    1    4    4    0    0  0.17317448938E+03  0.97888948506E+02 -0.11832316473E+02  0.19927783049E+03  0.00000000000E+00 0. -1.
          1    1    1    2  501    0 -0.50784940509E+03 -0.11200221734E+03  0.60890556169E+01  0.52008902270E+03  0.00000000000E+00 0. -1.
<scales pt_clust_5="13000.00000" pt_clust_6="13000.00000" pt_clust_7="13000.00000" pt_clust_8="13000.00000" pt_clust_9="13000.00000"></scales>
<clustering>
<clus scale="   80.676">  5  6 -1 -1</clus>
<clus scale="   97.103">  7  8 -1 -1</clus>
<clus scale="  224.585">  2  5  1 -1</clus>
<clus scale="  394.967">  7  9 -1 -1</clus>
<clus scale="  846.953">  1  5  2 -1</clus>
</clustering>
</event>
<event>
 9    2  0.3897980E-005  0.2827847E+03  0.7546771E-02  0.1109101E+00
         -3   -1    0    0    0  501 -0.00000000000E+00  0.00000000000E+00  0.57184849383E+03  0.57184849383E+03  0.00000000000E+00 0.  1.
         21   -1    0    0  501  502  0.00000000000E+00 -0.00000000000E+00 -0.50665247746E+03  0.50665247746E+03  0.00000000000E+00 0.  1.
         24    2    1    2    0    0  0.60716751617E+02 -0.15792112342E+03  0.51359135723E+03  0.54838252631E+03  0.91223394931E+02 0.  0.
         23    2    1    2    0    0  0.43259713698E+02  0.78112474579E+02 -0.12347617859E+03  0.17975722026E+03  0.95358953660E+02 0.  0.
        -13    1    3    3    0    0  0.54000304444E+02 -0.16598062553E+03  0.50646960530E+03  0.53570240061E+03  0.00000000000E+00 0.  1.
         14    1    3    3    0    0  0.67164471722E+01  0.80595021142E+01  0.71217519388E+01  0.12680125694E+02  0.00000000000E+00 0. -1.
        -13    1    4    4    0    0 -0.26447436782E+02  0.58009608324E+01 -0.44058936128E+02  0.51713711061E+02  0.00000000000E+00 0.  1.
         13    1    4    4    0    0  0.69707150480E+02  0.72311513747E+02 -0.79417242461E+02  0.12804350920E+03  0.00000000000E+00 0. -1.
         -4    1    1    2    0  502 -0.10397646531E+03  0.79808648840E+02 -0.32491916228E+03  0.35036122472E+03  0.00000000000E+00 0.  1.
<scales pt_clust_5="13000.00000" pt_clust_6="13000.00000" pt_clust_7="13000.00000" pt_clust_8="13000.00000" pt_clust_9="13000.00000"></scales>
<clustering>
<clus scale="   91.223">  5  6 -1 -1</clus>
<clus scale="   95.359">  7  8 -1 -1</clus>
<clus scale="  131.075">  7  9 -1 -1</clus>
<clus scale="  192.217">  1  5  2 -1</clus>
<clus scale="  282.785">  2  5  1 -1</clus>
</clustering>
</event>
<event>
 9    2  0.6099559E-005  0.8696175E+03  0.7546771E-02  0.9920384E-01
         21   -1    0    0  501  502  0.00000000000E+00  0.00000000000E+00  0.17891567909E+03  0.17891567909E+03  0.00000000000E+00 0. -1.
          2   -1    0    0  502    0 -0.00000000000E+00 -0.00000000000E+00 -0.15970050330E+04  0.15970050330E+04  0.00000000000E+00 0. -1.
         24    2    1    2    0    0  0.16727538881E+03 -0.66286329107E+02 -0.16115743110E+03  0.24748604618E+03  0.53876639888E+02 0.  0.
         23    2    1    2    0    0  0.14088620375E+02 -0.28616274895E+03 -0.10271088357E+04  0.10702513970E+04  0.91639972034E+02 0.  0.
        -11    1    3    3    0    0  0.34804434764E+02 -0.23110540515E+02 -0.12201388558E+02  0.43523782520E+02  0.00000000000E+00 0.  1.
         12    1    3    3    0    0  0.13247095405E+03 -0.43175788592E+02 -0.14895604254E+03  0.20396226366E+03  0.00000000000E+00 0. -1.
        -11    1    4    4    0    0  0.30178783640E+02 -0.26815472810E+02 -0.16252080526E+03  0.16745996747E+03  0.00000000000E+00 0.  1.
         11    1    4    4    0    0 -0.16090163266E+02 -0.25934727614E+03 -0.86458803040E+03  0.90279142957E+03  0.00000000000E+00 0. -1.
          1    1    1    2  501    0 -0.18136400919E+03  0.35244907806E+03 -0.22982308711E+03  0.45818326881E+03  0.00000000000E+00 0. -1.
<scales pt_clust_5="13000.00000" pt_clust_6="13000.00000" pt_clust_7="13000.00000" pt_clust_8="13000.00000" pt_clust_9="13000.00000"></scales>
<clustering>
<clus scale="   53.877">  5  6 -1 -1</clus>
<clus scale="   91.640">  7  8 -1 -1</clus>
<clus scale="  187.823">  2  5  1 -1</clus>
<clus scale="  364.088">  7  9 -1 -1</clus>
<clus scale="  869.618">  1  5  2 -1</clus>
</clustering>
</event>
<event>
 9    2  0.3897980E-005  0.3381227E+03  0.7546771E-02  0.1072807E+00
          2   -1    0    0  502    0 -0.00000000000E+00  0.00000000000E+00  0.76792939790E+03  0.76792939790E+03  0.00000000000E+00 0. -1.
         21   -1    0    0  501  502  0.00000000000E+00 -0.00000000000E+00 -0.13207822437E+03  0.13207822437E+03  0.00000000000E+00 0.  1.
         24    2    1    2    0    0  0.17410618808E+03 -0.22068618954E+03  0.23549193259E+03  0.37597087223E+03  0.82959553195E+02 0.  0.
         23    2    1    2    0    0 -0.25631708798E+02  0.33980016884E+02  0.84468802278E+02  0.12819507065E+03  0.86529599205E+02 0.  0.
        -11    1    3    3    0    0  0.17073454289E+03 -0.21629757536E+03  0.24247925057E+03  0.36705736909E+03  0.00000000000E+00 0.  1.
         12    1    3    3    0    0  0.33716451889E+01 -0.43886141796E+01 -0.69873179796E+01  0.89135031411E+01  0.00000000000E+00 0. -1.
        -13    1    4    4    0    0  0.24978949170E+02  0.35184964983E+02  0.53946420591E+02  0.69080720589E+02  0.00000000000E+00 0. -1.
         13    1    4    4    0    0 -0.50610657968E+02 -0.12049480992E+01  0.30522381687E+02  0.59114350066E+02  0.00000000000E+00 0.  1.
          1    1    1    2  501    0 -0.14847447928E+03  0.18670617266E+03  0.31589043866E+03  0.39584167939E+03  0.00000000000E+00 0. -1.
<scales pt_clust_5="13000.00000" pt_clust_6="13000.00000" pt_clust_7="13000.00000" pt_clust_8="13000.00000" pt_clust_9="13000.00000"></scales>
<clustering>
<clus scale="   82.960">  5  6 -1 -1</clus>
<clus scale="   86.530">  7  8 -1 -1</clus>
<clus scale="  238.545">  7  9 -1 -1</clus>
<clus scale="  293.083">  1  5  2 -1</clus>
<clus scale="  338.123">  2  5  1 -1</clus>
</clustering>
</event>
<event>
 9    2  0.3897980E-005  0.3064842E+03  0.7546771E-02  0.1113111E+00
         21   -1    0    0  501  502  0.00000000000E+00  0.00000000000E+00  0.16704151264E+03  0.16704151264E+03  0.00000000000E+00 0.  1.
          2   -1    0    0  502    0 -0.00000000000E+00 -0.00000000000E+00 -0.54241322857E+03  0.54241322857E+03  0.00000000000E+00 0. -1.
         24    2    1    2    0    0  0.97631215006E+02 -0.60070732739E+02 -0.37917526371E+03  0.40294698993E+03  0.73837991650E+02 0.  0.
         23    2    1    2    0    0 -0.10478144727E+03 -0.70067425509E+02  0.57915480265E+02  0.16538664269E+03  0.90055221478E+02 0.  0.
        -11    1    3    3    0    0  0.21301055725E+02 -0.50212141522E+02 -0.10700996526E+03  0.12010881231E+03  0.00000000000E+00 0.  1.
         12    1    3    3    0    0  0.76330159281E+02 -0.98585912175E+01 -0.27216529845E+03  0.28283817762E+03  0.00000000000E+00 0. -1.
        -11    1    4    4    0    0 -0.71326371698E+02 -0.90810494772E+02  0.40895285739E+02  0.12250070063E+03  0.00000000000E+00 0.  1.
         11    1    4    4    0    0 -0.33455075577E+02  0.20743069262E+02  0.17020194526E+02  0.42885942055E+02  0.00000000000E+00 0. -1.
          1    1    1    2  501    0  0.71502322687E+01  0.13013815825E+03 -0.54111932481E+02  0.14112110859E+03  0.00000000000E+00 0. -1.
<scales pt_clust_5="13000.00000" pt_clust_6="13000.00000" pt_clust_7="13000.00000" pt_clust_8="13000.00000" pt_clust_9="13000.00000"></scales>
<clustering>
<clus scale="   73.838">  5  6 -1 -1</clus>
<clus scale="   90.055">  7  8 -1 -1</clus>
<clus scale="  130.335">  7  9 -1 -1</clus>
<clus scale="  136.354">  2  5  1 -1</clus>
<clus scale="  306.484">  1  5  2 -1</clus>
</clustering>
</event>
<event>
 9    2  0.3897980E-005  0.4002979E+03  0.7546771E-02  0.1087525E+00
          2   -1    0    0  502    0 -0.00000000000E+00  0.00000000000E+00  0.39593732130E+03  0.39593732130E+03  0.00000000000E+00 0. -1.
         21   -1    0    0  501  502  0.00000000000E+00 -0.00000000000E+00 -0.46061472835E+03  0.46061472835E+03  0.00000000000E+00 0. -1.
         24    2    1    2    0    0  0.79925713244E+02  0.33701916380E+02  0.29522961681E+03  0.31824781405E+03  0.81223184515E+02 0.  0.
         23    2    1    2    0    0  0.23643199117E+02 -0.18716043037E+03 -0.14578957602E+03  0.25524537848E+03  0.91145900608E+02 0.  0.
        -11    1    3    3    0    0 -0.12567705758E+02  0.19397949239E+02  0.37504485691E+02  0.44054671825E+02  0.00000000000E+00 0.  1.
         12    1    3    3    0    0  0.92493419002E+02  0.14303967141E+02  0.25772513112E+03  0.27419314223E+03  0.00000000000E+00 0. -1.
        -13    1    4    4    0    0  0.44593589584E+02 -0.18270855396E+03 -0.12973051301E+03  0.22847540334E+03  0.00000000000E+00 0. -1.
         13    1    4    4    0    0 -0.20950390467E+02 -0.44518764020E+01 -0.16059063012E+02  0.26769975141E+02  0.00000000000E+00 0.  1.
          1    1    1    2  501    0 -0.10356891236E+03  0.15345851399E+03 -0.21411744784E+03  0.28305885711E+03  0.00000000000E+00 0. -1.
<scales pt_clust_5="13000.00000" pt_clust_6="13000.00000" pt_clust_7="13000.00000" pt_clust_8="13000.00000" pt_clust_9="13000.00000"></scales>
<clustering>
<clus scale="   81.223">  5  6 -1 -1</clus>
<clus scale="   91.146">  7  8 -1 -1</clus>
<clus scale="  118.832">  1  5  2 -1</clus>
<clus scale="  181.657">  7  9 -1 -1</clus>
<clus scale="  400.298">  2  5  1 -1</clus>
</clustering>
</event>
<event>
 9    2  0.3897980E-005  0.1953748E+03  0.7546771E-02  0.1174798E+00
         21   -1    0    0  501  502  0.00000000000E+00  0.00000000000E+00  0.56363506281E+02  0.56363506281E+02  0.00000000000E+00 0.  1.
         -1   -1    0    0    0  501 -0.00000000000E+00 -0.00000000000E+00 -0.62849620614E+03  0.62849620614E+03  0.00000000000E+00 0.  1.
         24    2    1    2    0    0 -0.86046136632E+02  0.20723373187E+02 -0.42124748976E+03  0.43800419034E+03  0.81023621874E+02 0.  0.
         23    2    1    2    0    0  0.83507250414E+02 -0.68072411928E+02 -0.13776026494E+03  0.19765550583E+03  0.92100457399E+02 0.  0.
        -11    1    3    3    0    0 -0.84314067397E+02  0.43746465335E+02 -0.36602833337E+03  0.37815255654E+03  0.00000000000E+00 0.  1.
         12    1    3    3    0    0 -0.17320692357E+01 -0.23023092148E+02 -0.55219156387E+02  0.59851633795E+02  0.00000000000E+00 0. -1.
        -13    1    4    4    0    0  0.39829354060E+02 -0.85695039290E+02 -0.87742207023E+02  0.12895236367E+03  0.00000000000E+00 0.  1.
         13    1    4    4    0    0  0.43677896354E+02  0.17622627362E+02 -0.50018057914E+02  0.68703142159E+02  0.00000000000E+00 0. -1.
         -2    1    1    2    0  502  0.25388862185E+01  0.47349038741E+02 -0.13124945158E+02  0.49200016243E+02  0.00000000000E+00 0.  1.
<scales pt_clust_5="13000.00000" pt_clust_6="13000.00000" pt_clust_7="13000.00000" pt_clust_8="13000.00000" pt_clust_9="13000.00000"></scales>
<clustering>
<clus scale="   81.024">  5  6 -1 -1</clus>
<clus scale="   92.100">  7  8 -1 -1</clus>
<clus scale="   47.417">  7  9 -1 -1</clus>
<clus scale="  119.993">  2  5  1 -1</clus>
<clus scale="  195.375">  1  5  2 -1</clus>
</clustering>
</event>
<event>
 9    2  0.3897980E-005  0.4886970E+03  0.7546771E-02  0.1030225E+00
          2   -1    0    0  502    0 -0.00000000000E+00  0.00000000000E+00  0.22487412853E+04  0.22487412853E+04  0.00000000000E+00 0. -1.
         21   -1    0    0  501  502  0.00000000000E+00 -0.00000000000E+00 -0.73964060446E+02  0.73964060446E+02  0.00000000000E+00 0. -1.
         24    2    1    2    0    0 -0.18000998558E+03  0.26094677507E+03  0.92182428393E+03  0.97782029373E+03  0.76653128209E+02 0.  0.
         23    2    1    2    0    0 -0.61664226331E+02  0.24354422470E+02  0.24938351714E+03  0.27392530189E+03  0.91909290577E+02 0.  0.
        -11    1    3    3    0    0 -0.99231610027E+02  0.84051980828E+02  0.32236303162E+03  0.34760548336E+03  0.00000000000E+00 0.  1.
         12    1    3    3    0    0 -0.80778375557E+02  0.17689479424E+03  0.59946125231E+03  0.63021481037E+03  0.00000000000E+00 0. -1.
        -11    1    4    4    0    0 -0.78406292982E+02  0.62288429447E+01  0.12938380531E+03  0.15141504001E+03  0.00000000000E+00 0.  1.
         11    1    4    4    0    0  0.16742066650E+02  0.18125579526E+02  0.11999971183E+03  0.12251026189E+03  0.00000000000E+00 0. -1.
          1    1    1    2  501    0  0.24167421192E+03 -0.28530119754E+03  0.10035694238E+04  0.10709597502E+04  0.00000000000E+00 0. -1.
<scales pt_clust_5="13000.00000" pt_clust_6="13000.00000" pt_clust_7="13000.00000" pt_clust_8="13000.00000" pt_clust_9="13000.00000"></scales>
<clustering>
<clus scale="   76.653">  5  6 -1 -1</clus>
<clus scale="   91.909">  7  8 -1 -1</clus>
<clus scale="  326.148">  1  5  2 -1</clus>
<clus scale="  124.523">  7  9 -1 -1</clus>
<clus scale="  488.697">  2  5  1 -1</clus>
</clustering>
</event>
<event>
 9    2  0.3897980E-005  0.3846216E+03  0.7546771E-02  0.1066977E+00
         21   -1    0    0  501  502  0.00000000000E+00  0.00000000000E+00  0.11460968416E+03  0.11460968416E+03  0.00000000000E+00 0.  1.
          2   -1    0    0  502    0 -0.00000000000E+00 -0.00000000000E+00 -0.99627796194E+03  0.99627796194E+03  0.00000000000E+00 0. -1.
         24    2    1    2    0    0 -0.41161117533E+02 -0.21838134135E+03 -0.13221522349E+03  0.26850193410E+03  0.72303357089E+02 0.  0.
         23    2    1    2    0    0  0.10582537985E+03 -0.13506344855E+02 -0.22323751539E+03  0.26371813971E+03  0.91273416507E+02 0.  0.
        -13    1    3    3    0    0 -0.58316346802E+02 -0.19997231399E+03 -0.11418369089E+03  0.23754502295E+03  0.00000000000E+00 0.  1.
         14    1    3    3    0    0  0.17155229269E+02 -0.18409027366E+02 -0.18031532599E+02  0.30956911146E+02  0.00000000000E+00 0. -1.
        -11    1    4    4    0    0  0.83624335163E+02 -0.30636083368E+02 -0.21759434504E+03  0.23511464869E+03  0.00000000000E+00 0.  1.
         11    1    4    4    0    0  0.22201044688E+02  0.17129738513E+02 -0.56431703509E+01  0.28603491017E+02  0.00000000000E+00 0. -1.
          1    1    1    2  501    0 -0.64664262318E+02  0.23188768621E+03 -0.52621553891E+03  0.57866757229E+03  0.00000000000E+00 0. -1.
<scales pt_clust_5="13000.00000" pt_clust_6="13000.00000" pt_clust_7="13000.00000" pt_clust_8="13000.00000" pt_clust_9="13000.00000"></scales>
<clustering>
<clus scale="   72.303">  5  6 -1 -1</clus>
<clus scale="   91.273">  7  8 -1 -1</clus>
<clus scale="  233.693">  2  5  1 -1</clus>
<clus scale="  123.054">  7  9 -1 -1</clus>
<clus scale="  384.622">  1  5  2 -1</clus>
</clustering>
</event>
<event>
 9    2  0.3897980E-005  0.2364808E+03  0.7546771E-02  0.1140990E+00
         21   -1    0    0  501  502  0.00000000000E+00  0.00000000000E+00  0.14221211894E+03  0.14221211894E+03  0.00000000000E+00 0.  1.
         -3   -1    0    0    0  501 -0.00000000000E+00 -0.00000000000E+00 -0.51853778902E+03  0.51853778902E+03  0.00000000000E+00 0.  1.
         24    2    1    2    0    0 -0.22844563380E+01 -0.12560441066E+03 -0.39630357959E+03  0.42342669520E+03  0.80324045514E+02 0.  0.
         23    2    1    2    0    0 -0.27574361933E+02  0.15006977178E+02 -0.45675407120E+02  0.10528647808E+03  0.89517846552E+02 0.  0.
        -13    1    3    3    0    0  0.20296192071E+02 -0.11990052650E+03 -0.36268381574E+03  0.38252793606E+03  0.00000000000E+00 0.  1.
         14    1    3    3    0    0 -0.22580648409E+02 -0.57038841524E+01 -0.33619763858E+02  0.40898759136E+02  0.00000000000E+00 0. -1.
        -13    1    4    4    0    0  0.11331153808E+02  0.44561435734E+02 -0.23365440917E+02  0.51575773678E+02  0.00000000000E+00 0. -1.
         13    1    4    4    0    0 -0.38905515740E+02 -0.29554458556E+02 -0.22309966203E+02  0.53710704404E+02  0.00000000000E+00 0.  1.
         -4    1    1    2    0  502  0.29858818271E+02  0.11059743348E+03  0.65653316632E+02  0.13203673468E+03  0.00000000000E+00 0.  1.
<scales pt_clust_5="13000.00000" pt_clust_6="13000.00000" pt_clust_7="13000.00000" pt_clust_8="13000.00000" pt_clust_9="13000.00000"></scales>
<clustering>
<clus scale="   80.324">  5  6 -1 -1</clus>
<clus scale="   89.518">  7  8 -1 -1</clus>
<clus scale="  114.557">  7  9 -1 -1</clus>
<clus scale="  149.109">  2  5  1 -1</clus>
<clus scale="  236.481">  1  5  2 -1</clus>
</clustering>
</event>
<event>
 9    2  0.3897980E-005  0.5375956E+03  0.7546771E-02  0.1007953E+00
          2   -1    0    0  502    0 -0.00000000000E+00  0.00000000000E+00  0.62069321847E+03  0.62069321847E+03  0.00000000000E+00 0. -1.
         21   -1    0    0  501  502  0.00000000000E+00 -0.00000000000E+00 -0.41823268671E+03  0.41823268671E+03  0.00000000000E+00 0.  1.
         24    2    1    2    0    0  0.42927024285E+03  0.20302610760E+03  0.93939683217E+02  0.49048645797E+03  0.79118642545E+02 0.  0.
         23    2    1    2    0    0 -0.15673786345E+03 -0.14381436170E+03 -0.33673983508E+02  0.23539105009E+03  0.95003583235E+02 0.  0.
        -11    1    3    3    0    0  0.33381606965E+03  0.18998095313E+03  0.62487083313E+02  0.38914080548E+03  0.00000000000E+00 0.  1.
         12    1    3    3    0    0  0.95454173204E+02  0.13045154472E+02  0.31452599904E+02  0.10134565249E+03  0.00000000000E+00 0. -1.
        -11    1    4    4    0    0  0.76075487197E+01 -0.20215897319E+02 -0.19777196872E+02  0.29286427199E+02  0.00000000000E+00 0.  1.
         11    1    4    4    0    0 -0.16434541217E+03 -0.12359846438E+03 -0.13896786636E+02  0.20610462289E+03  0.00000000000E+00 0. -1.
          1    1    1    2  501    0 -0.27253237940E+03 -0.59211745905E+02  0.14219483205E+03  0.31304839712E+03  0.00000000000E+00 0. -1.
<scales pt_clust_5="13000.00000" pt_clust_6="13000.00000" pt_clust_7="13000.00000" pt_clust_8="13000.00000" pt_clust_9="13000.00000"></scales>
<clustering>
<clus scale="   79.119">  5  6 -1 -1</clus>
<clus scale="   95.004">  7  8 -1 -1</clus>
<clus scale="  278.891">  7  9 -1 -1</clus>
<clus scale="  481.407">  1  5  2 -1</clus>
<clus scale="  537.596">  2  5  1 -1</clus>
</clustering>
</event>
<event>
 9    2  0.3897980E-005  0.3798822E+03  0.7546771E-02  0.1076798E+00
         21   -1    0    0  501  502  0.00000000000E+00  0.00000000000E+00  0.37967112964E+03  0.37967112964E+03  0.00000000000E+00 0. -1.
          2   -1    0    0  502    0 -0.00000000000E+00 -0.00000000000E+00 -0.39733502776E+03  0.39733502776E+03  0.00000000000E+00 0. -1.
         24    2    1    2    0    0  0.99455056778E+02  0.13411659667E+03  0.25076095768E+03  0.31185843815E+03  0.80598124853E+02 0.  0.
         23    2    1    2    0    0 -0.56384136585E+02  0.81034028794E+02 -0.26926224839E+02  0.13885569581E+03  0.93862654953E+02 0.  0.
        -13    1    3    3    0    0  0.69410828827E+02  0.35867315764E+02  0.14311228037E+03  0.16305045934E+03  0.00000000000E+00 0.  1.
         14    1    3    3    0    0  0.30044227951E+02  0.98249280904E+02  0.10764867731E+03  0.14880797881E+03  0.00000000000E+00 0. -1.
        -11    1    4    4    0    0  0.78356290872E+01  0.66434364932E+02 -0.29125985592E+02  0.72960571296E+02  0.00000000000E+00 0. -1.
         11    1    4    4    0    0 -0.64219765672E+02  0.14599663862E+02  0.21997607534E+01  0.65895124518E+02  0.00000000000E+00 0.  1.
          1    1    1    2  501    0 -0.43070920193E+02 -0.21515062546E+03 -0.24149863096E+03  0.32629202344E+03  0.00000000000E+00 0. -1.
<scales pt_clust_5="13000.00000" pt_clust_6="13000.00000" pt_clust_7="13000.00000" pt_clust_8="13000.00000" pt_clust_9="13000.00000"></scales>
<clustering>
<clus scale="   80.598">  5  6 -1 -1</clus>
<clus scale="   93.863">  7  8 -1 -1</clus>
<clus scale="  185.404">  2  5  1 -1</clus>
<clus scale="  116.392">  7  9 -1 -1</clus>
<clus scale="  379.882">  1  5  2 -1</clus>
</clustering>
</event>
<event>
 9    2  0.3897980E-005  0.5216531E+03  0.7546771E-02  0.1068437E+00
          2   -1    0    0  502    0 -0.00000000000E+00  0.00000000000E+00  0.13628395860E+03  0.13628395860E+03  0.00000000000E+00 0. -1.
         21   -1    0    0  501  502  0.00000000000E+00 -0.00000000000E+00 -0.70172655847E+03  0.70172655847E+03  0.00000000000E+00 0. -1.
         24    2    1    2    0    0 -0.45418293963E+02 -0.88666067791E+01 -0.13218389702E+03  0.15989908824E+03  0.77160207667E+02 0.  0.
         23    2    1    2    0    0  0.30961794675E+02 -0.15220461252E+03  0.34932534187E+02  0.18277723608E+03  0.89790641397E+02 0.  0.
        -11    1    3    3    0    0 -0.53355694782E+02  0.13419427935E+01 -0.39707728589E+02  0.66523189084E+02  0.00000000000E+00 0.  1.
         12    1    3    3    0    0  0.79374008189E+01 -0.10208549573E+02 -0.92476168431E+02  0.93375899159E+02  0.00000000000E+00 0. -1.
        -11    1    4    4    0    0 -0.66086225221E+01 -0.13219475969E+03  0.84165270048E+01  0.13262717032E+03  0.00000000000E+00 0. -1.
         11    1    4    4    0    0  0.37570417197E+02 -0.20009852832E+02  0.26516007183E+02  0.50150065759E+02  0.00000000000E+00 0.  1.
          1    1    1    2  501    0  0.14456499289E+02  0.16107121930E+03 -0.46819123704E+03  0.49533419274E+03  0.00000000000E+00 0. -1.
<scales pt_clust_5="13000.00000" pt_clust_6="13000.00000" pt_clust_7="13000.00000" pt_clust_8="13000.00000" pt_clust_9="13000.00000"></scales>
<clustering>
<clus scale="   77.160">  5  6 -1 -1</clus>
<clus scale="   89.791">  7  8 -1 -1</clus>
<clus scale="   89.973">  1  5  2 -1</clus>
<clus scale="  160.365">  7  9 -1 -1</clus>
<clus scale="  521.653">  2  5  1 -1</clus>
</clustering>
</event>
<event>
 9    2  0.3897980E-005  0.4872333E+03  0.7546771E-02  0.1035564E+00
         21   -1    0    0  501  502  0.00000000000E+00  0.00000000000E+00  0.10701311125E+04  0.10701311125E+04  0.00000000000E+00 0. -1.
          2   -1    0    0  502    0 -0.00000000000E+00 -0.00000000000E+00 -0.14412933088E+03  0.14412933088E+03  0.00000000000E+00 0. -1.
         24    2    1    2    0    0 -0.11430055198E+03  0.24397836467E+03  0.22257853896E+03  0.35857324586E+03  0.80271464604E+02 0.  0.
         23    2    1    2    0    0 -0.47512598328E+02 -0.35089992746E+01  0.10486997231E+02  0.10457492127E+03  0.92499605249E+02 0.  0.
        -13    1    3    3    0    0 -0.62928854645E+02  0.58836702919E+02  0.46202325284E+02  0.97757113393E+02  0.00000000000E+00 0.  1.
         14    1    3    3    0    0 -0.51371697334E+02  0.18514166175E+03  0.17637621368E+03  0.26081613247E+03  0.00000000000E+00 0. -1.
        -13    1    4    4    0    0 -0.23524842096E+02  0.14588057095E+00  0.51670987060E+02  0.56774381375E+02  0.00000000000E+00 0.  1.
         13    1    4    4    0    0 -0.23987756232E+02 -0.36548798455E+01 -0.41183989829E+02  0.47800539892E+02  0.00000000000E+00 0. -1.
          1    1    1    2  501    0  0.16181315031E+03 -0.24046936540E+03  0.69293624545E+03  0.75111227627E+03  0.00000000000E+00 0. -1.
<scales pt_clust_5="13000.00000" pt_clust_6="13000.00000" pt_clust_7="13000.00000" pt_clust_8="13000.00000" pt_clust_9="13000.00000"></scales>
<clustering>
<clus scale="   80.271">  5  6 -1 -1</clus>
<clus scale="   92.500">  7  8 -1 -1</clus>
<clus scale="  281.129">  2  5  1 -1</clus>
<clus scale="  188.787">  7  9 -1 -1</clus>
<clus scale="  487.233">  1  5  2 -1</clus>
</clustering>
</event>
<event>
 9    2  0.3897980E-005  0.3651643E+03  0.7546771E-02  0.1077392E+00
          2   -1    0    0  502    0 -0.00000000000E+00  0.00000000000E+00  0.35532221368E+03  0.35532221368E+03  0.00000000000E+00 0. -1.
         21   -1    0    0  501  502  0.00000000000E+00 -0.00000000000E+00 -0.23672128265E+03  0.23672128265E+03  0.00000000000E+00 0. -1.
         24    2    1    2    0    0  0.52547524292E+02  0.18152747995E+03  0.94455598105E+02  0.22608179676E+03  0.80483852593E+02 0.  0.
         23    2    1    2    0    0 -0.12466203569E+02  0.54390617525E+02 -0.46303374503E+02  0.11650853490E+03  0.91194795406E+02 0.  0.
        -11    1    3    3    0    0 -0.74623549009E+01  0.55801291956E+02  0.60596301252E+02  0.82712651089E+02  0.00000000000E+00 0.  1.
         12    1    3    3    0    0  0.60009879193E+02  0.12572618799E+03  0.33859296852E+02  0.14336914567E+03  0.00000000000E+00 0. -1.
        -11    1    4    4    0    0 -0.48578423672E+02  0.12399907887E+02 -0.31391838277E+02  0.59152924462E+02  0.00000000000E+00 0. -1.
         11    1    4    4    0    0  0.36112220103E+02  0.41990709637E+02 -0.14911536226E+02  0.57355610442E+02  0.00000000000E+00 0.  1.
          1    1    1    2  501    0 -0.40081320723E+02 -0.23591809747E+03  0.70448707425E+02  0.24945316467E+03  0.00000000000E+00 0. -1.
<scales pt_clust_5="13000.00000" pt_clust_6="13000.00000" pt_clust_7="13000.00000" pt_clust_8="13000.00000" pt_clust_9="13000.00000"></scales>
<clustering>
<clus scale="   80.484">  5  6 -1 -1</clus>
<clus scale="   91.195">  7  8 -1 -1</clus>
<clus scale="  205.405">  1  5  2 -1</clus>
<clus scale="   87.111">  7  9 -1 -1</clus>
<clus scale="  365.164">  2  5  1 -1</clus>
</clustering>
</event>
<event>
 9    2  0.3897980E-005  0.3101893E+03  0.7546771E-02  0.1122284E+00
         21   -1    0    0  501  502  0.00000000000E+00  0.00000000000E+00  0.60940658489E+02  0.60940658489E+02  0.00000000000E+00 0. -1.
          2   -1    0    0  502    0 -0.00000000000E+00 -0.00000000000E+00 -0.13566859642E+04  0.13566859642E+04  0.00000000000E+00 0. -1.
         24    2    1    2    0    0 -0.63012946367E+02  0.18854664845E+02 -0.93938529631E+03  0.94517568940E+03  0.81155524232E+02 0.  0.
         23    2    1    2    0    0 -0.71888836532E+02 -0.11219750593E+02 -0.30671804650E+03  0.32850265293E+03  0.92434546093E+02 0.  0.
        -11    1    3    3    0    0  0.23908852298E+01 -0.22422887916E+02 -0.11638649160E+03  0.11855090747E+03  0.00000000000E+00 0.  1.
         12    1    3    3    0    0 -0.65403831597E+02  0.41277552761E+02 -0.82299880470E+03  0.82662478192E+03  0.00000000000E+00 0. -1.
        -13    1    4    4    0    0 -0.65178699394E+02 -0.44086644725E+02 -0.16407556163E+03  0.18196891224E+03  0.00000000000E+00 0. -1.
         13    1    4    4    0    0 -0.67101371379E+01  0.32866894132E+02 -0.14264248487E+03  0.14653374068E+03  0.00000000000E+00 0.  1.
          1    1    1    2  501    0  0.13490178290E+03 -0.76349142528E+01 -0.49641962941E+02  0.14394828040E+03  0.00000000000E+00 0. -1.
<scales pt_clust_5="13000.00000" pt_clust_6="13000.00000" pt_clust_7="13000.00000" pt_clust_8="13000.00000" pt_clust_9="13000.00000"></scales>
<clustering>
<clus scale="   81.156">  5  6 -1 -1</clus>
<clus scale="   92.435">  7  8 -1 -1</clus>
<clus scale="  104.462">  2  5  1 -1</clus>
<clus scale="  120.227">  7  9 -1 -1</clus>
<clus scale="  310.189">  1  5  2 -1</clus>
</clustering>
</event>
<event>
 9    2  0.3897980E-005  0.3262259E+03  0.7546771E-02  0.1107361E+00
          2   -1    0    0  502    0 -0.00000000000E+00  0.00000000000E+00  0.11600170009E+04  0.11600170009E+04  0.00000000000E+00 0. -1.
         21   -1    0    0  501  502  0.00000000000E+00 -0.00000000000E+00 -0.48974559596E+02  0.48974559596E+02  0.00000000000E+00 0.  1.
         24    2    1    2    0    0  0.94296640204E+02 -0.40725137969E+02  0.18081846471E+03  0.22322282017E+03  0.81133945100E+02 0.  0.
         23    2    1    2    0    0  0.52293271847E+02 -0.32933045822E+02  0.13810285688E+03  0.17683734728E+03  0.91541665534E+02 0.  0.
        -11    1    3    3    0    0  0.85495724421E+02 -0.39125613271E+02  0.18900311167E+03  0.21109833900E+03  0.00000000000E+00 0.  1.
         12    1    3    3    0    0  0.88009157826E+01 -0.15995246976E+01 -0.81846469556E+01  0.12124481171E+02  0.00000000000E+00 0. -1.
        -13    1    4    4    0    0  0.21897041674E+02 -0.31102428870E+02  0.14119558599E+03  0.14622939177E+03  0.00000000000E+00 0. -1.
         13    1    4    4    0    0  0.30396230173E+02 -0.18306169522E+01 -0.30927291109E+01  0.30607955510E+02  0.00000000000E+00 0.  1.
          1    1    1    2  501    0 -0.14658991205E+03  0.73658183790E+02  0.79212111972E+03  0.80893139305E+03  0.00000000000E+00 0. -1.
<scales pt_clust_5="13000.00000" pt_clust_6="13000.00000" pt_clust_7="13000.00000" pt_clust_8="13000.00000" pt_clust_9="13000.00000"></scales>
<clustering>
<clus scale="   81.134">  5  6 -1 -1</clus>
<clus scale="   91.542">  7  8 -1 -1</clus>
<clus scale="  130.894">  1  5  2 -1</clus>
<clus scale="   78.525">  7  9 -1 -1</clus>
<clus scale="  326.226">  2  5  1 -1</clus>
</clustering>
</event>
<event>
 9    2  0.3897980E-005  0.1613582E+03  0.7546771E-02  0.1216788E+00
         21   -1    0    0  501  502  0.00000000000E+00  0.00000000000E+00  0.56404398688E+02  0.56404398688E+02  0.00000000000E+00 0. -1.
          2   -1    0    0  502    0 -0.00000000000E+00 -0.00000000000E+00 -0.78038751369E+03  0.78038751369E+03  0.00000000000E+00 0. -1.
         24    2    1    2    0    0  0.58147000428E+01  0.33713553638E+02 -0.65635642837E+03  0.66183525611E+03  0.77792870764E+02 0.  0.
         23    2    1    2    0    0 -0.20156380965E+02  0.37249554043E+01 -0.88954616486E+02  0.12954513390E+03  0.91917696541E+02 0.  0.
        -11    1    3    3    0    0 -0.16398263881E+02  0.12992332383E+02 -0.43946226822E+02  0.48672113278E+02  0.00000000000E+00 0.  1.
         12    1    3    3    0    0  0.22212963924E+02  0.20721221255E+02 -0.61241020154E+03  0.61316314284E+03  0.00000000000E+00 0. -1.
        -11    1    4    4    0    0 -0.40115739097E+02  0.35926966623E+02 -0.66252447231E+02  0.85378019525E+02  0.00000000000E+00 0. -1.
         11    1    4    4    0    0  0.19959358131E+02 -0.32202011219E+02 -0.22702169255E+02  0.44167114378E+02  0.00000000000E+00 0.  1.
          1    1    1    2  501    0  0.14341680923E+02 -0.37438509042E+02  0.21327929854E+02  0.45411522358E+02  0.00000000000E+00 0. -1.
<scales pt_clust_5="13000.00000" pt_clust_6="13000.00000" pt_clust_7="13000.00000" pt_clust_8="13000.00000" pt_clust_9="13000.00000"></scales>
<clustering>
<clus scale="   77.793">  5  6 -1 -1</clus>
<clus scale="   84.983">  2  5  1 -1</clus>
<clus scale="   91.918">  7  8 -1 -1</clus>
<clus scale="   37.213">  7  9 -1 -1</clus>
<clus scale="  161.358">  1  5  2 -1</clus>
</clustering>
</event>
<event>
 9    2  0.3897980E-005  0.2233864E+03  0.7546771E-02  0.1163618E+00
         21   -1    0    0  501  502  0.00000000000E+00  0.00000000000E+00  0.21729311314E+03  0.21729311314E+03  0.00000000000E+00 0.  1.
         -1   -1    0    0    0  501 -0.00000000000E+00 -0.00000000000E+00 -0.17266230708E+03  0.17266230708E+03  0.00000000000E+00 0.  1.
         24    2    1    2    0    0  0.55945565780E+02  0.34868606809E+02  0.11585348164E+03  0.15548975647E+03  0.80058160657E+02 0.  0.
         23    2    1    2    0    0  0.37251907028E+02  0.35098149426E+02 -0.53714089354E+02  0.11661971979E+03  0.89974279535E+02 0.  0.
        -11    1    3    3    0    0  0.75808448105E+02  0.31170528171E+02  0.10262217297E+03  0.13133861967E+03  0.00000000000E+00 0.  1.
         12    1    3    3    0    0 -0.19862882325E+02  0.36980786374E+01  0.13231308671E+02  0.24151136806E+02  0.00000000000E+00 0. -1.
        -11    1    4    4    0    0  0.61820834438E+02  0.27592029852E+01 -0.24339991374E+02  0.66497097319E+02  0.00000000000E+00 0.  1.
         11    1    4    4    0    0 -0.24568927410E+02  0.32338946441E+02 -0.29374097980E+02  0.50122622469E+02  0.00000000000E+00 0. -1.
         -2    1    1    2    0  502 -0.93197472809E+02 -0.69966756235E+02 -0.17508586236E+02  0.11784594396E+03  0.00000000000E+00 0.  1.
<scales pt_clust_5="13000.00000" pt_clust_6="13000.00000" pt_clust_7="13000.00000" pt_clust_8="13000.00000" pt_clust_9="13000.00000"></scales>
<clustering>
<clus scale="   80.058">  5  6 -1 -1</clus>
<clus scale="   89.974">  7  8 -1 -1</clus>
<clus scale="  103.707">  2  5  1 -1</clus>
<clus scale="   87.495">  7  9 -1 -1</clus>
<clus scale="  223.386">  1  5  2 -1</clus>
</clustering>
</event>
<event>
 9    2  0.3897980E-005  0.3065199E+03  0.7546771E-02  0.1123024E+00
         21   -1    0    0  501  502  0.00000000000E+00  0.00000000000E+00  0.21294844554E+03  0.21294844554E+03  0.00000000000E+00 0. -1.
          2   -1    0    0  502    0 -0.00000000000E+00 -0.00000000000E+00 -0.50625421244E+03  0.50625421244E+03  0.00000000000E+00 0. -1.
         24    2    1    2    0    0  0.56867555789E+02  0.28270865215E+02 -0.38488867099E+03  0.39929345378E+03  0.85222135936E+02 0.  0.
         23    2    1    2    0    0  0.88921246923E+02 -0.58845139405E+02 -0.82908803165E+01  0.14056614175E+03  0.91216023395E+02 0.  0.
        -13    1    3    3    0    0  0.29451950225E+02 -0.29629859512E+02 -0.13447757354E+03  0.14081748375E+03  0.00000000000E+00 0.  1.
         14    1    3    3    0    0  0.27415605564E+02  0.57900724728E+02 -0.25041109746E+03  0.25847597003E+03  0.00000000000E+00 0. -1.
        -13    1    4    4    0    0  0.52791068765E+02 -0.79411013073E+02  0.84884867241E+01  0.95734321669E+02  0.00000000000E+00 0. -1.
         13    1    4    4    0    0  0.36130178158E+02  0.20565873668E+02 -0.16779367041E+02  0.44831820081E+02  0.00000000000E+00 0.  1.
          1    1    1    2  501    0 -0.14578880271E+03  0.30574274190E+02  0.99873784410E+02  0.17934306246E+03  0.00000000000E+00 0. -1.
<scales pt_clust_5="13000.00000" pt_clust_6="13000.00000" pt_clust_7="13000.00000" pt_clust_8="13000.00000" pt_clust_9="13000.00000"></scales>
<clustering>
<clus scale="   85.222">  5  6 -1 -1</clus>
<clus scale="   91.216">  7  8 -1 -1</clus>
<clus scale="  106.283">  2  5  1 -1</clus>
<clus scale="  132.319">  7  9 -1 -1</clus>
<clus scale="  306.520">  1  5  2 -1</clus>
</clustering>
</event>
<event>
 9    2  0.3897980E-005  0.1431910E+03  0.7546771E-02  0.1235164E+00
         21   -1    0    0  501  502  0.00000000000E+00  0.00000000000E+00  0.75638825931E+02  0.75638825931E+02  0.00000000000E+00 0. -1.
          2   -1    0    0  502    0 -0.00000000000E+00 -0.00000000000E+00 -0.19631719391E+03  0.19631719391E+03  0.00000000000E+00 0. -1.
         24    2    1    2    0    0 -0.24884459880E+01 -0.17519032545E+02 -0.95576378301E+02  0.12658139033E+03  0.81085728859E+02 0.  0.
         23    2    1    2    0    0  0.13053939255E+02 -0.28990737447E+02 -0.91021215778E+01  0.95067730061E+02  0.89129997722E+02 0.  0.
        -13    1    3    3    0    0 -0.31305525651E+02  0.18418490599E+02 -0.49811933522E+02  0.61648239662E+02  0.00000000000E+00 0.  1.
         14    1    3    3    0    0  0.28817079663E+02 -0.35937523143E+02 -0.45764444779E+02  0.64933150670E+02  0.00000000000E+00 0. -1.
        -13    1    4    4    0    0  0.19418984958E+02  0.22248320055E+02 -0.27403869368E+02  0.40287178835E+02  0.00000000000E+00 0.  1.
         13    1    4    4    0    0 -0.63650457033E+01 -0.51239057502E+02  0.18301747791E+02  0.54780551227E+02  0.00000000000E+00 0. -1.
          1    1    1    2  501    0 -0.10565493267E+02  0.46509769992E+02 -0.15999868099E+02  0.50306899446E+02  0.00000000000E+00 0. -1.
<scales pt_clust_5="13000.00000" pt_clust_6="13000.00000" pt_clust_7="13000.00000" pt_clust_8="13000.00000" pt_clust_9="13000.00000"></scales>
<clustering>
<clus scale="   81.086">  5  6 -1 -1</clus>
<clus scale="   82.994">  2  5  1 -1</clus>
<clus scale="   89.130">  7  8 -1 -1</clus>
<clus scale="   41.337">  7  9 -1 -1</clus>
<clus scale="  143.191">  1  5  2 -1</clus>
</clustering>
</event>
<event>
 9    2  0.3897980E-005  0.1270901E+03  0.7546771E-02  0.1252265E+00
         21   -1    0    0  501  502  0.00000000000E+00  0.00000000000E+00  0.99070260172E+02  0.99070260172E+02  0.00000000000E+00 0. -1.
          2   -1    0    0  502    0 -0.00000000000E+00 -0.00000000000E+00 -0.11286271653E+03  0.11286271653E+03  0.00000000000E+00 0. -1.
         24    2    1    2    0    0  0.20357763562E+02  0.14789963397E+02  0.41155172135E+00  0.84051638774E+02  0.80195555059E+02 0.  0.
         23    2    1    2    0    0  0.86741610866E+01 -0.25340802463E+02 -0.15771747364E+02  0.96951891431E+02  0.91834219642E+02 0.  0.
        -11    1    3    3    0    0 -0.27547998281E+02 -0.83652621399E+01 -0.86844851708E+01  0.30071416705E+02  0.00000000000E+00 0.  1.
         12    1    3    3    0    0  0.47905761844E+02  0.23155225537E+02  0.90960368921E+01  0.53980222069E+02  0.00000000000E+00 0. -1.
        -11    1    4    4    0    0  0.32260096073E+02 -0.39212923452E+02 -0.36575081301E+02  0.62578780242E+02  0.00000000000E+00 0. -1.
         11    1    4    4    0    0 -0.23585934987E+02  0.13872120989E+02  0.20803333938E+02  0.34373111190E+02  0.00000000000E+00 0.  1.
          1    1    1    2  501    0 -0.29031924649E+02  0.10550839066E+02  0.15677392885E+01  0.30929446492E+02  0.00000000000E+00 0. -1.
<scales pt_clust_5="13000.00000" pt_clust_6="13000.00000" pt_clust_7="13000.00000" pt_clust_8="13000.00000" pt_clust_9="13000.00000"></scales>
<clustering>
<clus scale="   80.196">  5  6 -1 -1</clus>
<clus scale="   84.051">  2  5  1 -1</clus>
<clus scale="   91.834">  7  8 -1 -1</clus>
<clus scale="   28.310">  7  9 -1 -1</clus>
<clus scale="  127.090">  1  5  2 -1</clus>
</clustering>
</event>
<event>
 9    2  0.3897980E-005  0.1680345E+03  0.7546771E-02  0.1195859E+00
          4   -1    0    0  502    0 -0.00000000000E+00  0.00000000000E+00  0.99029483397E+02  0.99029483397E+02  0.00000000000E+00 0. -1.
         21   -1    0    0  501  502  0.00000000000E+00 -0.00000000000E+00 -0.20661152372E+03  0.20661152372E+03  0.00000000000E+00 0. -1.
         24    2    1    2    0    0  0.49892273350E+02 -0.72901157580E+02 -0.47499548498E+02  0.12718791761E+03  0.78209600192E+02 0.  0.
         23    2    1    2    0    0 -0.19895358966E+02  0.44847805350E+02 -0.83702054595E+02  0.13107493853E+03  0.88133164104E+02 0.  0.
        -11    1    3    3    0    0  0.34531766657E+02 -0.14649108461E+02  0.14983960408E+02  0.40392553232E+02  0.00000000000E+00 0.  1.
         12    1    3    3    0    0  0.15360506693E+02 -0.58252049119E+02 -0.62483508906E+02  0.86795364379E+02  0.00000000000E+00 0. -1.
        -13    1    4    4    0    0  0.34145811797E+01  0.67484805611E+02 -0.64037638764E+02  0.93094991978E+02  0.00000000000E+00 0. -1.
         13    1    4    4    0    0 -0.23309940145E+02 -0.22637000260E+02 -0.19664415830E+02  0.37979946555E+02  0.00000000000E+00 0.  1.
          3    1    1    2  501    0 -0.29996914384E+02  0.28053352230E+02  0.23619562771E+02  0.47378150971E+02  0.00000000000E+00 0. -1.
<scales pt_clust_5="13000.00000" pt_clust_6="13000.00000" pt_clust_7="13000.00000" pt_clust_8="13000.00000" pt_clust_9="13000.00000"></scales>
<clustering>
<clus scale="   78.210">  5  6 -1 -1</clus>
<clus scale="   88.133">  7  8 -1 -1</clus>
<clus scale="   41.071">  7  9 -1 -1</clus>
<clus scale="  117.985">  1  5  2 -1</clus>
<clus scale="  168.035">  2  5  1 -1</clus>
</clustering>
</event>
<event>
 9    2  0.3897980E-005  0.5267940E+03  0.7546771E-02  0.1025708E+00
         21   -1    0    0  501  502  0.00000000000E+00  0.00000000000E+00  0.99282924436E+02  0.99282924436E+02  0.00000000000E+00 0. -1.
          2   -1    0    0  502    0 -0.00000000000E+00 -0.00000000000E+00 -0.17811399322E+04  0.17811399322E+04  0.00000000000E+00 0. -1.
         24    2    1    2    0    0  0.14567396958E+03 -0.24728094265E+03 -0.79405012235E+03  0.84808912112E+03  0.79817232077E+02 0.  0.
         23    2    1    2    0    0  0.78414884201E+02  0.15952102248E+02 -0.54755851516E+02  0.13919160133E+03  0.99863581820E+02 0.  0.
        -11    1    3    3    0    0  0.83214084799E+02 -0.12145139347E+03 -0.29578271179E+03  0.33039739327E+03  0.00000000000E+00 0.  1.
         12    1    3    3    0    0  0.62459884784E+02 -0.12582954918E+03 -0.49826741056E+03  0.51769172784E+03  0.00000000000E+00 0. -1.
        -11    1    4    4    0    0  0.89522814998E+02  0.33498396948E+02 -0.18425211613E+02  0.97344570605E+02  0.00000000000E+00 0. -1.
         11    1    4    4    0    0 -0.11107930797E+02 -0.17546294700E+02 -0.36330639904E+02  0.41847030720E+02  0.00000000000E+00 0.  1.
          1    1    1    2  501    0 -0.22408885378E+03  0.23132884041E+03 -0.83305103386E+03  0.89314213415E+03  0.00000000000E+00 0. -1.
<scales pt_clust_5="13000.00000" pt_clust_6="13000.00000" pt_clust_7="13000.00000" pt_clust_8="13000.00000" pt_clust_9="13000.00000"></scales>
<clustering>
<clus scale="   79.817">  5  6 -1 -1</clus>
<clus scale="   99.864">  7  8 -1 -1</clus>
<clus scale="  297.892">  2  5  1 -1</clus>
<clus scale="   93.565">  7  9 -1 -1</clus>
<clus scale="  526.794">  1  5  2 -1</clus>
</clustering>
</event>
<event>
 9    2  0.3897980E-005  0.5118113E+03  0.7546771E-02  0.1072523E+00
         21   -1    0    0  501  502  0.00000000000E+00  0.00000000000E+00  0.21575191269E+03  0.21575191269E+03  0.00000000000E+00 0.  1.
          4   -1    0    0  502    0 -0.00000000000E+00 -0.00000000000E+00 -0.43487947238E+03  0.43487947238E+03  0.00000000000E+00 0. -1.
         24    2    1    2    0    0 -0.26091053097E+02  0.12144902457E+02  0.17212721091E+02  0.86887136405E+02  0.80155193206E+02 0.  0.
         23    2    1    2    0    0 -0.34245429682E+02  0.14793065426E+03  0.87413808350E+02  0.19757299742E+03  0.91310938537E+02 0.  0.
        -13    1    3    3    0    0 -0.49601549117E+02 -0.10809771115E+02  0.23398968439E+01  0.50819680672E+02  0.00000000000E+00 0.  1.
         14    1    3    3    0    0  0.23510496020E+02  0.22954673572E+02  0.14872824247E+02  0.36067455733E+02  0.00000000000E+00 0. -1.
        -11    1    4    4    0    0 -0.41936838563E+02  0.22095500481E+02  0.66849190871E+01  0.47870635188E+02  0.00000000000E+00 0. -1.
         11    1    4    4    0    0  0.76914088805E+01  0.12583515377E+03  0.80728889263E+02  0.14970236223E+03  0.00000000000E+00 0.  1.
          3    1    1    2  501    0  0.60336482779E+02 -0.16007555671E+03 -0.32375408913E+03  0.36617125125E+03  0.00000000000E+00 0. -1.
<scales pt_clust_5="13000.00000" pt_clust_6="13000.00000" pt_clust_7="13000.00000" pt_clust_8="13000.00000" pt_clust_9="13000.00000"></scales>
<clustering>
<clus scale="   80.155">  5  6 -1 -1</clus>
<clus scale="   85.165">  2  5  1 -1</clus>
<clus scale="   91.311">  7  8 -1 -1</clus>
<clus scale="  154.314">  7  9 -1 -1</clus>
<clus scale="  511.811">  1  5  2 -1</clus>
</clustering>
</event>
<event>
 9    2  0.3897980E-005  0.2139617E+03  0.7546771E-02  0.1176666E+00
          2   -1    0    0  502    0 -0.00000000000E+00  0.00000000000E+00  0.71388633731E+03  0.71388633731E+03  0.00000000000E+00 0. -1.
         21   -1    0    0  501  502  0.00000000000E+00 -0.00000000000E+00 -0.79757085631E+02  0.79757085631E+02  0.00000000000E+00 0. -1.
         24    2    1    2    0    0  0.28470227654E+02 -0.23796150526E+02  0.56060128925E+03  0.56740023501E+03  0.79324715825E+02 0.  0.
         23    2    1    2    0    0  0.58282475572E+02  0.36302707807E+02  0.11545577187E+02  0.11889207442E+03  0.96370594339E+02 0.  0.
        -13    1    3    3    0    0 -0.15469918123E+02 -0.33466762777E+02  0.15564252507E+03  0.15994979896E+03  0.00000000000E+00 0.  1.
         14    1    3    3    0    0  0.43940145777E+02  0.96706122514E+01  0.40495876417E+03  0.40745043605E+03  0.00000000000E+00 0. -1.
        -11    1    4    4    0    0  0.49396172621E+02 -0.23179469654E+02  0.20091111766E+02  0.58145700228E+02  0.00000000000E+00 0. -1.
         11    1    4    4    0    0  0.88863029510E+01  0.59482177461E+02 -0.85455345787E+01  0.60746374187E+02  0.00000000000E+00 0.  1.
          1    1    1    2  501    0 -0.86752703227E+02 -0.12506557281E+02  0.61982385243E+02  0.10735111351E+03  0.00000000000E+00 0. -1.
<scales pt_clust_5="13000.00000" pt_clust_6="13000.00000" pt_clust_7="13000.00000" pt_clust_8="13000.00000" pt_clust_9="13000.00000"></scales>
<clustering>
<clus scale="   79.325">  5  6 -1 -1</clus>
<clus scale="   87.574">  1  5  2 -1</clus>
<clus scale="   96.371">  7  8 -1 -1</clus>
<clus scale="   75.284">  7  9 -1 -1</clus>
<clus scale="  213.962">  2  5  1 -1</clus>
</clustering>
</event>
<event>
 9    2  0.3897980E-005  0.2970208E+03  0.7546771E-02  0.1125644E+00
         21   -1    0    0  501  502  0.00000000000E+00  0.00000000000E+00  0.52742452170E+03  0.52742452170E+03  0.00000000000E+00 0. -1.
          4   -1    0    0  502    0 -0.00000000000E+00 -0.00000000000E+00 -0.79618120995E+02  0.79618120995E+02  0.00000000000E+00 0. -1.
         24    2    1    2    0    0 -0.53188915761E+02  0.49495753507E+02  0.87768885213E+02  0.14030032758E+03  0.81865220537E+02 0.  0.
         23    2    1    2    0    0 -0.60208939646E+02  0.30660375336E+02  0.29062935584E+03  0.31149550765E+03  0.89436311298E+02 0.  0.
        -13    1    3    3    0    0  0.50081910738E+01  0.47976021294E+02  0.56244684180E+02  0.74096188131E+02  0.00000000000E+00 0.  1.
         14    1    3    3    0    0 -0.58197106834E+02  0.15197322123E+01  0.31524201033E+02  0.66204139453E+02  0.00000000000E+00 0. -1.
        -11    1    4    4    0    0  0.14932306229E+02 -0.14157768487E+02  0.28512637460E+02  0.35162290494E+02  0.00000000000E+00 0.  1.
         11    1    4    4    0    0 -0.75141245875E+02  0.44818143822E+02  0.26211671838E+03  0.27633321715E+03  0.00000000000E+00 0. -1.
          3    1    1    2  501    0  0.11339785541E+03 -0.80156128842E+02  0.69408159651E+02  0.15524680746E+03  0.00000000000E+00 0. -1.
<scales pt_clust_5="13000.00000" pt_clust_6="13000.00000" pt_clust_7="13000.00000" pt_clust_8="13000.00000" pt_clust_9="13000.00000"></scales>
<clustering>
<clus scale="   81.865">  5  6 -1 -1</clus>
<clus scale="   89.436">  7  8 -1 -1</clus>
<clus scale="  109.457">  2  5  1 -1</clus>
<clus scale="   81.321">  7  9 -1 -1</clus>
<clus scale="  297.021">  1  5  2 -1</clus>
</clustering>
</event>
<event>
 9    2  0.3897980E-005  0.3064610E+03  0.7546771E-02  0.1115468E+00
         -1   -1    0    0    0  501 -0.00000000000E+00  0.00000000000E+00  0.24792730847E+03  0.24792730847E+03  0.00000000000E+00 0.  1.
         21   -1    0    0  501  502  0.00000000000E+00 -0.00000000000E+00 -0.19730704772E+03  0.19730704772E+03  0.00000000000E+00 0.  1.
         24    2    1    2    0    0 -0.78312460261E+02  0.62185487527E+02  0.52393163468E+02  0.13876818582E+03  0.80695040286E+02 0.  0.
         23    2    1    2    0    0  0.35057430888E+02 -0.15964063845E+02  0.12900775015E+03  0.16116993250E+03  0.88593864064E+02 0.  0.
        -11    1    3    3    0    0 -0.74045047330E+02  0.72531119234E+02  0.64658559587E+02  0.12216448592E+03  0.00000000000E+00 0.  1.
         12    1    3    3    0    0 -0.42674129306E+01 -0.10345631707E+02 -0.12265396119E+02  0.16603699904E+02  0.00000000000E+00 0. -1.
        -11    1    4    4    0    0  0.40390821857E+02  0.28745293794E+02  0.51165585999E+02  0.71243438970E+02  0.00000000000E+00 0.  1.
         11    1    4    4    0    0 -0.53333909695E+01 -0.44709357639E+02  0.77842164149E+02  0.89926493533E+02  0.00000000000E+00 0. -1.
         -2    1    1    2    0  502  0.43255029373E+02 -0.46221423682E+02 -0.13078065287E+03  0.14529623787E+03  0.00000000000E+00 0.  1.
<scales pt_clust_5="13000.00000" pt_clust_6="13000.00000" pt_clust_7="13000.00000" pt_clust_8="13000.00000" pt_clust_9="13000.00000"></scales>
<clustering>
<clus scale="   80.695">  5  6 -1 -1</clus>
<clus scale="   88.594">  7  8 -1 -1</clus>
<clus scale="   63.304">  7  9 -1 -1</clus>
<clus scale="  128.497">  1  5  2 -1</clus>
<clus scale="  306.461">  2  5  1 -1</clus>
</clustering>
</event>
<event>
 9    2  0.3897980E-005  0.3405799E+03  0.7546771E-02  0.1090939E+00
          2   -1    0    0  502    0 -0.00000000000E+00  0.00000000000E+00  0.30297692926E+03  0.30297692926E+03  0.00000000000E+00 0. -1.
         21   -1    0    0  501  502  0.00000000000E+00 -0.00000000000E+00 -0.24317600898E+03  0.24317600898E+03  0.00000000000E+00 0. -1.
         24    2    1    2    0    0 -0.44423379660E+02  0.15052101734E+03 -0.58330516772E+02  0.18566753073E+03  0.80249420301E+02 0.  0.
         23    2    1    2    0    0 -0.61415603788E+02 -0.15174474362E+03  0.15982672503E+03  0.24672300175E+03  0.92354284976E+02 0.  0.
        -13    1    3    3    0    0  0.15218899281E+02  0.90063119942E+02 -0.30578698257E+02  0.96322568779E+02  0.00000000000E+00 0.  1.
         14    1    3    3    0    0 -0.59642278941E+02  0.60457897399E+02 -0.27751818515E+02  0.89344961951E+02  0.00000000000E+00 0. -1.
        -13    1    4    4    0    0 -0.85980978688E+02 -0.12172947244E+03  0.12293285148E+03  0.19319233714E+03  0.00000000000E+00 0. -1.
         13    1    4    4    0    0  0.24565374900E+02 -0.30015271183E+02  0.36893873553E+02  0.53530664613E+02  0.00000000000E+00 0.  1.
          1    1    1    2  501    0  0.10583898345E+03  0.12237262820E+01 -0.41695287988E+02  0.11376240576E+03  0.00000000000E+00 0. -1.
<scales pt_clust_5="13000.00000" pt_clust_6="13000.00000" pt_clust_7="13000.00000" pt_clust_8="13000.00000" pt_clust_9="13000.00000"></scales>
<clustering>
<clus scale="   80.249">  5  6 -1 -1</clus>
<clus scale="   92.354">  7  8 -1 -1</clus>
<clus scale="  105.846">  7  9 -1 -1</clus>
<clus scale="  176.267">  1  5  2 -1</clus>
<clus scale="  340.580">  2  5  1 -1</clus>
</clustering>
</event>
<event>
 9    2  0.3897980E-005  0.1690331E+03  0.7546771E-02  0.1197702E+00
         21   -1    0    0  501  502  0.00000000000E+00  0.00000000000E+00  0.35919772200E+03  0.35919772200E+03  0.00000000000E+00 0. -1.
         -1   -1    0    0    0  501 -0.00000000000E+00 -0.00000000000E+00 -0.54979908444E+02  0.54979908444E+02  0.00000000000E+00 0.  1.
         24    2    1    2    0    0  0.52708186604E+02  0.58513468262E+02  0.13518775883E+03  0.17513087181E+03  0.78696335502E+02 0.  0.
         23    2    1    2    0    0 -0.46896289427E+02  0.18160310400E+01  0.73542065127E+02  0.12594776309E+03  0.90839659585E+02 0.  0.
        -11    1    3    3    0    0  0.53254231801E+02  0.71612671580E+01  0.40049422528E+02  0.67016812793E+02  0.00000000000E+00 0.  1.
         12    1    3    3    0    0 -0.54604519745E+00  0.51352201104E+02  0.95138336300E+02  0.10811405902E+03  0.00000000000E+00 0. -1.
        -11    1    4    4    0    0  0.17051684268E+02  0.27724173717E+02  0.30633658485E+02  0.44696876589E+02  0.00000000000E+00 0. -1.
         11    1    4    4    0    0 -0.63947973695E+02 -0.25908142677E+02  0.42908406641E+02  0.81250886501E+02  0.00000000000E+00 0.  1.
         -2    1    1    2    0  502 -0.58118971774E+01 -0.60329499301E+02  0.95487989605E+02  0.11309899555E+03  0.00000000000E+00 0.  1.
<scales pt_clust_5="13000.00000" pt_clust_6="13000.00000" pt_clust_7="13000.00000" pt_clust_8="13000.00000" pt_clust_9="13000.00000"></scales>
<clustering>
<clus scale="   78.696">  5  6 -1 -1</clus>
<clus scale="   90.840">  7  8 -1 -1</clus>
<clus scale="   60.609">  7  9 -1 -1</clus>
<clus scale="  111.333">  2  5  1 -1</clus>
<clus scale="  169.033">  1  5  2 -1</clus>
</clustering>
</event>
<event>
 9    2  0.3897980E-005  0.4008260E+03  0.7546771E-02  0.1088416E+00
         21   -1    0    0  501  502  0.00000000000E+00  0.00000000000E+00  0.33938782852E+03  0.33938782852E+03  0.00000000000E+00 0. -1.
         -1   -1    0    0    0  501 -0.00000000000E+00 -0.00000000000E+00 -0.22852789396E+03  0.22852789396E+03  0.00000000000E+00 0.  1.
         24    2    1    2    0    0 -0.69325690801E+02  0.49127796352E+02 -0.62265123385E+02  0.13129947617E+03  0.78377388783E+02 0.  0.
         23    2    1    2    0    0  0.98925848144E+02 -0.70880783280E+02  0.28226003088E+03  0.32146502369E+03  0.94120282388E+02 0.  0.
        -11    1    3    3    0    0 -0.48572908787E+02  0.18765556671E+02 -0.75926731251E+02  0.92067052215E+02  0.00000000000E+00 0.  1.
         12    1    3    3    0    0 -0.20752782014E+02  0.30362239681E+02  0.13661607866E+02  0.39232423953E+02  0.00000000000E+00 0. -1.
        -13    1    4    4    0    0  0.54836167683E+02 -0.40837831119E+02  0.24985841976E+03  0.25904432760E+03  0.00000000000E+00 0. -1.
         13    1    4    4    0    0  0.44089680461E+02 -0.30042952161E+02  0.32401611120E+02  0.62420696094E+02  0.00000000000E+00 0.  1.
         -2    1    1    2    0  502 -0.29600157344E+02  0.21752986928E+02 -0.10913497293E+03  0.11515122263E+03  0.00000000000E+00 0.  1.
<scales pt_clust_5="13000.00000" pt_clust_6="13000.00000" pt_clust_7="13000.00000" pt_clust_8="13000.00000" pt_clust_9="13000.00000"></scales>
<clustering>
<clus scale="   78.377">  5  6 -1 -1</clus>
<clus scale="   94.120">  7  8 -1 -1</clus>
<clus scale="   36.734">  7  9 -1 -1</clus>
<clus scale="  115.597">  2  5  1 -1</clus>
<clus scale="  400.826">  1  5  2 -1</clus>
</clustering>
</event>
<event>
 9    2  0.3897980E-005  0.2672754E+03  0.7546771E-02  0.1108363E+00
         21   -1    0    0  501  502  0.00000000000E+00  0.00000000000E+00  0.12919498586E+03  0.12919498586E+03  0.00000000000E+00 0. -1.
          4   -1    0    0  502    0 -0.00000000000E+00 -0.00000000000E+00 -0.48876664429E+03  0.48876664429E+03  0.00000000000E+00 0. -1.
         24    2    1    2    0    0  0.91507635981E+02 -0.19598856962E+03 -0.20258586195E+03  0.30799281342E+03  0.83865218002E+02 0.  0.
         23    2    1    2    0    0 -0.51648309176E+02  0.10066414958E+03 -0.28544592175E+02  0.14512751745E+03  0.86292431456E+02 0.  0.
        -11    1    3    3    0    0 -0.14395635513E+02 -0.39343877317E+02 -0.26217331716E+02  0.49421892785E+02  0.00000000000E+00 0.  1.
         12    1    3    3    0    0  0.10590327149E+03 -0.15664469230E+03 -0.17636853024E+03  0.25857092063E+03  0.00000000000E+00 0. -1.
        -13    1    4    4    0    0 -0.95789364980E+01  0.78099979998E+02  0.15473735083E+02  0.80192265073E+02  0.00000000000E+00 0. -1.
         13    1    4    4    0    0 -0.42069372678E+02  0.22564169586E+02 -0.44018327259E+02  0.64935252377E+02  0.00000000000E+00 0.  1.
          3    1    1    2  501    0 -0.39859326804E+02  0.95324420033E+02 -0.12844120430E+03  0.16484129929E+03  0.00000000000E+00 0. -1.
<scales pt_clust_5="13000.00000" pt_clust_6="13000.00000" pt_clust_7="13000.00000" pt_clust_8="13000.00000" pt_clust_9="13000.00000"></scales>
<clustering>
<clus scale="   83.865">  5  6 -1 -1</clus>
<clus scale="   86.292">  7  8 -1 -1</clus>
<clus scale="  103.322">  7  9 -1 -1</clus>
<clus scale="  231.988">  2  5  1 -1</clus>
<clus scale="  267.275">  1  5  2 -1</clus>
</clustering>
</event>
<event>
 9    2  0.3897980E-005  0.3818680E+03  0.7546771E-02  0.1104256E+00
          2   -1    0    0  502    0 -0.00000000000E+00  0.00000000000E+00  0.21398042752E+03  0.21398042752E+03  0.00000000000E+00 0. -1.
         21   -1    0    0  501  502  0.00000000000E+00 -0.00000000000E+00 -0.28837228474E+03  0.28837228474E+03  0.00000000000E+00 0.  1.
         24    2    1    2    0    0  0.35940854343E+02 -0.19487354499E+02  0.48988055857E+02  0.10104759200E+03  0.78353584706E+02 0.  0.
         23    2    1    2    0    0 -0.17790685427E+03 -0.43400532225E+02 -0.13587500888E+03  0.24553169874E+03  0.91045823942E+02 0.  0.
        -11    1    3    3    0    0  0.33997811662E+02 -0.37192416726E+02  0.61331792111E+02  0.79377048214E+02  0.00000000000E+00 0.  1.
         12    1    3    3    0    0  0.19430426807E+01  0.17705062227E+02 -0.12343736254E+02  0.21670543787E+02  0.00000000000E+00 0. -1.
        -13    1    4    4    0    0 -0.15907761089E+03 -0.15917849896E+02 -0.13929440665E+03  0.21204243905E+03  0.00000000000E+00 0.  1.
         13    1    4    4    0    0 -0.18829243375E+02 -0.27482682329E+02  0.34193977688E+01  0.33489259699E+02  0.00000000000E+00 0. -1.
          1    1    1    2  501    0  0.14196599992E+03  0.62887886724E+02  0.12495095806E+02  0.15577342151E+03  0.00000000000E+00 0. -1.
<scales pt_clust_5="13000.00000" pt_clust_6="13000.00000" pt_clust_7="13000.00000" pt_clust_8="13000.00000" pt_clust_9="13000.00000"></scales>
<clustering>
<clus scale="   78.354">  5  6 -1 -1</clus>
<clus scale="   88.379">  1  5  2 -1</clus>
<clus scale="   91.046">  7  8 -1 -1</clus>
<clus scale="  171.512">  7  9 -1 -1</clus>
<clus scale="  381.868">  2  5  1 -1</clus>
</clustering>
</event>
<event>
 9    2  0.4593972E-005  0.2065478E+03  0.7546771E-02  0.1166989E+00
         21   -1    0    0  501  502  0.00000000000E+00  0.00000000000E+00  0.20723627903E+03  0.20723627903E+03  0.00000000000E+00 0.  1.
          2   -1    0    0  502    0 -0.00000000000E+00 -0.00000000000E+00 -0.15782738777E+03  0.15782738777E+03  0.00000000000E+00 0. -1.
         24    2    1    2    0    0  0.74588762412E+02  0.47382661090E+02  0.94282572015E+02  0.15369756155E+03  0.83217407986E+02 0.  0.
         23    2    1    2    0    0  0.10066701198E+02  0.19293051403E+02  0.32374662760E+02  0.78778380585E+02  0.68442341816E+02 0.  0.
        -11    1    3    3    0    0  0.44119781581E+02  0.58535594990E+02  0.96492162745E+02  0.12117635280E+03  0.00000000000E+00 0.  1.
         12    1    3    3    0    0  0.30468980831E+02 -0.11152933900E+02 -0.22095907297E+01  0.32521208751E+02  0.00000000000E+00 0. -1.
        -13    1    4    4    0    0 -0.22768982031E+02  0.28227279441E+02  0.24746670753E+02  0.43904482240E+02  0.00000000000E+00 0.  1.
         13    1    4    4    0    0  0.32835683229E+02 -0.89342280377E+01  0.76279920069E+01  0.34873898345E+02  0.00000000000E+00 0. -1.
          1    1    1    2  501    0 -0.84655463610E+02 -0.66675712494E+02 -0.77248343512E+02  0.13258772466E+03  0.00000000000E+00 0. -1.
<scales pt_clust_5="13000.00000" pt_clust_6="13000.00000" pt_clust_7="13000.00000" pt_clust_8="13000.00000" pt_clust_9="13000.00000"></scales>
<clustering>
<clus scale="   68.442">  7  8 -1 -1</clus>
<clus scale="   83.217">  5  6 -1 -1</clus>
<clus scale="  107.760">  7  9 -1 -1</clus>
<clus scale="  121.383">  2  5  1 -1</clus>
<clus scale="  206.548">  1  5  2 -1</clus>
</clustering>
</event>
<event>
 9    2  0.3897980E-005  0.2854091E+03  0.7546771E-02  0.1120461E+00
         -3   -1    0    0    0  501 -0.00000000000E+00  0.00000000000E+00  0.85683563422E+03  0.85683563422E+03  0.00000000000E+00 0.  1.
         21   -1    0    0  501  502  0.00000000000E+00 -0.00000000000E+00 -0.52975070704E+02  0.52975070704E+02  0.00000000000E+00 0.  1.
         24    2    1    2    0    0  0.18586975879E+02 -0.11468286666E+03  0.24781331370E+03  0.28479319752E+03  0.78727957717E+02 0.  0.
         23    2    1    2    0    0 -0.10930775241E+03  0.54050062860E+02  0.44078090126E+03  0.46629470721E+03  0.90957995984E+02 0.  0.
        -13    1    3    3    0    0  0.63384201036E+01 -0.12214082256E+03  0.19597706496E+03  0.23100988311E+03  0.00000000000E+00 0.  1.
         14    1    3    3    0    0  0.12248555775E+02  0.74579558986E+01  0.51836248746E+02  0.53783314409E+02  0.00000000000E+00 0. -1.
        -11    1    4    4    0    0 -0.74564102989E+02 -0.13786449105E+02  0.21208432298E+03  0.22523239485E+03  0.00000000000E+00 0. -1.
         11    1    4    4    0    0 -0.34743649417E+02  0.67836511964E+02  0.22869657827E+03  0.24106231237E+03  0.00000000000E+00 0.  1.
         -4    1    1    2    0  502  0.90720776527E+02  0.60632803802E+02  0.11526634856E+03  0.15872280019E+03  0.00000000000E+00 0.  1.
<scales pt_clust_5="13000.00000" pt_clust_6="13000.00000" pt_clust_7="13000.00000" pt_clust_8="13000.00000" pt_clust_9="13000.00000"></scales>
<clustering>
<clus scale="   78.728">  5  6 -1 -1</clus>
<clus scale="   90.958">  7  8 -1 -1</clus>
<clus scale="  109.117">  7  9 -1 -1</clus>
<clus scale="  140.342">  1  5  2 -1</clus>
<clus scale="  285.409">  2  5  1 -1</clus>
</clustering>
</event>
<event>
 9    2  0.3897980E-005  0.1642559E+03  0.7546771E-02  0.1214090E+00
         21   -1    0    0  501  502  0.00000000000E+00  0.00000000000E+00  0.38263936698E+03  0.38263936698E+03  0.00000000000E+00 0. -1.
          2   -1    0    0  502    0 -0.00000000000E+00 -0.00000000000E+00 -0.30242397465E+03  0.30242397465E+03  0.00000000000E+00 0. -1.
         24    2    1    2    0    0 -0.26773351039E+02  0.55550196092E+01 -0.27810354863E+03  0.29089021034E+03  0.80795173999E+02 0.  0.
         23    2    1    2    0    0 -0.36865563409E+01 -0.20829806704E+02  0.11862882651E+03  0.15207299491E+03  0.92768128988E+02 0.  0.
        -13    1    3    3    0    0 -0.23825978616E+02 -0.27625677535E+02 -0.59722005619E+02  0.69982664078E+02  0.00000000000E+00 0.  1.
         14    1    3    3    0    0 -0.29473724232E+01  0.33180697144E+02 -0.21838154301E+03  0.22090754626E+03  0.00000000000E+00 0. -1.
        -13    1    4    4    0    0  0.41961515216E+02 -0.18107227734E+02  0.38248826883E+02  0.59595412687E+02  0.00000000000E+00 0.  1.
         13    1    4    4    0    0 -0.45648071557E+02 -0.27225789704E+01  0.80379999629E+02  0.92477582221E+02  0.00000000000E+00 0. -1.
          1    1    1    2  501    0  0.30459907380E+02  0.15274787095E+02  0.23969011445E+03  0.24210013639E+03  0.00000000000E+00 0. -1.
<scales pt_clust_5="13000.00000" pt_clust_6="13000.00000" pt_clust_7="13000.00000" pt_clust_8="13000.00000" pt_clust_9="13000.00000"></scales>
<clustering>
<clus scale="   80.795">  5  6 -1 -1</clus>
<clus scale="   85.297">  2  5  1 -1</clus>
<clus scale="   92.768">  7  8 -1 -1</clus>
<clus scale="   32.654">  7  9 -1 -1</clus>
<clus scale="  164.256">  1  5  2 -1</clus>
</clustering>
</event>
<event>
 9    2  0.3897980E-005  0.2201537E+03  0.7546771E-02  0.1140592E+00
         21   -1    0    0  501  502  0.00000000000E+00  0.00000000000E+00  0.42143504610E+03  0.42143504610E+03  0.00000000000E+00 0. -1.
          2   -1    0    0  502    0 -0.00000000000E+00 -0.00000000000E+00 -0.99962547534E+02  0.99962547534E+02  0.00000000000E+00 0. -1.
         24    2    1    2    0    0 -0.16845163427E+03  0.16513492927E+01  0.18280182032E+03  0.26121071530E+03  0.80223763530E+02 0.  0.
         23    2    1    2    0    0  0.97601145900E+02  0.13303498920E+01  0.13476670834E+03  0.18916629531E+03  0.89967038933E+02 0.  0.
        -11    1    3    3    0    0 -0.30668986520E+02  0.22599957279E+02  0.10336366523E+02  0.39473855602E+02  0.00000000000E+00 0.  1.
         12    1    3    3    0    0 -0.13778264775E+03 -0.20948607986E+02  0.17246545380E+03  0.22173685970E+03  0.00000000000E+00 0. -1.
        -13    1    4    4    0    0  0.14378123423E+02 -0.36517278925E+02  0.56633411589E+02  0.68902724195E+02  0.00000000000E+00 0.  1.
         13    1    4    4    0    0  0.83223022477E+02  0.37847628817E+02  0.78133296748E+02  0.12026357112E+03  0.00000000000E+00 0. -1.
          1    1    1    2  501    0  0.70850488367E+02 -0.29816991847E+01  0.39039699124E+01  0.71020583023E+02  0.00000000000E+00 0. -1.
<scales pt_clust_5="13000.00000" pt_clust_6="13000.00000" pt_clust_7="13000.00000" pt_clust_8="13000.00000" pt_clust_9="13000.00000"></scales>
<clustering>
<clus scale="   80.224">  5  6 -1 -1</clus>
<clus scale="   89.967">  7  8 -1 -1</clus>
<clus scale="   70.913">  7  9 -1 -1</clus>
<clus scale="  186.587">  2  5  1 -1</clus>
<clus scale="  220.154">  1  5  2 -1</clus>
</clustering>
</event>
<event>
 9    2  0.3897980E-005  0.3515186E+03  0.7546771E-02  0.1084642E+00
         21   -1    0    0  501  502  0.00000000000E+00  0.00000000000E+00  0.59772082685E+02  0.59772082685E+02  0.00000000000E+00 0. -1.
          2   -1    0    0  502    0 -0.00000000000E+00 -0.00000000000E+00 -0.12846168212E+04  0.12846168212E+04  0.00000000000E+00 0. -1.
         24    2    1    2    0    0 -0.41416537514E+02  0.16623756673E+03 -0.57706812507E+03  0.60738151240E+03  0.80959387692E+02 0.  0.
         23    2    1    2    0    0  0.50557250088E+02  0.54915656851E+02 -0.13674913115E+03  0.18010399898E+03  0.90362385289E+02 0.  0.
        -13    1    3    3    0    0 -0.65792662510E+02  0.11076704053E+03 -0.38517958871E+03  0.40615431459E+03  0.00000000000E+00 0.  1.
         14    1    3    3    0    0  0.24376124997E+02  0.55470526201E+02 -0.19188853637E+03  0.20122719780E+03  0.00000000000E+00 0. -1.
        -11    1    4    4    0    0  0.37338567463E+02  0.19631339204E+02 -0.13602688861E+03  0.14241795015E+03  0.00000000000E+00 0.  1.
         11    1    4    4    0    0  0.13218682625E+02  0.35284317647E+02 -0.72224253480E+00  0.37686048830E+02  0.00000000000E+00 0. -1.
          1    1    1    2  501    0 -0.91407125741E+01 -0.22115322358E+03 -0.51102748229E+03  0.55690339250E+03  0.00000000000E+00 0. -1.
<scales pt_clust_5="13000.00000" pt_clust_6="13000.00000" pt_clust_7="13000.00000" pt_clust_8="13000.00000" pt_clust_9="13000.00000"></scales>
<clustering>
<clus scale="   80.959">  5  6 -1 -1</clus>
<clus scale="   90.362">  7  8 -1 -1</clus>
<clus scale="  189.485">  2  5  1 -1</clus>
<clus scale="  101.626">  7  9 -1 -1</clus>
<clus scale="  351.519">  1  5  2 -1</clus>
</clustering>
</event>
<event>
 9    2  0.3897980E-005  0.8945342E+03  0.7546771E-02  0.9894645E-01
          2   -1    0    0  502    0 -0.00000000000E+00  0.00000000000E+00  0.82996025068E+03  0.82996025068E+03  0.00000000000E+00 0. -1.
         21   -1    0    0  501  502  0.00000000000E+00 -0.00000000000E+00 -0.35589361715E+03  0.35589361715E+03  0.00000000000E+00 0. -1.
         24    2    1    2    0    0 -0.14992011496E+03  0.75189605690E+02  0.40383713624E+02  0.19173503686E+03  0.83677729170E+02 0.  0.
         23    2    1    2    0    0 -0.15031125315E+03 -0.34483315166E+03  0.44584407213E+03  0.59039316928E+03  0.91015286471E+02 0.  0.
        -11    1    3    3    0    0 -0.32640465672E+02 -0.18221411445E+02  0.10795312186E+02  0.38909620911E+02  0.00000000000E+00 0.  1.
         12    1    3    3    0    0 -0.11727964929E+03  0.93411017134E+02  0.29588401438E+02  0.15282541595E+03  0.00000000000E+00 0. -1.
        -11    1    4    4    0    0 -0.12117400641E+03 -0.27288295301E+03  0.28972146219E+03  0.41603698336E+03  0.00000000000E+00 0. -1.
         11    1    4    4    0    0 -0.29137246739E+02 -0.71950198658E+02  0.15612260994E+03  0.17435618592E+03  0.00000000000E+00 0.  1.
          1    1    1    2  501    0  0.30023136811E+03  0.26964354597E+03 -0.12161152231E+02  0.40372566169E+03  0.00000000000E+00 0. -1.
<scales pt_clust_5="13000.00000" pt_clust_6="13000.00000" pt_clust_7="13000.00000" pt_clust_8="13000.00000" pt_clust_9="13000.00000"></scales>
<clustering>
<clus scale="   83.678">  5  6 -1 -1</clus>
<clus scale="   91.015">  7  8 -1 -1</clus>
<clus scale="  187.434">  1  5  2 -1</clus>
<clus scale="  389.095">  7  9 -1 -1</clus>
<clus scale="  894.534">  2  5  1 -1</clus>
</clustering>
</event>
<event>
 9    2  0.3897980E-005  0.5565332E+03  0.7546771E-02  0.1063472E+00
         21   -1    0    0  501  502  0.00000000000E+00  0.00000000000E+00  0.76736541822E+02  0.76736541822E+02  0.00000000000E+00 0. -1.
          2   -1    0    0  502    0 -0.00000000000E+00 -0.00000000000E+00 -0.13448614778E+04  0.13448614778E+04  0.00000000000E+00 0. -1.
         24    2    1    2    0    0  0.22787689504E+02 -0.27467176907E+01 -0.19576687259E+03  0.21342543053E+03  0.81846947050E+02 0.  0.
         23    2    1    2    0    0 -0.76651669872E+02 -0.26160896641E+03 -0.58837870261E+03  0.65407758122E+03  0.85517569913E+02 0.  0.
        -11    1    3    3    0    0  0.47475266918E+02  0.77648298847E+01 -0.16824835184E+03  0.17499057531E+03  0.00000000000E+00 0.  1.
         12    1    3    3    0    0 -0.24687577414E+02 -0.10511547575E+02 -0.27518520748E+02  0.38434855212E+02  0.00000000000E+00 0. -1.
        -11    1    4    4    0    0 -0.45464533254E+02 -0.84495418707E+02 -0.29246171252E+03  0.30779920867E+03  0.00000000000E+00 0. -1.
         11    1    4    4    0    0 -0.31187136618E+02 -0.17711354771E+03 -0.29591699009E+03  0.34627837255E+03  0.00000000000E+00 0.  1.
          1    1    1    2  501    0  0.53863980368E+02  0.26435568410E+03 -0.48397936081E+03  0.55409500791E+03  0.00000000000E+00 0. -1.
<scales pt_clust_5="13000.00000" pt_clust_6="13000.00000" pt_clust_7="13000.00000" pt_clust_8="13000.00000" pt_clust_9="13000.00000"></scales>
<clustering>
<clus scale="   81.847">  5  6 -1 -1</clus>
<clus scale="   85.004">  2  5  1 -1</clus>
<clus scale="   85.518">  7  8 -1 -1</clus>
<clus scale="  270.834">  7  9 -1 -1</clus>
<clus scale="  556.533">  1  5  2 -1</clus>
</clustering>
</event>
<event>
 9    2  0.3897980E-005  0.1232785E+03  0.7546771E-02  0.1255754E+00
          2   -1    0    0  502    0 -0.00000000000E+00  0.00000000000E+00  0.12514882241E+03  0.12514882241E+03  0.00000000000E+00 0. -1.
         21   -1    0    0  501  502  0.00000000000E+00 -0.00000000000E+00 -0.15118090142E+03  0.15118090142E+03  0.00000000000E+00 0. -1.
         24    2    1    2    0    0 -0.13386177077E+02  0.32629576253E+02  0.77216385241E+02  0.11552602297E+03  0.78358234097E+02 0.  0.
         23    2    1    2    0    0  0.12754316842E+01 -0.25456952148E+01 -0.73472854274E+02  0.11677760630E+03  0.90722884254E+02 0.  0.
        -11    1    3    3    0    0  0.92300882260E+01 -0.23073290461E+02  0.30788706927E+02  0.39566598737E+02  0.00000000000E+00 0.  1.
         12    1    3    3    0    0 -0.22616265303E+02  0.55702866714E+02  0.46427678315E+02  0.75959424235E+02  0.00000000000E+00 0. -1.
        -11    1    4    4    0    0 -0.19326568444E+02 -0.27588687267E+02  0.28961066151E+01  0.33808864910E+02  0.00000000000E+00 0.  1.
         11    1    4    4    0    0  0.20602000129E+02  0.25042992052E+02 -0.76368960889E+02  0.82968741388E+02  0.00000000000E+00 0. -1.
          1    1    1    2  501    0  0.12110745393E+02 -0.30083881038E+02 -0.29775609982E+02  0.44026094559E+02  0.00000000000E+00 0. -1.
<scales pt_clust_5="13000.00000" pt_clust_6="13000.00000" pt_clust_7="13000.00000" pt_clust_8="13000.00000" pt_clust_9="13000.00000"></scales>
<clustering>
<clus scale="   78.358">  5  6 -1 -1</clus>
<clus scale="   85.930">  1  5  2 -1</clus>
<clus scale="   90.723">  7  8 -1 -1</clus>
<clus scale="   23.698">  7  9 -1 -1</clus>
<clus scale="  123.278">  2  5  1 -1</clus>
</clustering>
</event>
<event>
 9    2  0.3897980E-005  0.2500875E+03  0.7546771E-02  0.1131979E+00
         21   -1    0    0  501  502  0.00000000000E+00  0.00000000000E+00  0.24964877190E+03  0.24964877190E+03  0.00000000000E+00 0. -1.
          4   -1    0    0  502    0 -0.00000000000E+00 -0.00000000000E+00 -0.30400367370E+03  0.30400367370E+03  0.00000000000E+00 0. -1.
         24    2    1    2    0    0  0.13118095365E+03  0.28215101285E+02 -0.20769640186E+03  0.26029707557E+03  0.81315666794E+02 0.  0.
         23    2    1    2    0    0 -0.44587526207E+02  0.62501726932E+02  0.44258825058E+02  0.12714166847E+03  0.91168234065E+02 0.  0.
        -11    1    3    3    0    0  0.13782414786E+03  0.10795709705E+02 -0.18385118717E+03  0.23002891581E+03  0.00000000000E+00 0.  1.
         12    1    3    3    0    0 -0.66431942111E+01  0.17419391580E+02 -0.23845214685E+02  0.30268159767E+02  0.00000000000E+00 0. -1.
        -11    1    4    4    0    0 -0.65393314085E+02  0.39937945444E+02  0.55330742624E+02  0.94513576234E+02  0.00000000000E+00 0.  1.
         11    1    4    4    0    0  0.20805787878E+02  0.22563781488E+02 -0.11071917565E+02  0.32628092234E+02  0.00000000000E+00 0. -1.
          3    1    1    2  501    0 -0.86593427446E+02 -0.90716828217E+02  0.10908267500E+03  0.16621370155E+03  0.00000000000E+00 0. -1.
<scales pt_clust_5="13000.00000" pt_clust_6="13000.00000" pt_clust_7="13000.00000" pt_clust_8="13000.00000" pt_clust_9="13000.00000"></scales>
<clustering>
<clus scale="   81.316">  5  6 -1 -1</clus>
<clus scale="   91.168">  7  8 -1 -1</clus>
<clus scale="  125.411">  7  9 -1 -1</clus>
<clus scale="  156.897">  2  5  1 -1</clus>
<clus scale="  250.087">  1  5  2 -1</clus>
</clustering>
</event>
<event>
 9    2  0.3897980E-005  0.3544863E+03  0.7546771E-02  0.1110054E+00
         21   -1    0    0  501  502  0.00000000000E+00  0.00000000000E+00  0.45506362036E+03  0.45506362036E+03  0.00000000000E+00 0.  1.
         -3   -1    0    0    0  501 -0.00000000000E+00 -0.00000000000E+00 -0.12390121509E+03  0.12390121509E+03  0.00000000000E+00 0.  1.
         24    2    1    2    0    0 -0.57666098708E+02 -0.14557584258E+02  0.20593087915E+01  0.95261036947E+02  0.74384959555E+02 0.  0.
         23    2    1    2    0    0  0.86079407011E+02 -0.14676979126E+03  0.19597348621E+03  0.27261772290E+03  0.83449263659E+02 0.  0.
        -13    1    3    3    0    0 -0.33675756815E+02 -0.28026878384E+02 -0.29935826643E+02  0.53063322793E+02  0.00000000000E+00 0.  1.
         14    1    3    3    0    0 -0.23990341893E+02  0.13469294126E+02  0.31995135434E+02  0.42197714154E+02  0.00000000000E+00 0. -1.
        -11    1    4    4    0    0  0.10189082298E+03 -0.13052626112E+03  0.16109738433E+03  0.23102210259E+03  0.00000000000E+00 0.  1.
         11    1    4    4    0    0 -0.15811415968E+02 -0.16243530138E+02  0.34876101885E+02  0.41595620310E+02  0.00000000000E+00 0. -1.
         -4    1    1    2    0  502 -0.28413308303E+02  0.16132737552E+03  0.13312961027E+03  0.21108607560E+03  0.00000000000E+00 0.  1.
<scales pt_clust_5="13000.00000" pt_clust_6="13000.00000" pt_clust_7="13000.00000" pt_clust_8="13000.00000" pt_clust_9="13000.00000"></scales>
<clustering>
<clus scale="   74.385">  5  6 -1 -1</clus>
<clus scale="   83.449">  7  8 -1 -1</clus>
<clus scale="   95.239">  2  5  1 -1</clus>
<clus scale="  164.369">  7  9 -1 -1</clus>
<clus scale="  354.486">  1  5  2 -1</clus>
</clustering>
</event>
<event>
 9    2  0.3897980E-005  0.2161003E+03  0.7546771E-02  0.1162470E+00
         21   -1    0    0  501  502  0.00000000000E+00  0.00000000000E+00  0.55465605858E+02  0.55465605858E+02  0.00000000000E+00 0. -1.
          2   -1    0    0  502    0 -0.00000000000E+00 -0.00000000000E+00 -0.58020634626E+03  0.58020634626E+03  0.00000000000E+00 0. -1.
         24    2    1    2    0    0 -0.38708950457E+02 -0.77327944493E+02 -0.30758065963E+03  0.32930967448E+03  0.79755913141E+02 0.  0.
         23    2    1    2    0    0  0.62297400724E+02 -0.20094598264E+02 -0.94003024904E+02  0.14756924494E+03  0.93034156878E+02 0.  0.
        -11    1    3    3    0    0 -0.52530111916E+02 -0.16388107203E+02 -0.13648468646E+03  0.14715995499E+03  0.00000000000E+00 0.  1.
         12    1    3    3    0    0  0.13821161459E+02 -0.60939837290E+02 -0.17109597317E+03  0.18214971948E+03  0.00000000000E+00 0. -1.
        -11    1    4    4    0    0 -0.24048513044E+02  0.33155451765E+01 -0.21069001627E+02  0.32143843096E+02  0.00000000000E+00 0.  1.
         11    1    4    4    0    0  0.86345913768E+02 -0.23410143440E+02 -0.72934023277E+02  0.11542540185E+03  0.00000000000E+00 0. -1.
          1    1    1    2  501    0 -0.23588450267E+02  0.97422542757E+02 -0.12315705587E+03  0.15879303270E+03  0.00000000000E+00 0. -1.
<scales pt_clust_5="13000.00000" pt_clust_6="13000.00000" pt_clust_7="13000.00000" pt_clust_8="13000.00000" pt_clust_9="13000.00000"></scales>
<clustering>
<clus scale="   79.756">  5  6 -1 -1</clus>
<clus scale="   93.034">  7  8 -1 -1</clus>
<clus scale="  100.238">  7  9 -1 -1</clus>
<clus scale="  117.639">  2  5  1 -1</clus>
<clus scale="  216.100">  1  5  2 -1</clus>
</clustering>
</event>
<event>
 9    2  0.3897980E-005  0.1553619E+03  0.7546771E-02  0.1220514E+00
          2   -1    0    0  502    0 -0.00000000000E+00  0.00000000000E+00  0.49252158868E+03  0.49252158868E+03  0.00000000000E+00 0. -1.
         21   -1    0    0  501  502  0.00000000000E+00 -0.00000000000E+00 -0.56820284495E+02  0.56820284495E+02  0.00000000000E+00 0. -1.
         24    2    1    2    0    0  0.29864859779E+02 -0.17752954186E+02  0.37056713697E+03  0.38087889553E+03  0.80880484834E+02 0.  0.
         23    2    1    2    0    0 -0.40095640188E+01  0.33079324844E+02  0.87414833456E+02  0.13104878189E+03  0.91772064321E+02 0.  0.
        -11    1    3    3    0    0  0.60313115711E+01  0.26423367239E+02  0.54679494065E+02  0.61028011000E+02  0.00000000000E+00 0.  1.
         12    1    3    3    0    0  0.23833548208E+02 -0.44176321425E+02  0.31588764291E+03  0.31985088453E+03  0.00000000000E+00 0. -1.
        -13    1    4    4    0    0 -0.39688897853E+02  0.16310935743E+02  0.80218672371E+02  0.90974120686E+02  0.00000000000E+00 0.  1.
         13    1    4    4    0    0  0.35679333834E+02  0.16768389101E+02  0.71961610851E+01  0.40074661199E+02  0.00000000000E+00 0. -1.
          1    1    1    2  501    0 -0.25855295760E+02 -0.15326370657E+02 -0.22280666240E+02  0.37414195761E+02  0.00000000000E+00 0. -1.
<scales pt_clust_5="13000.00000" pt_clust_6="13000.00000" pt_clust_7="13000.00000" pt_clust_8="13000.00000" pt_clust_9="13000.00000"></scales>
<clustering>
<clus scale="   80.880">  5  6 -1 -1</clus>
<clus scale="   88.027">  1  5  2 -1</clus>
<clus scale="   91.772">  7  8 -1 -1</clus>
<clus scale="   29.046">  7  9 -1 -1</clus>
<clus scale="  155.362">  2  5  1 -1</clus>
</clustering>
</event>
<event>
 9    2  0.3897980E-005  0.2367309E+03  0.7546771E-02  0.1160874E+00
          2   -1    0    0  502    0 -0.00000000000E+00  0.00000000000E+00  0.64464012270E+03  0.64464012270E+03  0.00000000000E+00 0. -1.
         21   -1    0    0  501  502  0.00000000000E+00 -0.00000000000E+00 -0.46424467540E+02  0.46424467540E+02  0.00000000000E+00 0.  1.
         24    2    1    2    0    0 -0.67191346842E+01  0.89508508795E+00  0.27621384302E+03  0.29140636601E+03  0.92615523121E+02 0.  0.
         23    2    1    2    0    0 -0.90947189699E+02 -0.14380149274E+02  0.16504235980E+03  0.21430227598E+03  0.10103615667E+03 0.  0.
        -11    1    3    3    0    0  0.63504436877E+01  0.38449778663E+02  0.21435975883E+03  0.21787340319E+03  0.00000000000E+00 0.  1.
         12    1    3    3    0    0 -0.13069578372E+02 -0.37554693575E+02  0.61854084195E+02  0.73532962812E+02  0.00000000000E+00 0. -1.
        -11    1    4    4    0    0 -0.10900095491E+03 -0.28697326521E+02  0.12680640830E+03  0.16966027793E+03  0.00000000000E+00 0.  1.
         11    1    4    4    0    0  0.18053765216E+02  0.14317177248E+02  0.38235951491E+02  0.44641998042E+02  0.00000000000E+00 0. -1.
          1    1    1    2  501    0  0.97666324383E+02  0.13485064186E+02  0.15695945234E+03  0.18535594825E+03  0.00000000000E+00 0. -1.
<scales pt_clust_5="13000.00000" pt_clust_6="13000.00000" pt_clust_7="13000.00000" pt_clust_8="13000.00000" pt_clust_9="13000.00000"></scales>
<clustering>
<clus scale="   92.616">  5  6 -1 -1</clus>
<clus scale="   92.863">  1  5  2 -1</clus>
<clus scale="  101.036">  7  8 -1 -1</clus>
<clus scale="   95.498">  7  9 -1 -1</clus>
<clus scale="  236.731">  2  5  1 -1</clus>
</clustering>
</event>
<event>
 9    2  0.3897980E-005  0.2337285E+03  0.7546771E-02  0.1155033E+00
          2   -1    0    0  502    0 -0.00000000000E+00  0.00000000000E+00  0.67824914126E+03  0.67824914126E+03  0.00000000000E+00 0. -1.
         21   -1    0    0  501  502  0.00000000000E+00 -0.00000000000E+00 -0.11904299362E+03  0.11904299362E+03  0.00000000000E+00 0. -1.
         24    2    1    2    0    0  0.26573979804E+02 -0.70914446318E+02  0.55250749742E+03  0.56346763190E+03  0.80599022249E+02 0.  0.
         23    2    1    2    0    0  0.35160726127E+02 -0.14709181205E+02 -0.58505586315E+02  0.10975125056E+03  0.84674652026E+02 0.  0.
        -11    1    3    3    0    0 -0.23358968178E+02  0.57438315265E+00  0.11164267015E+03  0.11406163732E+03  0.00000000000E+00 0.  1.
         12    1    3    3    0    0  0.49932947982E+02 -0.71488829470E+02  0.44086482727E+03  0.44940599457E+03  0.00000000000E+00 0. -1.
        -11    1    4    4    0    0  0.32070088257E+02 -0.35401998592E+02 -0.70857307692E+02  0.85454959590E+02  0.00000000000E+00 0. -1.
         11    1    4    4    0    0  0.30906378700E+01  0.20692817388E+02  0.12351721377E+02  0.24296290969E+02  0.00000000000E+00 0.  1.
          1    1    1    2  501    0 -0.61734705931E+02  0.85623627522E+02  0.65204236528E+02  0.12407325243E+03  0.00000000000E+00 0. -1.
<scales pt_clust_5="13000.00000" pt_clust_6="13000.00000" pt_clust_7="13000.00000" pt_clust_8="13000.00000" pt_clust_9="13000.00000"></scales>
<clustering>
<clus scale="   80.599">  5  6 -1 -1</clus>
<clus scale="   84.675">  7  8 -1 -1</clus>
<clus scale="  105.558">  7  9 -1 -1</clus>
<clus scale="  110.595">  1  5  2 -1</clus>
<clus scale="  233.729">  2  5  1 -1</clus>
</clustering>
</event>
<event>
 9    2  0.3897980E-005  0.2578510E+03  0.7546771E-02  0.1149859E+00
         21   -1    0    0  501  502  0.00000000000E+00  0.00000000000E+00  0.57929439981E+02  0.57929439981E+02  0.00000000000E+00 0. -1.
          2   -1    0    0  502    0 -0.00000000000E+00 -0.00000000000E+00 -0.54096578667E+03  0.54096578667E+03  0.00000000000E+00 0. -1.
         24    2    1    2    0    0 -0.18835878797E+02  0.20046639027E+01 -0.16529286131E+03  0.18969103921E+03  0.91116142089E+02 0.  0.
         23    2    1    2    0    0 -0.51404992192E+02  0.56262967440E+02 -0.29054189227E+03  0.31397381683E+03  0.91416474258E+02 0.  0.
        -13    1    3    3    0    0  0.43533798078E+01 -0.25841548851E+02 -0.14658581082E+03  0.14890983009E+03  0.00000000000E+00 0.  1.
         14    1    3    3    0    0 -0.23189258605E+02  0.27846212754E+02 -0.18707050485E+02  0.40781209119E+02  0.00000000000E+00 0. -1.
        -13    1    4    4    0    0 -0.27351482523E+02 -0.16152421823E+02 -0.34920582395E+02  0.47206476269E+02  0.00000000000E+00 0.  1.
         13    1    4    4    0    0 -0.24053509669E+02  0.72415389262E+02 -0.25562130987E+03  0.26676734056E+03  0.00000000000E+00 0. -1.
          1    1    1    2  501    0  0.70240870989E+02 -0.58267631342E+02 -0.27201593118E+02  0.95230370616E+02  0.00000000000E+00 0. -1.
<scales pt_clust_5="13000.00000" pt_clust_6="13000.00000" pt_clust_7="13000.00000" pt_clust_8="13000.00000" pt_clust_9="13000.00000"></scales>
<clustering>
<clus scale="   91.116">  5  6 -1 -1</clus>
<clus scale="   91.416">  7  8 -1 -1</clus>
<clus scale="   91.263">  7  9 -1 -1</clus>
<clus scale="   93.064">  2  5  1 -1</clus>
<clus scale="  257.851">  1  5  2 -1</clus>
</clustering>
</event>
<event>
 9    2  0.3897980E-005  0.3464615E+03  0.7546771E-02  0.1106373E+00
          2   -1    0    0  502    0 -0.00000000000E+00  0.00000000000E+00  0.51889471148E+03  0.51889471148E+03  0.00000000000E+00 0. -1.
         21   -1    0    0  501  502  0.00000000000E+00 -0.00000000000E+00 -0.10272086955E+03  0.10272086955E+03  0.00000000000E+00 0. -1.
         24    2    1    2    0    0  0.41363959431E+02 -0.58035550592E+02  0.13469415493E+03  0.17522293434E+03  0.86495428042E+02 0.  0.
         23    2    1    2    0    0  0.18782388971E+02 -0.10726165136E+03  0.40662064636E+02  0.14817481451E+03  0.91894135648E+02 0.  0.
        -11    1    3    3    0    0  0.46143416180E+02 -0.28603326123E+01  0.25526857793E+02  0.52811143030E+02  0.00000000000E+00 0.  1.
         12    1    3    3    0    0 -0.47794567485E+01 -0.55175217979E+02  0.10916729714E+03  0.12241179131E+03  0.00000000000E+00 0. -1.
        -13    1    4    4    0    0 -0.32162900380E+02 -0.29508683564E+02 -0.61779933502E+01  0.44083808460E+02  0.00000000000E+00 0. -1.
         13    1    4    4    0    0  0.50945289351E+02 -0.77752967792E+02  0.46840057986E+02  0.10409100605E+03  0.00000000000E+00 0.  1.
          1    1    1    2  501    0 -0.60146348403E+02  0.16529720195E+03  0.24081762236E+03  0.29821783219E+03  0.00000000000E+00 0. -1.
<scales pt_clust_5="13000.00000" pt_clust_6="13000.00000" pt_clust_7="13000.00000" pt_clust_8="13000.00000" pt_clust_9="13000.00000"></scales>
<clustering>
<clus scale="   86.495">  5  6 -1 -1</clus>
<clus scale="   91.894">  7  8 -1 -1</clus>
<clus scale="  112.074">  1  5  2 -1</clus>
<clus scale="  125.829">  7  9 -1 -1</clus>
<clus scale="  346.462">  2  5  1 -1</clus>
</clustering>
</event>
<event>
 9    2  0.3897980E-005  0.2328115E+03  0.7546771E-02  0.1150299E+00
          2   -1    0    0  502    0 -0.00000000000E+00  0.00000000000E+00  0.12643673280E+04  0.12643673280E+04  0.00000000000E+00 0. -1.
         21   -1    0    0  501  502  0.00000000000E+00 -0.00000000000E+00 -0.16294031332E+03  0.16294031332E+03  0.00000000000E+00 0. -1.
         24    2    1    2    0    0 -0.52791881877E+02  0.30959000117E+02  0.11761587576E+04  0.11827957960E+04  0.10913766331E+03 0.  0.
         23    2    1    2    0    0  0.10591693993E+03  0.74389159514E+01 -0.10256995254E+03  0.17329641389E+03  0.90759662114E+02 0.  0.
        -11    1    3    3    0    0 -0.35164882762E+02  0.18799881242E+02  0.12062517746E+03  0.12704502333E+03  0.00000000000E+00 0.  1.
         12    1    3    3    0    0 -0.17626999115E+02  0.12159118875E+02  0.10555335802E+04  0.10557507727E+04  0.00000000000E+00 0. -1.
        -11    1    4    4    0    0  0.11774566414E+03 -0.10247580433E+02 -0.83362060881E+02  0.14463155783E+03  0.00000000000E+00 0. -1.
         11    1    4    4    0    0 -0.11828724201E+02  0.17686496385E+02 -0.19207891655E+02  0.28664856051E+02  0.00000000000E+00 0.  1.
          1    1    1    2  501    0 -0.53125058057E+02 -0.38397916069E+02  0.27838209587E+02  0.71215431369E+02  0.00000000000E+00 0. -1.
<scales pt_clust_5="13000.00000" pt_clust_6="13000.00000" pt_clust_7="13000.00000" pt_clust_8="13000.00000" pt_clust_9="13000.00000"></scales>
<clustering>
<clus scale="   90.760">  7  8 -1 -1</clus>
<clus scale="   65.549">  7  9 -1 -1</clus>
<clus scale="  109.138">  5  6 -1 -1</clus>
<clus scale="  125.126">  1  5  2 -1</clus>
<clus scale="  232.812">  2  5  1 -1</clus>
</clustering>
</event>
<event>
 9    2  0.3897980E-005  0.1589266E+03  0.7546771E-02  0.1220222E+00
         -1   -1    0    0    0  501 -0.00000000000E+00  0.00000000000E+00  0.10461082348E+03  0.10461082348E+03  0.00000000000E+00 0.  1.
         21   -1    0    0  501  502  0.00000000000E+00 -0.00000000000E+00 -0.17969611728E+03  0.17969611728E+03  0.00000000000E+00 0.  1.
         24    2    1    2    0    0 -0.20373674417E+02  0.48165537012E+01  0.36176783908E+02  0.90304549329E+02  0.80049148257E+02 0.  0.
         23    2    1    2    0    0 -0.30871608281E+02 -0.14368599533E+02 -0.38872190587E+02  0.10479691886E+03  0.91169260995E+02 0.  0.
        -11    1    3    3    0    0  0.12345986531E+02  0.35167964776E+02  0.22888300326E+02  0.43738809103E+02  0.00000000000E+00 0.  1.
         12    1    3    3    0    0 -0.32719660949E+02 -0.30351411075E+02  0.13288483582E+02  0.46565740226E+02  0.00000000000E+00 0. -1.
        -11    1    4    4    0    0 -0.34775099266E+02 -0.35197848313E+02  0.10931169506E+02  0.50672344741E+02  0.00000000000E+00 0.  1.
         11    1    4    4    0    0  0.39034909849E+01  0.20829248779E+02 -0.49803360093E+02  0.54124574115E+02  0.00000000000E+00 0. -1.
         -2    1    1    2    0  502  0.51245282699E+02  0.95520458319E+01 -0.72389887125E+02  0.89205472570E+02  0.00000000000E+00 0.  1.
<scales pt_clust_5="13000.00000" pt_clust_6="13000.00000" pt_clust_7="13000.00000" pt_clust_8="13000.00000" pt_clust_9="13000.00000"></scales>
<clustering>
<clus scale="   80.049">  5  6 -1 -1</clus>
<clus scale="   82.741">  1  5  2 -1</clus>
<clus scale="   91.169">  7  8 -1 -1</clus>
<clus scale="   48.268">  7  9 -1 -1</clus>
<clus scale="  158.927">  2  5  1 -1</clus>
</clustering>
</event>
<event>
 9    2  0.3897980E-005  0.3449076E+03  0.7546771E-02  0.1105183E+00
          2   -1    0    0  502    0 -0.00000000000E+00  0.00000000000E+00  0.25987036513E+03  0.25987036513E+03  0.00000000000E+00 0. -1.
         21   -1    0    0  501  502  0.00000000000E+00 -0.00000000000E+00 -0.22160090673E+03  0.22160090673E+03  0.00000000000E+00 0. -1.
         24    2    1    2    0    0 -0.62067290779E+02  0.59358518620E+02 -0.46971987518E+02  0.12618634742E+03  0.79629418853E+02 0.  0.
         23    2    1    2    0    0 -0.70847680923E+02 -0.78419385912E+02 -0.63936827091E+02  0.15457652027E+03  0.92935401113E+02 0.  0.
        -11    1    3    3    0    0 -0.58948720951E+02  0.74636638086E+02 -0.23435326586E+02  0.97953019243E+02  0.00000000000E+00 0.  1.
         12    1    3    3    0    0 -0.31185698273E+01 -0.15278119466E+02 -0.23536660933E+02  0.28233328179E+02  0.00000000000E+00 0. -1.
        -11    1    4    4    0    0  0.13983454001E+02 -0.32673391932E+02 -0.43290584698E+02  0.56010376268E+02  0.00000000000E+00 0.  1.
         11    1    4    4    0    0 -0.84831134924E+02 -0.45745993980E+02 -0.20646242393E+02  0.98566143999E+02  0.00000000000E+00 0. -1.
          1    1    1    2  501    0  0.13291497170E+03  0.19060867293E+02  0.14917827302E+03  0.20070840417E+03  0.00000000000E+00 0. -1.
<scales pt_clust_5="13000.00000" pt_clust_6="13000.00000" pt_clust_7="13000.00000" pt_clust_8="13000.00000" pt_clust_9="13000.00000"></scales>
<clustering>
<clus scale="   79.629">  5  6 -1 -1</clus>
<clus scale="   92.935">  7  8 -1 -1</clus>
<clus scale="  117.118">  1  5  2 -1</clus>
<clus scale="  106.655">  7  9 -1 -1</clus>
<clus scale="  344.908">  2  5  1 -1</clus>
</clustering>
</event>
<event>
 9    2  0.3897980E-005  0.4887333E+03  0.7546771E-02  0.1073279E+00
          2   -1    0    0  502    0 -0.00000000000E+00  0.00000000000E+00  0.17982846262E+03  0.17982846262E+03  0.00000000000E+00 0. -1.
         21   -1    0    0  501  502  0.00000000000E+00 -0.00000000000E+00 -0.47508762733E+03  0.47508762733E+03  0.00000000000E+00 0. -1.
         24    2    1    2    0    0 -0.54039555265E+02 -0.18973312127E+02 -0.45508882318E+02  0.10606688410E+03  0.76804071680E+02 0.  0.
         23    2    1    2    0    0 -0.15755718752E+02  0.11245422152E+03 -0.35834696231E+03  0.38946507996E+03  0.10186416691E+03 0.  0.
        -13    1    3    3    0    0 -0.10477727117E+02 -0.44197188691E+02 -0.19912205678E+02  0.49595062140E+02  0.00000000000E+00 0.  1.
         14    1    3    3    0    0 -0.43561828148E+02  0.25223876563E+02 -0.25596676640E+02  0.56471821960E+02  0.00000000000E+00 0. -1.
        -13    1    4    4    0    0 -0.54081531673E+02  0.52646306665E+02 -0.23840344651E+03  0.25006528944E+03  0.00000000000E+00 0. -1.
         13    1    4    4    0    0  0.38325812922E+02  0.59807914851E+02 -0.11994351580E+03  0.13939979052E+03  0.00000000000E+00 0.  1.
          1    1    1    2  501    0  0.69795274017E+02 -0.93480909388E+02  0.10859667993E+03  0.15938412589E+03  0.00000000000E+00 0. -1.
<scales pt_clust_5="13000.00000" pt_clust_6="13000.00000" pt_clust_7="13000.00000" pt_clust_8="13000.00000" pt_clust_9="13000.00000"></scales>
<clustering>
<clus scale="   76.804">  5  6 -1 -1</clus>
<clus scale="   95.808">  1  5  2 -1</clus>
<clus scale="  101.864">  7  8 -1 -1</clus>
<clus scale="  112.530">  7  9 -1 -1</clus>
<clus scale="  488.733">  2  5  1 -1</clus>
</clustering>
</event>
<event>
 9    2  0.3897980E-005  0.5240310E+03  0.7546771E-02  0.1066992E+00
         21   -1    0    0  501  502  0.00000000000E+00  0.00000000000E+00  0.32572960189E+03  0.32572960189E+03  0.00000000000E+00 0.  1.
         -3   -1    0    0    0  501 -0.00000000000E+00 -0.00000000000E+00 -0.31109717746E+03  0.31109717746E+03  0.00000000000E+00 0.  1.
         24    2    1    2    0    0  0.13851854670E+02 -0.43937063027E+02 -0.56068262704E+02  0.10804788252E+03  0.80052204530E+02 0.  0.
         23    2    1    2    0    0  0.12795640780E+03 -0.18129657206E+03  0.10290621037E+03  0.26068009152E+03  0.90128423045E+02 0.  0.
        -11    1    3    3    0    0  0.19342635766E+02 -0.42444295573E+02 -0.74976870331E+02  0.88301681013E+02  0.00000000000E+00 0.  1.
         12    1    3    3    0    0 -0.54907810961E+01 -0.14927674537E+01  0.18908607627E+02  0.19746201511E+02  0.00000000000E+00 0. -1.
        -13    1    4    4    0    0  0.92695081412E+02 -0.66850175664E+02  0.77987793482E+02  0.13835974861E+03  0.00000000000E+00 0.  1.
         13    1    4    4    0    0  0.35261326391E+02 -0.11444639640E+03  0.24918416888E+02  0.12232034290E+03  0.00000000000E+00 0. -1.
         -4    1    1    2    0  502 -0.14180826247E+03  0.22523363509E+03 -0.32205523236E+02  0.26809880531E+03  0.00000000000E+00 0.  1.
<scales pt_clust_5="13000.00000" pt_clust_6="13000.00000" pt_clust_7="13000.00000" pt_clust_8="13000.00000" pt_clust_9="13000.00000"></scales>
<clustering>
<clus scale="   80.052">  5  6 -1 -1</clus>
<clus scale="   90.128">  7  8 -1 -1</clus>
<clus scale="   92.362">  2  5  1 -1</clus>
<clus scale="  237.068">  7  9 -1 -1</clus>
<clus scale="  524.031">  1  5  2 -1</clus>
</clustering>
</event>
<event>
 9    2  0.3897980E-005  0.6213202E+03  0.7546771E-02  0.1028142E+00
         21   -1    0    0  501  502  0.00000000000E+00  0.00000000000E+00  0.21078653094E+03  0.21078653094E+03  0.00000000000E+00 0. -1.
          2   -1    0    0  502    0 -0.00000000000E+00 -0.00000000000E+00 -0.80539295437E+03  0.80539295437E+03  0.00000000000E+00 0. -1.
         24    2    1    2    0    0 -0.13996618238E+03  0.57713786738E+02 -0.26130830526E+03  0.31110758104E+03  0.74729399755E+02 0.  0.
         23    2    1    2    0    0 -0.92686528511E+02 -0.26971490483E+03 -0.21516713033E+03  0.36887748396E+03  0.91851955550E+02 0.  0.
        -13    1    3    3    0    0 -0.33582461418E+02  0.24458845951E+02 -0.14148494343E+03  0.14745848933E+03  0.00000000000E+00 0.  1.
         14    1    3    3    0    0 -0.10638372096E+03  0.33254940786E+02 -0.11982336184E+03  0.16364909170E+03  0.00000000000E+00 0. -1.
        -13    1    4    4    0    0 -0.11033359606E+03 -0.24290034471E+03 -0.18360292592E+03  0.32385817001E+03  0.00000000000E+00 0. -1.
         13    1    4    4    0    0  0.17647067545E+02 -0.26814560123E+02 -0.31564204419E+02  0.45019313945E+02  0.00000000000E+00 0.  1.
          1    1    1    2  501    0  0.23265271089E+03  0.21200111810E+03 -0.11813098783E+03  0.33619442031E+03  0.00000000000E+00 0. -1.
<scales pt_clust_5="13000.00000" pt_clust_6="13000.00000" pt_clust_7="13000.00000" pt_clust_8="13000.00000" pt_clust_9="13000.00000"></scales>
<clustering>
<clus scale="   74.729">  5  6 -1 -1</clus>
<clus scale="   91.852">  7  8 -1 -1</clus>
<clus scale="  168.837">  2  5  1 -1</clus>
<clus scale="  292.697">  7  9 -1 -1</clus>
<clus scale="  621.320">  1  5  2 -1</clus>
</clustering>
</event>
<event>
 9    2  0.3897980E-005  0.2639394E+03  0.7546771E-02  0.1126511E+00
          2   -1    0    0  502    0 -0.00000000000E+00  0.00000000000E+00  0.73914951245E+03  0.73914951245E+03  0.00000000000E+00 0. -1.
         21   -1    0    0  501  502  0.00000000000E+00 -0.00000000000E+00 -0.61447495852E+02  0.61447495852E+02  0.00000000000E+00 0. -1.
         24    2    1    2    0    0  0.80520022030E+02  0.10251856138E+03  0.33401160307E+03  0.36725288123E+03  0.79482063449E+02 0.  0.
         23    2    1    2    0    0 -0.44595721670E+02  0.45152995083E+02  0.20479459509E+03  0.22745704073E+03  0.75949376839E+02 0.  0.
        -13    1    3    3    0    0  0.78698707978E+02  0.39441238362E+02  0.21971437162E+03  0.23669284531E+03  0.00000000000E+00 0.  1.
         14    1    3    3    0    0  0.18213140521E+01  0.63077323016E+02  0.11429723145E+03  0.13056003592E+03  0.00000000000E+00 0. -1.
        -11    1    4    4    0    0  0.18274795817E+01  0.38229750001E+02  0.37047008217E+02  0.53266633877E+02  0.00000000000E+00 0.  1.
         11    1    4    4    0    0 -0.46423201251E+02  0.69232450823E+01  0.16774758688E+03  0.17419040685E+03  0.00000000000E+00 0. -1.
          1    1    1    2  501    0 -0.35924300361E+02 -0.14767155646E+03  0.13889581843E+03  0.20588708634E+03  0.00000000000E+00 0. -1.
<scales pt_clust_5="13000.00000" pt_clust_6="13000.00000" pt_clust_7="13000.00000" pt_clust_8="13000.00000" pt_clust_9="13000.00000"></scales>
<clustering>
<clus scale="   75.949">  7  8 -1 -1</clus>
<clus scale="   79.482">  5  6 -1 -1</clus>
<clus scale="  151.979">  7  9 -1 -1</clus>
<clus scale="  152.679">  1  5  2 -1</clus>
<clus scale="  263.939">  2  5  1 -1</clus>
</clustering>
</event>
<event>
 9    2  0.3897980E-005  0.3645275E+03  0.7546771E-02  0.1111183E+00
          2   -1    0    0  502    0 -0.00000000000E+00  0.00000000000E+00  0.10916017916E+03  0.10916017916E+03  0.00000000000E+00 0. -1.
         21   -1    0    0  501  502  0.00000000000E+00 -0.00000000000E+00 -0.46636514730E+03  0.46636514730E+03  0.00000000000E+00 0.  1.
         24    2    1    2    0    0 -0.15664648891E+02  0.21393903215E+02 -0.49234962184E+02  0.98319089576E+02  0.80867060997E+02 0.  0.
         23    2    1    2    0    0 -0.70773314819E+02  0.12050827147E+03 -0.25035240187E+03  0.30134396961E+03  0.92740268010E+02 0.  0.
        -11    1    3    3    0    0  0.28540764256E+02  0.28475496193E+02 -0.22331863207E+02  0.46088406591E+02  0.00000000000E+00 0.  1.
         12    1    3    3    0    0 -0.44205413147E+02 -0.70815929783E+01 -0.26903098976E+02  0.52230682986E+02  0.00000000000E+00 0. -1.
        -13    1    4    4    0    0 -0.38431490948E+02  0.10415778903E+03 -0.23873524007E+03  0.26328756022E+03  0.00000000000E+00 0.  1.
         13    1    4    4    0    0 -0.32341823871E+02  0.16350482443E+02 -0.11617161802E+02  0.38056409391E+02  0.00000000000E+00 0. -1.
          1    1    1    2  501    0  0.86437963710E+02 -0.14190217469E+03 -0.57617604082E+02  0.17586226728E+03  0.00000000000E+00 0. -1.
<scales pt_clust_5="13000.00000" pt_clust_6="13000.00000" pt_clust_7="13000.00000" pt_clust_8="13000.00000" pt_clust_9="13000.00000"></scales>
<clustering>
<clus scale="   80.867">  5  6 -1 -1</clus>
<clus scale="   85.103">  1  5  2 -1</clus>
<clus scale="   92.740">  7  8 -1 -1</clus>
<clus scale="  147.705">  7  9 -1 -1</clus>
<clus scale="  364.527">  2  5  1 -1</clus>
</clustering>
</event>
<event>
 9    2  0.3897980E-005  0.4240435E+03  0.7546771E-02  0.1096350E+00
         -1   -1    0    0    0  501 -0.00000000000E+00  0.00000000000E+00  0.11282794310E+04  0.11282794310E+04  0.00000000000E+00 0.  1.
         21   -1    0    0  501  502  0.00000000000E+00 -0.00000000000E+00 -0.58504130240E+02  0.58504130240E+02  0.00000000000E+00 0.  1.
         24    2    1    2    0    0  0.32902050112E+01  0.13285035335E+02  0.94561312230E+02  0.12336679200E+03  0.78039771813E+02 0.  0.
         23    2    1    2    0    0  0.16600777296E+03  0.10241431942E+03  0.57134846626E+03  0.61047581711E+03  0.90522814145E+02 0.  0.
        -11    1    3    3    0    0  0.23915765890E+02 -0.16605787608E+02  0.90923000367E+01  0.30502228773E+02  0.00000000000E+00 0.  1.
         12    1    3    3    0    0 -0.20625560878E+02  0.29890822943E+02  0.85469012194E+02  0.92864563226E+02  0.00000000000E+00 0. -1.
        -13    1    4    4    0    0  0.12738999310E+03  0.11745586275E+03  0.47370707398E+03  0.50440309473E+03  0.00000000000E+00 0.  1.
         13    1    4    4    0    0  0.38617779863E+02 -0.15041543337E+02  0.97641392280E+02  0.10607272238E+03  0.00000000000E+00 0. -1.
         -2    1    1    2    0  502 -0.16929797797E+03 -0.11569935475E+03  0.40386552230E+03  0.45294095216E+03  0.00000000000E+00 0.  1.
<scales pt_clust_5="13000.00000" pt_clust_6="13000.00000" pt_clust_7="13000.00000" pt_clust_8="13000.00000" pt_clust_9="13000.00000"></scales>
<clustering>
<clus scale="   78.040">  5  6 -1 -1</clus>
<clus scale="   79.231">  1  5  2 -1</clus>
<clus scale="   90.523">  7  8 -1 -1</clus>
<clus scale="  200.801">  7  9 -1 -1</clus>
<clus scale="  424.044">  2  5  1 -1</clus>
</clustering>
</event>
<event>
 9    2  0.3897980E-005  0.1750221E+03  0.7546771E-02  0.1184307E+00
         21   -1    0    0  501  502  0.00000000000E+00  0.00000000000E+00  0.36244045547E+02  0.36244045547E+02  0.00000000000E+00 0.  1.
         -3   -1    0    0    0  501 -0.00000000000E+00 -0.00000000000E+00 -0.66866895244E+03  0.66866895244E+03  0.00000000000E+00 0.  1.
         24    2    1    2    0    0 -0.65362161050E+02  0.86328407663E+02 -0.24050120577E+03  0.27568470069E+03  0.80227290551E+02 0.  0.
         23    2    1    2    0    0  0.28594983030E+02 -0.20109617022E+02 -0.23950045060E+03  0.25902371183E+03  0.92253713769E+02 0.  0.
        -13    1    3    3    0    0 -0.44070502454E+02  0.17813964390E+02 -0.38023873820E+02  0.60871680559E+02  0.00000000000E+00 0.  1.
         14    1    3    3    0    0 -0.21291658596E+02  0.68514443273E+02 -0.20247733195E+03  0.21481302013E+03  0.00000000000E+00 0. -1.
        -13    1    4    4    0    0 -0.16669956383E+02 -0.39499653720E+02 -0.15879915116E+03  0.16448489444E+03  0.00000000000E+00 0. -1.
         13    1    4    4    0    0  0.45264939413E+02  0.19390036698E+02 -0.80701299438E+02  0.94538817394E+02  0.00000000000E+00 0.  1.
         -4    1    1    2    0  502  0.36767178020E+02 -0.66218790642E+02 -0.15242325053E+03  0.17020458547E+03  0.00000000000E+00 0.  1.
<scales pt_clust_5="13000.00000" pt_clust_6="13000.00000" pt_clust_7="13000.00000" pt_clust_8="13000.00000" pt_clust_9="13000.00000"></scales>
<clustering>
<clus scale="   80.227">  5  6 -1 -1</clus>
<clus scale="   92.254">  7  8 -1 -1</clus>
<clus scale="   75.741">  7  9 -1 -1</clus>
<clus scale="  134.764">  2  5  1 -1</clus>
<clus scale="  175.022">  1  5  2 -1</clus>
</clustering>
</event>
<event>
 9    2  0.3897980E-005  0.3568536E+03  0.7546771E-02  0.1112955E+00
         21   -1    0    0  501  502  0.00000000000E+00  0.00000000000E+00  0.56951584070E+03  0.56951584070E+03  0.00000000000E+00 0.  1.
          2   -1    0    0  502    0 -0.00000000000E+00 -0.00000000000E+00 -0.10314001488E+03  0.10314001488E+03  0.00000000000E+00 0. -1.
         24    2    1    2    0    0 -0.27986850318E+02 -0.85282030804E+01  0.16681816880E+01  0.86739725609E+02  0.81639470418E+02 0.  0.
         23    2    1    2    0    0 -0.14815716683E+03  0.37830853447E+02  0.23169417848E+03  0.29235074496E+03  0.91679038954E+02 0.  0.
        -13    1    3    3    0    0 -0.24689815257E+01 -0.38306440895E+02  0.20187568915E+02  0.43370695434E+02  0.00000000000E+00 0.  1.
         14    1    3    3    0    0 -0.25517868793E+02  0.29778237814E+02 -0.18519387227E+02  0.43369030175E+02  0.00000000000E+00 0. -1.
        -11    1    4    4    0    0 -0.11192481254E+03 -0.49644933688E+01  0.19635984394E+03  0.22607299301E+03  0.00000000000E+00 0.  1.
         11    1    4    4    0    0 -0.36232354288E+02  0.42795346816E+02  0.35334334538E+02  0.66277751950E+02  0.00000000000E+00 0. -1.
          1    1    1    2  501    0  0.17614401715E+03 -0.29302650367E+02  0.23301346566E+03  0.29356538501E+03  0.00000000000E+00 0. -1.
<scales pt_clust_5="13000.00000" pt_clust_6="13000.00000" pt_clust_7="13000.00000" pt_clust_8="13000.00000" pt_clust_9="13000.00000"></scales>
<clustering>
<clus scale="   81.639">  5  6 -1 -1</clus>
<clus scale="   86.724">  2  5  1 -1</clus>
<clus scale="   91.679">  7  8 -1 -1</clus>
<clus scale="  165.600">  7  9 -1 -1</clus>
<clus scale="  356.854">  1  5  2 -1</clus>
</clustering>
</event>
<event>
 9    2  0.3897980E-005  0.2711742E+03  0.7546771E-02  0.1110924E+00
         21   -1    0    0  501  502  0.00000000000E+00  0.00000000000E+00  0.11622884723E+03  0.11622884723E+03  0.00000000000E+00 0. -1.
          2   -1    0    0  502    0 -0.00000000000E+00 -0.00000000000E+00 -0.51292948344E+03  0.51292948344E+03  0.00000000000E+00 0. -1.
         24    2    1    2    0    0  0.16045494795E+03  0.10601545628E+03 -0.23304789809E+03  0.31242871890E+03  0.79468951796E+02 0.  0.
         23    2    1    2    0    0 -0.16784468318E+02 -0.65738362239E+00 -0.67023654959E+02  0.11405077739E+03  0.90737307483E+02 0.  0.
        -11    1    3    3    0    0 -0.55715277639E+01  0.19610767796E+02 -0.16671859034E+02  0.26335812477E+02  0.00000000000E+00 0.  1.
         12    1    3    3    0    0  0.16602647571E+03  0.86404688485E+02 -0.21637603906E+03  0.28609290643E+03  0.00000000000E+00 0. -1.
        -11    1    4    4    0    0  0.16752079683E+02  0.26283108160E+02  0.35817964670E+01  0.31372969483E+02  0.00000000000E+00 0.  1.
         11    1    4    4    0    0 -0.33536548000E+02 -0.26940491783E+02 -0.70605451426E+02  0.82677807907E+02  0.00000000000E+00 0. -1.
          1    1    1    2  501    0 -0.14367047963E+03 -0.10535807266E+03 -0.96629083166E+02  0.20267883438E+03  0.00000000000E+00 0. -1.
<scales pt_clust_5="13000.00000" pt_clust_6="13000.00000" pt_clust_7="13000.00000" pt_clust_8="13000.00000" pt_clust_9="13000.00000"></scales>
<clustering>
<clus scale="   79.469">  5  6 -1 -1</clus>
<clus scale="   90.737">  7  8 -1 -1</clus>
<clus scale="  178.162">  7  9 -1 -1</clus>
<clus scale="  208.087">  2  5  1 -1</clus>
<clus scale="  271.174">  1  5  2 -1</clus>
</clustering>
</event>
<event>
 9    2  0.3897980E-005  0.1513380E+03  0.7546771E-02  0.1227932E+00
          2   -1    0    0  502    0 -0.00000000000E+00  0.00000000000E+00  0.54305154107E+03  0.54305154107E+03  0.00000000000E+00 0. -1.
         21   -1    0    0  501  502  0.00000000000E+00 -0.00000000000E+00 -0.36153381945E+02  0.36153381945E+02  0.00000000000E+00 0. -1.
         24    2    1    2    0    0  0.86613885570E+01  0.31982809445E+01  0.35696877259E+03  0.36617441775E+03  0.81066336774E+02 0.  0.
         23    2    1    2    0    0  0.15602252745E+02 -0.11953162826E+02  0.15794739994E+03  0.18601827128E+03  0.96276205304E+02 0.  0.
        -13    1    3    3    0    0 -0.11142647487E+02 -0.35986172493E+02  0.16147357061E+03  0.16580976210E+03  0.00000000000E+00 0.  1.
         14    1    3    3    0    0  0.19804036044E+02  0.39184453438E+02  0.19549520198E+03  0.20036465565E+03  0.00000000000E+00 0. -1.
        -13    1    4    4    0    0  0.45032386560E+02 -0.21505576040E+02  0.39640326557E+02  0.63731947480E+02  0.00000000000E+00 0. -1.
         13    1    4    4    0    0 -0.29430133815E+02  0.95524132137E+01  0.11830707338E+03  0.12228632380E+03  0.00000000000E+00 0.  1.
          1    1    1    2  501    0 -0.24263641302E+02  0.87548818818E+01 -0.80180134082E+01  0.27012233987E+02  0.00000000000E+00 0. -1.
<scales pt_clust_5="13000.00000" pt_clust_6="13000.00000" pt_clust_7="13000.00000" pt_clust_8="13000.00000" pt_clust_9="13000.00000"></scales>
<clustering>
<clus scale="   81.066">  5  6 -1 -1</clus>
<clus scale="   81.590">  1  5  2 -1</clus>
<clus scale="   96.276">  7  8 -1 -1</clus>
<clus scale="   25.427">  7  9 -1 -1</clus>
<clus scale="  151.338">  2  5  1 -1</clus>
</clustering>
</event>
<event>
 9    2  0.3897980E-005  0.4963390E+03  0.7546771E-02  0.1055090E+00
         21   -1    0    0  501  502  0.00000000000E+00  0.00000000000E+00  0.67898598161E+03  0.67898598161E+03  0.00000000000E+00 0. -1.
          2   -1    0    0  502    0 -0.00000000000E+00 -0.00000000000E+00 -0.25252519148E+03  0.25252519148E+03  0.00000000000E+00 0. -1.
         24    2    1    2    0    0  0.99029085484E+01  0.12778820267E+03 -0.11997762101E+03  0.19330568806E+03  0.80898499078E+02 0.  0.
         23    2    1    2    0    0 -0.47764108235E+02  0.13888495151E+03  0.62570047150E+02  0.18442156033E+03  0.92335590765E+02 0.  0.
        -11    1    3    3    0    0 -0.31556182679E+02  0.70780679500E+02 -0.83560523636E+02  0.11396516295E+03  0.00000000000E+00 0.  1.
         12    1    3    3    0    0  0.41459091227E+02  0.57007523172E+02 -0.36417097372E+02  0.79340525109E+02  0.00000000000E+00 0. -1.
        -11    1    4    4    0    0  0.24487680865E+02  0.45579461976E+02  0.37173357187E+02  0.63710221728E+02  0.00000000000E+00 0.  1.
         11    1    4    4    0    0 -0.72251789100E+02  0.93305489532E+02  0.25396689963E+02  0.12071133860E+03  0.00000000000E+00 0. -1.
          1    1    1    2  501    0  0.37861199686E+02 -0.26667315418E+03  0.48386836399E+03  0.55378392471E+03  0.00000000000E+00 0. -1.
<scales pt_clust_5="13000.00000" pt_clust_6="13000.00000" pt_clust_7="13000.00000" pt_clust_8="13000.00000" pt_clust_9="13000.00000"></scales>
<clustering>
<clus scale="   80.898">  5  6 -1 -1</clus>
<clus scale="   92.336">  7  8 -1 -1</clus>
<clus scale="  151.567">  2  5  1 -1</clus>
<clus scale="  223.957">  7  9 -1 -1</clus>
<clus scale="  496.339">  1  5  2 -1</clus>
</clustering>
</event>
<event>
 9    2  0.3897980E-005  0.1640659E+03  0.7546771E-02  0.1215118E+00
         -1   -1    0    0    0  501 -0.00000000000E+00  0.00000000000E+00  0.17269356515E+03  0.17269356515E+03  0.00000000000E+00 0.  1.
         21   -1    0    0  501  502  0.00000000000E+00 -0.00000000000E+00 -0.91428761606E+02  0.91428761606E+02  0.00000000000E+00 0.  1.
         24    2    1    2    0    0  0.43358106311E+01 -0.25906539944E+02  0.70309893131E+01  0.84043761519E+02  0.79523398907E+02 0.  0.
         23    2    1    2    0    0  0.97395552588E+01  0.70876108832E+02  0.39862947441E+02  0.12175417467E+03  0.90092967159E+02 0.  0.
        -13    1    3    3    0    0 -0.30846195234E+02  0.53188784755E+01 -0.11692601037E+02  0.33413996284E+02  0.00000000000E+00 0.  1.
         14    1    3    3    0    0  0.35182005865E+02 -0.31225418420E+02  0.18723590350E+02  0.50629765235E+02  0.00000000000E+00 0. -1.
        -13    1    4    4    0    0 -0.11585796249E+02  0.36354750632E+02  0.64021781918E+02  0.74529773434E+02  0.00000000000E+00 0.  1.
         13    1    4    4    0    0  0.21325351508E+02  0.34521358200E+02 -0.24158834477E+02  0.47224401238E+02  0.00000000000E+00 0. -1.
         -2    1    1    2    0  502 -0.14075365890E+02 -0.44969568888E+02  0.34370866789E+02  0.58324390564E+02  0.00000000000E+00 0.  1.
<scales pt_clust_5="13000.00000" pt_clust_6="13000.00000" pt_clust_7="13000.00000" pt_clust_8="13000.00000" pt_clust_9="13000.00000"></scales>
<clustering>
<clus scale="   79.523">  5  6 -1 -1</clus>
<clus scale="   83.749">  1  5  2 -1</clus>
<clus scale="   90.093">  7  8 -1 -1</clus>
<clus scale="   55.829">  7  9 -1 -1</clus>
<clus scale="  164.066">  2  5  1 -1</clus>
</clustering>
</event>
<event>
 9    2  0.3897980E-005  0.3003632E+03  0.7546771E-02  0.1133368E+00
          2   -1    0    0  502    0 -0.00000000000E+00  0.00000000000E+00  0.74610623711E+03  0.74610623711E+03  0.00000000000E+00 0. -1.
         21   -1    0    0  501  502  0.00000000000E+00 -0.00000000000E+00 -0.82582981743E+02  0.82582981743E+02  0.00000000000E+00 0. -1.
         24    2    1    2    0    0 -0.37825288551E+02  0.22344732635E+01  0.45425663826E+03  0.46261470008E+03  0.78914650149E+02 0.  0.
         23    2    1    2    0    0 -0.62928875921E+02  0.93646750095E+02  0.16594797074E+03  0.22039982716E+03  0.91146023467E+02 0.  0.
        -13    1    3    3    0    0 -0.17557185957E+02  0.28050359663E+02  0.75439703281E+02  0.82378554777E+02  0.00000000000E+00 0.  1.
         14    1    3    3    0    0 -0.20268102594E+02 -0.25815886399E+02  0.37881693498E+03  0.38023614531E+03  0.00000000000E+00 0. -1.
        -11    1    4    4    0    0 -0.61083361653E+02  0.64103935223E+02  0.52035601379E+02  0.10270440785E+03  0.00000000000E+00 0. -1.
         11    1    4    4    0    0 -0.18455142678E+01  0.29542814872E+02  0.11391236936E+03  0.11769541931E+03  0.00000000000E+00 0.  1.
          1    1    1    2  501    0  0.10075416447E+03 -0.95881223359E+02  0.43318646373E+02  0.14567469161E+03  0.00000000000E+00 0. -1.
<scales pt_clust_5="13000.00000" pt_clust_6="13000.00000" pt_clust_7="13000.00000" pt_clust_8="13000.00000" pt_clust_9="13000.00000"></scales>
<clustering>
<clus scale="   78.915">  5  6 -1 -1</clus>
<clus scale="   87.540">  1  5  2 -1</clus>
<clus scale="   91.146">  7  8 -1 -1</clus>
<clus scale="  129.827">  7  9 -1 -1</clus>
<clus scale="  300.363">  2  5  1 -1</clus>
</clustering>
</event>
<event>
 9    2  0.3897980E-005  0.1722181E+03  0.7546771E-02  0.1205985E+00
          2   -1    0    0  502    0 -0.00000000000E+00  0.00000000000E+00  0.75981905687E+03  0.75981905687E+03  0.00000000000E+00 0. -1.
         21   -1    0    0  501  502  0.00000000000E+00 -0.00000000000E+00 -0.39078151933E+02  0.39078151933E+02  0.00000000000E+00 0.  1.
         24    2    1    2    0    0 -0.17480091771E+02 -0.30827566924E+02  0.54784034878E+03  0.55486099043E+03  0.80534330966E+02 0.  0.
         23    2    1    2    0    0 -0.58008235421E+01 -0.44343392154E+01  0.32640431599E+02  0.97549681160E+02  0.91636398889E+02 0.  0.
        -13    1    3    3    0    0  0.87650978477E+01  0.24177436247E+02  0.12196136621E+03  0.12464329188E+03  0.00000000000E+00 0.  1.
         14    1    3    3    0    0 -0.26245189619E+02 -0.55005003170E+02  0.42587898257E+03  0.43021769855E+03  0.00000000000E+00 0. -1.
        -13    1    4    4    0    0 -0.39607080313E+02  0.19273581223E+02 -0.13497361398E+01  0.44068282605E+02  0.00000000000E+00 0.  1.
         13    1    4    4    0    0  0.33806256771E+02 -0.23707920439E+02  0.33990167739E+02  0.53481398555E+02  0.00000000000E+00 0. -1.
          1    1    1    2  501    0  0.23280915313E+02  0.35261906139E+02  0.14026012456E+03  0.14648653722E+03  0.00000000000E+00 0. -1.
<scales pt_clust_5="13000.00000" pt_clust_6="13000.00000" pt_clust_7="13000.00000" pt_clust_8="13000.00000" pt_clust_9="13000.00000"></scales>
<clustering>
<clus scale="   80.534">  5  6 -1 -1</clus>
<clus scale="   87.987">  1  5  2 -1</clus>
<clus scale="   91.636">  7  8 -1 -1</clus>
<clus scale="   18.013">  7  9 -1 -1</clus>
<clus scale="  172.218">  2  5  1 -1</clus>
</clustering>
</event>
<event>
 9    2  0.3897980E-005  0.2648178E+03  0.7546771E-02  0.1132438E+00
         21   -1    0    0  501  502  0.00000000000E+00  0.00000000000E+00  0.15970048305E+03  0.15970048305E+03  0.00000000000E+00 0. -1.
          2   -1    0    0  502    0 -0.00000000000E+00 -0.00000000000E+00 -0.36579108553E+03  0.36579108553E+03  0.00000000000E+00 0. -1.
         24    2    1    2    0    0 -0.10335577673E+03  0.39722403266E+01  0.65497537993E+02  0.14616504737E+03  0.79850474721E+02 0.  0.
         23    2    1    2    0    0  0.49101245182E+01  0.19013127107E+02 -0.26106838163E+03  0.27768726264E+03  0.92562992735E+02 0.  0.
        -11    1    3    3    0    0 -0.82308306959E+02 -0.31984841823E+02  0.37318931903E+02  0.95866522724E+02  0.00000000000E+00 0.  1.
         12    1    3    3    0    0 -0.21047469772E+02  0.35957082149E+02  0.28178606090E+02  0.50298524647E+02  0.00000000000E+00 0. -1.
        -11    1    4    4    0    0  0.54503922539E+01  0.52884283766E+02 -0.20832874577E+03  0.21500539659E+03  0.00000000000E+00 0.  1.
         11    1    4    4    0    0 -0.54026773571E+00 -0.33871156659E+02 -0.52739635853E+02  0.62681866058E+02  0.00000000000E+00 0. -1.
          1    1    1    2  501    0  0.98445652213E+02 -0.22985367433E+02 -0.10519758843E+02  0.10163925857E+03  0.00000000000E+00 0. -1.
<scales pt_clust_5="13000.00000" pt_clust_6="13000.00000" pt_clust_7="13000.00000" pt_clust_8="13000.00000" pt_clust_9="13000.00000"></scales>
<clustering>
<clus scale="   79.850">  5  6 -1 -1</clus>
<clus scale="   92.563">  7  8 -1 -1</clus>
<clus scale="  101.093">  7  9 -1 -1</clus>
<clus scale="  130.669">  2  5  1 -1</clus>
<clus scale="  264.818">  1  5  2 -1</clus>
</clustering>
</event>
<event>
 9    2  0.3897980E-005  0.4429440E+03  0.7546771E-02  0.1033777E+00
          2   -1    0    0  502    0 -0.00000000000E+00  0.00000000000E+00  0.52231590523E+03  0.52231590523E+03  0.00000000000E+00 0. -1.
         21   -1    0    0  501  502  0.00000000000E+00 -0.00000000000E+00 -0.33778422160E+03  0.33778422160E+03  0.00000000000E+00 0. -1.
         24    2    1    2    0    0 -0.17093533241E+03 -0.34592854457E+03  0.52113997129E+02  0.39778653698E+03  0.81442092847E+02 0.  0.
         23    2    1    2    0    0  0.62498716730E+02  0.55711432438E+02  0.84420470451E+02  0.14880409312E+03  0.89476192367E+02 0.  0.
        -11    1    3    3    0    0 -0.72328094131E+02 -0.16277548998E+03 -0.16172325385E+02  0.17885401155E+03  0.00000000000E+00 0.  1.
         12    1    3    3    0    0 -0.98607238278E+02 -0.18315305459E+03  0.68286322515E+02  0.21893252542E+03  0.00000000000E+00 0. -1.
        -11    1    4    4    0    0  0.80221402812E+02  0.43732145882E+02  0.40479546303E+02  0.99932816039E+02  0.00000000000E+00 0.  1.
         11    1    4    4    0    0 -0.17722686082E+02  0.11979286556E+02  0.43940924148E+02  0.48871277080E+02  0.00000000000E+00 0. -1.
          1    1    1    2  501    0  0.10843661568E+03  0.29021711213E+03  0.47997216051E+02  0.31350949674E+03  0.00000000000E+00 0. -1.
<scales pt_clust_5="13000.00000" pt_clust_6="13000.00000" pt_clust_7="13000.00000" pt_clust_8="13000.00000" pt_clust_9="13000.00000"></scales>
<clustering>
<clus scale="   81.442">  5  6 -1 -1</clus>
<clus scale="   89.476">  7  8 -1 -1</clus>
<clus scale="  309.814">  7  9 -1 -1</clus>
<clus scale="  394.358">  1  5  2 -1</clus>
<clus scale="  442.944">  2  5  1 -1</clus>
</clustering>
</event>
<event>
 9    2  0.3897980E-005  0.7709678E+03  0.7546771E-02  0.1020551E+00
          2   -1    0    0  502    0 -0.00000000000E+00  0.00000000000E+00  0.20069495077E+04  0.20069495077E+04  0.00000000000E+00 0. -1.
         21   -1    0    0  501  502  0.00000000000E+00 -0.00000000000E+00 -0.97697656815E+02  0.97697656815E+02  0.00000000000E+00 0. -1.
         24    2    1    2    0    0 -0.75076988331E+02 -0.19855391235E+02  0.30986686820E+03  0.32914056786E+03  0.79279547580E+02 0.  0.
         23    2    1    2    0    0 -0.19683784021E+03 -0.18014139263E+03  0.12804517387E+04  0.13111201179E+04  0.91012371325E+02 0.  0.
        -11    1    3    3    0    0 -0.56745778606E+02  0.16007666929E+02  0.25087744959E+03  0.25771267626E+03  0.00000000000E+00 0.  1.
         12    1    3    3    0    0 -0.18331209725E+02 -0.35863058163E+02  0.58989418603E+02  0.71427891596E+02  0.00000000000E+00 0. -1.
        -11    1    4    4    0    0 -0.98564471951E+02 -0.35020752058E+02  0.55741076126E+03  0.56714033975E+03  0.00000000000E+00 0. -1.
         11    1    4    4    0    0 -0.98273368262E+02 -0.14512064058E+03  0.72304097743E+03  0.74397977813E+03  0.00000000000E+00 0.  1.
          1    1    1    2  501    0  0.27191482854E+03  0.19999678387E+03  0.31893324400E+03  0.46438647877E+03  0.00000000000E+00 0. -1.
<scales pt_clust_5="13000.00000" pt_clust_6="13000.00000" pt_clust_7="13000.00000" pt_clust_8="13000.00000" pt_clust_9="13000.00000"></scales>
<clustering>
<clus scale="   79.280">  5  6 -1 -1</clus>
<clus scale="   91.012">  7  8 -1 -1</clus>
<clus scale="  110.978">  1  5  2 -1</clus>
<clus scale="  320.845">  7  9 -1 -1</clus>
<clus scale="  770.968">  2  5  1 -1</clus>
</clustering>
</event>
<event>
 9    2  0.3897980E-005  0.2103701E+03  0.7546771E-02  0.1176094E+00
          2   -1    0    0  502    0 -0.00000000000E+00  0.00000000000E+00  0.48535242079E+03  0.48535242079E+03  0.00000000000E+00 0. -1.
         21   -1    0    0  501  502  0.00000000000E+00 -0.00000000000E+00 -0.49105153758E+02  0.49105153758E+02  0.00000000000E+00 0. -1.
         24    2    1    2    0    0  0.26995418422E+02  0.45815056706E+02  0.92239699271E+02  0.13122466500E+03  0.76707095798E+02 0.  0.
         23    2    1    2    0    0  0.54256827183E+01  0.48574708282E+02  0.17251354085E+03  0.20481225337E+03  0.98985842597E+02 0.  0.
        -13    1    3    3    0    0 -0.24519113169E+02  0.60307814593E+01  0.41985105130E+02  0.48992920799E+02  0.00000000000E+00 0.  1.
         14    1    3    3    0    0  0.51514531591E+02  0.39784275247E+02  0.50254594141E+02  0.82231744200E+02  0.00000000000E+00 0. -1.
        -13    1    4    4    0    0 -0.34004351260E+02  0.34595645621E+02  0.14926930404E+03  0.15695375028E+03  0.00000000000E+00 0. -1.
         13    1    4    4    0    0  0.39430033978E+02  0.13979062661E+02  0.23244236818E+02  0.47858503086E+02  0.00000000000E+00 0.  1.
          1    1    1    2  501    0 -0.32421101140E+02 -0.94389764989E+02  0.17149402691E+03  0.19842065618E+03  0.00000000000E+00 0. -1.
<scales pt_clust_5="13000.00000" pt_clust_6="13000.00000" pt_clust_7="13000.00000" pt_clust_8="13000.00000" pt_clust_9="13000.00000"></scales>
<clustering>
<clus scale="   76.707">  5  6 -1 -1</clus>
<clus scale="   93.337">  1  5  2 -1</clus>
<clus scale="   98.986">  7  8 -1 -1</clus>
<clus scale="   74.199">  7  9 -1 -1</clus>
<clus scale="  210.370">  2  5  1 -1</clus>
</clustering>
</event>
<event>
 9    2  0.3897980E-005  0.6992519E+03  0.7546771E-02  0.1040066E+00
         21   -1    0    0  501  502  0.00000000000E+00  0.00000000000E+00  0.10300158242E+04  0.10300158242E+04  0.00000000000E+00 0. -1.
          2   -1    0    0  502    0 -0.00000000000E+00 -0.00000000000E+00 -0.23537752925E+03  0.23537752925E+03  0.00000000000E+00 0. -1.
         24    2    1    2    0    0 -0.14812581056E+02  0.20402729777E+02 -0.99808637256E+02  0.13005706667E+03  0.79482026780E+02 0.  0.
         23    2    1    2    0    0 -0.10218131601E+03  0.68990855803E+02 -0.63842464138E+02  0.16580168077E+03  0.90628790090E+02 0.  0.
        -13    1    3    3    0    0 -0.37746833154E+01  0.28874972971E+02  0.16362477988E+00  0.29121110405E+02  0.00000000000E+00 0.  1.
         14    1    3    3    0    0 -0.11037897741E+02 -0.84722431937E+01 -0.99972262036E+02  0.10093595627E+03  0.00000000000E+00 0. -1.
        -11    1    4    4    0    0 -0.32545567700E+02  0.24449689910E+02 -0.72028396679E+02  0.82735066579E+02  0.00000000000E+00 0.  1.
         11    1    4    4    0    0 -0.69635748307E+02  0.44541165893E+02  0.81859325414E+01  0.83066614189E+02  0.00000000000E+00 0. -1.
          1    1    1    2  501    0  0.11699389706E+03 -0.89393585580E+02  0.95828939630E+03  0.96953460596E+03  0.00000000000E+00 0. -1.
<scales pt_clust_5="13000.00000" pt_clust_6="13000.00000" pt_clust_7="13000.00000" pt_clust_8="13000.00000" pt_clust_9="13000.00000"></scales>
<clustering>
<clus scale="   79.482">  5  6 -1 -1</clus>
<clus scale="   83.385">  2  5  1 -1</clus>
<clus scale="   90.629">  7  8 -1 -1</clus>
<clus scale="  146.110">  7  9 -1 -1</clus>
<clus scale="  699.252">  1  5  2 -1</clus>
</clustering>
</event>
<event>
 9    2  0.3897980E-005  0.2349839E+03  0.7546771E-02  0.1165259E+00
         21   -1    0    0  501  502  0.00000000000E+00  0.00000000000E+00  0.19696952057E+03  0.19696952057E+03  0.00000000000E+00 0. -1.
          2   -1    0    0  502    0 -0.00000000000E+00 -0.00000000000E+00 -0.13872865652E+03  0.13872865652E+03  0.00000000000E+00 0. -1.
         24    2    1    2    0    0 -0.29319649959E+02  0.88697408891E+01 -0.19902409880E+02  0.88061707019E+02  0.80127674039E+02 0.  0.
         23    2    1    2    0    0  0.41641809726E+02  0.32494570610E+02  0.13797852052E+03  0.17385911161E+03  0.91645955329E+02 0.  0.
        -11    1    3    3    0    0 -0.19810758293E+02  0.35961648955E+02  0.14235004045E+02  0.43455053560E+02  0.00000000000E+00 0.  1.
         12    1    3    3    0    0 -0.95088916661E+01 -0.27091908066E+02 -0.34137413925E+02  0.44606653460E+02  0.00000000000E+00 0. -1.
        -13    1    4    4    0    0  0.13973137415E+02  0.23274648830E+02 -0.52854892323E+01  0.27656721494E+02  0.00000000000E+00 0.  1.
         13    1    4    4    0    0  0.27668672311E+02  0.92199217806E+01  0.14326400975E+03  0.14620239011E+03  0.00000000000E+00 0. -1.
          1    1    1    2  501    0 -0.12322159768E+02 -0.41364311500E+02 -0.59835246585E+02  0.73777358458E+02  0.00000000000E+00 0. -1.
<scales pt_clust_5="13000.00000" pt_clust_6="13000.00000" pt_clust_7="13000.00000" pt_clust_8="13000.00000" pt_clust_9="13000.00000"></scales>
<clustering>
<clus scale="   80.128">  5  6 -1 -1</clus>
<clus scale="   85.783">  2  5  1 -1</clus>
<clus scale="   91.646">  7  8 -1 -1</clus>
<clus scale="   49.367">  7  9 -1 -1</clus>
<clus scale="  234.984">  1  5  2 -1</clus>
</clustering>
</event>
<event>
 9    2  0.3897980E-005  0.1981548E+03  0.7546771E-02  0.1162467E+00
          2   -1    0    0  502    0 -0.00000000000E+00  0.00000000000E+00  0.21909028663E+03  0.21909028663E+03  0.00000000000E+00 0. -1.
         21   -1    0    0  501  502  0.00000000000E+00 -0.00000000000E+00 -0.16726465709E+03  0.16726465709E+03  0.00000000000E+00 0.  1.
         24    2    1    2    0    0 -0.71040246083E+02  0.10876727060E+03  0.99983991019E+02  0.18243208186E+03  0.80047675274E+02 0.  0.
         23    2    1    2    0    0  0.18808467194E+02 -0.52342783418E+02 -0.65103485722E+02  0.12518901453E+03  0.91325243458E+02 0.  0.
        -13    1    3    3    0    0 -0.54809574815E+02  0.16025407540E+02  0.49650895038E+02  0.75671094589E+02  0.00000000000E+00 0.  1.
         14    1    3    3    0    0 -0.16230671267E+02  0.92741863056E+02  0.50333095981E+02  0.10676098727E+03  0.00000000000E+00 0. -1.
        -11    1    4    4    0    0  0.26953274585E+02  0.88865804955E+01 -0.55962599524E+02  0.62747612458E+02  0.00000000000E+00 0.  1.
         11    1    4    4    0    0 -0.81448073903E+01 -0.61229363914E+02 -0.91408861983E+01  0.62441402076E+02  0.00000000000E+00 0. -1.
          1    1    1    2  501    0  0.52231778888E+02 -0.56424487178E+02  0.16945124246E+02  0.78733847326E+02  0.00000000000E+00 0. -1.
<scales pt_clust_5="13000.00000" pt_clust_6="13000.00000" pt_clust_7="13000.00000" pt_clust_8="13000.00000" pt_clust_9="13000.00000"></scales>
<clustering>
<clus scale="   80.048">  5  6 -1 -1</clus>
<clus scale="   91.325">  7  8 -1 -1</clus>
<clus scale="   76.889">  7  9 -1 -1</clus>
<clus scale="  152.593">  1  5  2 -1</clus>
<clus scale="  198.155">  2  5  1 -1</clus>
</clustering>
</event>
<event>
 9    2  0.3897980E-005  0.3604561E+03  0.7546771E-02  0.1105336E+00
         21   -1    0    0  501  502  0.00000000000E+00  0.00000000000E+00  0.54935591460E+02  0.54935591460E+02  0.00000000000E+00 0. -1.
          2   -1    0    0  502    0 -0.00000000000E+00 -0.00000000000E+00 -0.97536005339E+03  0.97536005339E+03  0.00000000000E+00 0. -1.
         24    2    1    2    0    0  0.20689952791E+02  0.59067042794E+02 -0.21895399111E+03  0.24163259219E+03  0.80798946111E+02 0.  0.
         23    2    1    2    0    0  0.15417846624E+03 -0.27065758003E+02 -0.32083657079E+03  0.36856162199E+03  0.91640653316E+02 0.  0.
        -11    1    3    3    0    0  0.50637406585E+02  0.42478321446E+02 -0.16485562881E+03  0.17761174817E+03  0.00000000000E+00 0.  1.
         12    1    3    3    0    0 -0.29947453793E+02  0.16588721348E+02 -0.54098362299E+02  0.64020844013E+02  0.00000000000E+00 0. -1.
        -13    1    4    4    0    0  0.12776717988E+03  0.36722995442E+01 -0.17192459669E+03  0.21423352908E+03  0.00000000000E+00 0. -1.
         13    1    4    4    0    0  0.26411286361E+02 -0.30738057547E+02 -0.14891197410E+03  0.15432809291E+03  0.00000000000E+00 0.  1.
          1    1    1    2  501    0 -0.17486841903E+03 -0.32001284791E+02 -0.38063390003E+03  0.42010143067E+03  0.00000000000E+00 0. -1.
<scales pt_clust_5="13000.00000" pt_clust_6="13000.00000" pt_clust_7="13000.00000" pt_clust_8="13000.00000" pt_clust_9="13000.00000"></scales>
<clustering>
<clus scale="   80.799">  5  6 -1 -1</clus>
<clus scale="   91.641">  7  8 -1 -1</clus>
<clus scale="  102.203">  2  5  1 -1</clus>
<clus scale="  163.751">  7  9 -1 -1</clus>
<clus scale="  360.456">  1  5  2 -1</clus>
</clustering>
</event>
<event>
 9    2  0.3897980E-005  0.5055336E+03  0.7546771E-02  0.1027118E+00
          2   -1    0    0  502    0 -0.00000000000E+00  0.00000000000E+00  0.17962547815E+04  0.17962547815E+04  0.00000000000E+00 0. -1.
         21   -1    0    0  501  502  0.00000000000E+00 -0.00000000000E+00 -0.10375003585E+03  0.10375003585E+03  0.00000000000E+00 0. -1.
         24    2    1    2    0    0 -0.30332799819E+02 -0.31174982204E+03  0.93527276845E+03  0.98952992678E+03  0.79538005370E+02 0.  0.
         23    2    1    2    0    0 -0.47553710077E+02 -0.59512159195E+02  0.25065696505E+03  0.27760838800E+03  0.91839264634E+02 0.  0.
        -11    1    3    3    0    0 -0.70626969191E+01 -0.13101710418E+03  0.51502369513E+03  0.53147414784E+03  0.00000000000E+00 0.  1.
         12    1    3    3    0    0 -0.23270102900E+02 -0.18073271786E+03  0.42024907333E+03  0.45805577894E+03  0.00000000000E+00 0. -1.
        -13    1    4    4    0    0 -0.33190156642E+02  0.12655819077E+02  0.14203306468E+03  0.14640747152E+03  0.00000000000E+00 0.  1.
         13    1    4    4    0    0 -0.14363553435E+02 -0.72167978271E+02  0.10862390037E+03  0.13120091649E+03  0.00000000000E+00 0. -1.
          1    1    1    2  501    0  0.77886509896E+02  0.37126198123E+03  0.50657501210E+03  0.63286650253E+03  0.00000000000E+00 0. -1.
<scales pt_clust_5="13000.00000" pt_clust_6="13000.00000" pt_clust_7="13000.00000" pt_clust_8="13000.00000" pt_clust_9="13000.00000"></scales>
<clustering>
<clus scale="   79.538">  5  6 -1 -1</clus>
<clus scale="   91.839">  7  8 -1 -1</clus>
<clus scale="  323.163">  1  5  2 -1</clus>
<clus scale="  168.269">  7  9 -1 -1</clus>
<clus scale="  505.534">  2  5  1 -1</clus>
</clustering>
</event>
<event>
 9    2  0.3897980E-005  0.2409260E+03  0.7546771E-02  0.1163202E+00
         21   -1    0    0  501  502  0.00000000000E+00  0.00000000000E+00  0.48285095092E+02  0.48285095092E+02  0.00000000000E+00 0. -1.
          2   -1    0    0  502    0 -0.00000000000E+00 -0.00000000000E+00 -0.56792791062E+03  0.56792791062E+03  0.00000000000E+00 0. -1.
         24    2    1    2    0    0  0.22963511715E+02 -0.22583225213E+01 -0.84177333609E+02  0.11854289562E+03  0.80213288907E+02 0.  0.
         23    2    1    2    0    0  0.29854895001E+02  0.63041088526E+02 -0.96071660054E+02  0.14885426319E+03  0.89790501760E+02 0.  0.
        -11    1    3    3    0    0 -0.74318431219E+01  0.30373025669E+02 -0.11583169627E+02  0.33345506431E+02  0.00000000000E+00 0.  1.
         12    1    3    3    0    0  0.30395354836E+02 -0.32631348191E+02 -0.72594163981E+02  0.85197389188E+02  0.00000000000E+00 0. -1.
        -11    1    4    4    0    0  0.18274006307E+02 -0.21516451681E+02 -0.20922626560E+02  0.35137633694E+02  0.00000000000E+00 0.  1.
         11    1    4    4    0    0  0.11580888693E+02  0.84557540207E+02 -0.75149033494E+02  0.11371662950E+03  0.00000000000E+00 0. -1.
          1    1    1    2  501    0 -0.52818406715E+02 -0.60782766004E+02 -0.33939382186E+03  0.34881584690E+03  0.00000000000E+00 0. -1.
<scales pt_clust_5="13000.00000" pt_clust_6="13000.00000" pt_clust_7="13000.00000" pt_clust_8="13000.00000" pt_clust_9="13000.00000"></scales>
<clustering>
<clus scale="   80.213">  5  6 -1 -1</clus>
<clus scale="   83.466">  2  5  1 -1</clus>
<clus scale="   89.791">  7  8 -1 -1</clus>
<clus scale="   72.023">  7  9 -1 -1</clus>
<clus scale="  240.926">  1  5  2 -1</clus>
</clustering>
</event>
<event>
 9    2  0.3897980E-005  0.1782166E+03  0.7546771E-02  0.1202045E+00
         21   -1    0    0  501  502  0.00000000000E+00  0.00000000000E+00  0.21376633842E+03  0.21376633842E+03  0.00000000000E+00 0.  1.
         -1   -1    0    0    0  501 -0.00000000000E+00 -0.00000000000E+00 -0.11904639436E+03  0.11904639436E+03  0.00000000000E+00 0.  1.
         24    2    1    2    0    0  0.20897537657E+02 -0.11962604896E+02  0.12506496728E+03  0.15203114368E+03  0.83020549338E+02 0.  0.
         23    2    1    2    0    0 -0.96313285812E+01 -0.55584332722E+02 -0.59479076014E+01  0.10808540282E+03  0.92003783425E+02 0.  0.
        -11    1    3    3    0    0  0.37359202188E+02  0.19262199803E+02  0.33024888086E+02  0.53454518635E+02  0.00000000000E+00 0.  1.
         12    1    3    3    0    0 -0.16461664531E+02 -0.31224804699E+02  0.92040079192E+02  0.98576625045E+02  0.00000000000E+00 0. -1.
        -13    1    4    4    0    0 -0.32469456120E+02 -0.71742578565E+02  0.27263280273E+01  0.78795279201E+02  0.00000000000E+00 0.  1.
         13    1    4    4    0    0  0.22838127538E+02  0.16158245842E+02 -0.86742356286E+01  0.29290123624E+02  0.00000000000E+00 0. -1.
         -2    1    1    2    0  502 -0.11266209076E+02  0.67546937618E+02 -0.24397115615E+02  0.72696186275E+02  0.00000000000E+00 0.  1.
<scales pt_clust_5="13000.00000" pt_clust_6="13000.00000" pt_clust_7="13000.00000" pt_clust_8="13000.00000" pt_clust_9="13000.00000"></scales>
<clustering>
<clus scale="   83.021">  5  6 -1 -1</clus>
<clus scale="   86.442">  2  5  1 -1</clus>
<clus scale="   92.004">  7  8 -1 -1</clus>
<clus scale="   62.068">  7  9 -1 -1</clus>
<clus scale="  178.217">  1  5  2 -1</clus>
</clustering>
</event>
<event>
 9    2  0.4193872E-005  0.2716445E+03  0.7546771E-02  0.1115946E+00
          2   -1    0    0  502    0 -0.00000000000E+00  0.00000000000E+00  0.96774048699E+03  0.96774048699E+03  0.00000000000E+00 0. -1.
         21   -1    0    0  501  502  0.00000000000E+00 -0.00000000000E+00 -0.10112699537E+03  0.10112699537E+03  0.00000000000E+00 0.  1.
         24    2    1    2    0    0  0.15402193728E+03  0.53021425526E+02  0.24394217369E+02  0.18392450832E+03  0.81848141045E+02 0.  0.
         23    2    1    2    0    0  0.68125421306E+01  0.16751326896E+02  0.21233089161E+03  0.23111169509E+03  0.89449373353E+02 0.  0.
        -11    1    3    3    0    0  0.22724814037E+02  0.11236323425E+02 -0.26841787516E+02  0.36920911340E+02  0.00000000000E+00 0.  1.
         12    1    3    3    0    0  0.13129712324E+03  0.41785102101E+02  0.51236004885E+02  0.14700359698E+03  0.00000000000E+00 0. -1.
        -13    1    4    4    0    0 -0.25079267487E+01 -0.36174043691E+02  0.10488125844E+03  0.11097265206E+03  0.00000000000E+00 0. -1.
         13    1    4    4    0    0  0.93204688793E+01  0.52925370587E+02  0.10744963317E+03  0.12013904303E+03  0.00000000000E+00 0.  1.
          1    1    1    2  501    0 -0.16083447941E+03 -0.69772752422E+02  0.62988838264E+03  0.65383127895E+03  0.00000000000E+00 0. -1.
<scales pt_clust_5="13000.00000" pt_clust_6="13000.00000" pt_clust_7="13000.00000" pt_clust_8="13000.00000" pt_clust_9="13000.00000"></scales>
<clustering>
<clus scale="   81.848">  5  6 -1 -1</clus>
<clus scale="   89.449">  7  8 -1 -1</clus>
<clus scale="  175.317">  7  9 -1 -1</clus>
<clus scale="  182.300">  1  5  2 -1</clus>
<clus scale="  271.645">  2  5  1 -1</clus>
</clustering>
</event>
<event>
 9    2  0.3897980E-005  0.1819455E+03  0.7546771E-02  0.1192844E+00
          2   -1    0    0  502    0 -0.00000000000E+00  0.00000000000E+00  0.18621974707E+03  0.18621974707E+03  0.00000000000E+00 0. -1.
         21   -1    0    0  501  502  0.00000000000E+00 -0.00000000000E+00 -0.19419266594E+03  0.19419266594E+03  0.00000000000E+00 0. -1.
         24    2    1    2    0    0 -0.58091938705E+02 -0.56803813088E+01 -0.12833316384E+03  0.16225933311E+03  0.80322787349E+02 0.  0.
         23    2    1    2    0    0 -0.73192211974E+01  0.25463279206E+02  0.11252790501E+03  0.14936842727E+03  0.94585665249E+02 0.  0.
        -11    1    3    3    0    0 -0.45820244580E+02 -0.38858528196E+02 -0.10114808926E+03  0.11764529735E+03  0.00000000000E+00 0.  1.
         12    1    3    3    0    0 -0.12271694125E+02  0.33178146887E+02 -0.27185074576E+02  0.44614035765E+02  0.00000000000E+00 0. -1.
        -13    1    4    4    0    0 -0.30561649715E+02  0.41389478670E+02  0.10955735887E+03  0.12103684670E+03  0.00000000000E+00 0.  1.
         13    1    4    4    0    0  0.23242428517E+02 -0.15926199465E+02  0.29705461443E+01  0.28331580562E+02  0.00000000000E+00 0. -1.
          1    1    1    2  501    0  0.65411159902E+02 -0.19782897897E+02  0.78323399466E+01  0.68784652634E+02  0.00000000000E+00 0. -1.
<scales pt_clust_5="13000.00000" pt_clust_6="13000.00000" pt_clust_7="13000.00000" pt_clust_8="13000.00000" pt_clust_9="13000.00000"></scales>
<clustering>
<clus scale="   80.323">  5  6 -1 -1</clus>
<clus scale="   94.586">  7  8 -1 -1</clus>
<clus scale="   68.337">  7  9 -1 -1</clus>
<clus scale="   99.291">  1  5  2 -1</clus>
<clus scale="  181.946">  2  5  1 -1</clus>
</clustering>
</event>
<event>
 9    2  0.6259456E-005  0.4147497E+03  0.7546771E-02  0.1058937E+00
         21   -1    0    0  501  502  0.00000000000E+00  0.00000000000E+00  0.41008836938E+03  0.41008836938E+03  0.00000000000E+00 0. -1.
          2   -1    0    0  502    0 -0.00000000000E+00 -0.00000000000E+00 -0.26703489506E+03  0.26703489506E+03  0.00000000000E+00 0. -1.
         24    2    1    2    0    0 -0.19670991879E+03 -0.98084130913E+02 -0.14267299309E+02  0.23353880689E+03  0.77598515498E+02 0.  0.
         23    2    1    2    0    0 -0.82415459453E+02  0.17248720205E+02  0.72632250496E+01  0.11653307276E+03  0.80233261826E+02 0.  0.
        -13    1    3    3    0    0 -0.22722953757E+02 -0.14067160185E+02  0.24753441782E+02  0.36427331815E+02  0.00000000000E+00 0.  1.
         14    1    3    3    0    0 -0.17398696503E+03 -0.84016970728E+02 -0.39020741091E+02  0.19711147508E+03  0.00000000000E+00 0. -1.
        -13    1    4    4    0    0 -0.80339476631E+02  0.39592316949E+02  0.18470516998E+02  0.91450221787E+02  0.00000000000E+00 0.  1.
         13    1    4    4    0    0 -0.20759828227E+01 -0.22343596744E+02 -0.11207291948E+02  0.25082850974E+02  0.00000000000E+00 0. -1.
          1    1    1    2  501    0  0.27912537824E+03  0.80835410708E+02  0.15005754858E+03  0.32705138478E+03  0.00000000000E+00 0. -1.
<scales pt_clust_5="13000.00000" pt_clust_6="13000.00000" pt_clust_7="13000.00000" pt_clust_8="13000.00000" pt_clust_9="13000.00000"></scales>
<clustering>
<clus scale="   77.599">  5  6 -1 -1</clus>
<clus scale="   80.233">  7  8 -1 -1</clus>
<clus scale="  233.103">  2  5  1 -1</clus>
<clus scale="  158.791">  7  9 -1 -1</clus>
<clus scale="  414.750">  1  5  2 -1</clus>
</clustering>
</event>
<event>
 9    2  0.3897980E-005  0.1348071E+03  0.7546771E-02  0.1237752E+00
         21   -1    0    0  501  502  0.00000000000E+00  0.00000000000E+00  0.20457652565E+03  0.20457652565E+03  0.00000000000E+00 0.  1.
         -3   -1    0    0    0  501 -0.00000000000E+00 -0.00000000000E+00 -0.65211564233E+02  0.65211564233E+02  0.00000000000E+00 0.  1.
         24    2    1    2    0    0  0.90705941047E+01 -0.47801334705E+02  0.74377728280E+02  0.12013414210E+03  0.80826495386E+02 0.  0.
         23    2    1    2    0    0  0.14373466445E+02  0.29006522127E+02  0.23303146148E+02  0.98268813136E+02  0.89809510361E+02 0.  0.
        -13    1    3    3    0    0  0.41357508068E+02 -0.11305468720E+02  0.49287375346E+02  0.65326123910E+02  0.00000000000E+00 0.  1.
         14    1    3    3    0    0 -0.32286913963E+02 -0.36495865985E+02  0.25090352934E+02  0.54808018188E+02  0.00000000000E+00 0. -1.
        -11    1    4    4    0    0  0.13025346019E+02  0.61303892843E+02  0.19944171588E+02  0.65769270157E+02  0.00000000000E+00 0.  1.
         11    1    4    4    0    0  0.13481204260E+01 -0.32297370715E+02  0.33589745601E+01  0.32499542980E+02  0.00000000000E+00 0. -1.
         -4    1    1    2    0  502 -0.23444060549E+02  0.18794812578E+02  0.41684086993E+02  0.51385134653E+02  0.00000000000E+00 0.  1.
<scales pt_clust_5="13000.00000" pt_clust_6="13000.00000" pt_clust_7="13000.00000" pt_clust_8="13000.00000" pt_clust_9="13000.00000"></scales>
<clustering>
<clus scale="   80.826">  5  6 -1 -1</clus>
<clus scale="   89.810">  7  8 -1 -1</clus>
<clus scale="   30.048">  7  9 -1 -1</clus>
<clus scale="   94.341">  2  5  1 -1</clus>
<clus scale="  134.807">  1  5  2 -1</clus>
</clustering>
</event>
<event>
 9    2  0.3897980E-005  0.2529156E+03  0.7546771E-02  0.1129541E+00
         21   -1    0    0  501  502  0.00000000000E+00  0.00000000000E+00  0.23026377022E+03  0.23026377022E+03  0.00000000000E+00 0. -1.
         -1   -1    0    0    0  501 -0.00000000000E+00 -0.00000000000E+00 -0.26290794387E+03  0.26290794387E+03  0.00000000000E+00 0.  1.
         24    2    1    2    0    0  0.22899049147E+02  0.13917771424E+03  0.11722510973E+03  0.19918680344E+03  0.77710061901E+02 0.  0.
         23    2    1    2    0    0 -0.39712536797E+02 -0.60991280031E+02 -0.17477809768E+03  0.21022178695E+03  0.91371737762E+02 0.  0.
        -13    1    3    3    0    0  0.16997118900E+01  0.20474570330E+02  0.64298904635E+02  0.67501453228E+02  0.00000000000E+00 0.  1.
         14    1    3    3    0    0  0.21199337257E+02  0.11870314391E+03  0.52926205093E+02  0.13168535021E+03  0.00000000000E+00 0. -1.
        -13    1    4    4    0    0 -0.63152868432E+02 -0.59327680841E+02 -0.16138129722E+03  0.18317200004E+03  0.00000000000E+00 0.  1.
         13    1    4    4    0    0  0.23440331635E+02 -0.16635991905E+01 -0.13396800454E+02  0.27049786909E+02  0.00000000000E+00 0. -1.
         -2    1    1    2    0  502  0.16813487650E+02 -0.78186434212E+02  0.24908814294E+02  0.83763123696E+02  0.00000000000E+00 0.  1.
<scales pt_clust_5="13000.00000" pt_clust_6="13000.00000" pt_clust_7="13000.00000" pt_clust_8="13000.00000" pt_clust_9="13000.00000"></scales>
<clustering>
<clus scale="   77.710">  5  6 -1 -1</clus>
<clus scale="   91.372">  7  8 -1 -1</clus>
<clus scale="   79.974">  7  9 -1 -1</clus>
<clus scale="  161.039">  2  5  1 -1</clus>
<clus scale="  252.916">  1  5  2 -1</clus>
</clustering>
</event>
<event>
 9    2  0.3897980E-005  0.1871583E+03  0.7546771E-02  0.1197931E+00
         -3   -1    0    0    0  501 -0.00000000000E+00  0.00000000000E+00  0.33677381779E+03  0.33677381779E+03  0.00000000000E+00 0.  1.
         21   -1    0    0  501  502  0.00000000000E+00 -0.00000000000E+00 -0.53631933580E+02  0.53631933580E+02  0.00000000000E+00 0. -1.
         24    2    1    2    0    0  0.84029916371E+01  0.20804227070E+02  0.83838959779E+02  0.11700152734E+03  0.78466299079E+02 0.  0.
         23    2    1    2    0    0  0.29938341529E+02 -0.61876783882E+02  0.74092374933E+02  0.13616467267E+03  0.91247451374E+02 0.  0.
        -11    1    3    3    0    0  0.40843809749E+02 -0.12374106244E+01  0.31481278963E+02  0.51583126165E+02  0.00000000000E+00 0.  1.
         12    1    3    3    0    0 -0.32440818112E+02  0.22041637695E+02  0.52357680817E+02  0.65418401177E+02  0.00000000000E+00 0. -1.
        -11    1    4    4    0    0  0.13468616209E+02 -0.27802930995E+02  0.89967916537E+02  0.95124300789E+02  0.00000000000E+00 0.  1.
         11    1    4    4    0    0  0.16469725320E+02 -0.34073852887E+02 -0.15875541604E+02  0.41040371878E+02  0.00000000000E+00 0. -1.
         -4    1    1    2    0  502 -0.38341333166E+02  0.41072556812E+02  0.12521054950E+03  0.13723955136E+03  0.00000000000E+00 0.  1.
<scales pt_clust_5="13000.00000" pt_clust_6="13000.00000" pt_clust_7="13000.00000" pt_clust_8="13000.00000" pt_clust_9="13000.00000"></scales>
<clustering>
<clus scale="   78.466">  5  6 -1 -1</clus>
<clus scale="   81.611">  1  5  2 -1</clus>
<clus scale="   91.247">  7  8 -1 -1</clus>
<clus scale="   62.476">  7  9 -1 -1</clus>
<clus scale="  187.158">  2  5  1 -1</clus>
</clustering>
</event>
<event>
 9    2  0.3897980E-005  0.3249890E+03  0.7546771E-02  0.1100574E+00
         -1   -1    0    0    0  501 -0.00000000000E+00  0.00000000000E+00  0.13368034414E+03  0.13368034414E+03  0.00000000000E+00 0.  1.
         21   -1    0    0  501  502  0.00000000000E+00 -0.00000000000E+00 -0.45901640951E+03  0.45901640951E+03  0.00000000000E+00 0.  1.
         24    2    1    2    0    0 -0.11162260698E+03  0.77010264683E+02 -0.17203282032E+03  0.23336439920E+03  0.80457841715E+02 0.  0.
         23    2    1    2    0    0 -0.72191430517E+02  0.11587092424E+02 -0.25376054912E+02  0.11849535969E+03  0.89729274795E+02 0.  0.
        -11    1    3    3    0    0 -0.10976718228E+03  0.91402374454E+02 -0.15148226212E+03  0.20820687813E+03  0.00000000000E+00 0.  1.
         12    1    3    3    0    0 -0.18554246941E+01 -0.14392109770E+02 -0.20550558194E+02  0.25157521073E+02  0.00000000000E+00 0. -1.
        -11    1    4    4    0    0 -0.22074711760E+02  0.45175542636E+02  0.57496419013E+01  0.50608111343E+02  0.00000000000E+00 0. -1.
         11    1    4    4    0    0 -0.50116718757E+02 -0.33588450212E+02 -0.31125696813E+02  0.67887248351E+02  0.00000000000E+00 0.  1.
         -2    1    1    2    0  502  0.18381403749E+03 -0.88597357107E+02 -0.12792719014E+03  0.24083699475E+03  0.00000000000E+00 0.  1.
<scales pt_clust_5="13000.00000" pt_clust_6="13000.00000" pt_clust_7="13000.00000" pt_clust_8="13000.00000" pt_clust_9="13000.00000"></scales>
<clustering>
<clus scale="   80.458">  5  6 -1 -1</clus>
<clus scale="   89.729">  7  8 -1 -1</clus>
<clus scale="  157.682">  1  5  2 -1</clus>
<clus scale="  131.123">  7  9 -1 -1</clus>
<clus scale="  324.989">  2  5  1 -1</clus>
</clustering>
</event>
<event>
 9    2  0.5897780E-005  0.3625651E+03  0.7546771E-02  0.1072553E+00
          2   -1    0    0  502    0 -0.00000000000E+00  0.00000000000E+00  0.62143343457E+03  0.62143343457E+03  0.00000000000E+00 0. -1.
         21   -1    0    0  501  502  0.00000000000E+00 -0.00000000000E+00 -0.17010076229E+03  0.17010076229E+03  0.00000000000E+00 0. -1.
         24    2    1    2    0    0 -0.13776918701E+03 -0.17854889841E+03  0.39093155243E+02  0.24253976659E+03  0.80232197891E+02 0.  0.
         23    2    1    2    0    0 -0.60812036558E+02  0.36568391683E+02  0.12114335122E+03  0.16908661988E+03  0.94229626015E+02 0.  0.
        -13    1    3    3    0    0 -0.22395847427E+02 -0.52137334547E+01 -0.14940081097E+02  0.27421944163E+02  0.00000000000E+00 0.  1.
         14    1    3    3    0    0 -0.11537333958E+03 -0.17333516496E+03  0.54033236340E+02  0.21511782243E+03  0.00000000000E+00 0. -1.
        -13    1    4    4    0    0 -0.73450811617E+02  0.57294367415E+02  0.10228282935E+03  0.13834537739E+03  0.00000000000E+00 0. -1.
         13    1    4    4    0    0  0.12638775059E+02 -0.20725975732E+02  0.18860521866E+02  0.30741242495E+02  0.00000000000E+00 0.  1.
          1    1    1    2  501    0  0.19858122356E+03  0.14198050673E+03  0.29109616582E+03  0.37990781039E+03  0.00000000000E+00 0. -1.
<scales pt_clust_5="13000.00000" pt_clust_6="13000.00000" pt_clust_7="13000.00000" pt_clust_8="13000.00000" pt_clust_9="13000.00000"></scales>
<clustering>
<clus scale="   80.232">  5  6 -1 -1</clus>
<clus scale="   94.230">  7  8 -1 -1</clus>
<clus scale="  239.369">  1  5  2 -1</clus>
<clus scale="  103.867">  7  9 -1 -1</clus>
<clus scale="  362.565">  2  5  1 -1</clus>
</clustering>
</event>
<event>
 9    2  0.3897980E-005  0.2485290E+03  0.7546771E-02  0.1159445E+00
         -1   -1    0    0    0  501 -0.00000000000E+00  0.00000000000E+00  0.47235974292E+02  0.47235974292E+02  0.00000000000E+00 0.  1.
         21   -1    0    0  501  502  0.00000000000E+00 -0.00000000000E+00 -0.61272164472E+03  0.61272164472E+03  0.00000000000E+00 0.  1.
         24    2    1    2    0    0 -0.22397361882E+02  0.58980878344E+01 -0.83743588649E+02  0.11788559702E+03  0.79671802323E+02 0.  0.
         23    2    1    2    0    0 -0.45141322070E+02 -0.87023965358E+02 -0.33832582759E+03  0.36399590400E+03  0.91748258885E+02 0.  0.
        -11    1    3    3    0    0  0.16914505520E+02 -0.26395677070E+02 -0.39763394680E+02  0.50635558864E+02  0.00000000000E+00 0.  1.
         12    1    3    3    0    0 -0.39311867402E+02  0.32293764905E+02 -0.43980193969E+02  0.67250038156E+02  0.00000000000E+00 0. -1.
        -13    1    4    4    0    0 -0.45019974139E+02  0.29463962510E+00 -0.87449479185E+02  0.98358000659E+02  0.00000000000E+00 0. -1.
         13    1    4    4    0    0 -0.12134793106E+00 -0.87318604983E+02 -0.25087634841E+03  0.26563790334E+03  0.00000000000E+00 0.  1.
         -2    1    1    2    0  502  0.67538683952E+02  0.81125877523E+02 -0.14341625419E+03  0.17807611799E+03  0.00000000000E+00 0.  1.
<scales pt_clust_5="13000.00000" pt_clust_6="13000.00000" pt_clust_7="13000.00000" pt_clust_8="13000.00000" pt_clust_9="13000.00000"></scales>
<clustering>
<clus scale="   79.672">  5  6 -1 -1</clus>
<clus scale="   82.970">  1  5  2 -1</clus>
<clus scale="   91.748">  7  8 -1 -1</clus>
<clus scale="  100.656">  7  9 -1 -1</clus>
<clus scale="  248.529">  2  5  1 -1</clus>
</clustering>
</event>
<event>
 9    2  0.3897980E-005  0.2516736E+03  0.7546771E-02  0.1148131E+00
          2   -1    0    0  502    0 -0.00000000000E+00  0.00000000000E+00  0.22905580378E+03  0.22905580378E+03  0.00000000000E+00 0. -1.
         21   -1    0    0  501  502  0.00000000000E+00 -0.00000000000E+00 -0.14066621270E+03  0.14066621270E+03  0.00000000000E+00 0. -1.
         24    2    1    2    0    0  0.32075242649E+02 -0.57939389705E+02  0.42711049211E+01  0.10436280281E+03  0.80545379777E+02 0.  0.
         23    2    1    2    0    0 -0.47006049279E+02 -0.45931231950E+02  0.72181674234E+02  0.15974424073E+03  0.12644675407E+03 0.  0.
        -13    1    3    3    0    0  0.39499562405E+02 -0.73685494734E+02  0.13454378522E+02  0.84680504638E+02  0.00000000000E+00 0.  1.
         14    1    3    3    0    0 -0.74243197559E+01  0.15746105029E+02 -0.91832736012E+01  0.19682298175E+02  0.00000000000E+00 0. -1.
        -11    1    4    4    0    0 -0.20080747041E+01 -0.83606737485E+02  0.46432874716E+02  0.95656315898E+02  0.00000000000E+00 0. -1.
         11    1    4    4    0    0 -0.44997974575E+02  0.37675505535E+02  0.25748799518E+02  0.64087924836E+02  0.00000000000E+00 0.  1.
          1    1    1    2  501    0  0.14930806629E+02  0.10387062165E+03  0.11936811929E+02  0.10561497294E+03  0.00000000000E+00 0. -1.
<scales pt_clust_5="13000.00000" pt_clust_6="13000.00000" pt_clust_7="13000.00000" pt_clust_8="13000.00000" pt_clust_9="13000.00000"></scales>
<clustering>
<clus scale="   80.545">  5  6 -1 -1</clus>
<clus scale="  104.275">  1  5  2 -1</clus>
<clus scale="  126.447">  7  8 -1 -1</clus>
<clus scale="   88.215">  7  9 -1 -1</clus>
<clus scale="  251.674">  2  5  1 -1</clus>
</clustering>
</event>
<event>
 9    2  0.3897980E-005  0.1702392E+03  0.7546771E-02  0.1199030E+00
         -1   -1    0    0    0  501 -0.00000000000E+00  0.00000000000E+00  0.30905418742E+03  0.30905418742E+03  0.00000000000E+00 0.  1.
         21   -1    0    0  501  502  0.00000000000E+00 -0.00000000000E+00 -0.11800690645E+03  0.11800690645E+03  0.00000000000E+00 0. -1.
         24    2    1    2    0    0 -0.54121702135E+02  0.40854034407E+02  0.22931175997E+03  0.25257459203E+03  0.81313163183E+02 0.  0.
         23    2    1    2    0    0  0.85675695370E+02 -0.88511765876E+01 -0.23241603718E+02  0.12709953972E+03  0.90528739907E+02 0.  0.
        -13    1    3    3    0    0 -0.17800267456E+02  0.54689963266E+02  0.18449397140E+03  0.19325078806E+03  0.00000000000E+00 0.  1.
         14    1    3    3    0    0 -0.36321434679E+02 -0.13835928860E+02  0.44817788580E+02  0.59323803972E+02  0.00000000000E+00 0. -1.
        -11    1    4    4    0    0  0.82431508023E+02  0.12313525387E+02  0.13638232929E+02  0.84454590283E+02  0.00000000000E+00 0.  1.
         11    1    4    4    0    0  0.32441873466E+01 -0.21164701975E+02 -0.36879836647E+02  0.42644949435E+02  0.00000000000E+00 0. -1.
         -2    1    1    2    0  502 -0.31553993235E+02 -0.32002857819E+02 -0.15022875283E+02  0.47386962125E+02  0.00000000000E+00 0.  1.
<scales pt_clust_5="13000.00000" pt_clust_6="13000.00000" pt_clust_7="13000.00000" pt_clust_8="13000.00000" pt_clust_9="13000.00000"></scales>
<clustering>
<clus scale="   81.313">  5  6 -1 -1</clus>
<clus scale="   90.529">  7  8 -1 -1</clus>
<clus scale="   44.943">  7  9 -1 -1</clus>
<clus scale="  105.877">  1  5  2 -1</clus>
<clus scale="  170.239">  2  5  1 -1</clus>
</clustering>
</event>
<event>
 9    2  0.3897980E-005  0.1621438E+03  0.7546771E-02  0.1213469E+00
          2   -1    0    0  502    0 -0.00000000000E+00  0.00000000000E+00  0.48194036781E+03  0.48194036781E+03  0.00000000000E+00 0. -1.
         21   -1    0    0  501  502  0.00000000000E+00 -0.00000000000E+00 -0.11240635248E+03  0.11240635248E+03  0.00000000000E+00 0. -1.
         24    2    1    2    0    0  0.83067005593E+01  0.27335047818E+02  0.41606677172E+03  0.42565791245E+03  0.85187403947E+02 0.  0.
         23    2    1    2    0    0 -0.26291952472E+02  0.10054568577E+02  0.14414131511E+02  0.94959737273E+02  0.89538949077E+02 0.  0.
        -11    1    3    3    0    0 -0.14091672014E+02  0.18073995852E+02  0.25287561841E+02  0.34127779449E+02  0.00000000000E+00 0.  1.
         12    1    3    3    0    0  0.22398372573E+02  0.92610519659E+01  0.39077920988E+03  0.39153013300E+03  0.00000000000E+00 0. -1.
        -11    1    4    4    0    0  0.28741259544E+02  0.16388233449E+02 -0.97944733049E+01  0.34504578001E+02  0.00000000000E+00 0. -1.
         11    1    4    4    0    0 -0.55033212016E+02 -0.63336648713E+01  0.24208604816E+02  0.60455159272E+02  0.00000000000E+00 0.  1.
          1    1    1    2  501    0  0.17985251913E+02 -0.37389616395E+02 -0.60946887907E+02  0.73729070563E+02  0.00000000000E+00 0. -1.
<scales pt_clust_5="13000.00000" pt_clust_6="13000.00000" pt_clust_7="13000.00000" pt_clust_8="13000.00000" pt_clust_9="13000.00000"></scales>
<clustering>
<clus scale="   85.187">  5  6 -1 -1</clus>
<clus scale="   89.539">  7  8 -1 -1</clus>
<clus scale="   41.490">  7  9 -1 -1</clus>
<clus scale="   89.850">  1  5  2 -1</clus>
<clus scale="  162.144">  2  5  1 -1</clus>
</clustering>
</event>
<event>
 9    2  0.3897980E-005  0.2007757E+03  0.7546771E-02  0.1173973E+00
         21   -1    0    0  501  502  0.00000000000E+00  0.00000000000E+00  0.14066939986E+02  0.14066939986E+02  0.00000000000E+00 0. -1.
          2   -1    0    0  502    0 -0.00000000000E+00 -0.00000000000E+00 -0.17565435150E+04  0.17565435150E+04  0.00000000000E+00 0. -1.
         24    2    1    2    0    0  0.17957005756E+02 -0.79000338956E+02 -0.69382938476E+03  0.70291582840E+03  0.78281153774E+02 0.  0.
         23    2    1    2    0    0 -0.48421178169E+02  0.35730150482E-01 -0.36432442355E+03  0.37815773543E+03  0.89030194316E+02 0.  0.
        -11    1    3    3    0    0  0.16332850565E+02 -0.23609576586E+02 -0.58401144610E+02  0.65075861930E+02  0.00000000000E+00 0.  1.
         12    1    3    3    0    0  0.16241551912E+01 -0.55390762370E+02 -0.63542824015E+03  0.63783996647E+03  0.00000000000E+00 0. -1.
        -11    1    4    4    0    0 -0.32854924379E+02 -0.39780936785E+02 -0.12816956465E+03  0.13816441759E+03  0.00000000000E+00 0. -1.
         11    1    4    4    0    0 -0.15566253790E+02  0.39816666936E+02 -0.23615485891E+03  0.23999331784E+03  0.00000000000E+00 0.  1.
          1    1    1    2  501    0  0.30464172413E+02  0.78964608806E+02 -0.68432276669E+03  0.68953689115E+03  0.00000000000E+00 0. -1.
<scales pt_clust_5="13000.00000" pt_clust_6="13000.00000" pt_clust_7="13000.00000" pt_clust_8="13000.00000" pt_clust_9="13000.00000"></scales>
<clustering>
<clus scale="   78.281">  5  6 -1 -1</clus>
<clus scale="   89.030">  7  8 -1 -1</clus>
<clus scale="   84.637">  7  9 -1 -1</clus>
<clus scale="  112.656">  2  5  1 -1</clus>
<clus scale="  200.776">  1  5  2 -1</clus>
</clustering>
</event>
<event>
 9    2  0.3897980E-005  0.3982495E+03  0.7546771E-02  0.1081006E+00
         21   -1    0    0  501  502  0.00000000000E+00  0.00000000000E+00  0.81843065810E+02  0.81843065810E+02  0.00000000000E+00 0. -1.
          2   -1    0    0  502    0 -0.00000000000E+00 -0.00000000000E+00 -0.13669307813E+04  0.13669307813E+04  0.00000000000E+00 0. -1.
         24    2    1    2    0    0  0.11819353138E+03  0.10269438673E+02 -0.83721483274E+03  0.84944688765E+03  0.80970158371E+02 0.  0.
         23    2    1    2    0    0  0.42332026532E+02  0.10030420022E+02 -0.42387152848E+03  0.43575249936E+03  0.91217094015E+02 0.  0.
        -11    1    3    3    0    0  0.10661797928E+03  0.35968462393E+02 -0.59030744687E+03  0.60093594137E+03  0.00000000000E+00 0.  1.
         12    1    3    3    0    0  0.11575552099E+02 -0.25699023720E+02 -0.24690738586E+03  0.24851094628E+03  0.00000000000E+00 0. -1.
        -13    1    4    4    0    0  0.46024536403E+02  0.40622130107E+02 -0.35545811565E+03  0.36071995702E+03  0.00000000000E+00 0. -1.
         13    1    4    4    0    0 -0.36925098708E+01 -0.30591710085E+02 -0.68413412827E+02  0.75032542338E+02  0.00000000000E+00 0.  1.
          1    1    1    2  501    0 -0.16052555791E+03 -0.20299858695E+02 -0.24001354319E+02  0.16357446016E+03  0.00000000000E+00 0. -1.
<scales pt_clust_5="13000.00000" pt_clust_6="13000.00000" pt_clust_7="13000.00000" pt_clust_8="13000.00000" pt_clust_9="13000.00000"></scales>
<clustering>
<clus scale="   80.970">  5  6 -1 -1</clus>
<clus scale="   91.217">  7  8 -1 -1</clus>
<clus scale="  143.636">  2  5  1 -1</clus>
<clus scale="  140.572">  7  9 -1 -1</clus>
<clus scale="  398.250">  1  5  2 -1</clus>
</clustering>
</event>
<event>
 9    2  0.3897980E-005  0.1746448E+03  0.7546771E-02  0.1205187E+00
         21   -1    0    0  501  502  0.00000000000E+00  0.00000000000E+00  0.65747022041E+02  0.65747022041E+02  0.00000000000E+00 0. -1.
          2   -1    0    0  502    0 -0.00000000000E+00 -0.00000000000E+00 -0.56231386738E+03  0.56231386738E+03  0.00000000000E+00 0. -1.
         24    2    1    2    0    0  0.25060790786E+02  0.24904415187E+02 -0.43421885548E+03  0.44262064717E+03  0.78222437394E+02 0.  0.
         23    2    1    2    0    0 -0.23589572641E+02  0.34289209150E+02 -0.79258457606E+02  0.12386091485E+03  0.85600264740E+02 0.  0.
        -13    1    3    3    0    0  0.25742151237E+02  0.11846399565E+02 -0.44978391367E+02  0.53160617217E+02  0.00000000000E+00 0.  1.
         14    1    3    3    0    0 -0.68136045069E+00  0.13058015623E+02 -0.38924046411E+03  0.38946002995E+03  0.00000000000E+00 0. -1.
        -13    1    4    4    0    0  0.26651905270E+02 -0.66146902198E+01 -0.10529941592E+02  0.29410165779E+02  0.00000000000E+00 0.  1.
         13    1    4    4    0    0 -0.50241477911E+02  0.40903899369E+02 -0.68728516014E+02  0.94450749070E+02  0.00000000000E+00 0. -1.
          1    1    1    2  501    0 -0.14712181454E+01 -0.59193624337E+02  0.16910467744E+02  0.61579327410E+02  0.00000000000E+00 0. -1.
<scales pt_clust_5="13000.00000" pt_clust_6="13000.00000" pt_clust_7="13000.00000" pt_clust_8="13000.00000" pt_clust_9="13000.00000"></scales>
<clustering>
<clus scale="   78.222">  5  6 -1 -1</clus>
<clus scale="   85.600">  7  8 -1 -1</clus>
<clus scale="   59.212">  7  9 -1 -1</clus>
<clus scale="   85.831">  2  5  1 -1</clus>
<clus scale="  174.645">  1  5  2 -1</clus>
</clustering>
</event>
<event>
 9    2  0.3897980E-005  0.1836184E+03  0.7546771E-02  0.1194412E+00
          2   -1    0    0  502    0 -0.00000000000E+00  0.00000000000E+00  0.20403782821E+03  0.20403782821E+03  0.00000000000E+00 0. -1.
         21   -1    0    0  501  502  0.00000000000E+00 -0.00000000000E+00 -0.95954630772E+02  0.95954630772E+02  0.00000000000E+00 0.  1.
         24    2    1    2    0    0 -0.92866264138E+00  0.57340029703E+02  0.57151888948E+02  0.10944135656E+03  0.73636476661E+02 0.  0.
         23    2    1    2    0    0  0.59626678094E+02 -0.14644651618E+02  0.14150227782E+02  0.10918034461E+03  0.89164522888E+02 0.  0.
        -13    1    3    3    0    0 -0.14574245045E+02  0.66554151242E+02  0.62165050095E+02  0.92229914450E+02  0.00000000000E+00 0.  1.
         14    1    3    3    0    0  0.13645582403E+02 -0.92141215389E+01 -0.50131611470E+01  0.17211442111E+02  0.00000000000E+00 0. -1.
        -13    1    4    4    0    0  0.39568423546E+02 -0.37890018095E+02 -0.24337063499E+02  0.59946695263E+02  0.00000000000E+00 0.  1.
         13    1    4    4    0    0  0.20058254548E+02  0.23245366477E+02  0.38487291280E+02  0.49233649350E+02  0.00000000000E+00 0. -1.
          1    1    1    2  501    0 -0.58698015453E+02 -0.42695378085E+02  0.36781080703E+02  0.81370757804E+02  0.00000000000E+00 0. -1.
<scales pt_clust_5="13000.00000" pt_clust_6="13000.00000" pt_clust_7="13000.00000" pt_clust_8="13000.00000" pt_clust_9="13000.00000"></scales>
<clustering>
<clus scale="   73.636">  5  6 -1 -1</clus>
<clus scale="   89.165">  7  8 -1 -1</clus>
<clus scale="   72.583">  7  9 -1 -1</clus>
<clus scale="   93.333">  1  5  2 -1</clus>
<clus scale="  183.618">  2  5  1 -1</clus>
</clustering>
</event>
<event>
 9    2  0.3897980E-005  0.2291495E+03  0.7546771E-02  0.1147071E+00
         21   -1    0    0  501  502  0.00000000000E+00  0.00000000000E+00  0.58531378211E+02  0.58531378211E+02  0.00000000000E+00 0. -1.
          4   -1    0    0  502    0 -0.00000000000E+00 -0.00000000000E+00 -0.59056254922E+03  0.59056254922E+03  0.00000000000E+00 0. -1.
         24    2    1    2    0    0 -0.56342808518E+01  0.11647096311E+03 -0.22688896710E+03  0.26749037170E+03  0.80469032498E+02 0.  0.
         23    2    1    2    0    0 -0.48054636939E+01  0.10830800815E+02 -0.87418934059E+02  0.12917901334E+03  0.94364976175E+02 0.  0.
        -11    1    3    3    0    0 -0.23568324325E+02  0.41561477428E+01 -0.67999477495E+02  0.72087921424E+02  0.00000000000E+00 0.  1.
         12    1    3    3    0    0  0.17934043474E+02  0.11231481537E+03 -0.15888948960E+03  0.19540245027E+03  0.00000000000E+00 0. -1.
        -13    1    4    4    0    0  0.33940643440E+02  0.34659323219E+02 -0.54912196080E+02  0.73270630143E+02  0.00000000000E+00 0.  1.
         13    1    4    4    0    0 -0.38746107134E+02 -0.23828522404E+02 -0.32506737978E+02  0.55908383199E+02  0.00000000000E+00 0. -1.
          3    1    1    2  501    0  0.10439744546E+02 -0.12730176393E+03 -0.21772326985E+03  0.25242454239E+03  0.00000000000E+00 0. -1.
<scales pt_clust_5="13000.00000" pt_clust_6="13000.00000" pt_clust_7="13000.00000" pt_clust_8="13000.00000" pt_clust_9="13000.00000"></scales>
<clustering>
<clus scale="   80.469">  5  6 -1 -1</clus>
<clus scale="   94.365">  7  8 -1 -1</clus>
<clus scale="  127.729">  7  9 -1 -1</clus>
<clus scale="  141.677">  2  5  1 -1</clus>
<clus scale="  229.150">  1  5  2 -1</clus>
</clustering>
</event>
<event>
 9    2  0.3897980E-005  0.1907320E+03  0.7546771E-02  0.1190061E+00
         21   -1    0    0  501  502  0.00000000000E+00  0.00000000000E+00  0.13241355285E+03  0.13241355285E+03  0.00000000000E+00 0. -1.
          2   -1    0    0  502    0 -0.00000000000E+00 -0.00000000000E+00 -0.17662736375E+03  0.17662736375E+03  0.00000000000E+00 0. -1.
         24    2    1    2    0    0 -0.30308237311E+00  0.42498746288E+02 -0.71672110623E+02  0.11634255006E+03  0.81193978947E+02 0.  0.
         23    2    1    2    0    0  0.26366226006E+02 -0.35593805694E+01  0.78820405233E+02  0.12317407194E+03  0.90836934406E+02 0.  0.
        -11    1    3    3    0    0  0.12705329120E+02 -0.20443506573E+02 -0.67759985822E+01  0.25005529506E+02  0.00000000000E+00 0.  1.
         12    1    3    3    0    0 -0.13008411493E+02  0.62942252862E+02 -0.64896112041E+02  0.91337020550E+02  0.00000000000E+00 0. -1.
        -11    1    4    4    0    0  0.13993051906E+02  0.40557465404E+02  0.59719018986E+02  0.73532813969E+02  0.00000000000E+00 0. -1.
         11    1    4    4    0    0  0.12373174101E+02 -0.44116845973E+02  0.19101386246E+02  0.49641257966E+02  0.00000000000E+00 0.  1.
          1    1    1    2  501    0 -0.26063143633E+02 -0.38939365719E+02 -0.51362105513E+02  0.69524294612E+02  0.00000000000E+00 0. -1.
<scales pt_clust_5="13000.00000" pt_clust_6="13000.00000" pt_clust_7="13000.00000" pt_clust_8="13000.00000" pt_clust_9="13000.00000"></scales>
<clustering>
<clus scale="   81.194">  5  6 -1 -1</clus>
<clus scale="   90.837">  7  8 -1 -1</clus>
<clus scale="   46.857">  7  9 -1 -1</clus>
<clus scale="   91.644">  2  5  1 -1</clus>
<clus scale="  190.732">  1  5  2 -1</clus>
</clustering>
</event>
<event>
 9    2  0.3897980E-005  0.4190047E+03  0.7546771E-02  0.1085960E+00
          2   -1    0    0  502    0 -0.00000000000E+00  0.00000000000E+00  0.13869012677E+04  0.13869012677E+04  0.00000000000E+00 0. -1.
         21   -1    0    0  501  502  0.00000000000E+00 -0.00000000000E+00 -0.75345209580E+02  0.75345209580E+02  0.00000000000E+00 0. -1.
         24    2    1    2    0    0  0.72854214180E+02 -0.13437004002E+01  0.76991007567E+03  0.77745065410E+03  0.79739907706E+02 0.  0.
         23    2    1    2    0    0  0.98409893616E+02  0.70110280616E+02  0.42124137006E+02  0.15227135309E+03  0.82535831266E+02 0.  0.
        -11    1    3    3    0    0  0.14198007645E+02 -0.23076674572E+02  0.75238552418E+02  0.79968469414E+02  0.00000000000E+00 0.  1.
         12    1    3    3    0    0  0.58656206535E+02  0.21732974172E+02  0.69467152325E+03  0.69748218468E+03  0.00000000000E+00 0. -1.
        -11    1    4    4    0    0  0.19760334712E+02  0.59650966422E+02  0.36638711685E+02  0.72739973996E+02  0.00000000000E+00 0.  1.
         11    1    4    4    0    0  0.78649558904E+02  0.10459314194E+02  0.54854253216E+01  0.79531379091E+02  0.00000000000E+00 0. -1.
          1    1    1    2  501    0 -0.17126410780E+03 -0.68766580216E+02  0.49952184541E+03  0.53252447006E+03  0.00000000000E+00 0. -1.
<scales pt_clust_5="13000.00000" pt_clust_6="13000.00000" pt_clust_7="13000.00000" pt_clust_8="13000.00000" pt_clust_9="13000.00000"></scales>
<clustering>
<clus scale="   79.740">  5  6 -1 -1</clus>
<clus scale="   82.536">  7  8 -1 -1</clus>
<clus scale="  108.018">  1  5  2 -1</clus>
<clus scale="  130.293">  7  9 -1 -1</clus>
<clus scale="  419.005">  2  5  1 -1</clus>
</clustering>
</event>
<event>
 9    2  0.3897980E-005  0.4212748E+03  0.7546771E-02  0.1093625E+00
         21   -1    0    0  501  502  0.00000000000E+00  0.00000000000E+00  0.10646949640E+03  0.10646949640E+03  0.00000000000E+00 0.  1.
          2   -1    0    0  502    0 -0.00000000000E+00 -0.00000000000E+00 -0.76838596359E+03  0.76838596359E+03  0.00000000000E+00 0. -1.
         24    2    1    2    0    0  0.18195018034E+00  0.20023861193E+01 -0.32216912687E+03  0.33365239869E+03  0.86757905633E+02 0.  0.
         23    2    1    2    0    0  0.33012662179E+01  0.12251606776E+03  0.27948277545E+02  0.15298012849E+03  0.87182155723E+02 0.  0.
        -13    1    3    3    0    0  0.31874778228E+02 -0.23304385975E+02 -0.22370049819E+03  0.22715855429E+03  0.00000000000E+00 0.  1.
         14    1    3    3    0    0 -0.31692828048E+02  0.25306772095E+02 -0.98468628676E+02  0.10649384441E+03  0.00000000000E+00 0. -1.
        -11    1    4    4    0    0 -0.90984413211E+01  0.79876293577E+02  0.58200237876E+02  0.99248534493E+02  0.00000000000E+00 0.  1.
         11    1    4    4    0    0  0.12399707539E+02  0.42639774184E+02 -0.30251960331E+02  0.53731593997E+02  0.00000000000E+00 0. -1.
          1    1    1    2  501    0 -0.34832163982E+01 -0.12451845388E+03 -0.36769561787E+03  0.38822293280E+03  0.00000000000E+00 0. -1.
<scales pt_clust_5="13000.00000" pt_clust_6="13000.00000" pt_clust_7="13000.00000" pt_clust_8="13000.00000" pt_clust_9="13000.00000"></scales>
<clustering>
<clus scale="   86.758">  5  6 -1 -1</clus>
<clus scale="   86.781">  2  5  1 -1</clus>
<clus scale="   87.182">  7  8 -1 -1</clus>
<clus scale="  122.845">  7  9 -1 -1</clus>
<clus scale="  421.275">  1  5  2 -1</clus>
</clustering>
</event>
<event>
 9    2  0.3897980E-005  0.3337058E+03  0.7546771E-02  0.1119588E+00
         21   -1    0    0  501  502  0.00000000000E+00  0.00000000000E+00  0.29109465606E+02  0.29109465606E+02  0.00000000000E+00 0.  1.
          2   -1    0    0  502    0 -0.00000000000E+00 -0.00000000000E+00 -0.17414647720E+04  0.17414647720E+04  0.00000000000E+00 0. -1.
         24    2    1    2    0    0 -0.71912936571E+01 -0.41119997984E+02 -0.67312017121E+03  0.67907562140E+03  0.79437810537E+02 0.  0.
         23    2    1    2    0    0  0.17501530514E+02 -0.92442066987E+02 -0.18277970102E+03  0.22463009279E+03  0.90545127780E+02 0.  0.
        -13    1    3    3    0    0 -0.30457618558E+02 -0.30898573020E+02 -0.17465955637E+03  0.17996763313E+03  0.00000000000E+00 0.  1.
         14    1    3    3    0    0  0.23266324900E+02 -0.10221424964E+02 -0.49846061484E+03  0.49910798826E+03  0.00000000000E+00 0. -1.
        -11    1    4    4    0    0  0.48308352587E+02 -0.82874715013E+02 -0.11645236501E+03  0.15087434717E+03  0.00000000000E+00 0.  1.
         11    1    4    4    0    0 -0.30806822073E+02 -0.95673519742E+01 -0.66327336013E+02  0.73755745625E+02  0.00000000000E+00 0. -1.
          1    1    1    2  501    0 -0.10310236857E+02  0.13356206497E+03 -0.85645543415E+03  0.86686852340E+03  0.00000000000E+00 0. -1.
<scales pt_clust_5="13000.00000" pt_clust_6="13000.00000" pt_clust_7="13000.00000" pt_clust_8="13000.00000" pt_clust_9="13000.00000"></scales>
<clustering>
<clus scale="   79.438">  5  6 -1 -1</clus>
<clus scale="   89.738">  2  5  1 -1</clus>
<clus scale="   90.545">  7  8 -1 -1</clus>
<clus scale="  101.593">  7  9 -1 -1</clus>
<clus scale="  333.706">  1  5  2 -1</clus>
</clustering>
</event>
<event>
 9    2  0.3897980E-005  0.1601936E+03  0.7546771E-02  0.1207404E+00
          2   -1    0    0  502    0 -0.00000000000E+00  0.00000000000E+00  0.67319351796E+03  0.67319351796E+03  0.00000000000E+00 0. -1.
         21   -1    0    0  501  502  0.00000000000E+00 -0.00000000000E+00 -0.68047373994E+02  0.68047373994E+02  0.00000000000E+00 0.  1.
         24    2    1    2    0    0  0.48808691146E+02 -0.47726306132E+02  0.56664878416E+03  0.57648637119E+03  0.81151727921E+02 0.  0.
         23    2    1    2    0    0 -0.30288488235E+01 -0.58584630998E+01  0.37988372919E+02  0.94274874597E+02  0.86029878462E+02 0.  0.
        -11    1    3    3    0    0  0.48327194461E+01 -0.52638335465E+02  0.18895756731E+03  0.19621190530E+03  0.00000000000E+00 0.  1.
         12    1    3    3    0    0  0.43975971700E+02  0.49120293329E+01  0.37769121685E+03  0.38027446589E+03  0.00000000000E+00 0. -1.
        -11    1    4    4    0    0  0.17829342452E+02  0.31078053290E+02  0.37483201110E+02  0.51852880480E+02  0.00000000000E+00 0. -1.
         11    1    4    4    0    0 -0.20858191276E+02 -0.36936516390E+02  0.50517180926E+00  0.42421994117E+02  0.00000000000E+00 0.  1.
          1    1    1    2  501    0 -0.45779842323E+02  0.53584769232E+02  0.50898688580E+00  0.70479646171E+02  0.00000000000E+00 0. -1.
<scales pt_clust_5="13000.00000" pt_clust_6="13000.00000" pt_clust_7="13000.00000" pt_clust_8="13000.00000" pt_clust_9="13000.00000"></scales>
<clustering>
<clus scale="   81.152">  5  6 -1 -1</clus>
<clus scale="   86.030">  7  8 -1 -1</clus>
<clus scale="   70.478">  7  9 -1 -1</clus>
<clus scale="  106.046">  1  5  2 -1</clus>
<clus scale="  160.194">  2  5  1 -1</clus>
</clustering>
</event>
<event>
 9    2  0.3897980E-005  0.9280974E+03  0.7546771E-02  0.9801934E-01
          2   -1    0    0  502    0 -0.00000000000E+00  0.00000000000E+00  0.37479883614E+03  0.37479883614E+03  0.00000000000E+00 0. -1.
         21   -1    0    0  501  502  0.00000000000E+00 -0.00000000000E+00 -0.90987627781E+03  0.90987627781E+03  0.00000000000E+00 0. -1.
         24    2    1    2    0    0 -0.39474356512E+02  0.20441702501E+03 -0.32347033528E+02  0.22916453108E+03  0.90141592997E+02 0.  0.
         23    2    1    2    0    0  0.22767113481E+03  0.28455921718E+03 -0.85516886297E+02  0.38574725482E+03  0.93164977597E+02 0.  0.
        -13    1    3    3    0    0 -0.56305219206E+01  0.15687506383E+03  0.96401192250E+01  0.15727180398E+03  0.00000000000E+00 0.  1.
         14    1    3    3    0    0 -0.33843834591E+02  0.47541961184E+02 -0.41987152753E+02  0.71892727096E+02  0.00000000000E+00 0. -1.
        -11    1    4    4    0    0  0.16433515284E+03  0.16319983619E+03 -0.15845504515E+02  0.23214501718E+03  0.00000000000E+00 0. -1.
         11    1    4    4    0    0  0.63335981976E+02  0.12135938099E+03 -0.69671381782E+02  0.15360223764E+03  0.00000000000E+00 0.  1.
          1    1    1    2  501    0 -0.18819677830E+03 -0.48897624219E+03 -0.41721352184E+03  0.66976332805E+03  0.00000000000E+00 0. -1.
<scales pt_clust_5="13000.00000" pt_clust_6="13000.00000" pt_clust_7="13000.00000" pt_clust_8="13000.00000" pt_clust_9="13000.00000"></scales>
<clustering>
<clus scale="   90.142">  5  6 -1 -1</clus>
<clus scale="   93.165">  7  8 -1 -1</clus>
<clus scale="  226.870">  1  5  2 -1</clus>
<clus scale="  446.115">  7  9 -1 -1</clus>
<clus scale="  928.097">  2  5  1 -1</clus>
</clustering>
</event>
<event>
 9    2  0.3897980E-005  0.3243468E+03  0.7546771E-02  0.1122893E+00
          2   -1    0    0  502    0 -0.00000000000E+00  0.00000000000E+00  0.82828010862E+03  0.82828010862E+03  0.00000000000E+00 0. -1.
         21   -1    0    0  501  502  0.00000000000E+00 -0.00000000000E+00 -0.59088156560E+02  0.59088156560E+02  0.00000000000E+00 0. -1.
         24    2    1    2    0    0  0.22245232311E+02 -0.36854037532E+02  0.61829767801E+02  0.10918954631E+03  0.79033957222E+02 0.  0.
         23    2    1    2    0    0 -0.32414589056E+02 -0.12852330665E+03  0.32586511878E+03  0.36225433541E+03  0.86435999175E+02 0.  0.
        -11    1    3    3    0    0 -0.41241376894E+01  0.21223284868E+02  0.19585674735E+01  0.21708807402E+02  0.00000000000E+00 0.  1.
         12    1    3    3    0    0  0.26369370001E+02 -0.58077322400E+02  0.59871200328E+02  0.87480738909E+02  0.00000000000E+00 0. -1.
        -11    1    4    4    0    0  0.12129316145E+02 -0.24649367891E+02  0.15483797425E+03  0.15725619198E+03  0.00000000000E+00 0.  1.
         11    1    4    4    0    0 -0.44543905201E+02 -0.10387393876E+03  0.17102714453E+03  0.20499814343E+03  0.00000000000E+00 0. -1.
          1    1    1    2  501    0  0.10169356745E+02  0.16537734418E+03  0.38149706548E+03  0.41592438346E+03  0.00000000000E+00 0. -1.
<scales pt_clust_5="13000.00000" pt_clust_6="13000.00000" pt_clust_7="13000.00000" pt_clust_8="13000.00000" pt_clust_9="13000.00000"></scales>
<clustering>
<clus scale="   79.034">  5  6 -1 -1</clus>
<clus scale="   86.436">  7  8 -1 -1</clus>
<clus scale="   89.997">  1  5  2 -1</clus>
<clus scale="  147.264">  7  9 -1 -1</clus>
<clus scale="  324.347">  2  5  1 -1</clus>
</clustering>
</event>
<event>
 9    2  0.4699516E-005  0.3635791E+03  0.7546771E-02  0.1113214E+00
          2   -1    0    0  502    0 -0.00000000000E+00  0.00000000000E+00  0.54369235595E+03  0.54369235595E+03  0.00000000000E+00 0. -1.
         21   -1    0    0  501  502  0.00000000000E+00 -0.00000000000E+00 -0.10152595790E+03  0.10152595790E+03  0.00000000000E+00 0. -1.
         24    2    1    2    0    0 -0.83303230627E+01 -0.15487185027E+02  0.12581656559E+02  0.82428087979E+02  0.79541463550E+02 0.  0.
         23    2    1    2    0    0 -0.33537287730E+02  0.41721437392E+02  0.48000542403E+03  0.49219718047E+03  0.94802053592E+02 0.  0.
        -13    1    3    3    0    0  0.26730209125E+02  0.18045946123E+02 -0.22071949791E+00  0.32252270749E+02  0.00000000000E+00 0.  1.
         14    1    3    3    0    0 -0.35060532188E+02 -0.33533131151E+02  0.12802376057E+02  0.50175817230E+02  0.00000000000E+00 0. -1.
        -13    1    4    4    0    0 -0.30924380242E+02 -0.24034654124E+02  0.12010467944E+03  0.12632939450E+03  0.00000000000E+00 0.  1.
         13    1    4    4    0    0 -0.26129074880E+01  0.65756091516E+02  0.35990074458E+03  0.36586778597E+03  0.00000000000E+00 0. -1.
          1    1    1    2  501    0  0.41867610793E+02 -0.26234252365E+02 -0.50420682534E+02  0.70593045392E+02  0.00000000000E+00 0. -1.
<scales pt_clust_5="13000.00000" pt_clust_6="13000.00000" pt_clust_7="13000.00000" pt_clust_8="13000.00000" pt_clust_9="13000.00000"></scales>
<clustering>
<clus scale="   79.541">  5  6 -1 -1</clus>
<clus scale="   81.462">  1  5  2 -1</clus>
<clus scale="   94.802">  7  8 -1 -1</clus>
<clus scale="   49.433">  7  9 -1 -1</clus>
<clus scale="  363.579">  2  5  1 -1</clus>
</clustering>
</event>
<event>
 9    2  0.3897980E-005  0.1987329E+03  0.7546771E-02  0.1158259E+00
         21   -1    0    0  501  502  0.00000000000E+00  0.00000000000E+00  0.36637395950E+02  0.36637395950E+02  0.00000000000E+00 0. -1.
          2   -1    0    0  502    0 -0.00000000000E+00 -0.00000000000E+00 -0.91188176942E+03  0.91188176942E+03  0.00000000000E+00 0. -1.
         24    2    1    2    0    0 -0.12240844922E+03 -0.55453387561E+02 -0.39638610711E+03  0.43005990306E+03  0.98846687763E+02 0.  0.
         23    2    1    2    0    0  0.71866114617E+02  0.77046404025E+02 -0.28822390982E+03  0.32006005908E+03  0.90909473785E+02 0.  0.
        -13    1    3    3    0    0 -0.15998368867E+01  0.21550069484E+02 -0.77781220380E+02  0.80727214844E+02  0.00000000000E+00 0.  1.
         14    1    3    3    0    0 -0.12080861233E+03 -0.77003457045E+02 -0.31860488673E+03  0.34933268822E+03  0.00000000000E+00 0. -1.
        -13    1    4    4    0    0  0.44752058772E+02  0.73904143874E+02 -0.27766033748E+03  0.29079173348E+03  0.00000000000E+00 0.  1.
         13    1    4    4    0    0  0.27114055845E+02  0.31422601507E+01 -0.10563572335E+02  0.29268325605E+02  0.00000000000E+00 0. -1.
          1    1    1    2  501    0  0.50542334601E+02 -0.21593016464E+02 -0.19063435654E+03  0.19839920323E+03  0.00000000000E+00 0. -1.
<scales pt_clust_5="13000.00000" pt_clust_6="13000.00000" pt_clust_7="13000.00000" pt_clust_8="13000.00000" pt_clust_9="13000.00000"></scales>
<clustering>
<clus scale="   90.909">  7  8 -1 -1</clus>
<clus scale="   54.962">  7  9 -1 -1</clus>
<clus scale="   98.847">  5  6 -1 -1</clus>
<clus scale="  166.822">  2  5  1 -1</clus>
<clus scale="  198.733">  1  5  2 -1</clus>
</clustering>
</event>
<event>
 9    2  0.3897980E-005  0.2502330E+03  0.7546771E-02  0.1133009E+00
          2   -1    0    0  502    0 -0.00000000000E+00  0.00000000000E+00  0.11029353473E+04  0.11029353473E+04  0.00000000000E+00 0. -1.
         21   -1    0    0  501  502  0.00000000000E+00 -0.00000000000E+00 -0.38798268217E+02  0.38798268217E+02  0.00000000000E+00 0.  1.
         24    2    1    2    0    0 -0.94016893816E+02 -0.88871045145E+02  0.53565243532E+03  0.55700071097E+03  0.81172788390E+02 0.  0.
         23    2    1    2    0    0 -0.17608689792E+02 -0.20084709870E+02  0.12935676977E+03  0.15620672417E+03  0.83390078929E+02 0.  0.
        -13    1    3    3    0    0 -0.99786075120E+02 -0.76478621315E+02  0.52450426274E+03  0.53936162446E+03  0.00000000000E+00 0.  1.
         14    1    3    3    0    0  0.57691813034E+01 -0.12392423830E+02  0.11148172581E+02  0.17639086518E+02  0.00000000000E+00 0. -1.
        -11    1    4    4    0    0  0.23345090288E+02 -0.33250616248E+02  0.39898914875E+02  0.56943130663E+02  0.00000000000E+00 0.  1.
         11    1    4    4    0    0 -0.40953780081E+02  0.13165906378E+02  0.89457854892E+02  0.99263593505E+02  0.00000000000E+00 0. -1.
          1    1    1    2  501    0  0.11162558361E+03  0.10895575502E+03  0.39912787403E+03  0.42852618041E+03  0.00000000000E+00 0. -1.
<scales pt_clust_5="13000.00000" pt_clust_6="13000.00000" pt_clust_7="13000.00000" pt_clust_8="13000.00000" pt_clust_9="13000.00000"></scales>
<clustering>
<clus scale="   81.173">  5  6 -1 -1</clus>
<clus scale="   83.390">  7  8 -1 -1</clus>
<clus scale="  152.729">  1  5  2 -1</clus>
<clus scale="   59.832">  7  9 -1 -1</clus>
<clus scale="  250.233">  2  5  1 -1</clus>
</clustering>
</event>
<event>
 9    2  0.3897980E-005  0.2162121E+03  0.7546771E-02  0.1181288E+00
         21   -1    0    0  501  502  0.00000000000E+00  0.00000000000E+00  0.19245943050E+02  0.19245943050E+02  0.00000000000E+00 0. -1.
          2   -1    0    0  502    0 -0.00000000000E+00 -0.00000000000E+00 -0.11939497430E+04  0.11939497430E+04  0.00000000000E+00 0. -1.
         24    2    1    2    0    0 -0.11812748024E+02 -0.21825347925E+02 -0.18566339407E+03  0.20079824028E+03  0.72340518198E+02 0.  0.
         23    2    1    2    0    0  0.93672375592E+02  0.70708516022E+01 -0.51892972830E+03  0.53498489571E+03  0.89979246641E+02 0.  0.
        -11    1    3    3    0    0  0.97544252137E+01  0.23189604318E+02 -0.45199028686E+02  0.51728703384E+02  0.00000000000E+00 0.  1.
         12    1    3    3    0    0 -0.21567173238E+02 -0.45014952243E+02 -0.14046436539E+03  0.14906953689E+03  0.00000000000E+00 0. -1.
        -11    1    4    4    0    0  0.18035664065E+01 -0.29628564143E+02 -0.15683579622E+03  0.15962008534E+03  0.00000000000E+00 0.  1.
         11    1    4    4    0    0  0.91868809186E+02  0.36699415745E+02 -0.36209393208E+03  0.37536481037E+03  0.00000000000E+00 0. -1.
          1    1    1    2  501    0 -0.81859627568E+02  0.14754496322E+02 -0.47011067757E+03  0.47741255006E+03  0.00000000000E+00 0. -1.
<scales pt_clust_5="13000.00000" pt_clust_6="13000.00000" pt_clust_7="13000.00000" pt_clust_8="13000.00000" pt_clust_9="13000.00000"></scales>
<clustering>
<clus scale="   72.341">  5  6 -1 -1</clus>
<clus scale="   76.479">  2  5  1 -1</clus>
<clus scale="   89.979">  7  8 -1 -1</clus>
<clus scale="   87.564">  7  9 -1 -1</clus>
<clus scale="  216.212">  1  5  2 -1</clus>
</clustering>
</event>
<event>
 9    2  0.3897980E-005  0.7197672E+03  0.7546771E-02  0.1017777E+00
         21   -1    0    0  501  502  0.00000000000E+00  0.00000000000E+00  0.29485392842E+03  0.29485392842E+03  0.00000000000E+00 0. -1.
          2   -1    0    0  502    0 -0.00000000000E+00 -0.00000000000E+00 -0.12760964093E+04  0.12760964093E+04  0.00000000000E+00 0. -1.
         24    2    1    2    0    0 -0.10592311739E+03 -0.66105362301E+02 -0.82004119698E+03  0.83335246719E+03  0.80119561309E+02 0.  0.
         23    2    1    2    0    0  0.28014671553E+03  0.30444158301E+03 -0.76644289785E+02  0.43050195473E+03  0.91053424891E+02 0.  0.
        -13    1    3    3    0    0 -0.10339976353E+01 -0.21090162771E+02 -0.42269654888E+02  0.47250268160E+02  0.00000000000E+00 0.  1.
         14    1    3    3    0    0 -0.10488911976E+03 -0.45015199530E+02 -0.77777154209E+03  0.78610219903E+03  0.00000000000E+00 0. -1.
        -13    1    4    4    0    0  0.15648057406E+03  0.17473378328E+03  0.25434151203E+01  0.23457308890E+03  0.00000000000E+00 0.  1.
         13    1    4    4    0    0  0.12366614147E+03  0.12970779973E+03 -0.79187704905E+02  0.19592886583E+03  0.00000000000E+00 0. -1.
          1    1    1    2  501    0 -0.17422359814E+03 -0.23833622071E+03 -0.84556994128E+02  0.30709591581E+03  0.00000000000E+00 0. -1.
<scales pt_clust_5="13000.00000" pt_clust_6="13000.00000" pt_clust_7="13000.00000" pt_clust_8="13000.00000" pt_clust_9="13000.00000"></scales>
<clustering>
<clus scale="   80.120">  5  6 -1 -1</clus>
<clus scale="   91.053">  7  8 -1 -1</clus>
<clus scale="  148.354">  2  5  1 -1</clus>
<clus scale="  346.312">  7  9 -1 -1</clus>
<clus scale="  719.767">  1  5  2 -1</clus>
</clustering>
</event>
<event>
 9    2  0.3897980E-005  0.2786681E+03  0.7546771E-02  0.1134309E+00
          2   -1    0    0  502    0 -0.00000000000E+00  0.00000000000E+00  0.52595180505E+03  0.52595180505E+03  0.00000000000E+00 0. -1.
         21   -1    0    0  501  502  0.00000000000E+00 -0.00000000000E+00 -0.27998215233E+03  0.27998215233E+03  0.00000000000E+00 0. -1.
         24    2    1    2    0    0 -0.37830096078E+02  0.60619732809E+02  0.44870786348E+03  0.46132012673E+03  0.79822580800E+02 0.  0.
         23    2    1    2    0    0  0.16235568590E+01 -0.98290237080E+02  0.92168167566E+00  0.13435843318E+03  0.91584564351E+02 0.  0.
        -11    1    3    3    0    0 -0.46162175016E+01  0.42255204848E+02  0.79354217830E+02  0.90021684544E+02  0.00000000000E+00 0.  1.
         12    1    3    3    0    0 -0.33213878577E+02  0.18364527961E+02  0.36935364565E+03  0.37129844219E+03  0.00000000000E+00 0. -1.
        -11    1    4    4    0    0 -0.33715704825E+02 -0.92259924267E+02 -0.31491513285E+01  0.98277970734E+02  0.00000000000E+00 0. -1.
         11    1    4    4    0    0  0.35339261683E+02 -0.60303128134E+01  0.40708330041E+01  0.36080462446E+02  0.00000000000E+00 0.  1.
          1    1    1    2  501    0  0.36206539219E+02  0.37670504271E+02 -0.20365989243E+03  0.21025539746E+03  0.00000000000E+00 0. -1.
<scales pt_clust_5="13000.00000" pt_clust_6="13000.00000" pt_clust_7="13000.00000" pt_clust_8="13000.00000" pt_clust_9="13000.00000"></scales>
<clustering>
<clus scale="   79.823">  5  6 -1 -1</clus>
<clus scale="   91.585">  7  8 -1 -1</clus>
<clus scale="   52.249">  7  9 -1 -1</clus>
<clus scale="  107.133">  1  5  2 -1</clus>
<clus scale="  278.668">  2  5  1 -1</clus>
</clustering>
</event>
<event>
 9    2  0.3897980E-005  0.2339961E+03  0.7546771E-02  0.1154659E+00
         21   -1    0    0  501  502  0.00000000000E+00  0.00000000000E+00  0.22011607174E+02  0.22011607174E+02  0.00000000000E+00 0.  1.
          2   -1    0    0  502    0 -0.00000000000E+00 -0.00000000000E+00 -0.14056198404E+04  0.14056198404E+04  0.00000000000E+00 0. -1.
         24    2    1    2    0    0 -0.72383993104E+02 -0.24999625160E+02 -0.58389383616E+03  0.59438641699E+03  0.80614992951E+02 0.  0.
         23    2    1    2    0    0 -0.46189085740E+01 -0.65262079130E+02 -0.32351514060E+03  0.34248811113E+03  0.91408898791E+02 0.  0.
        -13    1    3    3    0    0 -0.98500688080E+01 -0.36347336849E+02 -0.11039683826E+03  0.11664310802E+03  0.00000000000E+00 0.  1.
         14    1    3    3    0    0 -0.62533924296E+02  0.11347711689E+02 -0.47349699790E+03  0.47774330897E+03  0.00000000000E+00 0. -1.
        -11    1    4    4    0    0 -0.40016576313E+02 -0.23066464669E+02 -0.76128332146E+02  0.89044433444E+02  0.00000000000E+00 0.  1.
         11    1    4    4    0    0  0.35397667739E+02 -0.42195614461E+02 -0.24738680845E+03  0.25344367768E+03  0.00000000000E+00 0. -1.
          1    1    1    2  501    0  0.77002901678E+02  0.90261704290E+02 -0.47619925651E+03  0.49075691949E+03  0.00000000000E+00 0. -1.
<scales pt_clust_5="13000.00000" pt_clust_6="13000.00000" pt_clust_7="13000.00000" pt_clust_8="13000.00000" pt_clust_9="13000.00000"></scales>
<clustering>
<clus scale="   80.615">  5  6 -1 -1</clus>
<clus scale="   91.409">  7  8 -1 -1</clus>
<clus scale="  111.190">  2  5  1 -1</clus>
<clus scale="   82.822">  7  9 -1 -1</clus>
<clus scale="  233.996">  1  5  2 -1</clus>
</clustering>
</event>
<event>
 9    2  0.3897980E-005  0.2618055E+03  0.7546771E-02  0.1147270E+00
         21   -1    0    0  501  502  0.00000000000E+00  0.00000000000E+00  0.12751314840E+03  0.12751314840E+03  0.00000000000E+00 0.  1.
          2   -1    0    0  502    0 -0.00000000000E+00 -0.00000000000E+00 -0.11682377574E+04  0.11682377574E+04  0.00000000000E+00 0. -1.
         24    2    1    2    0    0 -0.10441624607E+02 -0.43270635147E+02 -0.10293660266E+04  0.10336991376E+04  0.83415315689E+02 0.  0.
         23    2    1    2    0    0 -0.45561015238E+01 -0.70360037872E+02  0.57156315826E+02  0.12851842814E+03  0.90988180232E+02 0.  0.
        -11    1    3    3    0    0  0.21807697527E+02 -0.48952019413E-01 -0.83621069768E+02  0.86417945919E+02  0.00000000000E+00 0.  1.
         12    1    3    3    0    0 -0.32249322135E+02 -0.43221683128E+02 -0.94574495684E+03  0.94728119165E+03  0.00000000000E+00 0. -1.
        -11    1    4    4    0    0  0.31762917306E+02 -0.71723984287E+02  0.43472396100E+02  0.89683120265E+02  0.00000000000E+00 0.  1.
         11    1    4    4    0    0 -0.36319018830E+02  0.13639464153E+01  0.13683919726E+02  0.38835307874E+02  0.00000000000E+00 0. -1.
          1    1    1    2  501    0  0.14997726131E+02  0.11363067302E+03 -0.68514898239E+02  0.13353334011E+03  0.00000000000E+00 0. -1.
<scales pt_clust_5="13000.00000" pt_clust_6="13000.00000" pt_clust_7="13000.00000" pt_clust_8="13000.00000" pt_clust_9="13000.00000"></scales>
<clustering>
<clus scale="   83.415">  5  6 -1 -1</clus>
<clus scale="   90.988">  7  8 -1 -1</clus>
<clus scale="   94.549">  2  5  1 -1</clus>
<clus scale="   81.978">  7  9 -1 -1</clus>
<clus scale="  261.805">  1  5  2 -1</clus>
</clustering>
</event>
<event>
 9    2  0.3897980E-005  0.1356953E+03  0.7546771E-02  0.1244066E+00
         21   -1    0    0  501  502  0.00000000000E+00  0.00000000000E+00  0.10901442885E+03  0.10901442885E+03  0.00000000000E+00 0.  1.
          2   -1    0    0  502    0 -0.00000000000E+00 -0.00000000000E+00 -0.14698475800E+03  0.14698475800E+03  0.00000000000E+00 0. -1.
         24    2    1    2    0    0 -0.71965199679E+01 -0.12636936340E+02 -0.79823524567E+02  0.11399600283E+03  0.80073788019E+02 0.  0.
         23    2    1    2    0    0 -0.13488881982E+02  0.76273184669E+01  0.73621210572E+02  0.10376460518E+03  0.71462470689E+02 0.  0.
        -13    1    3    3    0    0 -0.17714175194E+02  0.26544124309E+02 -0.61906004427E+02  0.69647224799E+02  0.00000000000E+00 0.  1.
         14    1    3    3    0    0  0.10517655226E+02 -0.39181060649E+02 -0.17917520140E+02  0.44348778033E+02  0.00000000000E+00 0. -1.
        -11    1    4    4    0    0 -0.32513655045E+02  0.22532488639E+02  0.68435878502E+02  0.79046317277E+02  0.00000000000E+00 0.  1.
         11    1    4    4    0    0  0.19024773063E+02 -0.14905170172E+02  0.51853320703E+01  0.24718287899E+02  0.00000000000E+00 0. -1.
          1    1    1    2  501    0  0.20685401950E+02  0.50096178731E+01 -0.31768015151E+02  0.38238578840E+02  0.00000000000E+00 0. -1.
<scales pt_clust_5="13000.00000" pt_clust_6="13000.00000" pt_clust_7="13000.00000" pt_clust_8="13000.00000" pt_clust_9="13000.00000"></scales>
<clustering>
<clus scale="   71.462">  7  8 -1 -1</clus>
<clus scale="   21.283">  7  9 -1 -1</clus>
<clus scale="   80.074">  5  6 -1 -1</clus>
<clus scale="   81.384">  2  5  1 -1</clus>
<clus scale="  135.695">  1  5  2 -1</clus>
</clustering>
</event>
<event>
 9    2  0.3897980E-005  0.1639200E+03  0.7546771E-02  0.1209238E+00
         21   -1    0    0  501  502  0.00000000000E+00  0.00000000000E+00  0.30682657286E+03  0.30682657286E+03  0.00000000000E+00 0. -1.
          2   -1    0    0  502    0 -0.00000000000E+00 -0.00000000000E+00 -0.98965887234E+02  0.98965887234E+02  0.00000000000E+00 0. -1.
         24    2    1    2    0    0 -0.40354516841E+01 -0.47364255420E+02 -0.44351637500E+02  0.10499216195E+03  0.82441668832E+02 0.  0.
         23    2    1    2    0    0  0.42057249319E+02  0.48343257968E+01  0.11810999996E+03  0.15506806050E+03  0.91126002722E+02 0.  0.
        -11    1    3    3    0    0  0.31262059391E+02 -0.57514053070E+01  0.40605720135E+01  0.32045019355E+02  0.00000000000E+00 0.  1.
         12    1    3    3    0    0 -0.35297511075E+02 -0.41612850113E+02 -0.48412209514E+02  0.72947142594E+02  0.00000000000E+00 0. -1.
        -13    1    4    4    0    0  0.11537872278E+02  0.46258589082E+02  0.44203088194E+02  0.65014556573E+02  0.00000000000E+00 0.  1.
         13    1    4    4    0    0  0.30519377041E+02 -0.41424263285E+02  0.73906911761E+02  0.90053503928E+02  0.00000000000E+00 0. -1.
          1    1    1    2  501    0 -0.38021797635E+02  0.42529929623E+02  0.13410232317E+03  0.14573223764E+03  0.00000000000E+00 0. -1.
<scales pt_clust_5="13000.00000" pt_clust_6="13000.00000" pt_clust_7="13000.00000" pt_clust_8="13000.00000" pt_clust_9="13000.00000"></scales>
<clustering>
<clus scale="   82.442">  5  6 -1 -1</clus>
<clus scale="   91.126">  7  8 -1 -1</clus>
<clus scale="   57.048">  7  9 -1 -1</clus>
<clus scale="   95.165">  2  5  1 -1</clus>
<clus scale="  163.920">  1  5  2 -1</clus>
</clustering>
</event>
<event>
 9    2  0.3897980E-005  0.7520143E+03  0.7546771E-02  0.1018580E+00
         21   -1    0    0  501  502  0.00000000000E+00  0.00000000000E+00  0.65054059296E+03  0.65054059296E+03  0.00000000000E+00 0. -1.
          2   -1    0    0  502    0 -0.00000000000E+00 -0.00000000000E+00 -0.30050816295E+03  0.30050816295E+03  0.00000000000E+00 0. -1.
         24    2    1    2    0    0  0.13689951806E+01 -0.98712256902E+02  0.88943244779E+02  0.15500031246E+03  0.79801079309E+02 0.  0.
         23    2    1    2    0    0 -0.23058815351E+01  0.41690556997E+03  0.20231818691E+03  0.47247172538E+03  0.92094034355E+02 0.  0.
        -11    1    3    3    0    0 -0.83657679866E+01 -0.88364100785E+02  0.10234309471E+03  0.13547069579E+03  0.00000000000E+00 0.  1.
         12    1    3    3    0    0  0.97347631672E+01 -0.10348156117E+02 -0.13399849934E+02  0.19529616668E+02  0.00000000000E+00 0. -1.
        -13    1    4    4    0    0 -0.43581829093E+02  0.15273208075E+03  0.61901832820E+02  0.17046495600E+03  0.00000000000E+00 0.  1.
         13    1    4    4    0    0  0.41275947558E+02  0.26417348922E+03  0.14041635409E+03  0.30200676937E+03  0.00000000000E+00 0. -1.
          1    1    1    2  501    0  0.93688635451E+00 -0.31819331307E+03  0.58770998316E+02  0.32357671807E+03  0.00000000000E+00 0. -1.
<scales pt_clust_5="13000.00000" pt_clust_6="13000.00000" pt_clust_7="13000.00000" pt_clust_8="13000.00000" pt_clust_9="13000.00000"></scales>
<clustering>
<clus scale="   79.801">  5  6 -1 -1</clus>
<clus scale="   92.094">  7  8 -1 -1</clus>
<clus scale="  126.942">  2  5  1 -1</clus>
<clus scale="  367.060">  7  9 -1 -1</clus>
<clus scale="  752.014">  1  5  2 -1</clus>
</clustering>
</event>
<event>
 9    2  0.3897980E-005  0.2300571E+03  0.7546771E-02  0.1170583E+00
         21   -1    0    0  501  502  0.00000000000E+00  0.00000000000E+00  0.62526946823E+03  0.62526946823E+03  0.00000000000E+00 0.  1.
          2   -1    0    0  502    0 -0.00000000000E+00 -0.00000000000E+00 -0.42095941394E+02  0.42095941394E+02  0.00000000000E+00 0. -1.
         24    2    1    2    0    0 -0.54017940108E+01 -0.10314243050E+02  0.24779412729E+03  0.26066450242E+03  0.80053046876E+02 0.  0.
         23    2    1    2    0    0 -0.46478583348E+02 -0.58065983112E+01  0.33699342453E+03  0.35234964082E+03  0.91606363957E+02 0.  0.
        -11    1    3    3    0    0  0.36502786149E+02 -0.13204970432E+02  0.12456469046E+03  0.13047293493E+03  0.00000000000E+00 0.  1.
         12    1    3    3    0    0 -0.41904580159E+02  0.28907273820E+01  0.12322943683E+03  0.13019156748E+03  0.00000000000E+00 0. -1.
        -13    1    4    4    0    0 -0.63221687638E+01 -0.34656828469E+02  0.50217101112E+02  0.61341852120E+02  0.00000000000E+00 0. -1.
         13    1    4    4    0    0 -0.40156414584E+02  0.28850230158E+02  0.28677632342E+03  0.29100778870E+03  0.00000000000E+00 0.  1.
          1    1    1    2  501    0  0.51880377359E+02  0.16120841361E+02 -0.16140249806E+01  0.54351266386E+02  0.00000000000E+00 0. -1.
<scales pt_clust_5="13000.00000" pt_clust_6="13000.00000" pt_clust_7="13000.00000" pt_clust_8="13000.00000" pt_clust_9="13000.00000"></scales>
<clustering>
<clus scale="   80.053">  5  6 -1 -1</clus>
<clus scale="   80.895">  2  5  1 -1</clus>
<clus scale="   91.606">  7  8 -1 -1</clus>
<clus scale="   48.313">  7  9 -1 -1</clus>
<clus scale="  230.057">  1  5  2 -1</clus>
</clustering>
</event>
<event>
 9    2  0.3897980E-005  0.2991200E+03  0.7546771E-02  0.1133364E+00
         -1   -1    0    0    0  501 -0.00000000000E+00  0.00000000000E+00  0.19029993530E+03  0.19029993530E+03  0.00000000000E+00 0.  1.
         21   -1    0    0  501  502  0.00000000000E+00 -0.00000000000E+00 -0.35698299382E+03  0.35698299382E+03  0.00000000000E+00 0. -1.
         24    2    1    2    0    0  0.33199334507E+02 -0.17186550849E+02 -0.22562206793E+03  0.24241153153E+03  0.80376985131E+02 0.  0.
         23    2    1    2    0    0 -0.10720370535E+03  0.51789786339E+02 -0.59017873175E+02  0.16138670517E+03  0.91584621204E+02 0.  0.
        -11    1    3    3    0    0  0.22958310706E+02 -0.17599033130E+02 -0.17030998575E+02  0.33568808588E+02  0.00000000000E+00 0.  1.
         12    1    3    3    0    0  0.10241023802E+02  0.41248228068E+00 -0.20859106936E+03  0.20884272294E+03  0.00000000000E+00 0. -1.
        -13    1    4    4    0    0 -0.43797699253E+02 -0.16053311726E+02  0.73841523426E+01  0.47227883533E+02  0.00000000000E+00 0. -1.
         13    1    4    4    0    0 -0.63406006095E+02  0.67843098064E+02 -0.66402025517E+02  0.11415882163E+03  0.00000000000E+00 0.  1.
         -2    1    1    2    0  502  0.74004370841E+02 -0.34603235490E+02  0.11795688259E+03  0.14348469242E+03  0.00000000000E+00 0.  1.
<scales pt_clust_5="13000.00000" pt_clust_6="13000.00000" pt_clust_7="13000.00000" pt_clust_8="13000.00000" pt_clust_9="13000.00000"></scales>
<clustering>
<clus scale="   80.377">  5  6 -1 -1</clus>
<clus scale="   88.646">  1  5  2 -1</clus>
<clus scale="   91.585">  7  8 -1 -1</clus>
<clus scale="  108.543">  7  9 -1 -1</clus>
<clus scale="  299.120">  2  5  1 -1</clus>
</clustering>
</event>
<event>
 9    2  0.3897980E-005  0.2538931E+03  0.7546771E-02  0.1143088E+00
         21   -1    0    0  501  502  0.00000000000E+00  0.00000000000E+00  0.75282694136E+02  0.75282694136E+02  0.00000000000E+00 0. -1.
          2   -1    0    0  502    0 -0.00000000000E+00 -0.00000000000E+00 -0.45577469033E+03  0.45577469033E+03  0.00000000000E+00 0. -1.
         24    2    1    2    0    0  0.66339226492E+02  0.41488813962E+02 -0.93469395062E+02  0.14785553156E+03  0.83681035742E+02 0.  0.
         23    2    1    2    0    0  0.53070331672E+02 -0.62702766992E+02 -0.19540500851E+03  0.23120692648E+03  0.92333246490E+02 0.  0.
        -11    1    3    3    0    0  0.23934663322E+02 -0.25688495067E+02 -0.27706611372E+02  0.44726090829E+02  0.00000000000E+00 0.  1.
         12    1    3    3    0    0  0.42404563171E+02  0.67177309028E+02 -0.65762783691E+02  0.10312944073E+03  0.00000000000E+00 0. -1.
        -13    1    4    4    0    0 -0.12176374039E+02  0.16475952671E+02 -0.40821348531E+02  0.45673883096E+02  0.00000000000E+00 0.  1.
         13    1    4    4    0    0  0.65246705711E+02 -0.79178719662E+02 -0.15458365998E+03  0.18553304338E+03  0.00000000000E+00 0. -1.
          1    1    1    2  501    0 -0.11940955816E+03  0.21213953030E+02 -0.91617592622E+02  0.15199492643E+03  0.00000000000E+00 0. -1.
<scales pt_clust_5="13000.00000" pt_clust_6="13000.00000" pt_clust_7="13000.00000" pt_clust_8="13000.00000" pt_clust_9="13000.00000"></scales>
<clustering>
<clus scale="   83.681">  5  6 -1 -1</clus>
<clus scale="   92.333">  7  8 -1 -1</clus>
<clus scale="  114.563">  2  5  1 -1</clus>
<clus scale="  101.974">  7  9 -1 -1</clus>
<clus scale="  253.893">  1  5  2 -1</clus>
</clustering>
</event>
<event>
 9    2  0.3897980E-005  0.4987179E+03  0.7546771E-02  0.1079496E+00
          2   -1    0    0  502    0 -0.00000000000E+00  0.00000000000E+00  0.83471639387E+03  0.83471639387E+03  0.00000000000E+00 0. -1.
         21   -1    0    0  501  502  0.00000000000E+00 -0.00000000000E+00 -0.99672684780E+02  0.99672684780E+02  0.00000000000E+00 0.  1.
         24    2    1    2    0    0 -0.30353502638E+01 -0.91378166214E+01  0.12563944637E+03  0.14692915507E+03  0.75565819530E+02 0.  0.
         23    2    1    2    0    0  0.11984859872E+03 -0.19477804800E+03  0.20966333333E+03  0.32375762093E+03  0.92510049020E+02 0.  0.
        -13    1    3    3    0    0  0.23565748814E+02  0.18949309366E+02  0.87610820261E+02  0.92682666499E+02  0.00000000000E+00 0.  1.
         14    1    3    3    0    0 -0.26601099078E+02 -0.28087125987E+02  0.38028626108E+02  0.54246488569E+02  0.00000000000E+00 0. -1.
        -11    1    4    4    0    0  0.13052487041E+03 -0.17524845009E+03  0.16485545177E+03  0.27372628852E+03  0.00000000000E+00 0.  1.
         11    1    4    4    0    0 -0.10676271688E+02 -0.19529597910E+02  0.44807881568E+02  0.50031332406E+02  0.00000000000E+00 0. -1.
          1    1    1    2  501    0 -0.11681324846E+03  0.20391586462E+03  0.39974092939E+03  0.46370230266E+03  0.00000000000E+00 0. -1.
<scales pt_clust_5="13000.00000" pt_clust_6="13000.00000" pt_clust_7="13000.00000" pt_clust_8="13000.00000" pt_clust_9="13000.00000"></scales>
<clustering>
<clus scale="   75.566">  5  6 -1 -1</clus>
<clus scale="   76.177">  1  5  2 -1</clus>
<clus scale="   92.510">  7  8 -1 -1</clus>
<clus scale="  231.078">  7  9 -1 -1</clus>
<clus scale="  498.718">  2  5  1 -1</clus>
</clustering>
</event>
<event>
 9    2  0.3897980E-005  0.1598353E+03  0.7546771E-02  0.1216211E+00
          4   -1    0    0  502    0 -0.00000000000E+00  0.00000000000E+00  0.44116769239E+02  0.44116769239E+02  0.00000000000E+00 0. -1.
         21   -1    0    0  501  502  0.00000000000E+00 -0.00000000000E+00 -0.40257596604E+03  0.40257596604E+03  0.00000000000E+00 0.  1.
         24    2    1    2    0    0 -0.36184907386E+02  0.66635823921E+01 -0.56396212472E+02  0.10494812590E+03  0.80497363287E+02 0.  0.
         23    2    1    2    0    0 -0.18687590323E+02 -0.32548544107E+02 -0.18737421809E+03  0.21199664081E+03  0.91786950877E+02 0.  0.
        -13    1    3    3    0    0 -0.47790776867E+02  0.96383179866E+01 -0.15173107624E+01  0.48776610779E+02  0.00000000000E+00 0.  1.
         14    1    3    3    0    0  0.11605869481E+02 -0.29747355945E+01 -0.54878901710E+02  0.56171515122E+02  0.00000000000E+00 0. -1.
        -13    1    4    4    0    0  0.31550074766E+02 -0.25114588471E+02 -0.12621855816E+03  0.13250386483E+03  0.00000000000E+00 0.  1.
         13    1    4    4    0    0 -0.50237665089E+02 -0.74339556359E+01 -0.61155659937E+02  0.79492775975E+02  0.00000000000E+00 0. -1.
          3    1    1    2  501    0  0.54872497709E+02  0.25884961715E+02 -0.11468876623E+03  0.12974796857E+03  0.00000000000E+00 0. -1.
<scales pt_clust_5="13000.00000" pt_clust_6="13000.00000" pt_clust_7="13000.00000" pt_clust_8="13000.00000" pt_clust_9="13000.00000"></scales>
<clustering>
<clus scale="   80.497">  5  6 -1 -1</clus>
<clus scale="   88.507">  1  5  2 -1</clus>
<clus scale="   91.787">  7  8 -1 -1</clus>
<clus scale="   49.999">  7  9 -1 -1</clus>
<clus scale="  159.835">  2  5  1 -1</clus>
</clustering>
</event>
<event>
 9    2  0.3897980E-005  0.1483176E+03  0.7546771E-02  0.1222597E+00
         -1   -1    0    0    0  501 -0.00000000000E+00  0.00000000000E+00  0.97222995683E+02  0.97222995683E+02  0.00000000000E+00 0.  1.
         21   -1    0    0  501  502  0.00000000000E+00 -0.00000000000E+00 -0.15468893429E+03  0.15468893429E+03  0.00000000000E+00 0.  1.
         24    2    1    2    0    0 -0.31951123990E+02 -0.40945097119E+02 -0.19285692380E+02  0.98758973770E+02  0.81755866255E+02 0.  0.
         23    2    1    2    0    0  0.26362455905E+02 -0.68313959188E+01 -0.47506523466E+01  0.94575108470E+02  0.90444653755E+02 0.  0.
        -13    1    3    3    0    0  0.25569524807E+02 -0.23411869697E+01  0.33192043937E+01  0.25890130805E+02  0.00000000000E+00 0.  1.
         14    1    3    3    0    0 -0.57520648797E+02 -0.38603910149E+02 -0.22604896773E+02  0.72868842965E+02  0.00000000000E+00 0. -1.
        -13    1    4    4    0    0  0.52459774865E+02 -0.44974992653E+01 -0.27921824204E+02  0.59597682382E+02  0.00000000000E+00 0.  1.
         13    1    4    4    0    0 -0.26097318959E+02 -0.23338966534E+01  0.23171171858E+02  0.34977426088E+02  0.00000000000E+00 0. -1.
         -2    1    1    2    0  502  0.55886680852E+01  0.47776493038E+02 -0.33429593881E+02  0.58577847733E+02  0.00000000000E+00 0.  1.
<scales pt_clust_5="13000.00000" pt_clust_6="13000.00000" pt_clust_7="13000.00000" pt_clust_8="13000.00000" pt_clust_9="13000.00000"></scales>
<clustering>
<clus scale="   81.756">  5  6 -1 -1</clus>
<clus scale="   90.445">  7  8 -1 -1</clus>
<clus scale="   48.102">  7  9 -1 -1</clus>
<clus scale="   96.858">  1  5  2 -1</clus>
<clus scale="  148.318">  2  5  1 -1</clus>
</clustering>
</event>
<event>
 9    2  0.3897980E-005  0.2192704E+03  0.7546771E-02  0.1168657E+00
         21   -1    0    0  501  502  0.00000000000E+00  0.00000000000E+00  0.22255946082E+03  0.22255946082E+03  0.00000000000E+00 0. -1.
          2   -1    0    0  502    0 -0.00000000000E+00 -0.00000000000E+00 -0.15675666122E+03  0.15675666122E+03  0.00000000000E+00 0. -1.
         24    2    1    2    0    0  0.31178408234E+02 -0.42270276833E+02 -0.71127873494E+02  0.12080202776E+03  0.82310911065E+02 0.  0.
         23    2    1    2    0    0  0.34554074666E+02 -0.89060441193E+01 -0.16887880045E+01  0.96788616596E+02  0.89954892028E+02 0.  0.
        -13    1    3    3    0    0  0.50852257735E+01  0.23948450864E+02 -0.82603913315E+01  0.25838380075E+02  0.00000000000E+00 0.  1.
         14    1    3    3    0    0  0.26093182461E+02 -0.66218727697E+02 -0.62867482162E+02  0.94963647688E+02  0.00000000000E+00 0. -1.
        -13    1    4    4    0    0  0.45267346001E+02  0.17728718618E+02  0.27494502424E+02  0.55851479312E+02  0.00000000000E+00 0. -1.
         13    1    4    4    0    0 -0.10713271335E+02 -0.26634762738E+02 -0.29183290428E+02  0.40937137284E+02  0.00000000000E+00 0.  1.
          1    1    1    2  501    0 -0.65732482900E+02  0.51176320953E+02  0.13861946110E+03  0.16172547768E+03  0.00000000000E+00 0. -1.
<scales pt_clust_5="13000.00000" pt_clust_6="13000.00000" pt_clust_7="13000.00000" pt_clust_8="13000.00000" pt_clust_9="13000.00000"></scales>
<clustering>
<clus scale="   82.311">  5  6 -1 -1</clus>
<clus scale="   89.955">  7  8 -1 -1</clus>
<clus scale="   83.305">  7  9 -1 -1</clus>
<clus scale="   97.642">  2  5  1 -1</clus>
<clus scale="  219.270">  1  5  2 -1</clus>
</clustering>
</event>
<event>
 9    2  0.3897980E-005  0.3906260E+03  0.7546771E-02  0.1101419E+00
          2   -1    0    0  502    0 -0.00000000000E+00  0.00000000000E+00  0.34331197526E+03  0.34331197526E+03  0.00000000000E+00 0. -1.
         21   -1    0    0  501  502  0.00000000000E+00 -0.00000000000E+00 -0.17179406651E+03  0.17179406651E+03  0.00000000000E+00 0.  1.
         24    2    1    2    0    0  0.20668349098E+02  0.29574296911E+02  0.65420890077E+02  0.11032805406E+03  0.81182306953E+02 0.  0.
         23    2    1    2    0    0 -0.57207229598E+02  0.21709863951E+02 -0.12498473028E+03  0.16527030592E+03  0.89157758521E+02 0.  0.
        -11    1    3    3    0    0 -0.88418690429E+01  0.39202806683E+02  0.26181328236E+01  0.40272736677E+02  0.00000000000E+00 0.  1.
         12    1    3    3    0    0  0.29510218140E+02 -0.96285097713E+01  0.62802757253E+02  0.70055317384E+02  0.00000000000E+00 0. -1.
        -11    1    4    4    0    0 -0.81419307116E+02  0.19439054897E+02 -0.93686231982E+02  0.12563475033E+03  0.00000000000E+00 0.  1.
         11    1    4    4    0    0  0.24212077518E+02  0.22708090541E+01 -0.31298498293E+02  0.39635555590E+02  0.00000000000E+00 0. -1.
          1    1    1    2  501    0  0.36538880501E+02 -0.51284160863E+02  0.23108174894E+03  0.23950768179E+03  0.00000000000E+00 0. -1.
<scales pt_clust_5="13000.00000" pt_clust_6="13000.00000" pt_clust_7="13000.00000" pt_clust_8="13000.00000" pt_clust_9="13000.00000"></scales>
<clustering>
<clus scale="   81.182">  5  6 -1 -1</clus>
<clus scale="   88.839">  1  5  2 -1</clus>
<clus scale="   89.158">  7  8 -1 -1</clus>
<clus scale="   60.555">  7  9 -1 -1</clus>
<clus scale="  390.626">  2  5  1 -1</clus>
</clustering>
</event>
<event>
 9    2  0.3897980E-005  0.3567020E+03  0.7546771E-02  0.1095324E+00
         21   -1    0    0  501  502  0.00000000000E+00  0.00000000000E+00  0.45814168026E+03  0.45814168026E+03  0.00000000000E+00 0.  1.
         -3   -1    0    0    0  501 -0.00000000000E+00 -0.00000000000E+00 -0.17371220268E+03  0.17371220268E+03  0.00000000000E+00 0.  1.
         24    2    1    2    0    0  0.10856381288E+03  0.20936238516E+02 -0.47357858204E+02  0.14469972146E+03  0.80441376820E+02 0.  0.
         23    2    1    2    0    0 -0.60783692073E+02  0.67874375038E+02 -0.10920606793E+02  0.12991614709E+03  0.91963892989E+02 0.  0.
        -13    1    3    3    0    0  0.56335352916E+02 -0.17578034788E+02 -0.53318416203E+02  0.79533092493E+02  0.00000000000E+00 0.  1.
         14    1    3    3    0    0  0.52228459967E+02  0.38514273303E+02  0.59605579990E+01  0.65166628962E+02  0.00000000000E+00 0. -1.
        -11    1    4    4    0    0 -0.58842591652E+02  0.98008673629E+01  0.21461278723E+02  0.63396325429E+02  0.00000000000E+00 0.  1.
         11    1    4    4    0    0 -0.19411004203E+01  0.58073507675E+02 -0.32381885516E+02  0.66519821664E+02  0.00000000000E+00 0. -1.
         -4    1    1    2    0  502 -0.47780120810E+02 -0.88810613554E+02  0.34270794257E+03  0.35723801439E+03  0.00000000000E+00 0.  1.
<scales pt_clust_5="13000.00000" pt_clust_6="13000.00000" pt_clust_7="13000.00000" pt_clust_8="13000.00000" pt_clust_9="13000.00000"></scales>
<clustering>
<clus scale="   80.441">  5  6 -1 -1</clus>
<clus scale="   91.964">  7  8 -1 -1</clus>
<clus scale="  100.848">  7  9 -1 -1</clus>
<clus scale="  136.731">  2  5  1 -1</clus>
<clus scale="  356.702">  1  5  2 -1</clus>
</clustering>
</event>
<event>
 9    2  0.3897980E-005  0.2253953E+03  0.7546771E-02  0.1172613E+00
         21   -1    0    0  501  502  0.00000000000E+00  0.00000000000E+00  0.38331228053E+02  0.38331228053E+02  0.00000000000E+00 0.  1.
          2   -1    0    0  502    0 -0.00000000000E+00 -0.00000000000E+00 -0.10924496134E+04  0.10924496134E+04  0.00000000000E+00 0. -1.
         24    2    1    2    0    0 -0.15394984653E+02  0.72564461718E+01 -0.73789108693E+03  0.74244753089E+03  0.80345618402E+02 0.  0.
         23    2    1    2    0    0  0.32060224073E+02 -0.95758211063E+02 -0.21608676854E+03  0.25365436521E+03  0.86310790165E+02 0.  0.
        -13    1    3    3    0    0  0.26021245276E+02  0.47212563601E+01 -0.10798390340E+03  0.11117517197E+03  0.00000000000E+00 0.  1.
         14    1    3    3    0    0 -0.41416229929E+02  0.25351898117E+01 -0.62990718352E+03  0.63127235892E+03  0.00000000000E+00 0. -1.
        -13    1    4    4    0    0  0.37723272788E+02 -0.52608768041E+02 -0.49542625562E+02  0.81518093281E+02  0.00000000000E+00 0.  1.
         13    1    4    4    0    0 -0.56630487145E+01 -0.43149443022E+02 -0.16654414297E+03  0.17213627193E+03  0.00000000000E+00 0. -1.
          1    1    1    2  501    0 -0.16665239420E+02  0.88501764892E+02 -0.10014052985E+03  0.13467894532E+03  0.00000000000E+00 0. -1.
<scales pt_clust_5="13000.00000" pt_clust_6="13000.00000" pt_clust_7="13000.00000" pt_clust_8="13000.00000" pt_clust_9="13000.00000"></scales>
<clustering>
<clus scale="   80.346">  5  6 -1 -1</clus>
<clus scale="   82.128">  2  5  1 -1</clus>
<clus scale="   86.311">  7  8 -1 -1</clus>
<clus scale="   93.496">  7  9 -1 -1</clus>
<clus scale="  225.395">  1  5  2 -1</clus>
</clustering>
</event>
<event>
 9    2  0.3897980E-005  0.1148251E+03  0.7546771E-02  0.1269011E+00
         21   -1    0    0  501  502  0.00000000000E+00  0.00000000000E+00  0.57800265922E+02  0.57800265922E+02  0.00000000000E+00 0.  1.
          2   -1    0    0  502    0 -0.00000000000E+00 -0.00000000000E+00 -0.38478175113E+03  0.38478175113E+03  0.00000000000E+00 0. -1.
         24    2    1    2    0    0 -0.43319828119E+01 -0.17071590910E+02 -0.31686716256E+03  0.32731231990E+03  0.80114610155E+02 0.  0.
         23    2    1    2    0    0  0.25873018638E+02  0.24491112203E+02 -0.60056415055E+01  0.92119172719E+02  0.84738695897E+02 0.  0.
        -11    1    3    3    0    0  0.35503946410E+02 -0.27206300108E+01 -0.19685899719E+03  0.20005348488E+03  0.00000000000E+00 0.  1.
         12    1    3    3    0    0 -0.39835929222E+02 -0.14350960899E+02 -0.12000816537E+03  0.12725883502E+03  0.00000000000E+00 0. -1.
        -13    1    4    4    0    0  0.12317530525E+02 -0.25898779924E+02 -0.23506435843E+02  0.37081274059E+02  0.00000000000E+00 0. -1.
         13    1    4    4    0    0  0.13555488114E+02  0.50389892127E+02  0.17500794338E+02  0.55037898661E+02  0.00000000000E+00 0.  1.
          1    1    1    2  501    0 -0.21541035826E+02 -0.74195212928E+01 -0.41086811435E+01  0.23150524431E+02  0.00000000000E+00 0. -1.
<scales pt_clust_5="13000.00000" pt_clust_6="13000.00000" pt_clust_7="13000.00000" pt_clust_8="13000.00000" pt_clust_9="13000.00000"></scales>
<clustering>
<clus scale="   80.115">  5  6 -1 -1</clus>
<clus scale="   82.028">  2  5  1 -1</clus>
<clus scale="   84.739">  7  8 -1 -1</clus>
<clus scale="   25.087">  7  9 -1 -1</clus>
<clus scale="  114.825">  1  5  2 -1</clus>
</clustering>
</event>
<event>
 9    2  0.3897980E-005  0.1336422E+03  0.7546771E-02  0.1243262E+00
          2   -1    0    0  502    0 -0.00000000000E+00  0.00000000000E+00  0.51301351300E+03  0.51301351300E+03  0.00000000000E+00 0. -1.
         21   -1    0    0  501  502  0.00000000000E+00 -0.00000000000E+00 -0.24861845385E+02  0.24861845385E+02  0.00000000000E+00 0.  1.
         24    2    1    2    0    0 -0.16946522471E+02  0.37090775310E+02  0.25292754788E+03  0.26733767807E+03  0.76381800200E+02 0.  0.
         23    2    1    2    0    0 -0.10190831956E+02 -0.35418439138E+02  0.13351505034E+03  0.16525725711E+03  0.90140853517E+02 0.  0.
        -13    1    3    3    0    0  0.25098458528E+02 -0.25324098139E+01  0.45615361478E+02  0.52125875750E+02  0.00000000000E+00 0.  1.
         14    1    3    3    0    0 -0.42044980999E+02  0.39623185124E+02  0.20731218640E+03  0.21521180232E+03  0.00000000000E+00 0. -1.
        -11    1    4    4    0    0 -0.36532450978E+02 -0.30202522884E+02  0.12975546805E+03  0.13814229566E+03  0.00000000000E+00 0. -1.
         11    1    4    4    0    0  0.26341619022E+02 -0.52159162541E+01  0.37595822909E+01  0.27114961443E+02  0.00000000000E+00 0.  1.
          1    1    1    2  501    0  0.27137354427E+02 -0.16723361725E+01  0.10170906940E+03  0.10528042321E+03  0.00000000000E+00 0. -1.
<scales pt_clust_5="13000.00000" pt_clust_6="13000.00000" pt_clust_7="13000.00000" pt_clust_8="13000.00000" pt_clust_9="13000.00000"></scales>
<clustering>
<clus scale="   76.382">  5  6 -1 -1</clus>
<clus scale="   86.586">  1  5  2 -1</clus>
<clus scale="   90.141">  7  8 -1 -1</clus>
<clus scale="   24.302">  7  9 -1 -1</clus>
<clus scale="  133.642">  2  5  1 -1</clus>
</clustering>
</event>
<event>
 9    2  0.3897980E-005  0.1797710E+03  0.7546771E-02  0.1189646E+00
         21   -1    0    0  501  502  0.00000000000E+00  0.00000000000E+00  0.28533788141E+02  0.28533788141E+02  0.00000000000E+00 0.  1.
          2   -1    0    0  502    0 -0.00000000000E+00 -0.00000000000E+00 -0.14861985172E+04  0.14861985172E+04  0.00000000000E+00 0. -1.
         24    2    1    2    0    0 -0.77674606547E+02  0.35656169348E+02 -0.11721027540E+04  0.11772960170E+04  0.69973842825E+02 0.  0.
         23    2    1    2    0    0  0.10889003653E+03 -0.18726220539E+02 -0.24228704048E+03  0.28145641522E+03  0.91142702917E+02 0.  0.
        -11    1    3    3    0    0 -0.20043550475E+02  0.40283140855E+01 -0.62735816708E+02  0.65982982110E+02  0.00000000000E+00 0.  1.
         12    1    3    3    0    0 -0.57631056072E+02  0.31627855262E+02 -0.11093669373E+04  0.11113130348E+04  0.00000000000E+00 0. -1.
        -13    1    4    4    0    0  0.11519371226E+03  0.75754873259E+01 -0.18427751434E+03  0.21745156160E+03  0.00000000000E+00 0.  1.
         13    1    4    4    0    0 -0.63036757253E+01 -0.26301707865E+02 -0.58009526143E+02  0.64004853625E+02  0.00000000000E+00 0. -1.
          1    1    1    2  501    0 -0.31215429983E+02 -0.16929948809E+02 -0.43274934534E+02  0.55979873121E+02  0.00000000000E+00 0. -1.
<scales pt_clust_5="13000.00000" pt_clust_6="13000.00000" pt_clust_7="13000.00000" pt_clust_8="13000.00000" pt_clust_9="13000.00000"></scales>
<clustering>
<clus scale="   69.974">  5  6 -1 -1</clus>
<clus scale="   91.143">  7  8 -1 -1</clus>
<clus scale="   35.511">  7  9 -1 -1</clus>
<clus scale="  110.458">  2  5  1 -1</clus>
<clus scale="  179.771">  1  5  2 -1</clus>
</clustering>
</event>
<event>
 9    2  0.3897980E-005  0.2898182E+03  0.7546771E-02  0.1104581E+00
         21   -1    0    0  501  502  0.00000000000E+00  0.00000000000E+00  0.71913405217E+03  0.71913405217E+03  0.00000000000E+00 0.  1.
          2   -1    0    0  502    0 -0.00000000000E+00 -0.00000000000E+00 -0.10222343655E+03  0.10222343655E+03  0.00000000000E+00 0. -1.
         24    2    1    2    0    0 -0.83394085491E+02  0.16330749112E+03  0.43553541494E+03  0.47946344092E+03  0.81056667545E+02 0.  0.
         23    2    1    2    0    0 -0.44519350860E+02 -0.32120367348E+02  0.80407374811E+02  0.13268981625E+03  0.90152930134E+02 0.  0.
        -11    1    3    3    0    0 -0.83386353172E+02  0.11742471034E+03  0.25172206449E+03  0.29001007611E+03  0.00000000000E+00 0.  1.
         12    1    3    3    0    0 -0.77323189935E-02  0.45882780787E+02  0.18381335045E+03  0.18945336481E+03  0.00000000000E+00 0. -1.
        -13    1    4    4    0    0  0.24305942061E+02 -0.98331371555E+01  0.45151610363E+02  0.52212424998E+02  0.00000000000E+00 0.  1.
         13    1    4    4    0    0 -0.68825292921E+02 -0.22287230193E+02  0.35255764448E+02  0.80477391248E+02  0.00000000000E+00 0. -1.
          1    1    1    2  501    0  0.12791343635E+03 -0.13118712377E+03  0.10096782586E+03  0.20920423156E+03  0.00000000000E+00 0. -1.
<scales pt_clust_5="13000.00000" pt_clust_6="13000.00000" pt_clust_7="13000.00000" pt_clust_8="13000.00000" pt_clust_9="13000.00000"></scales>
<clustering>
<clus scale="   81.057">  5  6 -1 -1</clus>
<clus scale="   90.153">  7  8 -1 -1</clus>
<clus scale="  183.226">  7  9 -1 -1</clus>
<clus scale="  200.485">  2  5  1 -1</clus>
<clus scale="  289.818">  1  5  2 -1</clus>
</clustering>
</event>
<event>
 9    2  0.3897980E-005  0.2055006E+03  0.7546771E-02  0.1176799E+00
         -3   -1    0    0    0  501 -0.00000000000E+00  0.00000000000E+00  0.68668606021E+03  0.68668606021E+03  0.00000000000E+00 0.  1.
         21   -1    0    0  501  502  0.00000000000E+00 -0.00000000000E+00 -0.68056311942E+02  0.68056311942E+02  0.00000000000E+00 0.  1.
         24    2    1    2    0    0 -0.50679612669E+02 -0.20680003745E+02 -0.44516128332E+01  0.98647210104E+02  0.81947358159E+02 0.  0.
         23    2    1    2    0    0 -0.66847271780E+01  0.61173890350E+02  0.21075199537E+03  0.23782978196E+03  0.91431237524E+02 0.  0.
        -11    1    3    3    0    0 -0.53182532378E+02 -0.47569342935E+02 -0.50372685487E+00  0.71354592552E+02  0.00000000000E+00 0.  1.
         12    1    3    3    0    0  0.25029197091E+01  0.26889339190E+02 -0.39478859784E+01  0.27292617552E+02  0.00000000000E+00 0. -1.
        -13    1    4    4    0    0 -0.27037671570E+02  0.67592993525E+02  0.92724677411E+02  0.11788856712E+03  0.00000000000E+00 0. -1.
         13    1    4    4    0    0  0.20352944392E+02 -0.64191031750E+01  0.11802731796E+03  0.11994121483E+03  0.00000000000E+00 0.  1.
         -4    1    1    2    0  502  0.57364339847E+02 -0.40493886605E+02  0.41232936573E+03  0.41826538009E+03  0.00000000000E+00 0.  1.
<scales pt_clust_5="13000.00000" pt_clust_6="13000.00000" pt_clust_7="13000.00000" pt_clust_8="13000.00000" pt_clust_9="13000.00000"></scales>
<clustering>
<clus scale="   81.947">  5  6 -1 -1</clus>
<clus scale="   91.431">  7  8 -1 -1</clus>
<clus scale="   70.217">  7  9 -1 -1</clus>
<clus scale="   98.547">  1  5  2 -1</clus>
<clus scale="  205.501">  2  5  1 -1</clus>
</clustering>
</event>
<event>
 9    2  0.3897980E-005  0.3204728E+03  0.7546771E-02  0.1114817E+00
          2   -1    0    0  502    0 -0.00000000000E+00  0.00000000000E+00  0.43585442658E+03  0.43585442658E+03  0.00000000000E+00 0. -1.
         21   -1    0    0  501  502  0.00000000000E+00 -0.00000000000E+00 -0.16628176312E+03  0.16628176312E+03  0.00000000000E+00 0.  1.
         24    2    1    2    0    0 -0.67141057711E+02  0.42543451329E+02 -0.70994633771E+02  0.13449435928E+03  0.82040403289E+02 0.  0.
         23    2    1    2    0    0 -0.10319445434E+03  0.11026372775E+02  0.11449732152E+03  0.17955929600E+03  0.91439749791E+02 0.  0.
        -13    1    3    3    0    0 -0.14448229750E+02 -0.21910947633E+02 -0.35115635566E+02  0.43840036842E+02  0.00000000000E+00 0.  1.
         14    1    3    3    0    0 -0.52692827961E+02  0.64454398963E+02 -0.35878998205E+02  0.90654322436E+02  0.00000000000E+00 0. -1.
        -11    1    4    4    0    0 -0.58494833617E+02 -0.24307154575E+02  0.10377626956E+03  0.12158123806E+03  0.00000000000E+00 0. -1.
         11    1    4    4    0    0 -0.44699620723E+02  0.35333527351E+02  0.10721051961E+02  0.57978057944E+02  0.00000000000E+00 0.  1.
          1    1    1    2  501    0  0.17033551205E+03 -0.53569824105E+02  0.22606997571E+03  0.28808253442E+03  0.00000000000E+00 0. -1.
<scales pt_clust_5="13000.00000" pt_clust_6="13000.00000" pt_clust_7="13000.00000" pt_clust_8="13000.00000" pt_clust_9="13000.00000"></scales>
<clustering>
<clus scale="   82.040">  5  6 -1 -1</clus>
<clus scale="   91.440">  7  8 -1 -1</clus>
<clus scale="  114.230">  1  5  2 -1</clus>
<clus scale="  130.346">  7  9 -1 -1</clus>
<clus scale="  320.473">  2  5  1 -1</clus>
</clustering>
</event>
<event>
 9    2  0.3897980E-005  0.1681057E+03  0.7546771E-02  0.1204942E+00
         -1   -1    0    0    0  501 -0.00000000000E+00  0.00000000000E+00  0.54993320338E+02  0.54993320338E+02  0.00000000000E+00 0.  1.
         21   -1    0    0  501  502  0.00000000000E+00 -0.00000000000E+00 -0.32060712833E+03  0.32060712833E+03  0.00000000000E+00 0.  1.
         24    2    1    2    0    0  0.18059657763E+02 -0.49137873490E+02 -0.84014590493E+02  0.12813773480E+03  0.81364278494E+02 0.  0.
         23    2    1    2    0    0  0.23063582929E+02  0.56954357145E+02 -0.74994316475E+02  0.13293401325E+03  0.90948209003E+02 0.  0.
        -13    1    3    3    0    0  0.46794890408E+02 -0.46876416932E+02 -0.68967089156E+02  0.95622275749E+02  0.00000000000E+00 0.  1.
         14    1    3    3    0    0 -0.28735232645E+02 -0.22614565578E+01 -0.15047501337E+02  0.32515459053E+02  0.00000000000E+00 0. -1.
        -13    1    4    4    0    0 -0.40550048760E+01  0.62977475431E+02 -0.82772709123E+02  0.10408615110E+03  0.00000000000E+00 0.  1.
         13    1    4    4    0    0  0.27118587805E+02 -0.60231182857E+01  0.77783926476E+01  0.28847862149E+02  0.00000000000E+00 0. -1.
         -2    1    1    2    0  502 -0.41123240692E+02 -0.78164836554E+01 -0.10660490103E+03  0.11452870061E+03  0.00000000000E+00 0.  1.
<scales pt_clust_5="13000.00000" pt_clust_6="13000.00000" pt_clust_7="13000.00000" pt_clust_8="13000.00000" pt_clust_9="13000.00000"></scales>
<clustering>
<clus scale="   81.364">  5  6 -1 -1</clus>
<clus scale="   90.948">  7  8 -1 -1</clus>
<clus scale="   41.860">  7  9 -1 -1</clus>
<clus scale="   96.751">  1  5  2 -1</clus>
<clus scale="  168.106">  2  5  1 -1</clus>
</clustering>
</event>
<event>
 9    2  0.3897980E-005  0.2035215E+03  0.7546771E-02  0.1173453E+00
         21   -1    0    0  501  502  0.00000000000E+00  0.00000000000E+00  0.29457537632E+02  0.29457537632E+02  0.00000000000E+00 0. -1.
          2   -1    0    0  502    0 -0.00000000000E+00 -0.00000000000E+00 -0.84788445518E+03  0.84788445518E+03  0.00000000000E+00 0. -1.
         24    2    1    2    0    0  0.47304324470E+02 -0.54490326187E+02 -0.22998118549E+03  0.25469492217E+03  0.82287684003E+02 0.  0.
         23    2    1    2    0    0  0.98408417319E+01  0.59526435098E+02 -0.18548051277E+03  0.21561893848E+03  0.91914456821E+02 0.  0.
        -11    1    3    3    0    0 -0.13443282727E+02 -0.41373390410E+02 -0.12883622567E+03  0.13598254421E+03  0.00000000000E+00 0.  1.
         12    1    3    3    0    0  0.60747607197E+02 -0.13116935777E+02 -0.10114495982E+03  0.11871237796E+03  0.00000000000E+00 0. -1.
        -13    1    4    4    0    0  0.44523354871E+02  0.43474109962E+01 -0.72684747299E+02  0.85348120081E+02  0.00000000000E+00 0.  1.
         13    1    4    4    0    0 -0.34682513139E+02  0.55179024102E+02 -0.11279576547E+03  0.13027081840E+03  0.00000000000E+00 0. -1.
          1    1    1    2  501    0 -0.57145166202E+02 -0.50361089117E+01 -0.40296521929E+03  0.40702813216E+03  0.00000000000E+00 0. -1.
<scales pt_clust_5="13000.00000" pt_clust_6="13000.00000" pt_clust_7="13000.00000" pt_clust_8="13000.00000" pt_clust_9="13000.00000"></scales>
<clustering>
<clus scale="   82.288">  5  6 -1 -1</clus>
<clus scale="   91.914">  7  8 -1 -1</clus>
<clus scale="   57.367">  7  9 -1 -1</clus>
<clus scale="  109.445">  2  5  1 -1</clus>
<clus scale="  203.521">  1  5  2 -1</clus>
</clustering>
</event>
<event>
 9    2  0.3897980E-005  0.3260746E+03  0.7546771E-02  0.1087580E+00
          2   -1    0    0  502    0 -0.00000000000E+00  0.00000000000E+00  0.25460259069E+03  0.25460259069E+03  0.00000000000E+00 0. -1.
         21   -1    0    0  501  502  0.00000000000E+00 -0.00000000000E+00 -0.29765257458E+03  0.29765257458E+03  0.00000000000E+00 0. -1.
         24    2    1    2    0    0 -0.13674654845E+03  0.15189459034E+03 -0.53707981659E+02  0.22600645298E+03  0.80142276027E+02 0.  0.
         23    2    1    2    0    0 -0.26255598895E+02 -0.45816238671E+01 -0.37701232305E+02  0.10128332548E+03  0.90147553227E+02 0.  0.
        -13    1    3    3    0    0 -0.45562741725E+02  0.20913933819E+02  0.14883928293E+02  0.52296150745E+02  0.00000000000E+00 0.  1.
         14    1    3    3    0    0 -0.91183806729E+02  0.13098065652E+03 -0.68591909952E+02  0.17371030224E+03  0.00000000000E+00 0. -1.
        -13    1    4    4    0    0 -0.22405191729E+02 -0.45676635672E+02 -0.30693975219E+02  0.59417739586E+02  0.00000000000E+00 0.  1.
         13    1    4    4    0    0 -0.38504071662E+01  0.41095011805E+02 -0.70072570856E+01  0.41865585896E+02  0.00000000000E+00 0. -1.
          1    1    1    2  501    0  0.16300214735E+03 -0.14731296647E+03  0.48359230074E+02  0.22496538681E+03  0.00000000000E+00 0. -1.
<scales pt_clust_5="13000.00000" pt_clust_6="13000.00000" pt_clust_7="13000.00000" pt_clust_8="13000.00000" pt_clust_9="13000.00000"></scales>
<clustering>
<clus scale="   80.142">  5  6 -1 -1</clus>
<clus scale="   90.148">  7  8 -1 -1</clus>
<clus scale="  219.532">  1  5  2 -1</clus>
<clus scale="   57.364">  7  9 -1 -1</clus>
<clus scale="  326.075">  2  5  1 -1</clus>
</clustering>
</event>
<event>
 9    2  0.3897980E-005  0.7238970E+03  0.7546771E-02  0.1005224E+00
         21   -1    0    0  501  502  0.00000000000E+00  0.00000000000E+00  0.13560005082E+04  0.13560005082E+04  0.00000000000E+00 0. -1.
          2   -1    0    0  502    0 -0.00000000000E+00 -0.00000000000E+00 -0.17419592740E+03  0.17419592740E+03  0.00000000000E+00 0. -1.
         24    2    1    2    0    0  0.11975348584E+03  0.15902957925E+03  0.12239820746E+03  0.24708742328E+03  0.80246925820E+02 0.  0.
         23    2    1    2    0    0 -0.57437171371E+02  0.26618315895E+03  0.51260481233E+03  0.58763712728E+03  0.91658043651E+02 0.  0.
        -11    1    3    3    0    0  0.11794797654E+03  0.10071364367E+03  0.76982495011E+02  0.17315099690E+03  0.00000000000E+00 0.  1.
         12    1    3    3    0    0  0.18055092961E+01  0.58315935585E+02  0.45415712453E+02  0.73936426371E+02  0.00000000000E+00 0. -1.
        -11    1    4    4    0    0 -0.31975945490E+02  0.25829534434E+03  0.47342083935E+03  0.54024645962E+03  0.00000000000E+00 0. -1.
         11    1    4    4    0    0 -0.25461225882E+02  0.78878146102E+01  0.39183972980E+02  0.47390667659E+02  0.00000000000E+00 0.  1.
          1    1    1    2  501    0 -0.62316314467E+02 -0.42521273820E+03  0.54680156103E+03  0.69547188507E+03  0.00000000000E+00 0. -1.
<scales pt_clust_5="13000.00000" pt_clust_6="13000.00000" pt_clust_7="13000.00000" pt_clust_8="13000.00000" pt_clust_9="13000.00000"></scales>
<clustering>
<clus scale="   80.247">  5  6 -1 -1</clus>
<clus scale="   91.658">  7  8 -1 -1</clus>
<clus scale="  214.641">  2  5  1 -1</clus>
<clus scale="  319.990">  7  9 -1 -1</clus>
<clus scale="  723.897">  1  5  2 -1</clus>
</clustering>
</event>
<event>
 9    2  0.3897980E-005  0.3844808E+03  0.7546771E-02  0.1068439E+00
          4   -1    0    0  502    0 -0.00000000000E+00  0.00000000000E+00  0.11401876716E+03  0.11401876716E+03  0.00000000000E+00 0. -1.
         21   -1    0    0  501  502  0.00000000000E+00 -0.00000000000E+00 -0.85352222883E+03  0.85352222883E+03  0.00000000000E+00 0. -1.
         24    2    1    2    0    0  0.20222708390E+03  0.49538310825E+02 -0.17628024347E+03  0.28559828813E+03  0.84509290873E+02 0.  0.
         23    2    1    2    0    0  0.13738640492E+02 -0.13767836548E+02 -0.17322851838E+02  0.93786324804E+02  0.90097114042E+02 0.  0.
        -11    1    3    3    0    0  0.67342083646E+02  0.20420084618E+02 -0.11452692263E+03  0.13441857049E+03  0.00000000000E+00 0.  1.
         12    1    3    3    0    0  0.13488500025E+03  0.29118226207E+02 -0.61753320837E+02  0.15117971764E+03  0.00000000000E+00 0. -1.
        -13    1    4    4    0    0  0.24151127013E+02 -0.46035248710E+02 -0.26928259031E+02  0.58546154394E+02  0.00000000000E+00 0. -1.
         13    1    4    4    0    0 -0.10412486521E+02  0.32267412162E+02  0.96054071932E+01  0.35240170410E+02  0.00000000000E+00 0.  1.
          3    1    1    2  501    0 -0.21596572439E+03 -0.35770474278E+02 -0.54590036635E+03  0.58815638305E+03  0.00000000000E+00 0. -1.
<scales pt_clust_5="13000.00000" pt_clust_6="13000.00000" pt_clust_7="13000.00000" pt_clust_8="13000.00000" pt_clust_9="13000.00000"></scales>
<clustering>
<clus scale="   84.509">  5  6 -1 -1</clus>
<clus scale="   90.097">  7  8 -1 -1</clus>
<clus scale="  218.908">  7  9 -1 -1</clus>
<clus scale="  224.703">  1  5  2 -1</clus>
<clus scale="  384.481">  2  5  1 -1</clus>
</clustering>
</event>
<event>
 9    2  0.3897980E-005  0.2639979E+03  0.7546771E-02  0.1122221E+00
         21   -1    0    0  501  502  0.00000000000E+00  0.00000000000E+00  0.65010836208E+02  0.65010836208E+02  0.00000000000E+00 0. -1.
          2   -1    0    0  502    0 -0.00000000000E+00 -0.00000000000E+00 -0.91617495258E+03  0.91617495258E+03  0.00000000000E+00 0. -1.
         24    2    1    2    0    0 -0.22481874296E+02  0.14804607737E+03 -0.13171460915E+03  0.21482917285E+03  0.79873396991E+02 0.  0.
         23    2    1    2    0    0  0.48544289051E+01  0.88194039691E+01 -0.15624723986E+03  0.18145123895E+03  0.91706078240E+02 0.  0.
        -13    1    3    3    0    0  0.29780809924E+02  0.60613288511E+02 -0.46127561468E+02  0.81783979548E+02  0.00000000000E+00 0.  1.
         14    1    3    3    0    0 -0.52262684219E+02  0.87432788860E+02 -0.85587047678E+02  0.13304519330E+03  0.00000000000E+00 0. -1.
        -13    1    4    4    0    0  0.36275245477E+02 -0.15426982017E+02 -0.31247129172E+02  0.50301772236E+02  0.00000000000E+00 0.  1.
         13    1    4    4    0    0 -0.31420816572E+02  0.24246385986E+02 -0.12500011069E+03  0.13114946671E+03  0.00000000000E+00 0. -1.
          1    1    1    2  501    0  0.17627445390E+02 -0.15686548134E+03 -0.56320226737E+03  0.58490537699E+03  0.00000000000E+00 0. -1.
<scales pt_clust_5="13000.00000" pt_clust_6="13000.00000" pt_clust_7="13000.00000" pt_clust_8="13000.00000" pt_clust_9="13000.00000"></scales>
<clustering>
<clus scale="   79.873">  5  6 -1 -1</clus>
<clus scale="   91.706">  7  8 -1 -1</clus>
<clus scale="  157.853">  7  9 -1 -1</clus>
<clus scale="  169.714">  2  5  1 -1</clus>
<clus scale="  263.998">  1  5  2 -1</clus>
</clustering>
</event>
<event>
 9    2  0.3897980E-005  0.2329357E+03  0.7546771E-02  0.1166514E+00
          2   -1    0    0  502    0 -0.00000000000E+00  0.00000000000E+00  0.47367359676E+03  0.47367359676E+03  0.00000000000E+00 0. -1.
         21   -1    0    0  501  502  0.00000000000E+00 -0.00000000000E+00 -0.70381517027E+02  0.70381517027E+02  0.00000000000E+00 0.  1.
         24    2    1    2    0    0 -0.24294824146E+01 -0.27916945055E+02  0.89088658146E+01  0.86018903113E+02  0.80837031098E+02 0.  0.
         23    2    1    2    0    0 -0.13193660195E+02 -0.55354693675E+02  0.34120179747E+03  0.35800365868E+03  0.92248242557E+02 0.  0.
        -11    1    3    3    0    0  0.22328093745E+02 -0.48461785875E+02  0.45229838078E+01  0.53549470987E+02  0.00000000000E+00 0.  1.
         12    1    3    3    0    0 -0.24757576160E+02  0.20544840820E+02  0.43858820068E+01  0.32469432126E+02  0.00000000000E+00 0. -1.
        -11    1    4    4    0    0  0.16934832646E+02  0.19110422406E+02  0.11950244636E+03  0.12219996517E+03  0.00000000000E+00 0.  1.
         11    1    4    4    0    0 -0.30128492840E+02 -0.74465116081E+02  0.22169935111E+03  0.23580369352E+03  0.00000000000E+00 0. -1.
          1    1    1    2  501    0  0.15623142609E+02  0.83271638730E+02  0.53181416451E+02  0.10003255199E+03  0.00000000000E+00 0. -1.
<scales pt_clust_5="13000.00000" pt_clust_6="13000.00000" pt_clust_7="13000.00000" pt_clust_8="13000.00000" pt_clust_9="13000.00000"></scales>
<clustering>
<clus scale="   80.837">  5  6 -1 -1</clus>
<clus scale="   85.556">  1  5  2 -1</clus>
<clus scale="   92.248">  7  8 -1 -1</clus>
<clus scale="   79.714">  7  9 -1 -1</clus>
<clus scale="  232.936">  2  5  1 -1</clus>
</clustering>
</event>
<event>
 9    2  0.3897980E-005  0.3788306E+03  0.7546771E-02  0.1072990E+00
         -1   -1    0    0    0  501 -0.00000000000E+00  0.00000000000E+00  0.46886404776E+03  0.46886404776E+03  0.00000000000E+00 0.  1.
         21   -1    0    0  501  502  0.00000000000E+00 -0.00000000000E+00 -0.38899592644E+03  0.38899592644E+03  0.00000000000E+00 0.  1.
         24    2    1    2    0    0 -0.14446749713E+03 -0.12668775173E+03 -0.27118813752E+03  0.34137848602E+03  0.77946267513E+02 0.  0.
         23    2    1    2    0    0 -0.20317597434E+02 -0.17110562270E+02  0.26541161098E+03  0.28160473708E+03  0.90290246425E+02 0.  0.
        -11    1    3    3    0    0 -0.71671990118E+02 -0.51542871738E+02 -0.63240974853E+02  0.10859540826E+03  0.00000000000E+00 0.  1.
         12    1    3    3    0    0 -0.72795507011E+02 -0.75144879991E+02 -0.20794716267E+03  0.23278307776E+03  0.00000000000E+00 0. -1.
        -11    1    4    4    0    0  0.29792843545E+02 -0.27945531655E+00  0.16942486441E+03  0.17202463865E+03  0.00000000000E+00 0. -1.
         11    1    4    4    0    0 -0.50110440979E+02 -0.16831106953E+02  0.95986746567E+02  0.10958009843E+03  0.00000000000E+00 0.  1.
         -2    1    1    2    0  502  0.16478509456E+03  0.14379831400E+03  0.85644647869E+02  0.23487675110E+03  0.00000000000E+00 0.  1.
<scales pt_clust_5="13000.00000" pt_clust_6="13000.00000" pt_clust_7="13000.00000" pt_clust_8="13000.00000" pt_clust_9="13000.00000"></scales>
<clustering>
<clus scale="   77.946">  5  6 -1 -1</clus>
<clus scale="   90.290">  7  8 -1 -1</clus>
<clus scale="  207.356">  1  5  2 -1</clus>
<clus scale="  147.715">  7  9 -1 -1</clus>
<clus scale="  378.831">  2  5  1 -1</clus>
</clustering>
</event>
<event>
 9    2  0.3897980E-005  0.1612047E+03  0.7546771E-02  0.1203339E+00
         21   -1    0    0  501  502  0.00000000000E+00  0.00000000000E+00  0.59715069461E+02  0.59715069461E+02  0.00000000000E+00 0. -1.
          2   -1    0    0  502    0 -0.00000000000E+00 -0.00000000000E+00 -0.54703130899E+03  0.54703130899E+03  0.00000000000E+00 0. -1.
         24    2    1    2    0    0  0.50550810347E+02 -0.54058819895E+02 -0.41464483449E+03  0.42991849009E+03  0.86150037234E+02 0.  0.
         23    2    1    2    0    0 -0.46803037069E+02 -0.97927834695E+01 -0.52301193861E+02  0.10970100433E+03  0.83740507429E+02 0.  0.
        -11    1    3    3    0    0  0.33434998409E+02 -0.33826656363E+02 -0.72250660414E+02  0.86500287453E+02  0.00000000000E+00 0.  1.
         12    1    3    3    0    0  0.17115811938E+02 -0.20232163532E+02 -0.34239417408E+03  0.34341820264E+03  0.00000000000E+00 0. -1.
        -11    1    4    4    0    0 -0.52728237911E+02  0.18416665873E+02 -0.73948050889E+01  0.56339362770E+02  0.00000000000E+00 0.  1.
         11    1    4    4    0    0  0.59252008417E+01 -0.28209449342E+02 -0.44906388772E+02  0.53361641558E+02  0.00000000000E+00 0. -1.
          1    1    1    2  501    0 -0.37477732775E+01  0.63851603364E+02 -0.20370211178E+02  0.67126884034E+02  0.00000000000E+00 0. -1.
<scales pt_clust_5="13000.00000" pt_clust_6="13000.00000" pt_clust_7="13000.00000" pt_clust_8="13000.00000" pt_clust_9="13000.00000"></scales>
<clustering>
<clus scale="   83.741">  7  8 -1 -1</clus>
<clus scale="   63.962">  7  9 -1 -1</clus>
<clus scale="   86.150">  5  6 -1 -1</clus>
<clus scale="  113.576">  2  5  1 -1</clus>
<clus scale="  161.205">  1  5  2 -1</clus>
</clustering>
</event>
<event>
 9    2  0.3897980E-005  0.2439624E+03  0.7546771E-02  0.1135927E+00
         21   -1    0    0  501  502  0.00000000000E+00  0.00000000000E+00  0.73592466635E+02  0.73592466635E+02  0.00000000000E+00 0. -1.
          2   -1    0    0  502    0 -0.00000000000E+00 -0.00000000000E+00 -0.56446740528E+03  0.56446740528E+03  0.00000000000E+00 0. -1.
         24    2    1    2    0    0  0.63117580090E+02 -0.11330640153E+03 -0.26137053998E+03  0.30311223570E+03  0.82099322263E+02 0.  0.
         23    2    1    2    0    0 -0.33562771980E+02  0.95805284469E+01 -0.19687893638E+02  0.99033437384E+02  0.90563581952E+02 0.  0.
        -13    1    3    3    0    0  0.92832647391E+01 -0.96720599197E+02 -0.16435953555E+03  0.19093221373E+03  0.00000000000E+00 0.  1.
         14    1    3    3    0    0  0.53834315350E+02 -0.16585802333E+02 -0.97011004431E+02  0.11218002197E+03  0.00000000000E+00 0. -1.
        -13    1    4    4    0    0  0.24863129378E+02 -0.18843554355E+01 -0.29569116586E+02  0.38678917430E+02  0.00000000000E+00 0.  1.
         13    1    4    4    0    0 -0.58425901358E+02  0.11464883882E+02  0.98812229484E+01  0.60354519954E+02  0.00000000000E+00 0. -1.
          1    1    1    2  501    0 -0.29554808109E+02  0.10372587308E+03 -0.20981650503E+03  0.23591419883E+03  0.00000000000E+00 0. -1.
<scales pt_clust_5="13000.00000" pt_clust_6="13000.00000" pt_clust_7="13000.00000" pt_clust_8="13000.00000" pt_clust_9="13000.00000"></scales>
<clustering>
<clus scale="   82.099">  5  6 -1 -1</clus>
<clus scale="   90.564">  7  8 -1 -1</clus>
<clus scale="  107.854">  7  9 -1 -1</clus>
<clus scale="  153.501">  2  5  1 -1</clus>
<clus scale="  243.962">  1  5  2 -1</clus>
</clustering>
</event>
<event>
 9    2  0.3897980E-005  0.3152604E+03  0.7546771E-02  0.1125935E+00
         21   -1    0    0  501  502  0.00000000000E+00  0.00000000000E+00  0.13352472881E+03  0.13352472881E+03  0.00000000000E+00 0. -1.
         -3   -1    0    0    0  501 -0.00000000000E+00 -0.00000000000E+00 -0.46866503662E+03  0.46866503662E+03  0.00000000000E+00 0.  1.
         24    2    1    2    0    0  0.43764116098E+02  0.42011979705E+00  0.50592560069E+02  0.10401409980E+03  0.79648298567E+02 0.  0.
         23    2    1    2    0    0  0.72400980849E+02 -0.18944571894E+02 -0.27530368288E+02  0.12115243585E+03  0.91209608612E+02 0.  0.
        -13    1    3    3    0    0  0.38904314443E+01 -0.34451471509E+02  0.69044901429E+01  0.35351256415E+02  0.00000000000E+00 0.  1.
         14    1    3    3    0    0  0.39873684653E+02  0.34871591306E+02  0.43688069926E+02  0.68662843386E+02  0.00000000000E+00 0. -1.
        -13    1    4    4    0    0  0.53451768622E+02  0.31827889701E+02 -0.48318599045E+01  0.62397540030E+02  0.00000000000E+00 0. -1.
         13    1    4    4    0    0  0.18949212227E+02 -0.50772461595E+02 -0.22698508384E+02  0.58754895824E+02  0.00000000000E+00 0.  1.
         -4    1    1    2    0  502 -0.11616509695E+03  0.18524452097E+02 -0.35820249959E+03  0.37702322977E+03  0.00000000000E+00 0.  1.
<scales pt_clust_5="13000.00000" pt_clust_6="13000.00000" pt_clust_7="13000.00000" pt_clust_8="13000.00000" pt_clust_9="13000.00000"></scales>
<clustering>
<clus scale="   79.648">  5  6 -1 -1</clus>
<clus scale="   90.881">  2  5  1 -1</clus>
<clus scale="   91.210">  7  8 -1 -1</clus>
<clus scale="   81.965">  7  9 -1 -1</clus>
<clus scale="  315.260">  1  5  2 -1</clus>
</clustering>
</event>
<event>
 9    2  0.3897980E-005  0.2435021E+03  0.7546771E-02  0.1139969E+00
         21   -1    0    0  501  502  0.00000000000E+00  0.00000000000E+00  0.76342042585E+03  0.76342042585E+03  0.00000000000E+00 0.  1.
         -1   -1    0    0    0  501 -0.00000000000E+00 -0.00000000000E+00 -0.76661960428E+02  0.76661960428E+02  0.00000000000E+00 0.  1.
         24    2    1    2    0    0 -0.13303397837E+02  0.11335998393E+03  0.34956251333E+02  0.14428112747E+03  0.81040964246E+02 0.  0.
         23    2    1    2    0    0  0.66969595896E+02 -0.30349378640E+02  0.18929884655E+03  0.22285286163E+03  0.91778717980E+02 0.  0.
        -11    1    3    3    0    0 -0.47700189608E+02  0.64195810539E+02  0.19518433983E+02  0.82324840993E+02  0.00000000000E+00 0.  1.
         12    1    3    3    0    0  0.34396791771E+02  0.49164173393E+02  0.15437817350E+02  0.61956286478E+02  0.00000000000E+00 0. -1.
        -13    1    4    4    0    0  0.13058426456E+02  0.31483941004E+02  0.40459090699E+02  0.52902732092E+02  0.00000000000E+00 0.  1.
         13    1    4    4    0    0  0.53911169439E+02 -0.61833319644E+02  0.14883975585E+03  0.16995012954E+03  0.00000000000E+00 0. -1.
         -2    1    1    2    0  502 -0.53666198059E+02 -0.83010605293E+02  0.46250336754E+03  0.47294839717E+03  0.00000000000E+00 0.  1.
<scales pt_clust_5="13000.00000" pt_clust_6="13000.00000" pt_clust_7="13000.00000" pt_clust_8="13000.00000" pt_clust_9="13000.00000"></scales>
<clustering>
<clus scale="   81.041">  5  6 -1 -1</clus>
<clus scale="   91.779">  7  8 -1 -1</clus>
<clus scale="   98.848">  7  9 -1 -1</clus>
<clus scale="  139.983">  2  5  1 -1</clus>
<clus scale="  243.502">  1  5  2 -1</clus>
</clustering>
</event>
<event>
 9    2  0.3897980E-005  0.3151781E+03  0.7546771E-02  0.1121199E+00
          2   -1    0    0  502    0 -0.00000000000E+00  0.00000000000E+00  0.17000854725E+04  0.17000854725E+04  0.00000000000E+00 0. -1.
         21   -1    0    0  501  502  0.00000000000E+00 -0.00000000000E+00 -0.25895095523E+02  0.25895095523E+02  0.00000000000E+00 0. -1.
         24    2    1    2    0    0 -0.55521931198E+02  0.30492014872E+02  0.33945246820E+03  0.35453516476E+03  0.80341502790E+02 0.  0.
         23    2    1    2    0    0 -0.55393126272E+02 -0.11738243816E+03  0.47745883757E+03  0.50266493526E+03  0.88645701235E+02 0.  0.
        -11    1    3    3    0    0 -0.15204948804E+02 -0.26099762403E+02  0.14303257904E+03  0.14618723177E+03  0.00000000000E+00 0.  1.
         12    1    3    3    0    0 -0.40316982394E+02  0.56591777275E+02  0.19641988916E+03  0.20834793299E+03  0.00000000000E+00 0. -1.
        -11    1    4    4    0    0 -0.96558767397E+01 -0.88363809600E+02  0.38827971696E+03  0.39832466331E+03  0.00000000000E+00 0. -1.
         11    1    4    4    0    0 -0.45737249532E+02 -0.29018628564E+02  0.89179120607E+02  0.10434027195E+03  0.00000000000E+00 0.  1.
          1    1    1    2  501    0  0.11091505747E+03  0.86890423292E+02  0.85727907118E+03  0.86878046796E+03  0.00000000000E+00 0. -1.
<scales pt_clust_5="13000.00000" pt_clust_6="13000.00000" pt_clust_7="13000.00000" pt_clust_8="13000.00000" pt_clust_9="13000.00000"></scales>
<clustering>
<clus scale="   80.342">  5  6 -1 -1</clus>
<clus scale="   88.646">  7  8 -1 -1</clus>
<clus scale="  102.309">  1  5  2 -1</clus>
<clus scale="  130.417">  7  9 -1 -1</clus>
<clus scale="  315.178">  2  5  1 -1</clus>
</clustering>
</event>
<event>
 9    2  0.3897980E-005  0.1217464E+03  0.7546771E-02  0.1258931E+00
         21   -1    0    0  501  502  0.00000000000E+00  0.00000000000E+00  0.22632756860E+02  0.22632756860E+02  0.00000000000E+00 0. -1.
          2   -1    0    0  502    0 -0.00000000000E+00 -0.00000000000E+00 -0.54319724397E+03  0.54319724397E+03  0.00000000000E+00 0. -1.
         24    2    1    2    0    0 -0.22755318452E+02  0.79243550815E+01 -0.11434584799E+03  0.14175951188E+03  0.80250771556E+02 0.  0.
         23    2    1    2    0    0  0.24061951446E+02  0.13257210844E+02 -0.29685915456E+03  0.31267092482E+03  0.94249766227E+02 0.  0.
        -13    1    3    3    0    0  0.21493062439E+02  0.27508611728E+02 -0.40460176150E+02  0.53438762208E+02  0.00000000000E+00 0.  1.
         14    1    3    3    0    0 -0.44248380891E+02 -0.19584256646E+02 -0.73885671838E+02  0.88320749673E+02  0.00000000000E+00 0. -1.
        -11    1    4    4    0    0  0.40843948632E+02  0.42406248388E+02 -0.13383648096E+03  0.14621464249E+03  0.00000000000E+00 0. -1.
         11    1    4    4    0    0 -0.16781997186E+02 -0.29149037544E+02 -0.16302267361E+03  0.16645628233E+03  0.00000000000E+00 0.  1.
          1    1    1    2  501    0 -0.13066329939E+01 -0.21181565925E+02 -0.10935948456E+03  0.11139956413E+03  0.00000000000E+00 0. -1.
<scales pt_clust_5="13000.00000" pt_clust_6="13000.00000" pt_clust_7="13000.00000" pt_clust_8="13000.00000" pt_clust_9="13000.00000"></scales>
<clustering>
<clus scale="   80.251">  5  6 -1 -1</clus>
<clus scale="   83.790">  2  5  1 -1</clus>
<clus scale="   94.250">  7  8 -1 -1</clus>
<clus scale="   20.444">  7  9 -1 -1</clus>
<clus scale="  121.746">  1  5  2 -1</clus>
</clustering>
</event>
<event>
 9    2  0.3897980E-005  0.1895389E+03  0.7546771E-02  0.1194825E+00
          2   -1    0    0  502    0 -0.00000000000E+00  0.00000000000E+00  0.23513192786E+03  0.23513192786E+03  0.00000000000E+00 0. -1.
         21   -1    0    0  501  502  0.00000000000E+00 -0.00000000000E+00 -0.79699271113E+02  0.79699271113E+02  0.00000000000E+00 0. -1.
         24    2    1    2    0    0  0.23717329794E+02  0.19937163549E+02  0.52696211168E+02  0.99239563813E+02  0.78176710927E+02 0.  0.
         23    2    1    2    0    0  0.11436155640E+02  0.26889302302E+02  0.12074915158E+03  0.15433036665E+03  0.91562460810E+02 0.  0.
        -11    1    3    3    0    0  0.39703926492E+02  0.67334881243E+01  0.64006399727E+02  0.75621166662E+02  0.00000000000E+00 0.  1.
         12    1    3    3    0    0 -0.15986596698E+02  0.13203675425E+02 -0.11310188560E+02  0.23618397151E+02  0.00000000000E+00 0. -1.
        -11    1    4    4    0    0  0.42556730399E+02  0.30433688640E+02  0.34758014834E+02  0.62812453397E+02  0.00000000000E+00 0.  1.
         11    1    4    4    0    0 -0.31120574760E+02 -0.35443863380E+01  0.85991136742E+02  0.91517913252E+02  0.00000000000E+00 0. -1.
          1    1    1    2  501    0 -0.35153485434E+02 -0.46826465851E+02 -0.18012705996E+02  0.61261268511E+02  0.00000000000E+00 0. -1.
<scales pt_clust_5="13000.00000" pt_clust_6="13000.00000" pt_clust_7="13000.00000" pt_clust_8="13000.00000" pt_clust_9="13000.00000"></scales>
<clustering>
<clus scale="   78.177">  5  6 -1 -1</clus>
<clus scale="   84.093">  1  5  2 -1</clus>
<clus scale="   91.562">  7  8 -1 -1</clus>
<clus scale="   54.461">  7  9 -1 -1</clus>
<clus scale="  189.539">  2  5  1 -1</clus>
</clustering>
</event>
<event>
 9    2  0.3897980E-005  0.1840365E+03  0.7546771E-02  0.1176968E+00
          2   -1    0    0  502    0 -0.00000000000E+00  0.00000000000E+00  0.11742329547E+04  0.11742329547E+04  0.00000000000E+00 0. -1.
         21   -1    0    0  501  502  0.00000000000E+00 -0.00000000000E+00 -0.22591452405E+02  0.22591452405E+02  0.00000000000E+00 0. -1.
         24    2    1    2    0    0 -0.75663801587E+02  0.75138869660E+02  0.59701750193E+03  0.61246390101E+03  0.85505975395E+02 0.  0.
         23    2    1    2    0    0  0.44339756803E+02 -0.30386042628E+02  0.21238799502E+03  0.23779233868E+03  0.92451123769E+02 0.  0.
        -13    1    3    3    0    0  0.16883290288E+02  0.27986859290E+02  0.15464153607E+03  0.15805794653E+03  0.00000000000E+00 0.  1.
         14    1    3    3    0    0 -0.92547091875E+02  0.47152010370E+02  0.44237596586E+03  0.45440595448E+03  0.00000000000E+00 0. -1.
        -11    1    4    4    0    0  0.53421307920E+02 -0.57077546464E+02  0.14472190250E+03  0.16448742053E+03  0.00000000000E+00 0. -1.
         11    1    4    4    0    0 -0.90815511164E+01  0.26691503835E+02  0.67666092517E+02  0.73304918145E+02  0.00000000000E+00 0.  1.
          1    1    1    2  501    0  0.31324044784E+02 -0.44752827032E+02  0.34223600533E+03  0.34656816740E+03  0.00000000000E+00 0. -1.
<scales pt_clust_5="13000.00000" pt_clust_6="13000.00000" pt_clust_7="13000.00000" pt_clust_8="13000.00000" pt_clust_9="13000.00000"></scales>
<clustering>
<clus scale="   85.506">  5  6 -1 -1</clus>
<clus scale="   92.451">  7  8 -1 -1</clus>
<clus scale="   54.626">  7  9 -1 -1</clus>
<clus scale="  136.683">  1  5  2 -1</clus>
<clus scale="  184.036">  2  5  1 -1</clus>
</clustering>
</event>
<event>
 9    2  0.3897980E-005  0.3222672E+03  0.7546771E-02  0.1112695E+00
          2   -1    0    0  502    0 -0.00000000000E+00  0.00000000000E+00  0.10696755433E+04  0.10696755433E+04  0.00000000000E+00 0. -1.
         21   -1    0    0  501  502  0.00000000000E+00 -0.00000000000E+00 -0.48427735297E+02  0.48427735297E+02  0.00000000000E+00 0.  1.
         24    2    1    2    0    0  0.32085018177E+02  0.87018837324E+02  0.41408373123E+03  0.43071374565E+03  0.73805608064E+02 0.  0.
         23    2    1    2    0    0  0.65475950536E+02  0.49356869823E+02  0.11850770101E+03  0.17076439835E+03  0.91614430358E+02 0.  0.
        -13    1    3    3    0    0  0.37351341263E+02  0.71342950861E+02  0.40261402771E+03  0.41058859536E+03  0.00000000000E+00 0.  1.
         14    1    3    3    0    0 -0.52663230856E+01  0.15675886463E+02  0.11469703515E+02  0.20125150284E+02  0.00000000000E+00 0. -1.
        -13    1    4    4    0    0  0.18108935570E+02  0.68149741639E+02  0.55546411632E+02  0.89764829851E+02  0.00000000000E+00 0.  1.
         13    1    4    4    0    0  0.47367014966E+02 -0.18792871816E+02  0.62961289374E+02  0.80999568502E+02  0.00000000000E+00 0. -1.
          1    1    1    2  501    0 -0.97560968713E+02 -0.13637570715E+03  0.48865637577E+03  0.51662513460E+03  0.00000000000E+00 0. -1.
<scales pt_clust_5="13000.00000" pt_clust_6="13000.00000" pt_clust_7="13000.00000" pt_clust_8="13000.00000" pt_clust_9="13000.00000"></scales>
<clustering>
<clus scale="   73.806">  5  6 -1 -1</clus>
<clus scale="   91.614">  7  8 -1 -1</clus>
<clus scale="  118.528">  1  5  2 -1</clus>
<clus scale="  100.055">  7  9 -1 -1</clus>
<clus scale="  322.267">  2  5  1 -1</clus>
</clustering>
</event>
<event>
 9    2  0.3897980E-005  0.1974956E+03  0.7546771E-02  0.1172349E+00
         21   -1    0    0  501  502  0.00000000000E+00  0.00000000000E+00  0.10438751545E+03  0.10438751545E+03  0.00000000000E+00 0. -1.
          2   -1    0    0  502    0 -0.00000000000E+00 -0.00000000000E+00 -0.30025849307E+03  0.30025849307E+03  0.00000000000E+00 0. -1.
         24    2    1    2    0    0 -0.88744492511E+02  0.25671580228E+02  0.50358485803E+01  0.12292265389E+03  0.80932095525E+02 0.  0.
         23    2    1    2    0    0  0.73982650292E+02  0.29010828581E+00 -0.40090458897E+02  0.11815738859E+03  0.82948218045E+02 0.  0.
        -13    1    3    3    0    0 -0.25079328838E+01  0.30812869310E+02  0.17678899534E+02  0.35612724288E+02  0.00000000000E+00 0.  1.
         14    1    3    3    0    0 -0.86236559627E+02 -0.51412890819E+01 -0.12643050954E+02  0.87309929602E+02  0.00000000000E+00 0. -1.
        -13    1    4    4    0    0  0.15812768684E+02 -0.21860132616E+02 -0.48349213129E+02  0.55367458508E+02  0.00000000000E+00 0.  1.
         13    1    4    4    0    0  0.58169881608E+02  0.22150240902E+02  0.82587542318E+01  0.62789930082E+02  0.00000000000E+00 0. -1.
          1    1    1    2  501    0  0.14761842219E+02 -0.25961688514E+02 -0.16081636730E+03  0.16356596604E+03  0.00000000000E+00 0. -1.
<scales pt_clust_5="13000.00000" pt_clust_6="13000.00000" pt_clust_7="13000.00000" pt_clust_8="13000.00000" pt_clust_9="13000.00000"></scales>
<clustering>
<clus scale="   80.932">  5  6 -1 -1</clus>
<clus scale="   82.948">  7  8 -1 -1</clus>
<clus scale="   29.865">  7  9 -1 -1</clus>
<clus scale="  122.820">  2  5  1 -1</clus>
<clus scale="  197.496">  1  5  2 -1</clus>
</clustering>
</event>
<event>
 9    2  0.3897980E-005  0.2594749E+03  0.7546771E-02  0.1118752E+00
         21   -1    0    0  501  502  0.00000000000E+00  0.00000000000E+00  0.15013786866E+03  0.15013786866E+03  0.00000000000E+00 0. -1.
          2   -1    0    0  502    0 -0.00000000000E+00 -0.00000000000E+00 -0.20377325511E+04  0.20377325511E+04  0.00000000000E+00 0. -1.
         24    2    1    2    0    0 -0.17594173288E+03 -0.58124904892E+01 -0.19168638056E+04  0.19267499433E+04  0.83721063145E+02 0.  0.
         23    2    1    2    0    0  0.50265337304E+02  0.61528463399E+02 -0.14052880179E+02  0.11698296564E+03  0.84706403930E+02 0.  0.
        -13    1    3    3    0    0 -0.28557273861E+02  0.72770241408E+01 -0.11136411565E+03  0.11519739244E+03  0.00000000000E+00 0.  1.
         14    1    3    3    0    0 -0.14738445902E+03 -0.13089514630E+02 -0.18054996899E+04  0.18115525508E+04  0.00000000000E+00 0. -1.
        -13    1    4    4    0    0  0.70168871946E+02  0.43641408851E+02  0.70071346497E+01  0.82929747935E+02  0.00000000000E+00 0. -1.
         13    1    4    4    0    0 -0.19903534641E+02  0.17887054548E+02 -0.21060014829E+02  0.34053217707E+02  0.00000000000E+00 0.  1.
          1    1    1    2  501    0  0.12567639557E+03 -0.55715972910E+02  0.43322003350E+02  0.14413751079E+03  0.00000000000E+00 0. -1.
<scales pt_clust_5="13000.00000" pt_clust_6="13000.00000" pt_clust_7="13000.00000" pt_clust_8="13000.00000" pt_clust_9="13000.00000"></scales>
<clustering>
<clus scale="   83.721">  5  6 -1 -1</clus>
<clus scale="   84.706">  7  8 -1 -1</clus>
<clus scale="  137.473">  7  9 -1 -1</clus>
<clus scale="  194.932">  2  5  1 -1</clus>
<clus scale="  259.475">  1  5  2 -1</clus>
</clustering>
</event>
<event>
 9    2  0.3897980E-005  0.1877479E+03  0.7546771E-02  0.1182771E+00
         21   -1    0    0  501  502  0.00000000000E+00  0.00000000000E+00  0.29124279269E+02  0.29124279269E+02  0.00000000000E+00 0. -1.
          2   -1    0    0  502    0 -0.00000000000E+00 -0.00000000000E+00 -0.79049271545E+03  0.79049271545E+03  0.00000000000E+00 0. -1.
         24    2    1    2    0    0 -0.67880779205E+01 -0.78773507834E+02 -0.34087714666E+03  0.35911489752E+03  0.80715159467E+02 0.  0.
         23    2    1    2    0    0 -0.34714958128E+02  0.45304999946E+02 -0.23862407270E+03  0.27098078553E+03  0.11502811273E+03 0.  0.
        -13    1    3    3    0    0 -0.32851370984E+02 -0.32310629469E+01 -0.94150605028E+02  0.99769678613E+02  0.00000000000E+00 0.  1.
         14    1    3    3    0    0  0.26063293064E+02 -0.75542444887E+02 -0.24672654163E+03  0.25934521891E+03  0.00000000000E+00 0. -1.
        -11    1    4    4    0    0  0.42139628159E+02  0.76633695470E+01 -0.80250985553E+02  0.90965357013E+02  0.00000000000E+00 0.  1.
         11    1    4    4    0    0 -0.76854586287E+02  0.37641630399E+02 -0.15837308715E+03  0.18001542852E+03  0.00000000000E+00 0. -1.
          1    1    1    2  501    0  0.41503036048E+02  0.33468507888E+02 -0.18186721682E+03  0.18952131166E+03  0.00000000000E+00 0. -1.
<scales pt_clust_5="13000.00000" pt_clust_6="13000.00000" pt_clust_7="13000.00000" pt_clust_8="13000.00000" pt_clust_9="13000.00000"></scales>
<clustering>
<clus scale="   80.715">  5  6 -1 -1</clus>
<clus scale="  112.988">  2  5  1 -1</clus>
<clus scale="  115.028">  7  8 -1 -1</clus>
<clus scale="   38.642">  7  9 -1 -1</clus>
<clus scale="  187.748">  1  5  2 -1</clus>
</clustering>
</event>
<event>
 9    2  0.3897980E-005  0.7021256E+03  0.7546771E-02  0.1038117E+00
         21   -1    0    0  501  502  0.00000000000E+00  0.00000000000E+00  0.26340825723E+03  0.26340825723E+03  0.00000000000E+00 0. -1.
          2   -1    0    0  502    0 -0.00000000000E+00 -0.00000000000E+00 -0.80942294396E+03  0.80942294396E+03  0.00000000000E+00 0. -1.
         24    2    1    2    0    0 -0.36190145912E+02  0.77624995853E+00 -0.32537807184E+03  0.33685505633E+03  0.79310214449E+02 0.  0.
         23    2    1    2    0    0 -0.28078139239E+03  0.11081059144E+03 -0.24494726383E+03  0.39905837015E+03  0.90173406523E+02 0.  0.
        -13    1    3    3    0    0  0.86534788682E+01  0.31583267662E+02 -0.12635188677E+03  0.13052656735E+03  0.00000000000E+00 0.  1.
         14    1    3    3    0    0 -0.44843624780E+02 -0.30807017703E+02 -0.19902618507E+03  0.20632848898E+03  0.00000000000E+00 0. -1.
        -11    1    4    4    0    0 -0.65674482498E+02  0.14497264548E+02 -0.10578707535E+03  0.12535634663E+03  0.00000000000E+00 0.  1.
         11    1    4    4    0    0 -0.21510690989E+03  0.96313326890E+02 -0.13916018848E+03  0.27370202352E+03  0.00000000000E+00 0. -1.
          1    1    1    2  501    0  0.31697153830E+03 -0.11158684140E+03  0.24310648941E+02  0.33691777471E+03  0.00000000000E+00 0. -1.
<scales pt_clust_5="13000.00000" pt_clust_6="13000.00000" pt_clust_7="13000.00000" pt_clust_8="13000.00000" pt_clust_9="13000.00000"></scales>
<clustering>
<clus scale="   79.310">  5  6 -1 -1</clus>
<clus scale="   87.180">  2  5  1 -1</clus>
<clus scale="   90.173">  7  8 -1 -1</clus>
<clus scale="  324.821">  7  9 -1 -1</clus>
<clus scale="  702.126">  1  5  2 -1</clus>
</clustering>
</event>
<event>
 9    2  0.3897980E-005  0.2581592E+03  0.7546771E-02  0.1146409E+00
          2   -1    0    0  502    0 -0.00000000000E+00  0.00000000000E+00  0.16386902866E+04  0.16386902866E+04  0.00000000000E+00 0. -1.
         21   -1    0    0  501  502  0.00000000000E+00 -0.00000000000E+00 -0.21578738065E+02  0.21578738065E+02  0.00000000000E+00 0. -1.
         24    2    1    2    0    0  0.61513632515E+02  0.99059350614E+01  0.71133506224E+03  0.71842125731E+03  0.79053637766E+02 0.  0.
         23    2    1    2    0    0 -0.49663688101E+02  0.91564078332E+02  0.32744157111E+03  0.35455920207E+03  0.87428730537E+02 0.  0.
        -11    1    3    3    0    0  0.46159913234E+02 -0.19008044905E+02  0.20355405380E+03  0.20958601141E+03  0.00000000000E+00 0.  1.
         12    1    3    3    0    0  0.15353719281E+02  0.28913979966E+02  0.50778100845E+03  0.50883524590E+03  0.00000000000E+00 0. -1.
        -13    1    4    4    0    0 -0.63973211401E+02  0.77224077875E+02  0.31547713252E+03  0.33103164672E+03  0.00000000000E+00 0.  1.
         13    1    4    4    0    0  0.14309523301E+02  0.14340000457E+02  0.11964438584E+02  0.23527555352E+02  0.00000000000E+00 0. -1.
          1    1    1    2  501    0 -0.11849944414E+02 -0.10147001339E+03  0.57833491523E+03  0.58728856534E+03  0.00000000000E+00 0. -1.
<scales pt_clust_5="13000.00000" pt_clust_6="13000.00000" pt_clust_7="13000.00000" pt_clust_8="13000.00000" pt_clust_9="13000.00000"></scales>
<clustering>
<clus scale="   79.054">  5  6 -1 -1</clus>
<clus scale="   87.429">  7  8 -1 -1</clus>
<clus scale="  100.656">  1  5  2 -1</clus>
<clus scale="   98.963">  7  9 -1 -1</clus>
<clus scale="  258.159">  2  5  1 -1</clus>
</clustering>
</event>
<event>
 9    2  0.3897980E-005  0.2537304E+03  0.7546771E-02  0.1121573E+00
          2   -1    0    0  502    0 -0.00000000000E+00  0.00000000000E+00  0.88836809434E+03  0.88836809434E+03  0.00000000000E+00 0. -1.
         21   -1    0    0  501  502  0.00000000000E+00 -0.00000000000E+00 -0.72567378089E+02  0.72567378089E+02  0.00000000000E+00 0.  1.
         24    2    1    2    0    0  0.16786271435E+03 -0.55640087563E+02  0.14111028043E+03  0.24011212237E+03  0.80423938335E+02 0.  0.
         23    2    1    2    0    0 -0.44419093605E+02  0.17325255958E+02  0.15834667168E+03  0.18854782310E+03  0.90572583013E+02 0.  0.
        -13    1    3    3    0    0  0.17047530353E+03 -0.40500092342E+02  0.14073995372E+03  0.22474390129E+03  0.00000000000E+00 0.  1.
         14    1    3    3    0    0 -0.26125891814E+01 -0.15139995221E+02  0.37032670629E+00  0.15368221087E+02  0.00000000000E+00 0. -1.
        -11    1    4    4    0    0  0.18633202898E+02 -0.11913058864E+02  0.91062005236E+01  0.23917360007E+02  0.00000000000E+00 0. -1.
         11    1    4    4    0    0 -0.63052296503E+02  0.29238314822E+02  0.14924047115E+03  0.16463046309E+03  0.00000000000E+00 0.  1.
          1    1    1    2  501    0 -0.12344362074E+03  0.38314831604E+02  0.51634376415E+03  0.53227552696E+03  0.00000000000E+00 0. -1.
<scales pt_clust_5="13000.00000" pt_clust_6="13000.00000" pt_clust_7="13000.00000" pt_clust_8="13000.00000" pt_clust_9="13000.00000"></scales>
<clustering>
<clus scale="   80.424">  5  6 -1 -1</clus>
<clus scale="   90.573">  7  8 -1 -1</clus>
<clus scale="  129.253">  7  9 -1 -1</clus>
<clus scale="  194.272">  1  5  2 -1</clus>
<clus scale="  253.730">  2  5  1 -1</clus>
</clustering>
</event>
<event>
 9    2  0.3897980E-005  0.5263847E+03  0.7546771E-02  0.1061634E+00
         21   -1    0    0  501  502  0.00000000000E+00  0.00000000000E+00  0.18801335418E+03  0.18801335418E+03  0.00000000000E+00 0.  1.
          2   -1    0    0  502    0 -0.00000000000E+00 -0.00000000000E+00 -0.78980134757E+03  0.78980134757E+03  0.00000000000E+00 0. -1.
         24    2    1    2    0    0 -0.64882751396E+02  0.17442684792E+02 -0.40055378912E+03  0.41427582965E+03  0.81652350691E+02 0.  0.
         23    2    1    2    0    0  0.27287622019E+03 -0.90613461014E+01 -0.21706199855E+02  0.28865374288E+03  0.91138820648E+02 0.  0.
        -11    1    3    3    0    0 -0.75230329809E+02 -0.97820125437E+01 -0.31029730971E+03  0.31943655193E+03  0.00000000000E+00 0.  1.
         12    1    3    3    0    0  0.10347578414E+02  0.27224697336E+02 -0.90256479407E+02  0.94839277723E+02  0.00000000000E+00 0. -1.
        -11    1    4    4    0    0  0.21087342671E+03 -0.32365033290E+02 -0.45739846902E+02  0.21819081344E+03  0.00000000000E+00 0.  1.
         11    1    4    4    0    0  0.62002793473E+02  0.23303687189E+02  0.24033647047E+02  0.70462929441E+02  0.00000000000E+00 0. -1.
          1    1    1    2  501    0 -0.20799346879E+03 -0.83813386911E+01 -0.17952800441E+03  0.27488512922E+03  0.00000000000E+00 0. -1.
<scales pt_clust_5="13000.00000" pt_clust_6="13000.00000" pt_clust_7="13000.00000" pt_clust_8="13000.00000" pt_clust_9="13000.00000"></scales>
<clustering>
<clus scale="   81.652">  5  6 -1 -1</clus>
<clus scale="   91.139">  7  8 -1 -1</clus>
<clus scale="  105.741">  2  5  1 -1</clus>
<clus scale="  246.554">  7  9 -1 -1</clus>
<clus scale="  526.385">  1  5  2 -1</clus>
</clustering>
</event>
<event>
 9    2  0.3897980E-005  0.3133888E+03  0.7546771E-02  0.1128993E+00
          2   -1    0    0  502    0 -0.00000000000E+00  0.00000000000E+00  0.36086293201E+03  0.36086293201E+03  0.00000000000E+00 0. -1.
         21   -1    0    0  501  502  0.00000000000E+00 -0.00000000000E+00 -0.11709129793E+03  0.11709129793E+03  0.00000000000E+00 0. -1.
         24    2    1    2    0    0 -0.16555721877E+01 -0.25473859945E+02  0.10396723328E+03  0.13479565002E+03  0.81908627186E+02 0.  0.
         23    2    1    2    0    0  0.70188173293E+01 -0.11737810309E+03  0.12229875391E+03  0.19913811119E+03  0.10426945498E+03 0.  0.
        -13    1    3    3    0    0  0.17179772542E+02  0.25895082466E+02  0.36931089846E+02  0.48265984686E+02  0.00000000000E+00 0.  1.
         14    1    3    3    0    0 -0.18835344730E+02 -0.51368942411E+02  0.67036143438E+02  0.86529665333E+02  0.00000000000E+00 0. -1.
        -13    1    4    4    0    0  0.10430156313E+02 -0.44722608870E+02  0.11760294966E+03  0.12625115316E+03  0.00000000000E+00 0.  1.
         13    1    4    4    0    0 -0.34113389837E+01 -0.72655494219E+02  0.46958042448E+01  0.72886958033E+02  0.00000000000E+00 0. -1.
          1    1    1    2  501    0 -0.53632451415E+01  0.14285196303E+03  0.17505646890E+02  0.14402046873E+03  0.00000000000E+00 0. -1.
<scales pt_clust_5="13000.00000" pt_clust_6="13000.00000" pt_clust_7="13000.00000" pt_clust_8="13000.00000" pt_clust_9="13000.00000"></scales>
<clustering>
<clus scale="   81.909">  5  6 -1 -1</clus>
<clus scale="   85.794">  1  5  2 -1</clus>
<clus scale="  104.269">  7  8 -1 -1</clus>
<clus scale="  134.463">  7  9 -1 -1</clus>
<clus scale="  313.389">  2  5  1 -1</clus>
</clustering>
</event>
<event>
 9    2  0.3897980E-005  0.1595417E+03  0.7546771E-02  0.1208649E+00
         21   -1    0    0  501  502  0.00000000000E+00  0.00000000000E+00  0.33900305288E+02  0.33900305288E+02  0.00000000000E+00 0.  1.
          2   -1    0    0  502    0 -0.00000000000E+00 -0.00000000000E+00 -0.78816132966E+03  0.78816132966E+03  0.00000000000E+00 0. -1.
         24    2    1    2    0    0  0.18075356463E+02  0.65403057176E+02 -0.56472525764E+03  0.57431705782E+03  0.79505898444E+02 0.  0.
         23    2    1    2    0    0  0.83820973173E+01 -0.56705207205E+01 -0.87050330410E+02  0.12620759745E+03  0.90819509290E+02 0.  0.
        -13    1    3    3    0    0  0.36855789055E+02  0.74856917896E+02 -0.44298202465E+03  0.45077154026E+03  0.00000000000E+00 0.  1.
         14    1    3    3    0    0 -0.18780432591E+02 -0.94538607192E+01 -0.12174323299E+03  0.12354551756E+03  0.00000000000E+00 0. -1.
        -11    1    4    4    0    0  0.40606322620E+02 -0.10600752911E+02 -0.10880114052E+02  0.43354656968E+02  0.00000000000E+00 0.  1.
         11    1    4    4    0    0 -0.32224225303E+02  0.49302321905E+01 -0.76170216357E+02  0.82852940477E+02  0.00000000000E+00 0. -1.
          1    1    1    2  501    0 -0.26457453781E+02 -0.59732536456E+02 -0.10248543631E+03  0.12153697967E+03  0.00000000000E+00 0. -1.
<scales pt_clust_5="13000.00000" pt_clust_6="13000.00000" pt_clust_7="13000.00000" pt_clust_8="13000.00000" pt_clust_9="13000.00000"></scales>
<clustering>
<clus scale="   79.506">  5  6 -1 -1</clus>
<clus scale="   90.820">  7  8 -1 -1</clus>
<clus scale="   65.330">  7  9 -1 -1</clus>
<clus scale="  104.525">  2  5  1 -1</clus>
<clus scale="  159.542">  1  5  2 -1</clus>
</clustering>
</event>
<event>
 9    2  0.3897980E-005  0.3450015E+03  0.7546771E-02  0.1113669E+00
          2   -1    0    0  502    0 -0.00000000000E+00  0.00000000000E+00  0.84548163968E+03  0.84548163968E+03  0.00000000000E+00 0. -1.
         21   -1    0    0  501  502  0.00000000000E+00 -0.00000000000E+00 -0.65725480224E+02  0.65725480224E+02  0.00000000000E+00 0.  1.
         24    2    1    2    0    0  0.30697096022E+02 -0.31366861368E+02  0.56526929114E+02  0.10990407017E+03  0.83411145704E+02 0.  0.
         23    2    1    2    0    0  0.41435402999E+02 -0.12321027200E+03  0.22998579533E+03  0.27939666565E+03  0.90947055869E+02 0.  0.
        -11    1    3    3    0    0 -0.19043815042E+02 -0.38351244250E+02  0.34801157814E+02  0.55177943166E+02  0.00000000000E+00 0.  1.
         12    1    3    3    0    0  0.49740911064E+02  0.69843828819E+01  0.21725771300E+02  0.54726126999E+02  0.00000000000E+00 0. -1.
        -13    1    4    4    0    0  0.60979724801E+02 -0.56882659441E+02  0.86683099823E+02  0.12028351332E+03  0.00000000000E+00 0.  1.
         13    1    4    4    0    0 -0.19544321802E+02 -0.66327612560E+02  0.14330269551E+03  0.15911315233E+03  0.00000000000E+00 0. -1.
          1    1    1    2  501    0 -0.72132499020E+02  0.15457713337E+03  0.49324343501E+03  0.52190638409E+03  0.00000000000E+00 0. -1.
<scales pt_clust_5="13000.00000" pt_clust_6="13000.00000" pt_clust_7="13000.00000" pt_clust_8="13000.00000" pt_clust_9="13000.00000"></scales>
<clustering>
<clus scale="   83.411">  5  6 -1 -1</clus>
<clus scale="   90.947">  7  8 -1 -1</clus>
<clus scale="   94.253">  1  5  2 -1</clus>
<clus scale="  143.336">  7  9 -1 -1</clus>
<clus scale="  345.002">  2  5  1 -1</clus>
</clustering>
</event>
<event>
 9    2  0.3897980E-005  0.2437521E+03  0.7546771E-02  0.1142175E+00
         -3   -1    0    0    0  501 -0.00000000000E+00  0.00000000000E+00  0.85749657938E+02  0.85749657938E+02  0.00000000000E+00 0.  1.
         21   -1    0    0  501  502  0.00000000000E+00 -0.00000000000E+00 -0.45067195902E+03  0.45067195902E+03  0.00000000000E+00 0. -1.
         24    2    1    2    0    0  0.75627369586E+02  0.73689156667E+02 -0.20798843676E+03  0.24651934010E+03  0.79768442245E+02 0.  0.
         23    2    1    2    0    0  0.92059132222E+01 -0.90258558982E+01  0.24021766844E+02  0.79847596380E+02  0.75049173562E+02 0.  0.
        -11    1    3    3    0    0  0.50797005376E+02  0.49129728654E+02 -0.54872648791E+02  0.89471076768E+02  0.00000000000E+00 0.  1.
         12    1    3    3    0    0  0.24830364211E+02  0.24559428013E+02 -0.15311578797E+03  0.15704826333E+03  0.00000000000E+00 0. -1.
        -11    1    4    4    0    0  0.29526800523E+02  0.23401687094E+02  0.89969780089E+01  0.38735210355E+02  0.00000000000E+00 0.  1.
         11    1    4    4    0    0 -0.20320887300E+02 -0.32427542992E+02  0.15024788835E+02  0.41112386025E+02  0.00000000000E+00 0. -1.
         -4    1    1    2    0  502 -0.84833282809E+02 -0.64663300769E+02 -0.18095563117E+03  0.21005468047E+03  0.00000000000E+00 0.  1.
<scales pt_clust_5="13000.00000" pt_clust_6="13000.00000" pt_clust_7="13000.00000" pt_clust_8="13000.00000" pt_clust_9="13000.00000"></scales>
<clustering>
<clus scale="   75.049">  7  8 -1 -1</clus>
<clus scale="   79.768">  5  6 -1 -1</clus>
<clus scale="  106.668">  7  9 -1 -1</clus>
<clus scale="  132.335">  1  5  2 -1</clus>
<clus scale="  243.752">  2  5  1 -1</clus>
</clustering>
</event>
<event>
 9    2  0.7435946E-005  0.7598788E+03  0.7546771E-02  0.1011706E+00
          2   -1    0    0  502    0 -0.00000000000E+00  0.00000000000E+00  0.58906027565E+03  0.58906027565E+03  0.00000000000E+00 0. -1.
         21   -1    0    0  501  502  0.00000000000E+00 -0.00000000000E+00 -0.35486199681E+03  0.35486199681E+03  0.00000000000E+00 0. -1.
         24    2    1    2    0    0  0.10411134635E+03 -0.75501199897E+02  0.12294005555E+02  0.15230536723E+03  0.80660886980E+02 0.  0.
         23    2    1    2    0    0  0.17845932754E+03 -0.38649706245E+02  0.39262458065E+03  0.44230037476E+03  0.90188850796E+02 0.  0.
        -11    1    3    3    0    0  0.34153051035E+02  0.19639261660E+01  0.31114723882E+02  0.46242988044E+02  0.00000000000E+00 0.  1.
         12    1    3    3    0    0  0.69958295319E+02 -0.77465126063E+02 -0.18820718327E+02  0.10606237918E+03  0.00000000000E+00 0. -1.
        -13    1    4    4    0    0  0.44711868882E+02  0.23289778579E+02  0.59246701197E+02  0.77792908468E+02  0.00000000000E+00 0.  1.
         13    1    4    4    0    0  0.13374745866E+03 -0.61939484824E+02  0.33337787945E+03  0.36450746629E+03  0.00000000000E+00 0. -1.
          1    1    1    2  501    0 -0.28257067389E+03  0.11415090614E+03 -0.17072030736E+03  0.34931653047E+03  0.00000000000E+00 0. -1.
<scales pt_clust_5="13000.00000" pt_clust_6="13000.00000" pt_clust_7="13000.00000" pt_clust_8="13000.00000" pt_clust_9="13000.00000"></scales>
<clustering>
<clus scale="   80.661">  5  6 -1 -1</clus>
<clus scale="   90.189">  7  8 -1 -1</clus>
<clus scale="  151.808">  1  5  2 -1</clus>
<clus scale="  282.816">  7  9 -1 -1</clus>
<clus scale="  759.879">  2  5  1 -1</clus>
</clustering>
</event>
<event>
 9    2  0.3897980E-005  0.2288835E+03  0.7546771E-02  0.1152132E+00
         21   -1    0    0  501  502  0.00000000000E+00  0.00000000000E+00  0.30424219700E+03  0.30424219700E+03  0.00000000000E+00 0.  1.
          2   -1    0    0  502    0 -0.00000000000E+00 -0.00000000000E+00 -0.13133023463E+03  0.13133023463E+03  0.00000000000E+00 0. -1.
         24    2    1    2    0    0 -0.61819366185E+00  0.97305724949E+02 -0.30091256164E+02  0.12963458578E+03  0.80192617249E+02 0.  0.
         23    2    1    2    0    0 -0.37357056068E+02 -0.13682402173E+03  0.17911503212E+03  0.24615105114E+03  0.91606673805E+02 0.  0.
        -13    1    3    3    0    0 -0.39805202019E+02  0.53094201305E+02 -0.93141710579E+01  0.67008970314E+02  0.00000000000E+00 0.  1.
         14    1    3    3    0    0  0.39187008357E+02  0.44211523644E+02 -0.20777085106E+02  0.62625615465E+02  0.00000000000E+00 0. -1.
        -11    1    4    4    0    0 -0.59850358033E+02 -0.97694072085E+02  0.16080361886E+03  0.19744366517E+03  0.00000000000E+00 0.  1.
         11    1    4    4    0    0  0.22493301965E+02 -0.39129949645E+02  0.18311413262E+02  0.48707385972E+02  0.00000000000E+00 0. -1.
          1    1    1    2  501    0  0.37975249730E+02  0.39518296782E+02  0.23888186409E+02  0.59786794717E+02  0.00000000000E+00 0. -1.
<scales pt_clust_5="13000.00000" pt_clust_6="13000.00000" pt_clust_7="13000.00000" pt_clust_8="13000.00000" pt_clust_9="13000.00000"></scales>
<clustering>
<clus scale="   80.193">  5  6 -1 -1</clus>
<clus scale="   91.607">  7  8 -1 -1</clus>
<clus scale="   54.807">  7  9 -1 -1</clus>
<clus scale="  126.094">  2  5  1 -1</clus>
<clus scale="  228.884">  1  5  2 -1</clus>
</clustering>
</event>
<event>
 9    2  0.3897980E-005  0.2440887E+03  0.7546771E-02  0.1146263E+00
          2   -1    0    0  502    0 -0.00000000000E+00  0.00000000000E+00  0.95663327049E+03  0.95663327049E+03  0.00000000000E+00 0. -1.
         21   -1    0    0  501  502  0.00000000000E+00 -0.00000000000E+00 -0.34669187052E+02  0.34669187052E+02  0.00000000000E+00 0. -1.
         24    2    1    2    0    0  0.60078509072E+02  0.65150370879E+02  0.27602553546E+03  0.30078387844E+03  0.80167619556E+02 0.  0.
         23    2    1    2    0    0 -0.55764394725E+00 -0.20428290177E+02  0.91137545505E+02  0.13074456199E+03  0.91490230536E+02 0.  0.
        -11    1    3    3    0    0  0.76098641167E+02  0.41556016362E+02  0.16797591642E+03  0.18903389691E+03  0.00000000000E+00 0.  1.
         12    1    3    3    0    0 -0.16020132095E+02  0.23594354517E+02  0.10804961905E+03  0.11174998154E+03  0.00000000000E+00 0. -1.
        -13    1    4    4    0    0  0.36685637859E+02 -0.33292178408E+02  0.70778580981E+02  0.86393360242E+02  0.00000000000E+00 0.  1.
         13    1    4    4    0    0 -0.37243281807E+02  0.12863888231E+02  0.20358964525E+02  0.44351201750E+02  0.00000000000E+00 0. -1.
          1    1    1    2  501    0 -0.59520865124E+02 -0.44722080702E+02  0.55480100247E+03  0.55977401711E+03  0.00000000000E+00 0. -1.
<scales pt_clust_5="13000.00000" pt_clust_6="13000.00000" pt_clust_7="13000.00000" pt_clust_8="13000.00000" pt_clust_9="13000.00000"></scales>
<clustering>
<clus scale="   80.168">  5  6 -1 -1</clus>
<clus scale="   91.490">  7  8 -1 -1</clus>
<clus scale="   74.450">  7  9 -1 -1</clus>
<clus scale="  119.503">  1  5  2 -1</clus>
<clus scale="  244.089">  2  5  1 -1</clus>
</clustering>
</event>
<event>
 9    2  0.3897980E-005  0.3536893E+03  0.7546771E-02  0.1088425E+00
          2   -1    0    0  502    0 -0.00000000000E+00  0.00000000000E+00  0.99825704811E+03  0.99825704811E+03  0.00000000000E+00 0. -1.
         21   -1    0    0  501  502  0.00000000000E+00 -0.00000000000E+00 -0.74813359083E+02  0.74813359083E+02  0.00000000000E+00 0. -1.
         24    2    1    2    0    0  0.42833396777E+02 -0.14146427549E+03  0.16219467353E+03  0.23366812195E+03  0.80292203714E+02 0.  0.
         23    2    1    2    0    0 -0.55835064767E+02 -0.61116630836E+02  0.14152597329E+03  0.18727904840E+03  0.90504385714E+02 0.  0.
        -13    1    3    3    0    0  0.35034477888E+01 -0.12310985128E+03  0.13352804305E+03  0.18165364821E+03  0.00000000000E+00 0.  1.
         14    1    3    3    0    0  0.39329948988E+02 -0.18354424210E+02  0.28666630474E+02  0.52014473738E+02  0.00000000000E+00 0. -1.
        -11    1    4    4    0    0 -0.40102369497E+01  0.20410572833E+02  0.75977488395E+01  0.22144960402E+02  0.00000000000E+00 0.  1.
         11    1    4    4    0    0 -0.51824827817E+02 -0.81527203669E+02  0.13392822445E+03  0.16513408800E+03  0.00000000000E+00 0. -1.
          1    1    1    2  501    0  0.13001667990E+02  0.20258090632E+03  0.61972304222E+03  0.65212323684E+03  0.00000000000E+00 0. -1.
<scales pt_clust_5="13000.00000" pt_clust_6="13000.00000" pt_clust_7="13000.00000" pt_clust_8="13000.00000" pt_clust_9="13000.00000"></scales>
<clustering>
<clus scale="   80.292">  5  6 -1 -1</clus>
<clus scale="   90.504">  7  8 -1 -1</clus>
<clus scale="  168.207">  1  5  2 -1</clus>
<clus scale="  101.706">  7  9 -1 -1</clus>
<clus scale="  353.689">  2  5  1 -1</clus>
</clustering>
</event>
<event>
 9    2  0.3897980E-005  0.2655849E+03  0.7546771E-02  0.1116374E+00
          2   -1    0    0  502    0 -0.00000000000E+00  0.00000000000E+00  0.53520040900E+03  0.53520040900E+03  0.00000000000E+00 0. -1.
         21   -1    0    0  501  502  0.00000000000E+00 -0.00000000000E+00 -0.19178908797E+03  0.19178908797E+03  0.00000000000E+00 0. -1.
         24    2    1    2    0    0 -0.40719374843E+02  0.17035538549E+03  0.41003488818E+03  0.45317559205E+03  0.80996807691E+02 0.  0.
         23    2    1    2    0    0 -0.42857729106E+02 -0.51690517971E+02 -0.31410223800E+01  0.11539510371E+03  0.93794825794E+02 0.  0.
        -13    1    3    3    0    0 -0.63620317947E+02  0.14726785935E+03  0.34405931569E+03  0.37962110053E+03  0.00000000000E+00 0.  1.
         14    1    3    3    0    0  0.22900943104E+02  0.23087526144E+02  0.65975572486E+02  0.73554491525E+02  0.00000000000E+00 0. -1.
        -11    1    4    4    0    0 -0.19869637645E+02 -0.72568044969E+02 -0.22829144853E+02  0.78626290168E+02  0.00000000000E+00 0.  1.
         11    1    4    4    0    0 -0.22988091461E+02  0.20877526998E+02  0.19688122474E+02  0.36768813539E+02  0.00000000000E+00 0. -1.
          1    1    1    2  501    0  0.83577103949E+02 -0.11866486752E+03 -0.63482544766E+02  0.15841880121E+03  0.00000000000E+00 0. -1.
<scales pt_clust_5="13000.00000" pt_clust_6="13000.00000" pt_clust_7="13000.00000" pt_clust_8="13000.00000" pt_clust_9="13000.00000"></scales>
<clustering>
<clus scale="   80.997">  5  6 -1 -1</clus>
<clus scale="   93.795">  7  8 -1 -1</clus>
<clus scale="  145.143">  7  9 -1 -1</clus>
<clus scale="  192.975">  1  5  2 -1</clus>
<clus scale="  265.585">  2  5  1 -1</clus>
</clustering>
</event>
<event>
 9    2  0.3897980E-005  0.2562189E+03  0.7546771E-02  0.1128705E+00
         21   -1    0    0  501  502  0.00000000000E+00  0.00000000000E+00  0.46406848429E+02  0.46406848429E+02  0.00000000000E+00 0. -1.
          2   -1    0    0  502    0 -0.00000000000E+00 -0.00000000000E+00 -0.11705394829E+04  0.11705394829E+04  0.00000000000E+00 0. -1.
         24    2    1    2    0    0  0.12432786779E+03 -0.55102408118E+02 -0.72946876886E+03  0.74640654929E+03  0.80649600018E+02 0.  0.
         23    2    1    2    0    0  0.20949961233E+02 -0.17114463601E+02 -0.15415793230E+03  0.18042940973E+03  0.89768023612E+02 0.  0.
        -13    1    3    3    0    0  0.14251808870E+02 -0.22858084787E+02 -0.45413491579E+02  0.52801432874E+02  0.00000000000E+00 0.  1.
         14    1    3    3    0    0  0.11007605892E+03 -0.32244323331E+02 -0.68405527728E+03  0.69360511641E+03  0.00000000000E+00 0. -1.
        -11    1    4    4    0    0 -0.94487573194E+00  0.29019856904E+02 -0.16035018903E+02  0.33168761148E+02  0.00000000000E+00 0. -1.
         11    1    4    4    0    0  0.21894836964E+02 -0.46134320505E+02 -0.13812291340E+03  0.14726064858E+03  0.00000000000E+00 0.  1.
          1    1    1    2  501    0 -0.14527782903E+03  0.72216871719E+02 -0.24050593330E+03  0.29011037231E+03  0.00000000000E+00 0. -1.
<scales pt_clust_5="13000.00000" pt_clust_6="13000.00000" pt_clust_7="13000.00000" pt_clust_8="13000.00000" pt_clust_9="13000.00000"></scales>
<clustering>
<clus scale="   80.650">  5  6 -1 -1</clus>
<clus scale="   89.768">  7  8 -1 -1</clus>
<clus scale="  158.108">  2  5  1 -1</clus>
<clus scale="   79.003">  7  9 -1 -1</clus>
<clus scale="  256.219">  1  5  2 -1</clus>
</clustering>
</event>
<event>
 9    2  0.3897980E-005  0.3556657E+03  0.7546771E-02  0.1074462E+00
          2   -1    0    0  502    0 -0.00000000000E+00  0.00000000000E+00  0.17083813533E+03  0.17083813533E+03  0.00000000000E+00 0. -1.
         21   -1    0    0  501  502  0.00000000000E+00 -0.00000000000E+00 -0.69411214729E+03  0.69411214729E+03  0.00000000000E+00 0. -1.
         24    2    1    2    0    0  0.19372876830E+03  0.12033569457E+03 -0.10542867647E+02  0.24093800288E+03  0.76996455214E+02 0.  0.
         23    2    1    2    0    0 -0.11927490644E+03  0.59174120990E+02 -0.23417916856E+03  0.28436782649E+03  0.91088406814E+02 0.  0.
        -13    1    3    3    0    0  0.57897753747E+02  0.32566675081E+02 -0.38559671120E+02  0.76808765461E+02  0.00000000000E+00 0.  1.
         14    1    3    3    0    0  0.13583101456E+03  0.87769019492E+02  0.28016803473E+02  0.16412923742E+03  0.00000000000E+00 0. -1.
        -13    1    4    4    0    0 -0.68181669982E+02 -0.14848375598E+02 -0.82781645454E+02  0.10826825575E+03  0.00000000000E+00 0.  1.
         13    1    4    4    0    0 -0.51093236460E+02  0.74022496588E+02 -0.15139752310E+03  0.17609957074E+03  0.00000000000E+00 0. -1.
          1    1    1    2  501    0 -0.74453861861E+02 -0.17950981556E+03 -0.27855197576E+03  0.33964445325E+03  0.00000000000E+00 0. -1.
<scales pt_clust_5="13000.00000" pt_clust_6="13000.00000" pt_clust_7="13000.00000" pt_clust_8="13000.00000" pt_clust_9="13000.00000"></scales>
<clustering>
<clus scale="   76.996">  5  6 -1 -1</clus>
<clus scale="   91.088">  7  8 -1 -1</clus>
<clus scale="  194.338">  7  9 -1 -1</clus>
<clus scale="  240.707">  1  5  2 -1</clus>
<clus scale="  355.666">  2  5  1 -1</clus>
</clustering>
</event>
<event>
 9    2  0.3897980E-005  0.2415396E+03  0.7546771E-02  0.1160429E+00
          2   -1    0    0  502    0 -0.00000000000E+00  0.00000000000E+00  0.56812323213E+03  0.56812323213E+03  0.00000000000E+00 0. -1.
         21   -1    0    0  501  502  0.00000000000E+00 -0.00000000000E+00 -0.54263585769E+02  0.54263585769E+02  0.00000000000E+00 0. -1.
         24    2    1    2    0    0  0.10819143517E+02 -0.35217772649E+02  0.55625282015E+02  0.10439055640E+03  0.80286181180E+02 0.  0.
         23    2    1    2    0    0 -0.70648254861E+02 -0.38941946040E+02  0.36506678324E+03  0.38473192040E+03  0.90759259998E+02 0.  0.
        -13    1    3    3    0    0 -0.26091069467E+02  0.92929989292E+01  0.30918525017E+02  0.41509744931E+02  0.00000000000E+00 0.  1.
         14    1    3    3    0    0  0.36910212984E+02 -0.44510771578E+02  0.24706756999E+02  0.62880811464E+02  0.00000000000E+00 0. -1.
        -13    1    4    4    0    0 -0.71605568266E+02  0.51129271011E+01  0.16619420831E+03  0.18103594755E+03  0.00000000000E+00 0.  1.
         13    1    4    4    0    0  0.95731340450E+00 -0.44054873141E+02  0.19887257493E+03  0.20369597285E+03  0.00000000000E+00 0. -1.
          1    1    1    2  501    0  0.59829111344E+02  0.74159718689E+02  0.93167581110E+02  0.13326434111E+03  0.00000000000E+00 0. -1.
<scales pt_clust_5="13000.00000" pt_clust_6="13000.00000" pt_clust_7="13000.00000" pt_clust_8="13000.00000" pt_clust_9="13000.00000"></scales>
<clustering>
<clus scale="   80.286">  5  6 -1 -1</clus>
<clus scale="   88.336">  1  5  2 -1</clus>
<clus scale="   90.759">  7  8 -1 -1</clus>
<clus scale="   90.780">  7  9 -1 -1</clus>
<clus scale="  241.540">  2  5  1 -1</clus>
</clustering>
</event>
<event>
 9    2  0.3897980E-005  0.3139882E+03  0.7546771E-02  0.1130599E+00
          2   -1    0    0  502    0 -0.00000000000E+00  0.00000000000E+00  0.50444198482E+03  0.50444198482E+03  0.00000000000E+00 0. -1.
         21   -1    0    0  501  502  0.00000000000E+00 -0.00000000000E+00 -0.15348497398E+03  0.15348497398E+03  0.00000000000E+00 0. -1.
         24    2    1    2    0    0 -0.10199332686E+02  0.33239471767E+01 -0.86667485027E+02  0.11931411626E+03  0.81299018237E+02 0.  0.
         23    2    1    2    0    0  0.72203526903E+02 -0.14877993435E+02  0.24296371281E+02  0.12050023252E+03  0.92169888754E+02 0.  0.
        -11    1    3    3    0    0 -0.40849348721E+02  0.16430132299E+02 -0.29053250932E+02  0.52751397403E+02  0.00000000000E+00 0.  1.
         12    1    3    3    0    0  0.30650016035E+02 -0.13106185123E+02 -0.57614234095E+02  0.66562718858E+02  0.00000000000E+00 0. -1.
        -13    1    4    4    0    0  0.29280359011E+02  0.17791479467E+02  0.50107600517E+02  0.60701299780E+02  0.00000000000E+00 0.  1.
         13    1    4    4    0    0  0.42923167892E+02 -0.32669472902E+02 -0.25811229236E+02  0.59798932735E+02  0.00000000000E+00 0. -1.
          1    1    1    2  501    0 -0.62004194217E+02  0.11554046259E+02  0.41332812459E+03  0.41811261002E+03  0.00000000000E+00 0. -1.
<scales pt_clust_5="13000.00000" pt_clust_6="13000.00000" pt_clust_7="13000.00000" pt_clust_8="13000.00000" pt_clust_9="13000.00000"></scales>
<clustering>
<clus scale="   81.299">  5  6 -1 -1</clus>
<clus scale="   82.004">  1  5  2 -1</clus>
<clus scale="   92.170">  7  8 -1 -1</clus>
<clus scale="   72.140">  7  9 -1 -1</clus>
<clus scale="  313.988">  2  5  1 -1</clus>
</clustering>
</event>
<event>
 9    2  0.3897980E-005  0.2375489E+03  0.7546771E-02  0.1152504E+00
          2   -1    0    0  502    0 -0.00000000000E+00  0.00000000000E+00  0.71872782941E+02  0.71872782941E+02  0.00000000000E+00 0. -1.
         21   -1    0    0  501  502  0.00000000000E+00 -0.00000000000E+00 -0.43300675924E+03  0.43300675924E+03  0.00000000000E+00 0. -1.
         24    2    1    2    0    0 -0.59622951878E+02 -0.48866259371E+02 -0.83852214147E+02  0.13975675501E+03  0.80981164831E+02 0.  0.
         23    2    1    2    0    0 -0.49824236245E+02  0.71521171278E+01 -0.19711658103E+03  0.22318895430E+03  0.91786466898E+02 0.  0.
        -11    1    3    3    0    0 -0.13283793423E+02 -0.56101387102E+02 -0.70341011732E+02  0.90948791822E+02  0.00000000000E+00 0.  1.
         12    1    3    3    0    0 -0.46339158455E+02  0.72351277312E+01 -0.13511202415E+02  0.48807963185E+02  0.00000000000E+00 0. -1.
        -13    1    4    4    0    0  0.10466796484E+02 -0.26121243584E+02 -0.24382368128E+02  0.37234031081E+02  0.00000000000E+00 0.  1.
         13    1    4    4    0    0 -0.60291032729E+02  0.33273360712E+02 -0.17273421291E+03  0.18595492322E+03  0.00000000000E+00 0. -1.
          1    1    1    2  501    0  0.10944718812E+03  0.41714142243E+02 -0.80165181121E+02  0.14193383288E+03  0.00000000000E+00 0. -1.
<scales pt_clust_5="13000.00000" pt_clust_6="13000.00000" pt_clust_7="13000.00000" pt_clust_8="13000.00000" pt_clust_9="13000.00000"></scales>
<clustering>
<clus scale="   80.981">  5  6 -1 -1</clus>
<clus scale="   91.786">  7  8 -1 -1</clus>
<clus scale="  111.807">  1  5  2 -1</clus>
<clus scale="   67.920">  7  9 -1 -1</clus>
<clus scale="  237.549">  2  5  1 -1</clus>
</clustering>
</event>
<event>
 9    2  0.3897980E-005  0.3163585E+03  0.7546771E-02  0.1112865E+00
          2   -1    0    0  502    0 -0.00000000000E+00  0.00000000000E+00  0.11693740116E+04  0.11693740116E+04  0.00000000000E+00 0. -1.
         21   -1    0    0  501  502  0.00000000000E+00 -0.00000000000E+00 -0.46343763628E+02  0.46343763628E+02  0.00000000000E+00 0. -1.
         24    2    1    2    0    0 -0.40071987782E+02 -0.87649991450E+02  0.16532603730E+03  0.20711475581E+03  0.79218294953E+02 0.  0.
         23    2    1    2    0    0  0.14950804598E+03  0.69259647433E+02  0.74852259116E+03  0.77180900445E+03  0.90848859605E+02 0.  0.
        -13    1    3    3    0    0 -0.46547865305E+02 -0.20569531994E+02  0.10492952214E+03  0.11661909804E+03  0.00000000000E+00 0.  1.
         14    1    3    3    0    0  0.64758775236E+01 -0.67080459456E+02  0.60396515168E+02  0.90495657769E+02  0.00000000000E+00 0. -1.
        -11    1    4    4    0    0  0.97264624727E+02  0.19702175876E+02  0.58175633027E+03  0.59016015688E+03  0.00000000000E+00 0.  1.
         11    1    4    4    0    0  0.52243421254E+02  0.49557471557E+02  0.16676626089E+03  0.18164884757E+03  0.00000000000E+00 0. -1.
          1    1    1    2  501    0 -0.10943605820E+03  0.18390344018E+02  0.20918161947E+03  0.23679401494E+03  0.00000000000E+00 0. -1.
<scales pt_clust_5="13000.00000" pt_clust_6="13000.00000" pt_clust_7="13000.00000" pt_clust_8="13000.00000" pt_clust_9="13000.00000"></scales>
<clustering>
<clus scale="   79.218">  5  6 -1 -1</clus>
<clus scale="   90.849">  7  8 -1 -1</clus>
<clus scale="  110.971">  7  9 -1 -1</clus>
<clus scale="  124.755">  1  5  2 -1</clus>
<clus scale="  316.358">  2  5  1 -1</clus>
</clustering>
</event>
<event>
 9    2  0.3897980E-005  0.4485555E+03  0.7546771E-02  0.1075142E+00
         21   -1    0    0  501  502  0.00000000000E+00  0.00000000000E+00  0.39551278572E+02  0.39551278572E+02  0.00000000000E+00 0. -1.
          2   -1    0    0  502    0 -0.00000000000E+00 -0.00000000000E+00 -0.23147971714E+04  0.23147971714E+04  0.00000000000E+00 0. -1.
         24    2    1    2    0    0  0.79707531641E+02  0.30217461548E+02 -0.90300774799E+03  0.91065889053E+03  0.81303360207E+02 0.  0.
         23    2    1    2    0    0  0.12548680087E+03 -0.12651549928E+03 -0.87082899184E+03  0.89342674508E+03  0.90083888865E+02 0.  0.
        -11    1    3    3    0    0  0.19555358382E+02 -0.19779174069E+02 -0.98316475025E+02  0.10217512921E+03  0.00000000000E+00 0.  1.
         12    1    3    3    0    0  0.60152173259E+02  0.49996635617E+02 -0.80469127297E+03  0.80848376131E+03  0.00000000000E+00 0. -1.
        -13    1    4    4    0    0  0.20150605997E+02 -0.82841662859E+02 -0.34546180705E+03  0.35582671086E+03  0.00000000000E+00 0.  1.
         13    1    4    4    0    0  0.10533619487E+03 -0.43673836420E+02 -0.52536718479E+03  0.53760003422E+03  0.00000000000E+00 0. -1.
          1    1    1    2  501    0 -0.20519433251E+03  0.96298037731E+02 -0.50140915295E+03  0.55026281433E+03  0.00000000000E+00 0. -1.
<scales pt_clust_5="13000.00000" pt_clust_6="13000.00000" pt_clust_7="13000.00000" pt_clust_8="13000.00000" pt_clust_9="13000.00000"></scales>
<clustering>
<clus scale="   81.303">  5  6 -1 -1</clus>
<clus scale="   90.084">  7  8 -1 -1</clus>
<clus scale="  117.799">  2  5  1 -1</clus>
<clus scale="  205.787">  7  9 -1 -1</clus>
<clus scale="  448.555">  1  5  2 -1</clus>
</clustering>
</event>
<event>
 9    2  0.3897980E-005  0.3184033E+03  0.7546771E-02  0.1105338E+00
         21   -1    0    0  501  502  0.00000000000E+00  0.00000000000E+00  0.54048030297E+02  0.54048030297E+02  0.00000000000E+00 0.  1.
          2   -1    0    0  502    0 -0.00000000000E+00 -0.00000000000E+00 -0.10101280143E+04  0.10101280143E+04  0.00000000000E+00 0. -1.
         24    2    1    2    0    0  0.76621545339E+02  0.99033758153E+02 -0.33007329226E+03  0.36184776786E+03  0.79415882422E+02 0.  0.
         23    2    1    2    0    0 -0.63981429766E+02  0.73047062821E+02 -0.17174861899E+03  0.21640443689E+03  0.88903292620E+02 0.  0.
        -13    1    3    3    0    0  0.78649592070E+02  0.80522823457E+02 -0.19229059667E+03  0.22281238071E+03  0.00000000000E+00 0.  1.
         14    1    3    3    0    0 -0.20280467304E+01  0.18510934697E+02 -0.13778269559E+03  0.13903538715E+03  0.00000000000E+00 0. -1.
        -13    1    4    4    0    0 -0.35719669566E+02  0.32433509994E+02 -0.15777900455E+03  0.16499103504E+03  0.00000000000E+00 0.  1.
         13    1    4    4    0    0 -0.28261760200E+02  0.40613552827E+02 -0.13969614441E+02  0.51413401856E+02  0.00000000000E+00 0. -1.
          1    1    1    2  501    0 -0.12640115573E+02 -0.17208082097E+03 -0.45425807276E+03  0.48592383985E+03  0.00000000000E+00 0. -1.
<scales pt_clust_5="13000.00000" pt_clust_6="13000.00000" pt_clust_7="13000.00000" pt_clust_8="13000.00000" pt_clust_9="13000.00000"></scales>
<clustering>
<clus scale="   79.416">  5  6 -1 -1</clus>
<clus scale="   88.903">  7  8 -1 -1</clus>
<clus scale="  148.275">  2  5  1 -1</clus>
<clus scale="  110.141">  7  9 -1 -1</clus>
<clus scale="  318.403">  1  5  2 -1</clus>
</clustering>
</event>
<event>
 9    2  0.3897980E-005  0.4709622E+03  0.7546771E-02  0.1074803E+00
          2   -1    0    0  502    0 -0.00000000000E+00  0.00000000000E+00  0.20471994132E+04  0.20471994132E+04  0.00000000000E+00 0. -1.
         21   -1    0    0  501  502  0.00000000000E+00 -0.00000000000E+00 -0.40222827137E+02  0.40222827137E+02  0.00000000000E+00 0.  1.
         24    2    1    2    0    0 -0.41437725197E+02  0.44156436175E+02  0.38279943687E+03  0.39634070456E+03  0.82967881131E+02 0.  0.
         23    2    1    2    0    0  0.19077134519E+03 -0.64941310633E+02  0.39748240529E+03  0.45515575492E+03  0.92538741867E+02 0.  0.
        -13    1    3    3    0    0 -0.22187816448E+02  0.67452976664E+02  0.29713587688E+03  0.30550275382E+03  0.00000000000E+00 0.  1.
         14    1    3    3    0    0 -0.19249908749E+02 -0.23296540489E+02  0.85663559988E+02  0.90837950744E+02  0.00000000000E+00 0. -1.
        -11    1    4    4    0    0  0.17279139305E+03 -0.29851814080E+02  0.27198596896E+03  0.32361143927E+03  0.00000000000E+00 0.  1.
         11    1    4    4    0    0  0.17979952144E+02 -0.35089496552E+02  0.12549643633E+03  0.13154431565E+03  0.00000000000E+00 0. -1.
          1    1    1    2  501    0 -0.14933362000E+03  0.20784874458E+02  0.12266947439E+04  0.12359257809E+04  0.00000000000E+00 0. -1.
<scales pt_clust_5="13000.00000" pt_clust_6="13000.00000" pt_clust_7="13000.00000" pt_clust_8="13000.00000" pt_clust_9="13000.00000"></scales>
<clustering>
<clus scale="   82.968">  5  6 -1 -1</clus>
<clus scale="   92.539">  7  8 -1 -1</clus>
<clus scale="  102.716">  1  5  2 -1</clus>
<clus scale="  187.916">  7  9 -1 -1</clus>
<clus scale="  470.962">  2  5  1 -1</clus>
</clustering>
</event>
<event>
 9    2  0.3897980E-005  0.5675670E+03  0.7546771E-02  0.1039847E+00
         21   -1    0    0  501  502  0.00000000000E+00  0.00000000000E+00  0.16589731554E+04  0.16589731554E+04  0.00000000000E+00 0. -1.
          2   -1    0    0  502    0 -0.00000000000E+00 -0.00000000000E+00 -0.79662361758E+02  0.79662361758E+02  0.00000000000E+00 0. -1.
         24    2    1    2    0    0  0.26224007298E+02 -0.13190404548E+03  0.28493119636E+03  0.32528814618E+03  0.80871599560E+02 0.  0.
         23    2    1    2    0    0  0.22231700883E+03  0.95166744541E+02  0.34350468959E+03  0.42984070803E+03  0.91027472948E+02 0.  0.
        -11    1    3    3    0    0  0.29423110298E+02 -0.28231984004E+02  0.14796219439E+03  0.15347825680E+03  0.00000000000E+00 0.  1.
         12    1    3    3    0    0 -0.31991030009E+01 -0.10367206147E+03  0.13696900197E+03  0.17180988938E+03  0.00000000000E+00 0. -1.
        -11    1    4    4    0    0  0.36430495757E+02 -0.51529389902E+01  0.15988631088E+02  0.40116955585E+02  0.00000000000E+00 0.  1.
         11    1    4    4    0    0  0.18588651307E+03  0.10031968353E+03  0.32751605850E+03  0.38972375245E+03  0.00000000000E+00 0. -1.
          1    1    1    2  501    0 -0.24854101612E+03  0.36737300936E+02  0.95087490770E+03  0.98350666295E+03  0.00000000000E+00 0. -1.
<scales pt_clust_5="13000.00000" pt_clust_6="13000.00000" pt_clust_7="13000.00000" pt_clust_8="13000.00000" pt_clust_9="13000.00000"></scales>
<clustering>
<clus scale="   80.872">  5  6 -1 -1</clus>
<clus scale="   91.027">  7  8 -1 -1</clus>
<clus scale="  156.929">  2  5  1 -1</clus>
<clus scale="  241.349">  7  9 -1 -1</clus>
<clus scale="  567.567">  1  5  2 -1</clus>
</clustering>
</event>
<event>
 9    2  0.3897980E-005  0.1683839E+03  0.7546771E-02  0.1204652E+00
         21   -1    0    0  501  502  0.00000000000E+00  0.00000000000E+00  0.18050071892E+02  0.18050071892E+02  0.00000000000E+00 0. -1.
          2   -1    0    0  502    0 -0.00000000000E+00 -0.00000000000E+00 -0.10414926880E+04  0.10414926880E+04  0.00000000000E+00 0. -1.
         24    2    1    2    0    0 -0.39305001019E+02 -0.38613227866E+02 -0.51230069135E+03  0.52137995098E+03  0.79681807544E+02 0.  0.
         23    2    1    2    0    0  0.27628830288E+02 -0.28780740041E+02 -0.31177589650E+03  0.32739019898E+03  0.91588479036E+02 0.  0.
        -11    1    3    3    0    0 -0.30576499289E+02 -0.28621085652E+01 -0.58333347521E+02  0.65923390441E+02  0.00000000000E+00 0.  1.
         12    1    3    3    0    0 -0.87285017297E+01 -0.35751119301E+02 -0.45396734383E+03  0.45545656054E+03  0.00000000000E+00 0. -1.
        -13    1    4    4    0    0 -0.26346158868E+02 -0.26254875423E+02 -0.66136890598E+02  0.75878368910E+02  0.00000000000E+00 0. -1.
         13    1    4    4    0    0  0.53974989156E+02 -0.25258646178E+01 -0.24563900590E+03  0.25151183007E+03  0.00000000000E+00 0.  1.
          1    1    1    2  501    0  0.11676170731E+02  0.67393967907E+02 -0.19936602826E+03  0.21077260993E+03  0.00000000000E+00 0. -1.
<scales pt_clust_5="13000.00000" pt_clust_6="13000.00000" pt_clust_7="13000.00000" pt_clust_8="13000.00000" pt_clust_9="13000.00000"></scales>
<clustering>
<clus scale="   79.682">  5  6 -1 -1</clus>
<clus scale="   91.588">  7  8 -1 -1</clus>
<clus scale="   68.398">  7  9 -1 -1</clus>
<clus scale="   96.876">  2  5  1 -1</clus>
<clus scale="  168.384">  1  5  2 -1</clus>
</clustering>
</event>
<event>
 9    2  0.3897980E-005  0.1932386E+03  0.7546771E-02  0.1193652E+00
         -3   -1    0    0    0  501 -0.00000000000E+00  0.00000000000E+00  0.63377455300E+03  0.63377455300E+03  0.00000000000E+00 0.  1.
         21   -1    0    0  501  502  0.00000000000E+00 -0.00000000000E+00 -0.36925241945E+02  0.36925241945E+02  0.00000000000E+00 0.  1.
         24    2    1    2    0    0  0.82705219841E+01  0.10157333552E+02  0.62992182391E+02  0.10294581744E+03  0.80363258559E+02 0.  0.
         23    2    1    2    0    0 -0.55878721359E+02  0.51304725228E+02  0.30375481848E+03  0.32487293982E+03  0.86722724510E+02 0.  0.
        -11    1    3    3    0    0 -0.53226897746E+01  0.42069471857E+02  0.50814369867E+02  0.66183620888E+02  0.00000000000E+00 0.  1.
         12    1    3    3    0    0  0.13593211759E+02 -0.31912138306E+02  0.12177812524E+02  0.36762196548E+02  0.00000000000E+00 0. -1.
        -13    1    4    4    0    0 -0.69639030396E+02  0.28776501886E+02  0.27785576488E+03  0.28789148597E+03  0.00000000000E+00 0.  1.
         13    1    4    4    0    0  0.13760309036E+02  0.22528223342E+02  0.25899053600E+02  0.36981453853E+02  0.00000000000E+00 0. -1.
         -4    1    1    2    0  502  0.47608199375E+02 -0.61462058780E+02  0.23010231019E+03  0.24288103769E+03  0.00000000000E+00 0.  1.
<scales pt_clust_5="13000.00000" pt_clust_6="13000.00000" pt_clust_7="13000.00000" pt_clust_8="13000.00000" pt_clust_9="13000.00000"></scales>
<clustering>
<clus scale="   80.363">  5  6 -1 -1</clus>
<clus scale="   81.424">  1  5  2 -1</clus>
<clus scale="   86.723">  7  8 -1 -1</clus>
<clus scale="   76.667">  7  9 -1 -1</clus>
<clus scale="  193.239">  2  5  1 -1</clus>
</clustering>
</event>
<event>
 9    2  0.3897980E-005  0.2649387E+03  0.7546771E-02  0.1126106E+00
         -1   -1    0    0    0  501 -0.00000000000E+00  0.00000000000E+00  0.13847623277E+03  0.13847623277E+03  0.00000000000E+00 0.  1.
         21   -1    0    0  501  502  0.00000000000E+00 -0.00000000000E+00 -0.40957589132E+03  0.40957589132E+03  0.00000000000E+00 0.  1.
         24    2    1    2    0    0 -0.12632162888E+03 -0.27702708115E+02  0.20749889305E+02  0.15388379615E+03  0.80777910670E+02 0.  0.
         23    2    1    2    0    0  0.71600950051E+01 -0.63134051394E+02 -0.15385910097E+03  0.19047210445E+03  0.92573345060E+02 0.  0.
        -11    1    3    3    0    0 -0.11520949908E+03 -0.45454581901E+01  0.39723845627E+02  0.12195029225E+03  0.00000000000E+00 0.  1.
         12    1    3    3    0    0 -0.11112129795E+02 -0.23157249925E+02 -0.18973956322E+02  0.31933503898E+02  0.00000000000E+00 0. -1.
        -11    1    4    4    0    0 -0.44594598988E+01  0.20344443983E+02 -0.86024011743E+01  0.22534073966E+02  0.00000000000E+00 0. -1.
         11    1    4    4    0    0  0.11619554904E+02 -0.83478495376E+02 -0.14525669980E+03  0.16793803048E+03  0.00000000000E+00 0.  1.
         -2    1    1    2    0  502  0.11916153387E+03  0.90836759509E+02 -0.13799044688E+03  0.20369622349E+03  0.00000000000E+00 0.  1.
<scales pt_clust_5="13000.00000" pt_clust_6="13000.00000" pt_clust_7="13000.00000" pt_clust_8="13000.00000" pt_clust_9="13000.00000"></scales>
<clustering>
<clus scale="   80.778">  5  6 -1 -1</clus>
<clus scale="   92.573">  7  8 -1 -1</clus>
<clus scale="  149.836">  7  9 -1 -1</clus>
<clus scale="  152.478">  1  5  2 -1</clus>
<clus scale="  264.939">  2  5  1 -1</clus>
</clustering>
</event>
<event>
 9    2  0.3897980E-005  0.1835340E+03  0.7546771E-02  0.1197163E+00
         -1   -1    0    0    0  501 -0.00000000000E+00  0.00000000000E+00  0.40878861145E+03  0.40878861145E+03  0.00000000000E+00 0.  1.
         21   -1    0    0  501  502  0.00000000000E+00 -0.00000000000E+00 -0.46497113028E+02  0.46497113028E+02  0.00000000000E+00 0. -1.
         24    2    1    2    0    0 -0.14124981347E+02  0.36992475463E+02  0.82222255798E+02  0.12043725068E+03  0.78591816773E+02 0.  0.
         23    2    1    2    0    0 -0.27074919789E+02 -0.48993127084E+01  0.33445576828E+02  0.82755960066E+02  0.70518705111E+02 0.  0.
        -13    1    3    3    0    0  0.27965032948E+02 -0.47722527631E+01  0.31667963307E+02  0.42516789204E+02  0.00000000000E+00 0.  1.
         14    1    3    3    0    0 -0.42090014295E+02  0.41764728227E+02  0.50554292491E+02  0.77920461475E+02  0.00000000000E+00 0. -1.
        -11    1    4    4    0    0 -0.20503107900E+02  0.22269604555E+02  0.43546855812E+02  0.53034341438E+02  0.00000000000E+00 0.  1.
         11    1    4    4    0    0 -0.65718118881E+01 -0.27168917263E+02 -0.10101278984E+02  0.29721618628E+02  0.00000000000E+00 0. -1.
         -2    1    1    2    0  502  0.41199901136E+02 -0.32093162755E+02  0.24662366580E+03  0.25209251373E+03  0.00000000000E+00 0.  1.
<scales pt_clust_5="13000.00000" pt_clust_6="13000.00000" pt_clust_7="13000.00000" pt_clust_8="13000.00000" pt_clust_9="13000.00000"></scales>
<clustering>
<clus scale="   70.519">  7  8 -1 -1</clus>
<clus scale="   52.225">  7  9 -1 -1</clus>
<clus scale="   78.592">  5  6 -1 -1</clus>
<clus scale="   88.004">  1  5  2 -1</clus>
<clus scale="  183.534">  2  5  1 -1</clus>
</clustering>
</event>
<event>
 9    2  0.3897980E-005  0.2141924E+03  0.7546771E-02  0.1171576E+00
          4   -1    0    0  502    0 -0.00000000000E+00  0.00000000000E+00  0.59988567903E+02  0.59988567903E+02  0.00000000000E+00 0. -1.
         21   -1    0    0  501  502  0.00000000000E+00 -0.00000000000E+00 -0.50459242006E+03  0.50459242006E+03  0.00000000000E+00 0. -1.
         24    2    1    2    0    0 -0.55392054568E+02  0.10607803736E+02 -0.38168550324E+02  0.10515957022E+03  0.80130467155E+02 0.  0.
         23    2    1    2    0    0  0.11602837731E+03 -0.23138921960E+02 -0.32273903093E+03  0.35531157995E+03  0.89932434167E+02 0.  0.
        -11    1    3    3    0    0 -0.42564731793E+02 -0.21572722034E+02  0.70060322615E+01  0.48230936302E+02  0.00000000000E+00 0.  1.
         12    1    3    3    0    0 -0.12827322775E+02  0.32180525770E+02 -0.45174582586E+02  0.56928633922E+02  0.00000000000E+00 0. -1.
        -13    1    4    4    0    0 -0.96889885981E+01 -0.20381756914E+02 -0.57649479843E+02  0.61909248430E+02  0.00000000000E+00 0.  1.
         13    1    4    4    0    0  0.12571736591E+03 -0.27571650457E+01 -0.26508955108E+03  0.29340233152E+03  0.00000000000E+00 0. -1.
          3    1    1    2  501    0 -0.60636322744E+02  0.12531118224E+02 -0.83696270902E+02  0.10410983778E+03  0.00000000000E+00 0. -1.
<scales pt_clust_5="13000.00000" pt_clust_6="13000.00000" pt_clust_7="13000.00000" pt_clust_8="13000.00000" pt_clust_9="13000.00000"></scales>
<clustering>
<clus scale="   80.130">  5  6 -1 -1</clus>
<clus scale="   89.932">  7  8 -1 -1</clus>
<clus scale="   61.918">  7  9 -1 -1</clus>
<clus scale="   97.988">  1  5  2 -1</clus>
<clus scale="  214.192">  2  5  1 -1</clus>
</clustering>
</event>
<event>
 9    2  0.3897980E-005  0.6275300E+03  0.7546771E-02  0.1036387E+00
          2   -1    0    0  502    0 -0.00000000000E+00  0.00000000000E+00  0.22068377811E+04  0.22068377811E+04  0.00000000000E+00 0. -1.
         21   -1    0    0  501  502  0.00000000000E+00 -0.00000000000E+00 -0.71734568657E+02  0.71734568657E+02  0.00000000000E+00 0.  1.
         24    2    1    2    0    0 -0.64404182451E+02  0.77326481545E+02  0.70851327214E+03  0.72006255620E+03  0.79823208314E+02 0.  0.
         23    2    1    2    0    0  0.20569343501E+03  0.17814013558E+03  0.10085964860E+04  0.10486623917E+04  0.91554590501E+02 0.  0.
        -13    1    3    3    0    0 -0.55735923051E+02  0.10492673559E+02  0.23332471643E+03  0.24011874691E+03  0.00000000000E+00 0.  1.
         14    1    3    3    0    0 -0.86682593996E+01  0.66833807986E+02  0.47518855570E+03  0.47994380929E+03  0.00000000000E+00 0. -1.
        -11    1    4    4    0    0  0.13071443726E+03  0.16253060034E+03  0.68052668189E+03  0.71177175058E+03  0.00000000000E+00 0.  1.
         11    1    4    4    0    0  0.74978997747E+02  0.15609535238E+02  0.32806980408E+03  0.33689064108E+03  0.00000000000E+00 0. -1.
          1    1    1    2  501    0 -0.14128925255E+03 -0.25546661713E+03  0.41799345430E+03  0.50984740186E+03  0.00000000000E+00 0. -1.
<scales pt_clust_5="13000.00000" pt_clust_6="13000.00000" pt_clust_7="13000.00000" pt_clust_8="13000.00000" pt_clust_9="13000.00000"></scales>
<clustering>
<clus scale="   79.823">  5  6 -1 -1</clus>
<clus scale="   91.555">  7  8 -1 -1</clus>
<clus scale="  128.449">  1  5  2 -1</clus>
<clus scale="  282.101">  7  9 -1 -1</clus>
<clus scale="  627.530">  2  5  1 -1</clus>
</clustering>
</event>
<event>
 9    2  0.3897980E-005  0.4233366E+03  0.7546771E-02  0.1093416E+00
          2   -1    0    0  502    0 -0.00000000000E+00  0.00000000000E+00  0.60745532175E+02  0.60745532175E+02  0.00000000000E+00 0. -1.
         21   -1    0    0  501  502  0.00000000000E+00 -0.00000000000E+00 -0.10703716860E+04  0.10703716860E+04  0.00000000000E+00 0. -1.
         24    2    1    2    0    0 -0.24239520955E+02  0.21110124112E+02 -0.19279001698E+03  0.21109811916E+03  0.79757341664E+02 0.  0.
         23    2    1    2    0    0  0.90922618639E+02  0.49689359852E+02 -0.57121147419E+02  0.15410391598E+03  0.98738221452E+02 0.  0.
        -13    1    3    3    0    0 -0.29655692879E+02 -0.24868366852E+02 -0.72058713515E+02  0.81794584072E+02  0.00000000000E+00 0.  1.
         14    1    3    3    0    0  0.54161719247E+01  0.45978490965E+02 -0.12073130346E+03  0.12930353509E+03  0.00000000000E+00 0. -1.
        -13    1    4    4    0    0  0.61883641380E+02  0.18704351992E+02  0.18614621129E+02  0.67275121506E+02  0.00000000000E+00 0. -1.
         13    1    4    4    0    0  0.29038977259E+02  0.30985007860E+02 -0.75735768548E+02  0.86828794475E+02  0.00000000000E+00 0.  1.
          1    1    1    2  501    0 -0.66683097684E+02 -0.70799483964E+02 -0.75971498944E+03  0.76591518305E+03  0.00000000000E+00 0. -1.
<scales pt_clust_5="13000.00000" pt_clust_6="13000.00000" pt_clust_7="13000.00000" pt_clust_8="13000.00000" pt_clust_9="13000.00000"></scales>
<clustering>
<clus scale="   79.757">  5  6 -1 -1</clus>
<clus scale="   85.991">  1  5  2 -1</clus>
<clus scale="   98.738">  7  8 -1 -1</clus>
<clus scale="   97.353">  7  9 -1 -1</clus>
<clus scale="  423.337">  2  5  1 -1</clus>
</clustering>
</event>
<event>
 9    2  0.3897980E-005  0.4114127E+03  0.7546771E-02  0.1060290E+00
          2   -1    0    0  502    0 -0.00000000000E+00  0.00000000000E+00  0.89539196447E+03  0.89539196447E+03  0.00000000000E+00 0. -1.
         21   -1    0    0  501  502  0.00000000000E+00 -0.00000000000E+00 -0.11802457750E+03  0.11802457750E+03  0.00000000000E+00 0. -1.
         24    2    1    2    0    0  0.10561821428E+03  0.18797104237E+03  0.20184935102E+03  0.30596943788E+03  0.79911303633E+02 0.  0.
         23    2    1    2    0    0  0.54194187966E+02  0.82691818083E+01  0.45010152168E+02  0.11966411332E+03  0.96375291655E+02 0.  0.
        -11    1    3    3    0    0  0.59615884343E+01  0.74370761051E+02  0.95463278050E+02  0.12116017535E+03  0.00000000000E+00 0.  1.
         12    1    3    3    0    0  0.99656625849E+02  0.11360028132E+03  0.10638607297E+03  0.18480926252E+03  0.00000000000E+00 0. -1.
        -11    1    4    4    0    0  0.48988496845E+02  0.45846914216E+02  0.46605728532E+02  0.81693979572E+02  0.00000000000E+00 0. -1.
         11    1    4    4    0    0  0.52056911213E+01 -0.37577732408E+02 -0.15955763640E+01  0.37970133749E+02  0.00000000000E+00 0.  1.
          1    1    1    2  501    0 -0.15981240225E+03 -0.19624022418E+03  0.53050788378E+03  0.58778299078E+03  0.00000000000E+00 0. -1.
<scales pt_clust_5="13000.00000" pt_clust_6="13000.00000" pt_clust_7="13000.00000" pt_clust_8="13000.00000" pt_clust_9="13000.00000"></scales>
<clustering>
<clus scale="   79.911">  5  6 -1 -1</clus>
<clus scale="   96.375">  7  8 -1 -1</clus>
<clus scale="  229.944">  1  5  2 -1</clus>
<clus scale="   75.098">  7  9 -1 -1</clus>
<clus scale="  411.413">  2  5  1 -1</clus>
</clustering>
</event>
<event>
 9    2  0.3897980E-005  0.3496037E+03  0.7546771E-02  0.1095707E+00
         21   -1    0    0  501  502  0.00000000000E+00  0.00000000000E+00  0.71871484487E+02  0.71871484487E+02  0.00000000000E+00 0. -1.
          2   -1    0    0  502    0 -0.00000000000E+00 -0.00000000000E+00 -0.10219339208E+04  0.10219339208E+04  0.00000000000E+00 0. -1.
         24    2    1    2    0    0  0.94765247667E+02  0.73054379354E+02 -0.10135566713E+03  0.17591330039E+03  0.79719028386E+02 0.  0.
         23    2    1    2    0    0 -0.78085501147E+02  0.99016300875E+02 -0.24708573415E+03  0.29192533043E+03  0.90925602555E+02 0.  0.
        -13    1    3    3    0    0  0.27450643995E+02  0.17472448163E+02  0.10347462005E+02  0.34145193959E+02  0.00000000000E+00 0.  1.
         14    1    3    3    0    0  0.67314603672E+02  0.55581931191E+02 -0.11170312914E+03  0.14176810643E+03  0.00000000000E+00 0. -1.
        -11    1    4    4    0    0 -0.37117012686E+02  0.59099228119E+02 -0.21564033630E+03  0.22665203735E+03  0.00000000000E+00 0.  1.
         11    1    4    4    0    0 -0.40968488461E+02  0.39917072756E+02 -0.31445397850E+02  0.65273293085E+02  0.00000000000E+00 0. -1.
          1    1    1    2  501    0 -0.16679746520E+02 -0.17207068023E+03 -0.60162103501E+03  0.62596677444E+03  0.00000000000E+00 0. -1.
<scales pt_clust_5="13000.00000" pt_clust_6="13000.00000" pt_clust_7="13000.00000" pt_clust_8="13000.00000" pt_clust_9="13000.00000"></scales>
<clustering>
<clus scale="   79.719">  5  6 -1 -1</clus>
<clus scale="   90.926">  7  8 -1 -1</clus>
<clus scale="  143.779">  2  5  1 -1</clus>
<clus scale="  130.893">  7  9 -1 -1</clus>
<clus scale="  349.604">  1  5  2 -1</clus>
</clustering>
</event>
<event>
 9    2  0.3897980E-005  0.6022313E+03  0.7546771E-02  0.1056374E+00
         21   -1    0    0  501  502  0.00000000000E+00  0.00000000000E+00  0.33700911075E+03  0.33700911075E+03  0.00000000000E+00 0. -1.
          2   -1    0    0  502    0 -0.00000000000E+00 -0.00000000000E+00 -0.35956468392E+03  0.35956468392E+03  0.00000000000E+00 0. -1.
         24    2    1    2    0    0  0.17061604006E+02 -0.24394701593E+01  0.40035206866E+02  0.91098667888E+02  0.79994375779E+02 0.  0.
         23    2    1    2    0    0 -0.29569219156E+03  0.26364425418E+02 -0.91389342837E+02  0.32434034589E+03  0.93357875459E+02 0.  0.
        -13    1    3    3    0    0 -0.16725471419E+02 -0.25446819302E+02  0.39936852584E+02  0.50221849838E+02  0.00000000000E+00 0.  1.
         14    1    3    3    0    0  0.33787075425E+02  0.23007349143E+02  0.98354281597E-01  0.40876818051E+02  0.00000000000E+00 0. -1.
        -11    1    4    4    0    0 -0.26122528438E+02  0.23912976966E+02  0.92231335860E+01  0.36596217735E+02  0.00000000000E+00 0.  1.
         11    1    4    4    0    0 -0.26956966312E+03  0.24514484523E+01 -0.10061247642E+03  0.28774412816E+03  0.00000000000E+00 0. -1.
          1    1    1    2  501    0  0.27863058756E+03 -0.23924955259E+02  0.28798562810E+02  0.28113478089E+03  0.00000000000E+00 0. -1.
<scales pt_clust_5="13000.00000" pt_clust_6="13000.00000" pt_clust_7="13000.00000" pt_clust_8="13000.00000" pt_clust_9="13000.00000"></scales>
<clustering>
<clus scale="   79.994">  5  6 -1 -1</clus>
<clus scale="   81.830">  2  5  1 -1</clus>
<clus scale="   93.358">  7  8 -1 -1</clus>
<clus scale="  286.156">  7  9 -1 -1</clus>
<clus scale="  602.231">  1  5  2 -1</clus>
</clustering>
</event>
<event>
 9    2  0.3897980E-005  0.1085963E+04  0.7546771E-02  0.9794815E-01
         21   -1    0    0  501  502  0.00000000000E+00  0.00000000000E+00  0.36763602163E+03  0.36763602163E+03  0.00000000000E+00 0. -1.
          2   -1    0    0  502    0 -0.00000000000E+00 -0.00000000000E+00 -0.11091623869E+04  0.11091623869E+04  0.00000000000E+00 0. -1.
         24    2    1    2    0    0  0.31571938346E+02 -0.11657159771E+03 -0.24053756056E+03  0.28084491643E+03  0.80186185618E+02 0.  0.
         23    2    1    2    0    0  0.85767773636E+02 -0.43536834187E+03 -0.43465999888E+03  0.62779346590E+03  0.91069298401E+02 0.  0.
        -13    1    3    3    0    0 -0.21158729385E+02 -0.54605884334E+02 -0.13825801046E+03  0.15014916546E+03  0.00000000000E+00 0.  1.
         14    1    3    3    0    0  0.52730667731E+02 -0.61965713372E+02 -0.10227955010E+03  0.13069575097E+03  0.00000000000E+00 0. -1.
        -13    1    4    4    0    0  0.18888757377E+02 -0.16364023197E+03 -0.10486414131E+03  0.19527262688E+03  0.00000000000E+00 0.  1.
         13    1    4    4    0    0  0.66879016259E+02 -0.27172810990E+03 -0.32979585756E+03  0.43252083903E+03  0.00000000000E+00 0. -1.
          1    1    1    2  501    0 -0.11733971198E+03  0.55193993958E+03 -0.66328805859E+02  0.56816002622E+03  0.00000000000E+00 0. -1.
<scales pt_clust_5="13000.00000" pt_clust_6="13000.00000" pt_clust_7="13000.00000" pt_clust_8="13000.00000" pt_clust_9="13000.00000"></scales>
<clustering>
<clus scale="   80.186">  5  6 -1 -1</clus>
<clus scale="   91.069">  7  8 -1 -1</clus>
<clus scale="  144.967">  2  5  1 -1</clus>
<clus scale="  519.193">  7  9 -1 -1</clus>
<clus scale=" 1085.963">  1  5  2 -1</clus>
</clustering>
</event>
<event>
 9    2  0.3897980E-005  0.3112426E+03  0.7546771E-02  0.1129887E+00
         21   -1    0    0  501  502  0.00000000000E+00  0.00000000000E+00  0.44176216090E+02  0.44176216090E+02  0.00000000000E+00 0. -1.
          2   -1    0    0  502    0 -0.00000000000E+00 -0.00000000000E+00 -0.90972910407E+03  0.90972910407E+03  0.00000000000E+00 0. -1.
         24    2    1    2    0    0  0.26130415786E+02  0.15143117364E+02 -0.13604993007E+03  0.16078078356E+03  0.80179575053E+02 0.  0.
         23    2    1    2    0    0 -0.10928486364E+03 -0.11353364900E+03 -0.41797060844E+03  0.45600769680E+03  0.91708882580E+02 0.  0.
        -11    1    3    3    0    0 -0.15759278318E+02  0.30188915360E+02 -0.92246938884E+02  0.98332208341E+02  0.00000000000E+00 0.  1.
         12    1    3    3    0    0  0.41889694104E+02 -0.15045797995E+02 -0.43802991191E+02  0.62448575218E+02  0.00000000000E+00 0. -1.
        -13    1    4    4    0    0  0.16326077042E+02 -0.16387654317E+02 -0.63947389444E+02  0.68002680994E+02  0.00000000000E+00 0.  1.
         13    1    4    4    0    0 -0.12561094068E+03 -0.97145994688E+02 -0.35402321900E+03  0.38800501581E+03  0.00000000000E+00 0. -1.
          1    1    1    2  501    0  0.83154447854E+02  0.98390531640E+02 -0.31153234946E+03  0.33711683980E+03  0.00000000000E+00 0. -1.
<scales pt_clust_5="13000.00000" pt_clust_6="13000.00000" pt_clust_7="13000.00000" pt_clust_8="13000.00000" pt_clust_9="13000.00000"></scales>
<clustering>
<clus scale="   80.180">  5  6 -1 -1</clus>
<clus scale="   85.679">  2  5  1 -1</clus>
<clus scale="   91.709">  7  8 -1 -1</clus>
<clus scale="  141.002">  7  9 -1 -1</clus>
<clus scale="  311.243">  1  5  2 -1</clus>
</clustering>
</event>
<event>
 9    2  0.3897980E-005  0.2549808E+03  0.7546771E-02  0.1139406E+00
         -3   -1    0    0    0  501 -0.00000000000E+00  0.00000000000E+00  0.11281120529E+03  0.11281120529E+03  0.00000000000E+00 0.  1.
         21   -1    0    0  501  502  0.00000000000E+00 -0.00000000000E+00 -0.33622460792E+03  0.33622460792E+03  0.00000000000E+00 0.  1.
         24    2    1    2    0    0 -0.48399316555E+02  0.76824753474E+02 -0.12483970989E+03  0.17566434945E+03  0.83835994134E+02 0.  0.
         23    2    1    2    0    0  0.71926473688E+02 -0.14309573862E+03 -0.67999731694E+02  0.19668940791E+03  0.91722143701E+02 0.  0.
        -13    1    3    3    0    0 -0.25166304554E+02  0.16288468214E+02 -0.10295306956E+03  0.10722868839E+03  0.00000000000E+00 0.  1.
         14    1    3    3    0    0 -0.23233012001E+02  0.60536285259E+02 -0.21886640329E+02  0.68435661058E+02  0.00000000000E+00 0. -1.
        -11    1    4    4    0    0 -0.84099794856E+01 -0.84989466144E+02 -0.32417709718E+02  0.91350123228E+02  0.00000000000E+00 0.  1.
         11    1    4    4    0    0  0.80336453174E+02 -0.58106272480E+02 -0.35582021976E+02  0.10533928468E+03  0.00000000000E+00 0. -1.
         -4    1    1    2    0  502 -0.23527157133E+02  0.66270985150E+02 -0.30573961044E+02  0.76682055850E+02  0.00000000000E+00 0.  1.
<scales pt_clust_5="13000.00000" pt_clust_6="13000.00000" pt_clust_7="13000.00000" pt_clust_8="13000.00000" pt_clust_9="13000.00000"></scales>
<clustering>
<clus scale="   83.836">  5  6 -1 -1</clus>
<clus scale="   91.722">  7  8 -1 -1</clus>
<clus scale="   70.323">  7  9 -1 -1</clus>
<clus scale="  123.584">  1  5  2 -1</clus>
<clus scale="  254.981">  2  5  1 -1</clus>
</clustering>
</event>
<event>
 9    2  0.3897980E-005  0.3348865E+03  0.7546771E-02  0.1121589E+00
          2   -1    0    0  502    0 -0.00000000000E+00  0.00000000000E+00  0.70247952027E+03  0.70247952027E+03  0.00000000000E+00 0. -1.
         21   -1    0    0  501  502  0.00000000000E+00 -0.00000000000E+00 -0.62753310223E+02  0.62753310223E+02  0.00000000000E+00 0. -1.
         24    2    1    2    0    0  0.11660939020E+01  0.25869303503E+02  0.11339881553E+03  0.14139833768E+03  0.80396628649E+02 0.  0.
         23    2    1    2    0    0 -0.85746430325E+02  0.67095954165E+02  0.88759448623E+02  0.16857404019E+03  0.93191469176E+02 0.  0.
        -13    1    3    3    0    0  0.12145240134E+02  0.53265775962E+02  0.67657108358E+02  0.86961106583E+02  0.00000000000E+00 0.  1.
         14    1    3    3    0    0 -0.10979146232E+02 -0.27396472460E+02  0.45741707168E+02  0.54437231100E+02  0.00000000000E+00 0. -1.
        -13    1    4    4    0    0  0.95707844808E+00  0.27216860769E+02  0.64633495487E+02  0.70136739646E+02  0.00000000000E+00 0.  1.
         13    1    4    4    0    0 -0.86703508774E+02  0.39879093396E+02  0.24125953136E+02  0.98437300544E+02  0.00000000000E+00 0. -1.
          1    1    1    2  501    0  0.84580336424E+02 -0.92965257668E+02  0.43756794590E+03  0.45526045262E+03  0.00000000000E+00 0. -1.
<scales pt_clust_5="13000.00000" pt_clust_6="13000.00000" pt_clust_7="13000.00000" pt_clust_8="13000.00000" pt_clust_9="13000.00000"></scales>
<clustering>
<clus scale="   80.397">  5  6 -1 -1</clus>
<clus scale="   84.464">  1  5  2 -1</clus>
<clus scale="   93.191">  7  8 -1 -1</clus>
<clus scale="  112.338">  7  9 -1 -1</clus>
<clus scale="  334.886">  2  5  1 -1</clus>
</clustering>
</event>
<event>
 9    2  0.3897980E-005  0.1868330E+03  0.7546771E-02  0.1188311E+00
         -1   -1    0    0    0  501 -0.00000000000E+00  0.00000000000E+00  0.17949269783E+03  0.17949269783E+03  0.00000000000E+00 0.  1.
         21   -1    0    0  501  502  0.00000000000E+00 -0.00000000000E+00 -0.13517764414E+03  0.13517764414E+03  0.00000000000E+00 0.  1.
         24    2    1    2    0    0  0.17556779474E+02  0.55906218461E+02  0.74002905673E+02  0.12549329311E+03  0.82694563303E+02 0.  0.
         23    2    1    2    0    0  0.48367471059E+02 -0.71557720338E+01 -0.11312718975E+02  0.10515170537E+03  0.92402847364E+02 0.  0.
        -13    1    3    3    0    0 -0.26884234004E+02  0.28442948212E+02  0.59600923812E+02  0.71302408516E+02  0.00000000000E+00 0.  1.
         14    1    3    3    0    0  0.44441013478E+02  0.27463270249E+02  0.14401981861E+02  0.54190884596E+02  0.00000000000E+00 0. -1.
        -11    1    4    4    0    0  0.70375003940E+02 -0.14655860072E+02 -0.27344304247E+02  0.76909988875E+02  0.00000000000E+00 0.  1.
         11    1    4    4    0    0 -0.22007532881E+02  0.75000880378E+01  0.16031585272E+02  0.28241716492E+02  0.00000000000E+00 0. -1.
         -2    1    1    2    0  502 -0.65924250532E+02 -0.48750446427E+02 -0.18375133012E+02  0.84025343488E+02  0.00000000000E+00 0.  1.
<scales pt_clust_5="13000.00000" pt_clust_6="13000.00000" pt_clust_7="13000.00000" pt_clust_8="13000.00000" pt_clust_9="13000.00000"></scales>
<clustering>
<clus scale="   82.695">  5  6 -1 -1</clus>
<clus scale="   92.403">  7  8 -1 -1</clus>
<clus scale="   81.992">  7  9 -1 -1</clus>
<clus scale="  101.352">  1  5  2 -1</clus>
<clus scale="  186.833">  2  5  1 -1</clus>
</clustering>
</event>
<event>
 9    2  0.3897980E-005  0.1801521E+03  0.7546771E-02  0.1190628E+00
         21   -1    0    0  501  502  0.00000000000E+00  0.00000000000E+00  0.23284596712E+02  0.23284596712E+02  0.00000000000E+00 0. -1.
          2   -1    0    0  502    0 -0.00000000000E+00 -0.00000000000E+00 -0.99943089587E+03  0.99943089587E+03  0.00000000000E+00 0. -1.
         24    2    1    2    0    0 -0.63977947281E+02  0.26730173888E+02 -0.54435828972E+03  0.55485263022E+03  0.82023251246E+02 0.  0.
         23    2    1    2    0    0  0.15504068310E+02 -0.40161761673E+02 -0.14269891390E+03  0.17443036645E+03  0.90607005680E+02 0.  0.
        -13    1    3    3    0    0 -0.67739844397E+02  0.48782094141E+02 -0.38609381537E+03  0.39501495351E+03  0.00000000000E+00 0.  1.
         14    1    3    3    0    0  0.37618971154E+01 -0.22051920253E+02 -0.15826447435E+03  0.15983767672E+03  0.00000000000E+00 0. -1.
        -13    1    4    4    0    0 -0.31098515867E+02 -0.26726343775E+02 -0.10586346915E+03  0.11352748232E+03  0.00000000000E+00 0.  1.
         13    1    4    4    0    0  0.46602584177E+02 -0.13435417898E+02 -0.36835444743E+02  0.60902884132E+02  0.00000000000E+00 0. -1.
          1    1    1    2  501    0  0.48473878971E+02  0.13431587785E+02 -0.28908909554E+03  0.29343249591E+03  0.00000000000E+00 0. -1.
<scales pt_clust_5="13000.00000" pt_clust_6="13000.00000" pt_clust_7="13000.00000" pt_clust_8="13000.00000" pt_clust_9="13000.00000"></scales>
<clustering>
<clus scale="   82.023">  5  6 -1 -1</clus>
<clus scale="   90.607">  7  8 -1 -1</clus>
<clus scale="   50.300">  7  9 -1 -1</clus>
<clus scale="  107.403">  2  5  1 -1</clus>
<clus scale="  180.152">  1  5  2 -1</clus>
</clustering>
</event>
<event>
 9    2  0.3897980E-005  0.3724013E+03  0.7546771E-02  0.1105196E+00
          2   -1    0    0  502    0 -0.00000000000E+00  0.00000000000E+00  0.36853111183E+03  0.36853111183E+03  0.00000000000E+00 0. -1.
         21   -1    0    0  501  502  0.00000000000E+00 -0.00000000000E+00 -0.51306270909E+03  0.51306270909E+03  0.00000000000E+00 0. -1.
         24    2    1    2    0    0  0.33175671321E+02  0.29193189718E+02  0.29278186116E+03  0.30720212714E+03  0.81847792872E+02 0.  0.
         23    2    1    2    0    0 -0.15021136097E+03 -0.12777532017E+03 -0.28761241290E+03  0.36032116305E+03  0.90666725317E+02 0.  0.
        -13    1    3    3    0    0 -0.26048784223E+02  0.24893358930E+00  0.10511191909E+03  0.10829181254E+03  0.00000000000E+00 0.  1.
         14    1    3    3    0    0  0.59224455544E+02  0.28944256128E+02  0.18766994207E+03  0.19891031460E+03  0.00000000000E+00 0. -1.
        -13    1    4    4    0    0 -0.71321137150E+02 -0.11503830019E+03 -0.15794850978E+03  0.20801020854E+03  0.00000000000E+00 0. -1.
         13    1    4    4    0    0 -0.78890223824E+02 -0.12737019982E+02 -0.12966390312E+03  0.15231095452E+03  0.00000000000E+00 0.  1.
          1    1    1    2  501    0  0.11703568965E+03  0.98582130450E+02 -0.14970104552E+03  0.21407053073E+03  0.00000000000E+00 0. -1.
<scales pt_clust_5="13000.00000" pt_clust_6="13000.00000" pt_clust_7="13000.00000" pt_clust_8="13000.00000" pt_clust_9="13000.00000"></scales>
<clustering>
<clus scale="   81.848">  5  6 -1 -1</clus>
<clus scale="   90.667">  7  8 -1 -1</clus>
<clus scale="   93.016">  1  5  2 -1</clus>
<clus scale="  173.769">  7  9 -1 -1</clus>
<clus scale="  372.401">  2  5  1 -1</clus>
</clustering>
</event>
<event>
 9    2  0.3897980E-005  0.1949177E+03  0.7546771E-02  0.1188079E+00
         21   -1    0    0  501  502  0.00000000000E+00  0.00000000000E+00  0.70726611310E+02  0.70726611310E+02  0.00000000000E+00 0. -1.
          2   -1    0    0  502    0 -0.00000000000E+00 -0.00000000000E+00 -0.65524562079E+03  0.65524562079E+03  0.00000000000E+00 0. -1.
         24    2    1    2    0    0  0.41352771164E+02  0.15348767590E+02 -0.50914419425E+03  0.51698835047E+03  0.78124948861E+02 0.  0.
         23    2    1    2    0    0  0.16384877724E+02  0.34470317159E+02 -0.24693088210E+02  0.11741852378E+03  0.10826215469E+03 0.  0.
        -13    1    3    3    0    0 -0.33957592944E+01 -0.21939764945E+02 -0.58076369288E+02  0.62175148867E+02  0.00000000000E+00 0.  1.
         14    1    3    3    0    0  0.44748530458E+02  0.37288532535E+02 -0.45106782496E+03  0.45481320161E+03  0.00000000000E+00 0. -1.
        -11    1    4    4    0    0  0.30954817540E+02 -0.31903867261E+02 -0.21525238098E+02  0.49390215128E+02  0.00000000000E+00 0.  1.
         11    1    4    4    0    0 -0.14569939816E+02  0.66374184421E+02 -0.31678501114E+01  0.68028308652E+02  0.00000000000E+00 0. -1.
          1    1    1    2  501    0 -0.57737648888E+02 -0.49819084750E+02 -0.50681727020E+02  0.91565357850E+02  0.00000000000E+00 0. -1.
<scales pt_clust_5="13000.00000" pt_clust_6="13000.00000" pt_clust_7="13000.00000" pt_clust_8="13000.00000" pt_clust_9="13000.00000"></scales>
<clustering>
<clus scale="   78.125">  5  6 -1 -1</clus>
<clus scale="   89.717">  2  5  1 -1</clus>
<clus scale="  108.262">  7  8 -1 -1</clus>
<clus scale="   56.113">  7  9 -1 -1</clus>
<clus scale="  194.918">  1  5  2 -1</clus>
</clustering>
</event>
<event>
 9    2  0.3897980E-005  0.3045944E+03  0.7546771E-02  0.1107588E+00
          2   -1    0    0  502    0 -0.00000000000E+00  0.00000000000E+00  0.82236207772E+03  0.82236207772E+03  0.00000000000E+00 0. -1.
         21   -1    0    0  501  502  0.00000000000E+00 -0.00000000000E+00 -0.74792581219E+02  0.74792581219E+02  0.00000000000E+00 0. -1.
         24    2    1    2    0    0 -0.22458781751E+02 -0.13412996838E+03  0.12110436117E+03  0.20056558934E+03  0.84053816328E+02 0.  0.
         23    2    1    2    0    0  0.20474963820E+02 -0.57281180241E+02  0.18247284681E+03  0.21309003586E+03  0.91709682200E+02 0.  0.
        -13    1    3    3    0    0  0.27057164105E+02 -0.38107435562E+02  0.14864350483E+02  0.49042998377E+02  0.00000000000E+00 0.  1.
         14    1    3    3    0    0 -0.49515945856E+02 -0.96022532817E+02  0.10624001068E+03  0.15152259097E+03  0.00000000000E+00 0. -1.
        -11    1    4    4    0    0  0.22580921282E+02  0.16149329161E+02  0.18353032800E+02  0.33279613147E+02  0.00000000000E+00 0.  1.
         11    1    4    4    0    0 -0.21059574617E+01 -0.73430509401E+02  0.16411981400E+03  0.17981042271E+03  0.00000000000E+00 0. -1.
          1    1    1    2  501    0  0.19838179307E+01  0.19141114862E+03  0.44399228853E+03  0.48349903374E+03  0.00000000000E+00 0. -1.
<scales pt_clust_5="13000.00000" pt_clust_6="13000.00000" pt_clust_7="13000.00000" pt_clust_8="13000.00000" pt_clust_9="13000.00000"></scales>
<clustering>
<clus scale="   84.054">  5  6 -1 -1</clus>
<clus scale="   91.710">  7  8 -1 -1</clus>
<clus scale="  159.876">  1  5  2 -1</clus>
<clus scale="   98.350">  7  9 -1 -1</clus>
<clus scale="  304.594">  2  5  1 -1</clus>
</clustering>
</event>
<event>
 9    2  0.3897980E-005  0.5899429E+03  0.7546771E-02  0.1005155E+00
         21   -1    0    0  501  502  0.00000000000E+00  0.00000000000E+00  0.12603226992E+03  0.12603226992E+03  0.00000000000E+00 0. -1.
          2   -1    0    0  502    0 -0.00000000000E+00 -0.00000000000E+00 -0.26681373635E+04  0.26681373635E+04  0.00000000000E+00 0. -1.
         24    2    1    2    0    0 -0.25567206764E+03  0.29327087953E+03 -0.18141936841E+04  0.18572130778E+04  0.81028871535E+02 0.  0.
         23    2    1    2    0    0  0.15840706929E+03  0.16711373360E+01 -0.54832610647E+03  0.57820573083E+03  0.92545966007E+02 0.  0.
        -13    1    3    3    0    0 -0.96497828253E+02  0.61948927329E+02 -0.44628304802E+03  0.46077983832E+03  0.00000000000E+00 0.  1.
         14    1    3    3    0    0 -0.15917423939E+03  0.23132195220E+03 -0.13679106361E+04  0.13964332395E+04  0.00000000000E+00 0. -1.
        -13    1    4    4    0    0  0.11674401777E+03  0.39658682340E+02 -0.31765984645E+03  0.34074881484E+03  0.00000000000E+00 0. -1.
         13    1    4    4    0    0  0.41663051521E+02 -0.37987545004E+02 -0.23066626002E+03  0.23745691599E+03  0.00000000000E+00 0.  1.
          1    1    1    2  501    0  0.97264998351E+02 -0.29494201687E+03 -0.17958530299E+03  0.35875082476E+03  0.00000000000E+00 0. -1.
<scales pt_clust_5="13000.00000" pt_clust_6="13000.00000" pt_clust_7="13000.00000" pt_clust_8="13000.00000" pt_clust_9="13000.00000"></scales>
<clustering>
<clus scale="   81.029">  5  6 -1 -1</clus>
<clus scale="   92.546">  7  8 -1 -1</clus>
<clus scale="  310.566">  7  9 -1 -1</clus>
<clus scale="  397.419">  2  5  1 -1</clus>
<clus scale="  589.943">  1  5  2 -1</clus>
</clustering>
</event>
<event>
 9    2  0.3897980E-005  0.1289379E+03  0.7546771E-02  0.1246813E+00
         21   -1    0    0  501  502  0.00000000000E+00  0.00000000000E+00  0.48887919155E+02  0.48887919155E+02  0.00000000000E+00 0.  1.
          2   -1    0    0  502    0 -0.00000000000E+00 -0.00000000000E+00 -0.33571569161E+03  0.33571569161E+03  0.00000000000E+00 0. -1.
         24    2    1    2    0    0 -0.10101113602E+02 -0.12196676311E+02 -0.22371210112E+03  0.24104675191E+03  0.88349538835E+02 0.  0.
         23    2    1    2    0    0  0.33795064923E+02  0.24423578460E+02 -0.40896767309E+02  0.10884979673E+03  0.91853770053E+02 0.  0.
        -13    1    3    3    0    0  0.76308312818E+01  0.25450004044E+02 -0.20340775159E+02  0.33461611228E+02  0.00000000000E+00 0.  1.
         14    1    3    3    0    0 -0.17731944883E+02 -0.37646680356E+02 -0.20337132596E+03  0.20758514069E+03  0.00000000000E+00 0. -1.
        -11    1    4    4    0    0  0.41902732970E+02 -0.95306662916E+01  0.12768356720E+02  0.44829717416E+02  0.00000000000E+00 0.  1.
         11    1    4    4    0    0 -0.81076680470E+01  0.33954244751E+02 -0.53665124028E+02  0.64020079309E+02  0.00000000000E+00 0. -1.
          1    1    1    2  501    0 -0.23693951321E+02 -0.12226902148E+02 -0.22218904033E+02  0.34707062131E+02  0.00000000000E+00 0. -1.
<scales pt_clust_5="13000.00000" pt_clust_6="13000.00000" pt_clust_7="13000.00000" pt_clust_8="13000.00000" pt_clust_9="13000.00000"></scales>
<clustering>
<clus scale="   88.350">  5  6 -1 -1</clus>
<clus scale="   89.758">  2  5  1 -1</clus>
<clus scale="   91.854">  7  8 -1 -1</clus>
<clus scale="   30.723">  7  9 -1 -1</clus>
<clus scale="  128.938">  1  5  2 -1</clus>
</clustering>
</event>
<event>
 9    2  0.3897980E-005  0.1595802E+03  0.7546771E-02  0.1216737E+00
          2   -1    0    0  502    0 -0.00000000000E+00  0.00000000000E+00  0.32797180779E+03  0.32797180779E+03  0.00000000000E+00 0. -1.
         21   -1    0    0  501  502  0.00000000000E+00 -0.00000000000E+00 -0.46723431622E+02  0.46723431622E+02  0.00000000000E+00 0. -1.
         24    2    1    2    0    0  0.39280329793E+02  0.54927087563E+01  0.10355515459E+03  0.13586324124E+03  0.78498637701E+02 0.  0.
         23    2    1    2    0    0 -0.43308160064E+02  0.20863176018E+02  0.52303516444E+02  0.11063904114E+03  0.84820226062E+02 0.  0.
        -11    1    3    3    0    0 -0.34675945609E+01 -0.30130293440E+02  0.50919090813E+02  0.59267297931E+02  0.00000000000E+00 0.  1.
         12    1    3    3    0    0  0.42747924354E+02  0.35623002196E+02  0.52636063774E+02  0.76595943311E+02  0.00000000000E+00 0. -1.
        -13    1    4    4    0    0  0.10835122844E+02  0.21860593567E+02 -0.11483158907E+02  0.26965688877E+02  0.00000000000E+00 0.  1.
         13    1    4    4    0    0 -0.54143282908E+02 -0.99741754810E+00  0.63786675351E+02  0.83673352259E+02  0.00000000000E+00 0. -1.
          1    1    1    2  501    0  0.40278302715E+01 -0.26355884775E+02  0.12538970514E+03  0.12819295704E+03  0.00000000000E+00 0. -1.
<scales pt_clust_5="13000.00000" pt_clust_6="13000.00000" pt_clust_7="13000.00000" pt_clust_8="13000.00000" pt_clust_9="13000.00000"></scales>
<clustering>
<clus scale="   78.499">  5  6 -1 -1</clus>
<clus scale="   84.820">  7  8 -1 -1</clus>
<clus scale="   26.662">  7  9 -1 -1</clus>
<clus scale="   87.950">  1  5  2 -1</clus>
<clus scale="  159.580">  2  5  1 -1</clus>
</clustering>
</event>
<event>
 9    2  0.3897980E-005  0.4203620E+03  0.7546771E-02  0.1080986E+00
          2   -1    0    0  502    0 -0.00000000000E+00  0.00000000000E+00  0.12137827014E+04  0.12137827014E+04  0.00000000000E+00 0. -1.
         21   -1    0    0  501  502  0.00000000000E+00 -0.00000000000E+00 -0.62593679571E+02  0.62593679571E+02  0.00000000000E+00 0.  1.
         24    2    1    2    0    0  0.90994587326E+02 -0.11256182177E+02  0.17419966170E+03  0.21279168998E+03  0.80796439438E+02 0.  0.
         23    2    1    2    0    0  0.25735232787E+01 -0.87701032135E+02  0.65625233611E+02  0.14210105431E+03  0.90487260369E+02 0.  0.
        -13    1    3    3    0    0  0.46541810175E+02  0.34634919557E+02  0.75452276420E+02  0.95177538128E+02  0.00000000000E+00 0.  1.
         14    1    3    3    0    0  0.44452777151E+02 -0.45891101735E+02  0.98747385284E+02  0.11761415185E+03  0.00000000000E+00 0. -1.
        -11    1    4    4    0    0 -0.34472138179E+02 -0.54916611313E+02  0.67320252159E+01  0.65188056208E+02  0.00000000000E+00 0.  1.
         11    1    4    4    0    0  0.37045661458E+02 -0.32784420822E+02  0.58893208396E+02  0.76912998099E+02  0.00000000000E+00 0. -1.
          1    1    1    2  501    0 -0.93568110605E+02  0.98957214312E+02  0.91136412655E+03  0.92148363673E+03  0.00000000000E+00 0. -1.
<scales pt_clust_5="13000.00000" pt_clust_6="13000.00000" pt_clust_7="13000.00000" pt_clust_8="13000.00000" pt_clust_9="13000.00000"></scales>
<clustering>
<clus scale="   80.796">  5  6 -1 -1</clus>
<clus scale="   90.487">  7  8 -1 -1</clus>
<clus scale="  122.208">  1  5  2 -1</clus>
<clus scale="   89.632">  7  9 -1 -1</clus>
<clus scale="  420.362">  2  5  1 -1</clus>
</clustering>
</event>
<event>
 9    2  0.3897980E-005  0.2662088E+03  0.7546771E-02  0.1140807E+00
         21   -1    0    0  501  502  0.00000000000E+00  0.00000000000E+00  0.48280419191E+02  0.48280419191E+02  0.00000000000E+00 0.  1.
         -1   -1    0    0    0  501 -0.00000000000E+00 -0.00000000000E+00 -0.84711913665E+03  0.84711913665E+03  0.00000000000E+00 0.  1.
         24    2    1    2    0    0 -0.63071071712E+02 -0.25268162323E+02 -0.41639723297E+03  0.42942892433E+03  0.80038149109E+02 0.  0.
         23    2    1    2    0    0  0.22742149629E+02 -0.61916073295E+02 -0.45746562448E+02  0.11584067931E+03  0.83519515720E+02 0.  0.
        -11    1    3    3    0    0 -0.66435053267E+02 -0.31691014353E+02 -0.41567594093E+03  0.42214265901E+03  0.00000000000E+00 0.  1.
         12    1    3    3    0    0  0.33639815547E+01  0.64228520296E+01 -0.72129204511E+00  0.72862653197E+01  0.00000000000E+00 0. -1.
        -11    1    4    4    0    0  0.39789823081E+02 -0.30590660434E+02 -0.59299833130E+02  0.77688407989E+02  0.00000000000E+00 0.  1.
         11    1    4    4    0    0 -0.17047673452E+02 -0.31325412861E+02  0.13553270682E+02  0.38152271324E+02  0.00000000000E+00 0. -1.
         -2    1    1    2    0  502  0.40328922083E+02  0.87184235618E+02 -0.33669492204E+03  0.35012995219E+03  0.00000000000E+00 0.  1.
<scales pt_clust_5="13000.00000" pt_clust_6="13000.00000" pt_clust_7="13000.00000" pt_clust_8="13000.00000" pt_clust_9="13000.00000"></scales>
<clustering>
<clus scale="   80.038">  5  6 -1 -1</clus>
<clus scale="   83.520">  7  8 -1 -1</clus>
<clus scale="   96.060">  7  9 -1 -1</clus>
<clus scale="  104.988">  2  5  1 -1</clus>
<clus scale="  266.209">  1  5  2 -1</clus>
</clustering>
</event>
<event>
 9    2  0.3897980E-005  0.1969422E+03  0.7546771E-02  0.1180212E+00
         21   -1    0    0  501  502  0.00000000000E+00  0.00000000000E+00  0.88071983528E+03  0.88071983528E+03  0.00000000000E+00 0.  1.
         -3   -1    0    0    0  501 -0.00000000000E+00 -0.00000000000E+00 -0.26122379698E+02  0.26122379698E+02  0.00000000000E+00 0.  1.
         24    2    1    2    0    0 -0.59138058471E+02  0.22225969197E+02  0.35499977247E+03  0.36982819334E+03  0.82199455393E+02 0.  0.
         23    2    1    2    0    0 -0.38171384573E+02 -0.63216668583E+01  0.20880630308E+03  0.22996076691E+03  0.88231876558E+02 0.  0.
        -13    1    3    3    0    0 -0.34783467399E+02  0.45373304318E+01  0.39224925856E+02  0.52621970508E+02  0.00000000000E+00 0.  1.
         14    1    3    3    0    0 -0.24354591072E+02  0.17688638765E+02  0.31577484662E+03  0.31720622283E+03  0.00000000000E+00 0. -1.
        -13    1    4    4    0    0 -0.50076400124E+02 -0.34596805475E+02  0.16951463145E+03  0.18011050795E+03  0.00000000000E+00 0. -1.
         13    1    4    4    0    0  0.11905015551E+02  0.28275138617E+02  0.39291671625E+02  0.49850258958E+02  0.00000000000E+00 0.  1.
         -4    1    1    2    0  502  0.97309443044E+02 -0.15904302338E+02  0.29079138004E+03  0.30705325473E+03  0.00000000000E+00 0.  1.
<scales pt_clust_5="13000.00000" pt_clust_6="13000.00000" pt_clust_7="13000.00000" pt_clust_8="13000.00000" pt_clust_9="13000.00000"></scales>
<clustering>
<clus scale="   82.199">  5  6 -1 -1</clus>
<clus scale="   88.232">  7  8 -1 -1</clus>
<clus scale="   98.601">  7  9 -1 -1</clus>
<clus scale="  103.673">  2  5  1 -1</clus>
<clus scale="  196.942">  1  5  2 -1</clus>
</clustering>
</event>
<event>
 9    2  0.3897980E-005  0.3254221E+03  0.7546771E-02  0.1121510E+00
         21   -1    0    0  501  502  0.00000000000E+00  0.00000000000E+00  0.15081335002E+03  0.15081335002E+03  0.00000000000E+00 0.  1.
         -1   -1    0    0    0  501 -0.00000000000E+00 -0.00000000000E+00 -0.28970362682E+03  0.28970362682E+03  0.00000000000E+00 0.  1.
         24    2    1    2    0    0  0.43352500656E+02  0.21871051266E+02 -0.38704711426E+02  0.10002219058E+03  0.78413020125E+02 0.  0.
         23    2    1    2    0    0 -0.15729869508E+03 -0.74851366942E+02 -0.55182739952E+02  0.20701855852E+03  0.97293073623E+02 0.  0.
        -11    1    3    3    0    0  0.56209893588E+02 -0.98065804627E+01 -0.31157208824E+02  0.65011482210E+02  0.00000000000E+00 0.  1.
         12    1    3    3    0    0 -0.12857392932E+02  0.31677631729E+02 -0.75475026025E+01  0.35010708369E+02  0.00000000000E+00 0. -1.
        -11    1    4    4    0    0 -0.12534274563E+03 -0.97964073147E+02 -0.35745829884E+02  0.16305069109E+03  0.00000000000E+00 0.  1.
         11    1    4    4    0    0 -0.31955949453E+02  0.23112706206E+02 -0.19436910069E+02  0.43967867433E+02  0.00000000000E+00 0. -1.
         -2    1    1    2    0  502  0.11394619443E+03  0.52980315675E+02 -0.45002825423E+02  0.13347622773E+03  0.00000000000E+00 0.  1.
<scales pt_clust_5="13000.00000" pt_clust_6="13000.00000" pt_clust_7="13000.00000" pt_clust_8="13000.00000" pt_clust_9="13000.00000"></scales>
<clustering>
<clus scale="   78.413">  5  6 -1 -1</clus>
<clus scale="   92.230">  2  5  1 -1</clus>
<clus scale="   97.293">  7  8 -1 -1</clus>
<clus scale="  145.318">  7  9 -1 -1</clus>
<clus scale="  325.422">  1  5  2 -1</clus>
</clustering>
</event>
<event>
 9    2  0.3897980E-005  0.1280915E+03  0.7546771E-02  0.1248709E+00
          2   -1    0    0  502    0 -0.00000000000E+00  0.00000000000E+00  0.56628540874E+03  0.56628540874E+03  0.00000000000E+00 0. -1.
         21   -1    0    0  501  502  0.00000000000E+00 -0.00000000000E+00 -0.43084491904E+02  0.43084491904E+02  0.00000000000E+00 0.  1.
         24    2    1    2    0    0 -0.89728963111E+01  0.35630414379E+02  0.45654282681E+03  0.46497210166E+03  0.80110319659E+02 0.  0.
         23    2    1    2    0    0  0.26073680202E+02 -0.24632749305E+02  0.28705051624E+02  0.10134180555E+03  0.90330351626E+02 0.  0.
        -13    1    3    3    0    0  0.28058072173E+02 -0.85114617473E+01  0.11982290082E+03  0.12335812886E+03  0.00000000000E+00 0.  1.
         14    1    3    3    0    0 -0.37030968484E+02  0.44141876127E+02  0.33671992599E+03  0.34161397280E+03  0.00000000000E+00 0. -1.
        -13    1    4    4    0    0  0.35481087941E+02 -0.47645491373E+02 -0.48242353477E+01  0.59600953821E+02  0.00000000000E+00 0.  1.
         13    1    4    4    0    0 -0.94074077390E+01  0.23012742068E+02  0.33529286972E+02  0.41740851725E+02  0.00000000000E+00 0. -1.
          1    1    1    2  501    0 -0.17100783891E+02 -0.10997665074E+02  0.37953038402E+02  0.43055993435E+02  0.00000000000E+00 0. -1.
<scales pt_clust_5="13000.00000" pt_clust_6="13000.00000" pt_clust_7="13000.00000" pt_clust_8="13000.00000" pt_clust_9="13000.00000"></scales>
<clustering>
<clus scale="   80.110">  5  6 -1 -1</clus>
<clus scale="   88.135">  1  5  2 -1</clus>
<clus scale="   90.330">  7  8 -1 -1</clus>
<clus scale="   20.719">  7  9 -1 -1</clus>
<clus scale="  128.091">  2  5  1 -1</clus>
</clustering>
</event>
<event>
 9    2  0.3897980E-005  0.2193740E+03  0.7546771E-02  0.1168859E+00
         21   -1    0    0  501  502  0.00000000000E+00  0.00000000000E+00  0.30770236035E+03  0.30770236035E+03  0.00000000000E+00 0. -1.
          2   -1    0    0  502    0 -0.00000000000E+00 -0.00000000000E+00 -0.81494769286E+02  0.81494769286E+02  0.00000000000E+00 0. -1.
         24    2    1    2    0    0 -0.66296098510E-01  0.55728886322E+02  0.77007055523E+02  0.12389396596E+03  0.79460147460E+02 0.  0.
         23    2    1    2    0    0  0.66261669926E+02 -0.34818725862E+02  0.15681823027E+03  0.19546698681E+03  0.89512194779E+02 0.  0.
        -13    1    3    3    0    0  0.23880829548E+02 -0.96463212945E+01  0.11175685724E+02  0.28075638654E+02  0.00000000000E+00 0.  1.
         14    1    3    3    0    0 -0.23947125647E+02  0.65375207617E+02  0.65831369799E+02  0.95818327304E+02  0.00000000000E+00 0. -1.
        -11    1    4    4    0    0 -0.15230241126E+01  0.23416508855E+02  0.15031517289E+02  0.27867525929E+02  0.00000000000E+00 0.  1.
         11    1    4    4    0    0  0.67784694039E+02 -0.58235234717E+02  0.14178671298E+03  0.16759946088E+03  0.00000000000E+00 0. -1.
          1    1    1    2  501    0 -0.66195373828E+02 -0.20910160460E+02 -0.76176947328E+01  0.69836176869E+02  0.00000000000E+00 0. -1.
<scales pt_clust_5="13000.00000" pt_clust_6="13000.00000" pt_clust_7="13000.00000" pt_clust_8="13000.00000" pt_clust_9="13000.00000"></scales>
<clustering>
<clus scale="   79.460">  5  6 -1 -1</clus>
<clus scale="   89.512">  7  8 -1 -1</clus>
<clus scale="   69.420">  7  9 -1 -1</clus>
<clus scale="   97.055">  2  5  1 -1</clus>
<clus scale="  219.374">  1  5  2 -1</clus>
</clustering>
</event>
<event>
 9    2  0.3897980E-005  0.2799455E+03  0.7546771E-02  0.1114961E+00
          2   -1    0    0  502    0 -0.00000000000E+00  0.00000000000E+00  0.33521737129E+03  0.33521737129E+03  0.00000000000E+00 0. -1.
         21   -1    0    0  501  502  0.00000000000E+00 -0.00000000000E+00 -0.15182154236E+03  0.15182154236E+03  0.00000000000E+00 0. -1.
         24    2    1    2    0    0  0.15147814653E+03 -0.79556356132E+01  0.80625324863E+02  0.18882548345E+03  0.78394509866E+02 0.  0.
         23    2    1    2    0    0 -0.41961854027E+02 -0.73576384154E+02 -0.70144008000E+01  0.12301635856E+03  0.88935601169E+02 0.  0.
        -11    1    3    3    0    0  0.12894726648E+03 -0.76292912571E+01  0.96519901582E+02  0.16125041091E+03  0.00000000000E+00 0.  1.
         12    1    3    3    0    0  0.22530880051E+02 -0.32634435607E+00 -0.15894576719E+02  0.27575072540E+02  0.00000000000E+00 0. -1.
        -13    1    4    4    0    0 -0.56274131380E+02 -0.36242333842E+02  0.25351375514E+02  0.71574973737E+02  0.00000000000E+00 0.  1.
         13    1    4    4    0    0  0.14312277354E+02 -0.37334050312E+02 -0.32365776314E+02  0.51441384820E+02  0.00000000000E+00 0. -1.
          1    1    1    2  501    0 -0.10951629251E+03  0.81532019768E+02  0.10978490487E+03  0.17519707163E+03  0.00000000000E+00 0. -1.
<scales pt_clust_5="13000.00000" pt_clust_6="13000.00000" pt_clust_7="13000.00000" pt_clust_8="13000.00000" pt_clust_9="13000.00000"></scales>
<clustering>
<clus scale="   78.395">  5  6 -1 -1</clus>
<clus scale="   88.936">  7  8 -1 -1</clus>
<clus scale="  136.533">  7  9 -1 -1</clus>
<clus scale="  170.747">  1  5  2 -1</clus>
<clus scale="  279.945">  2  5  1 -1</clus>
</clustering>
</event>
<event>
 9    2  0.3897980E-005  0.1651539E+03  0.7546771E-02  0.1219572E+00
          2   -1    0    0  502    0 -0.00000000000E+00  0.00000000000E+00  0.57967099580E+02  0.57967099580E+02  0.00000000000E+00 0. -1.
         21   -1    0    0  501  502  0.00000000000E+00 -0.00000000000E+00 -0.27526262883E+03  0.27526262883E+03  0.00000000000E+00 0.  1.
         24    2    1    2    0    0 -0.18695394571E+01 -0.12775077371E+02 -0.12050387447E+03  0.14180237097E+03  0.73620858934E+02 0.  0.
         23    2    1    2    0    0 -0.36010725106E+02  0.76767473757E+01 -0.11283130066E+03  0.14997645091E+03  0.91686032988E+02 0.  0.
        -13    1    3    3    0    0  0.12586286443E+02 -0.38006748488E+02 -0.95120298636E+02  0.10320270709E+03  0.00000000000E+00 0.  1.
         14    1    3    3    0    0 -0.14455825900E+02  0.25231671117E+02 -0.25383575838E+02  0.38599663886E+02  0.00000000000E+00 0. -1.
        -11    1    4    4    0    0 -0.52506567038E+02 -0.27309973719E+02 -0.78097149532E+02  0.97989484189E+02  0.00000000000E+00 0. -1.
         11    1    4    4    0    0  0.16495841932E+02  0.34986721094E+02 -0.34734151130E+02  0.51986966719E+02  0.00000000000E+00 0.  1.
          1    1    1    2  501    0  0.37880264563E+02  0.50983299950E+01  0.16039645886E+02  0.41450906531E+02  0.00000000000E+00 0. -1.
<scales pt_clust_5="13000.00000" pt_clust_6="13000.00000" pt_clust_7="13000.00000" pt_clust_8="13000.00000" pt_clust_9="13000.00000"></scales>
<clustering>
<clus scale="   73.621">  5  6 -1 -1</clus>
<clus scale="   74.744">  1  5  2 -1</clus>
<clus scale="   91.686">  7  8 -1 -1</clus>
<clus scale="   36.841">  7  9 -1 -1</clus>
<clus scale="  165.154">  2  5  1 -1</clus>
</clustering>
</event>
<event>
 9    2  0.3897980E-005  0.1849216E+03  0.7546771E-02  0.1195131E+00
         -1   -1    0    0    0  501 -0.00000000000E+00  0.00000000000E+00  0.13440734895E+03  0.13440734895E+03  0.00000000000E+00 0.  1.
         21   -1    0    0  501  502  0.00000000000E+00 -0.00000000000E+00 -0.14143403411E+03  0.14143403411E+03  0.00000000000E+00 0. -1.
         24    2    1    2    0    0  0.31659138746E+02 -0.36006114378E+02 -0.12665727148E+02  0.90833812674E+02  0.76102690767E+02 0.  0.
         23    2    1    2    0    0  0.19543971029E+02 -0.71003387742E+01 -0.41078172941E+02  0.10338390394E+03  0.92565834339E+02 0.  0.
        -11    1    3    3    0    0  0.46061552238E+01 -0.49056030292E+02  0.13403495048E+02  0.51062358479E+02  0.00000000000E+00 0.  1.
         12    1    3    3    0    0  0.27052983522E+02  0.13049915914E+02 -0.26069222196E+02  0.39771454194E+02  0.00000000000E+00 0. -1.
        -11    1    4    4    0    0 -0.15262983376E+02  0.30212235144E+02 -0.39926811544E+02  0.52343940375E+02  0.00000000000E+00 0.  1.
         11    1    4    4    0    0  0.34806954405E+02 -0.37312573918E+02 -0.11513613962E+01  0.51039963562E+02  0.00000000000E+00 0. -1.
         -2    1    1    2    0  502 -0.51203109775E+02  0.43106453152E+02  0.46717214933E+02  0.81623666452E+02  0.00000000000E+00 0.  1.
<scales pt_clust_5="13000.00000" pt_clust_6="13000.00000" pt_clust_7="13000.00000" pt_clust_8="13000.00000" pt_clust_9="13000.00000"></scales>
<clustering>
<clus scale="   76.103">  5  6 -1 -1</clus>
<clus scale="   89.946">  1  5  2 -1</clus>
<clus scale="   92.566">  7  8 -1 -1</clus>
<clus scale="   35.347">  7  9 -1 -1</clus>
<clus scale="  184.922">  2  5  1 -1</clus>
</clustering>
</event>
<event>
 9    2  0.3897980E-005  0.2629568E+03  0.7546771E-02  0.1146075E+00
         21   -1    0    0  501  502  0.00000000000E+00  0.00000000000E+00  0.15381032737E+03  0.15381032737E+03  0.00000000000E+00 0.  1.
          2   -1    0    0  502    0 -0.00000000000E+00 -0.00000000000E+00 -0.54595000804E+03  0.54595000804E+03  0.00000000000E+00 0. -1.
         24    2    1    2    0    0 -0.45470242224E+02  0.20533800284E+02 -0.42413345462E+03  0.43486436546E+03  0.82028343522E+02 0.  0.
         23    2    1    2    0    0  0.13777257314E+03 -0.17021890021E+02  0.45306143119E+02  0.17157248426E+03  0.90074658490E+02 0.  0.
        -13    1    3    3    0    0  0.22881119300E+02 -0.29848765766E+01 -0.12579867748E+03  0.12789746817E+03  0.00000000000E+00 0.  1.
         14    1    3    3    0    0 -0.68351361524E+02  0.23518676861E+02 -0.29833477714E+03  0.30696689729E+03  0.00000000000E+00 0. -1.
        -13    1    4    4    0    0  0.83861750902E+02 -0.54327045877E+02  0.27763002407E+02  0.10370634253E+03  0.00000000000E+00 0. -1.
         13    1    4    4    0    0  0.53910822240E+02  0.37305155856E+02  0.17543140712E+02  0.67866141735E+02  0.00000000000E+00 0.  1.
          1    1    1    2  501    0 -0.92302330918E+02 -0.35119102629E+01 -0.13312369177E+02  0.93323485682E+02  0.00000000000E+00 0. -1.
<scales pt_clust_5="13000.00000" pt_clust_6="13000.00000" pt_clust_7="13000.00000" pt_clust_8="13000.00000" pt_clust_9="13000.00000"></scales>
<clustering>
<clus scale="   82.028">  5  6 -1 -1</clus>
<clus scale="   90.075">  7  8 -1 -1</clus>
<clus scale="   92.369">  7  9 -1 -1</clus>
<clus scale="   96.010">  2  5  1 -1</clus>
<clus scale="  262.957">  1  5  2 -1</clus>
</clustering>
</event>
<event>
 9    2  0.3897980E-005  0.1734028E+03  0.7546771E-02  0.1183466E+00
         21   -1    0    0  501  502  0.00000000000E+00  0.00000000000E+00  0.23797849669E+03  0.23797849669E+03  0.00000000000E+00 0.  1.
         -3   -1    0    0    0  501 -0.00000000000E+00 -0.00000000000E+00 -0.10680914296E+03  0.10680914296E+03  0.00000000000E+00 0.  1.
         24    2    1    2    0    0 -0.99752642011E+02  0.58780960092E+02  0.31114994711E+02  0.14458921689E+03  0.80821456842E+02 0.  0.
         23    2    1    2    0    0  0.41782427758E+02 -0.15682570440E+02  0.58142305161E+02  0.11668412944E+03  0.90790661028E+02 0.  0.
        -11    1    3    3    0    0 -0.48951225090E+02  0.29794995450E+01 -0.20509785716E+02  0.53157794964E+02  0.00000000000E+00 0.  1.
         12    1    3    3    0    0 -0.50801416921E+02  0.55801460547E+02  0.51624780427E+02  0.91431421921E+02  0.00000000000E+00 0. -1.
        -13    1    4    4    0    0 -0.61127060812E+01  0.28912538702E+02  0.38149034147E+02  0.48256076055E+02  0.00000000000E+00 0.  1.
         13    1    4    4    0    0  0.47895133839E+02 -0.44595109142E+02  0.19993271013E+02  0.68428053390E+02  0.00000000000E+00 0. -1.
         -4    1    1    2    0  502  0.57970214253E+02 -0.43098389652E+02  0.41912053857E+02  0.83514293325E+02  0.00000000000E+00 0.  1.
<scales pt_clust_5="13000.00000" pt_clust_6="13000.00000" pt_clust_7="13000.00000" pt_clust_8="13000.00000" pt_clust_9="13000.00000"></scales>
<clustering>
<clus scale="   80.821">  5  6 -1 -1</clus>
<clus scale="   90.791">  7  8 -1 -1</clus>
<clus scale="   72.236">  7  9 -1 -1</clus>
<clus scale="  141.202">  2  5  1 -1</clus>
<clus scale="  173.403">  1  5  2 -1</clus>
</clustering>
</event>
<event>
 9    2  0.3897980E-005  0.3955719E+03  0.7546771E-02  0.1098567E+00
         21   -1    0    0  501  502  0.00000000000E+00  0.00000000000E+00  0.52668828310E+02  0.52668828310E+02  0.00000000000E+00 0.  1.
          2   -1    0    0  502    0 -0.00000000000E+00 -0.00000000000E+00 -0.12394088312E+04  0.12394088312E+04  0.00000000000E+00 0. -1.
         24    2    1    2    0    0 -0.34100569058E+02  0.21982148328E+02 -0.41223504571E+03  0.42240238463E+03  0.82704159358E+02 0.  0.
         23    2    1    2    0    0  0.14893552550E+02  0.14361041173E+03 -0.17405180684E+03  0.24651093766E+03  0.98121570811E+02 0.  0.
        -13    1    3    3    0    0 -0.16334923095E+02 -0.31484740037E+02 -0.17639824445E+03  0.17992903938E+03  0.00000000000E+00 0.  1.
         14    1    3    3    0    0 -0.17765645963E+02  0.53466888365E+02 -0.23583680126E+03  0.24247334525E+03  0.00000000000E+00 0. -1.
        -11    1    4    4    0    0  0.56336042988E+02  0.85235211685E+02 -0.11385110383E+03  0.15297341238E+03  0.00000000000E+00 0.  1.
         11    1    4    4    0    0 -0.41442490438E+02  0.58375200042E+02 -0.60200703008E+02  0.93537525284E+02  0.00000000000E+00 0. -1.
          1    1    1    2  501    0  0.19207016509E+02 -0.16559256005E+03 -0.60045315033E+03  0.62316433721E+03  0.00000000000E+00 0. -1.
<scales pt_clust_5="13000.00000" pt_clust_6="13000.00000" pt_clust_7="13000.00000" pt_clust_8="13000.00000" pt_clust_9="13000.00000"></scales>
<clustering>
<clus scale="   82.704">  5  6 -1 -1</clus>
<clus scale="   92.120">  2  5  1 -1</clus>
<clus scale="   98.122">  7  8 -1 -1</clus>
<clus scale="  149.361">  7  9 -1 -1</clus>
<clus scale="  395.572">  1  5  2 -1</clus>
</clustering>
</event>
<event>
 9    2  0.3897980E-005  0.2257344E+03  0.7546771E-02  0.1169312E+00
         -3   -1    0    0    0  501 -0.00000000000E+00  0.00000000000E+00  0.12120686418E+03  0.12120686418E+03  0.00000000000E+00 0.  1.
         21   -1    0    0  501  502  0.00000000000E+00 -0.00000000000E+00 -0.25895883102E+03  0.25895883102E+03  0.00000000000E+00 0. -1.
         24    2    1    2    0    0 -0.30360202079E+02 -0.73082763425E+01  0.36079292469E+02  0.95256334800E+02  0.82443321143E+02 0.  0.
         23    2    1    2    0    0  0.68831257042E+02  0.71718996941E+02 -0.16057551412E+03  0.20872223696E+03  0.88876993636E+02 0.  0.
        -11    1    3    3    0    0 -0.43633250913E+02  0.24908961377E+02  0.88080866086E+01  0.51008816217E+02  0.00000000000E+00 0.  1.
         12    1    3    3    0    0  0.13273048834E+02 -0.32217237720E+02  0.27271205861E+02  0.44247518583E+02  0.00000000000E+00 0. -1.
        -13    1    4    4    0    0  0.69786954896E+02  0.39463815307E+02 -0.15696130040E+03  0.17625113224E+03  0.00000000000E+00 0. -1.
         13    1    4    4    0    0 -0.95569785391E+00  0.32255181634E+02 -0.36142137141E+01  0.32471104715E+02  0.00000000000E+00 0.  1.
         -4    1    1    2    0  502 -0.38471054963E+02 -0.64410720599E+02 -0.13255745186E+02  0.76187123443E+02  0.00000000000E+00 0.  1.
<scales pt_clust_5="13000.00000" pt_clust_6="13000.00000" pt_clust_7="13000.00000" pt_clust_8="13000.00000" pt_clust_9="13000.00000"></scales>
<clustering>
<clus scale="   82.443">  5  6 -1 -1</clus>
<clus scale="   88.159">  1  5  2 -1</clus>
<clus scale="   88.877">  7  8 -1 -1</clus>
<clus scale="   88.310">  7  9 -1 -1</clus>
<clus scale="  225.734">  2  5  1 -1</clus>
</clustering>
</event>
<event>
 9    2  0.3897980E-005  0.2932476E+03  0.7546771E-02  0.1127630E+00
         21   -1    0    0  501  502  0.00000000000E+00  0.00000000000E+00  0.10907667602E+03  0.10907667602E+03  0.00000000000E+00 0. -1.
          2   -1    0    0  502    0 -0.00000000000E+00 -0.00000000000E+00 -0.37505629432E+03  0.37505629432E+03  0.00000000000E+00 0. -1.
         24    2    1    2    0    0 -0.68515185785E+02 -0.14770128435E+02 -0.46521174357E+02  0.11785959411E+03  0.82548027740E+02 0.  0.
         23    2    1    2    0    0  0.92357830511E+02 -0.10579115190E+03 -0.10034346130E+03  0.19512468907E+03  0.91011523350E+02 0.  0.
        -11    1    3    3    0    0 -0.71374733808E+02 -0.15494422840E+02 -0.65830396429E+02  0.98326348753E+02  0.00000000000E+00 0.  1.
         12    1    3    3    0    0  0.28595480226E+01  0.72429440473E+00  0.19309222071E+02  0.19533245360E+02  0.00000000000E+00 0. -1.
        -11    1    4    4    0    0  0.46061813643E+02  0.49318343367E+01 -0.37818905903E+02  0.59802034327E+02  0.00000000000E+00 0.  1.
         11    1    4    4    0    0  0.46296016868E+02 -0.11072298624E+03 -0.62524555397E+02  0.13532265475E+03  0.00000000000E+00 0. -1.
          1    1    1    2  501    0 -0.23842644726E+02  0.12056128034E+03 -0.11911498264E+03  0.17114868715E+03  0.00000000000E+00 0. -1.
<scales pt_clust_5="13000.00000" pt_clust_6="13000.00000" pt_clust_7="13000.00000" pt_clust_8="13000.00000" pt_clust_9="13000.00000"></scales>
<clustering>
<clus scale="   82.548">  5  6 -1 -1</clus>
<clus scale="   91.012">  7  8 -1 -1</clus>
<clus scale="  108.290">  2  5  1 -1</clus>
<clus scale="  127.138">  7  9 -1 -1</clus>
<clus scale="  293.248">  1  5  2 -1</clus>
</clustering>
</event>
<event>
 9    2  0.3897980E-005  0.1899818E+03  0.7546771E-02  0.1185878E+00
          2   -1    0    0  502    0 -0.00000000000E+00  0.00000000000E+00  0.13993372815E+03  0.13993372815E+03  0.00000000000E+00 0. -1.
         21   -1    0    0  501  502  0.00000000000E+00 -0.00000000000E+00 -0.16248130202E+03  0.16248130202E+03  0.00000000000E+00 0. -1.
         24    2    1    2    0    0  0.43758683819E+02 -0.37714796414E+02 -0.44728992411E+02  0.11114270756E+03  0.83754345581E+02 0.  0.
         23    2    1    2    0    0 -0.83722887525E+00  0.35676250175E+02 -0.48167265464E+02  0.10883844421E+03  0.90841761856E+02 0.  0.
        -13    1    3    3    0    0 -0.24357231409E+02 -0.10433283371E+02 -0.21664817607E+02  0.34227071825E+02  0.00000000000E+00 0.  1.
         14    1    3    3    0    0  0.68115915228E+02 -0.27281513043E+02 -0.23064174804E+02  0.76915635736E+02  0.00000000000E+00 0. -1.
        -11    1    4    4    0    0 -0.55314750899E+01  0.66213516582E+02 -0.36526697117E+02  0.75822335740E+02  0.00000000000E+00 0.  1.
         11    1    4    4    0    0  0.46942462147E+01 -0.30537266407E+02 -0.11640568348E+02  0.33016108471E+02  0.00000000000E+00 0. -1.
          1    1    1    2  501    0 -0.42921454944E+02  0.20385462390E+01  0.70348684010E+02  0.82433878395E+02  0.00000000000E+00 0. -1.
<scales pt_clust_5="13000.00000" pt_clust_6="13000.00000" pt_clust_7="13000.00000" pt_clust_8="13000.00000" pt_clust_9="13000.00000"></scales>
<clustering>
<clus scale="   83.754">  5  6 -1 -1</clus>
<clus scale="   90.842">  7  8 -1 -1</clus>
<clus scale="   42.970">  7  9 -1 -1</clus>
<clus scale="  101.745">  1  5  2 -1</clus>
<clus scale="  189.982">  2  5  1 -1</clus>
</clustering>
</event>
<event>
 9    2  0.3897980E-005  0.3864941E+03  0.7546771E-02  0.1070540E+00
          2   -1    0    0  502    0 -0.00000000000E+00  0.00000000000E+00  0.11404297773E+04  0.11404297773E+04  0.00000000000E+00 0. -1.
         21   -1    0    0  501  502  0.00000000000E+00 -0.00000000000E+00 -0.78968402178E+02  0.78968402178E+02  0.00000000000E+00 0.  1.
         24    2    1    2    0    0 -0.17652558363E+03  0.78080736332E+02  0.30061282302E+03  0.36601185056E+03  0.79616093408E+02 0.  0.
         23    2    1    2    0    0 -0.20697902269E+02  0.83040687787E+02  0.17788191371E+03  0.21722021996E+03  0.90655886447E+02 0.  0.
        -13    1    3    3    0    0 -0.14643479859E+03  0.94540859362E+02  0.25690025114E+03  0.31044945379E+03  0.00000000000E+00 0.  1.
         14    1    3    3    0    0 -0.30090785038E+02 -0.16460123031E+02  0.43712571881E+02  0.55562396770E+02  0.00000000000E+00 0. -1.
        -13    1    4    4    0    0 -0.32011761723E+02  0.32144240075E+02  0.15274293478E+03  0.15933740673E+03  0.00000000000E+00 0.  1.
         13    1    4    4    0    0  0.11313859454E+02  0.50896447712E+02  0.25138978928E+02  0.57882813226E+02  0.00000000000E+00 0. -1.
          1    1    1    2  501    0  0.19722348590E+03 -0.16112142412E+03  0.58296663839E+03  0.63616610895E+03  0.00000000000E+00 0. -1.
<scales pt_clust_5="13000.00000" pt_clust_6="13000.00000" pt_clust_7="13000.00000" pt_clust_8="13000.00000" pt_clust_9="13000.00000"></scales>
<clustering>
<clus scale="   79.616">  5  6 -1 -1</clus>
<clus scale="   90.656">  7  8 -1 -1</clus>
<clus scale="  208.798">  1  5  2 -1</clus>
<clus scale="  120.494">  7  9 -1 -1</clus>
<clus scale="  386.494">  2  5  1 -1</clus>
</clustering>
</event>
<event>
 9    2  0.3897980E-005  0.5828585E+03  0.7546771E-02  0.1051876E+00
          2   -1    0    0  502    0 -0.00000000000E+00  0.00000000000E+00  0.13062683117E+04  0.13062683117E+04  0.00000000000E+00 0. -1.
         21   -1    0    0  501  502  0.00000000000E+00 -0.00000000000E+00 -0.93620937634E+02  0.93620937634E+02  0.00000000000E+00 0.  1.
         24    2    1    2    0    0 -0.54120872389E+02 -0.31268096742E+02  0.96856053120E+02  0.14103490087E+03  0.81258756670E+02 0.  0.
         23    2    1    2    0    0  0.10926109318E+03 -0.18146177193E+03  0.16590892082E+03  0.28388203345E+03  0.90536610027E+02 0.  0.
        -11    1    3    3    0    0 -0.54781520813E+02  0.20807397397E+01  0.21976050997E+02  0.59061758506E+02  0.00000000000E+00 0.  1.
         12    1    3    3    0    0  0.66064842437E+00 -0.33348836481E+02  0.74880002124E+02  0.81973142364E+02  0.00000000000E+00 0. -1.
        -11    1    4    4    0    0  0.34150665978E+02 -0.37876531151E+02  0.93268970161E+02  0.10630145998E+03  0.00000000000E+00 0. -1.
         11    1    4    4    0    0  0.75110427202E+02 -0.14358524078E+03  0.72639950660E+02  0.17758057347E+03  0.00000000000E+00 0.  1.
          1    1    1    2  501    0 -0.55140220791E+02  0.21272986867E+03  0.94988240014E+03  0.97497231502E+03  0.00000000000E+00 0. -1.
<scales pt_clust_5="13000.00000" pt_clust_6="13000.00000" pt_clust_7="13000.00000" pt_clust_8="13000.00000" pt_clust_9="13000.00000"></scales>
<clustering>
<clus scale="   81.259">  5  6 -1 -1</clus>
<clus scale="   90.537">  7  8 -1 -1</clus>
<clus scale="  102.517">  1  5  2 -1</clus>
<clus scale="  211.934">  7  9 -1 -1</clus>
<clus scale="  582.858">  2  5  1 -1</clus>
</clustering>
</event>
<event>
 9    2  0.3897980E-005  0.3285469E+03  0.7546771E-02  0.1121756E+00
         21   -1    0    0  501  502  0.00000000000E+00  0.00000000000E+00  0.19807413613E+03  0.19807413613E+03  0.00000000000E+00 0. -1.
          4   -1    0    0  502    0 -0.00000000000E+00 -0.00000000000E+00 -0.26956175235E+03  0.26956175235E+03  0.00000000000E+00 0. -1.
         24    2    1    2    0    0  0.25661494961E+02  0.23763636306E+02  0.66628812734E+02  0.11123834334E+03  0.81922814944E+02 0.  0.
         23    2    1    2    0    0  0.11484572161E+02  0.61405227536E+02  0.68432165183E+02  0.12991159103E+03  0.91058019334E+02 0.  0.
        -13    1    3    3    0    0 -0.19319709967E+02  0.34528154529E+02  0.16040042615E+02  0.42693414194E+02  0.00000000000E+00 0.  1.
         14    1    3    3    0    0  0.44981204928E+02 -0.10764518224E+02  0.50588770119E+02  0.68544929145E+02  0.00000000000E+00 0. -1.
        -13    1    4    4    0    0  0.10082998000E+02  0.23069903949E+02  0.84611760840E+02  0.88278181842E+02  0.00000000000E+00 0. -1.
         13    1    4    4    0    0  0.14015741609E+01  0.38335323587E+02 -0.16179595658E+02  0.41633409184E+02  0.00000000000E+00 0.  1.
          3    1    1    2  501    0 -0.37146067122E+02 -0.85168863842E+02 -0.20654859414E+03  0.22648595411E+03  0.00000000000E+00 0. -1.
<scales pt_clust_5="13000.00000" pt_clust_6="13000.00000" pt_clust_7="13000.00000" pt_clust_8="13000.00000" pt_clust_9="13000.00000"></scales>
<clustering>
<clus scale="   81.923">  5  6 -1 -1</clus>
<clus scale="   89.076">  2  5  1 -1</clus>
<clus scale="   91.058">  7  8 -1 -1</clus>
<clus scale="   66.011">  7  9 -1 -1</clus>
<clus scale="  328.547">  1  5  2 -1</clus>
</clustering>
</event>
<event>
 9    2  0.3897980E-005  0.1607765E+03  0.7546771E-02  0.1213518E+00
          2   -1    0    0  502    0 -0.00000000000E+00  0.00000000000E+00  0.58083283994E+02  0.58083283994E+02  0.00000000000E+00 0. -1.
         21   -1    0    0  501  502  0.00000000000E+00 -0.00000000000E+00 -0.27787607653E+03  0.27787607653E+03  0.00000000000E+00 0.  1.
         24    2    1    2    0    0  0.32132879712E+02 -0.31376354584E+02 -0.96305132981E+02  0.13323222269E+03  0.80368830639E+02 0.  0.
         23    2    1    2    0    0  0.25414108531E+02  0.16669753737E+01 -0.88233027586E+02  0.12898981930E+03  0.90579526427E+02 0.  0.
        -11    1    3    3    0    0  0.43327492980E+02 -0.44003648552E+02 -0.37943028030E+02  0.72479418526E+02  0.00000000000E+00 0.  1.
         12    1    3    3    0    0 -0.11194613268E+02  0.12627293968E+02 -0.58362104951E+02  0.60752804162E+02  0.00000000000E+00 0. -1.
        -13    1    4    4    0    0  0.14108522499E+02  0.28313065758E+02  0.44015776849E+01  0.31938284015E+02  0.00000000000E+00 0. -1.
         13    1    4    4    0    0  0.11305586032E+02 -0.26646090384E+02 -0.92634605271E+02  0.97051535289E+02  0.00000000000E+00 0.  1.
          1    1    1    2  501    0 -0.57546988243E+02  0.29709379210E+02 -0.35254631968E+02  0.73737318531E+02  0.00000000000E+00 0. -1.
<scales pt_clust_5="13000.00000" pt_clust_6="13000.00000" pt_clust_7="13000.00000" pt_clust_8="13000.00000" pt_clust_9="13000.00000"></scales>
<clustering>
<clus scale="   80.369">  5  6 -1 -1</clus>
<clus scale="   90.580">  7  8 -1 -1</clus>
<clus scale="   64.763">  7  9 -1 -1</clus>
<clus scale="   92.066">  1  5  2 -1</clus>
<clus scale="  160.777">  2  5  1 -1</clus>
</clustering>
</event>
<event>
 9    2  0.3897980E-005  0.9256212E+03  0.7546771E-02  0.9924563E-01
          4   -1    0    0  502    0 -0.00000000000E+00  0.00000000000E+00  0.41388444172E+03  0.41388444172E+03  0.00000000000E+00 0. -1.
         21   -1    0    0  501  502  0.00000000000E+00 -0.00000000000E+00 -0.70892477323E+03  0.70892477323E+03  0.00000000000E+00 0. -1.
         24    2    1    2    0    0  0.10130914906E+03 -0.80767013299E+02 -0.87752391302E+01  0.15393239491E+03  0.82651819459E+02 0.  0.
         23    2    1    2    0    0  0.28851297566E+03  0.20471035092E+03  0.12769084664E+03  0.38691225128E+03  0.90829912338E+02 0.  0.
        -13    1    3    3    0    0  0.22389986096E+02 -0.70282036101E+02  0.63921320021E+00  0.73765064017E+02  0.00000000000E+00 0.  1.
         14    1    3    3    0    0  0.78919162959E+02 -0.10484977197E+02 -0.94144523304E+01  0.80167330888E+02  0.00000000000E+00 0. -1.
        -11    1    4    4    0    0  0.95021528149E+02  0.34094172303E+02  0.45426706533E+01  0.10105512977E+03  0.00000000000E+00 0.  1.
         11    1    4    4    0    0  0.19349144751E+03  0.17061617862E+03  0.12314817599E+03  0.28585712150E+03  0.00000000000E+00 0. -1.
          3    1    1    2  501    0 -0.38982212471E+03 -0.12394333762E+03 -0.41395593903E+03  0.58196456878E+03  0.00000000000E+00 0. -1.
<scales pt_clust_5="13000.00000" pt_clust_6="13000.00000" pt_clust_7="13000.00000" pt_clust_8="13000.00000" pt_clust_9="13000.00000"></scales>
<clustering>
<clus scale="   82.652">  5  6 -1 -1</clus>
<clus scale="   90.830">  7  8 -1 -1</clus>
<clus scale="  153.682">  1  5  2 -1</clus>
<clus scale="  392.209">  7  9 -1 -1</clus>
<clus scale="  925.621">  2  5  1 -1</clus>
</clustering>
</event>
<event>
 9    2  0.3897980E-005  0.3518446E+03  0.7546771E-02  0.1093952E+00
         21   -1    0    0  501  502  0.00000000000E+00  0.00000000000E+00  0.66290255686E+03  0.66290255686E+03  0.00000000000E+00 0.  1.
         -1   -1    0    0    0  501 -0.00000000000E+00 -0.00000000000E+00 -0.94107353156E+02  0.94107353156E+02  0.00000000000E+00 0.  1.
         24    2    1    2    0    0 -0.11315835299E+03 -0.51046527185E+02  0.16940491136E+03  0.22474376647E+03  0.80007348312E+02 0.  0.
         23    2    1    2    0    0 -0.80817773757E+02 -0.46192481727E+02  0.19714602102E+03  0.23564364291E+03  0.89420998182E+02 0.  0.
        -11    1    3    3    0    0 -0.84869881078E+02 -0.53310850962E+02  0.72310533354E+02  0.12358704131E+03  0.00000000000E+00 0.  1.
         12    1    3    3    0    0 -0.28288471912E+02  0.22643237772E+01  0.97094378005E+02  0.10115672516E+03  0.00000000000E+00 0. -1.
        -13    1    4    4    0    0 -0.30222068915E+02 -0.58046613282E+02  0.15662298809E+03  0.16974552472E+03  0.00000000000E+00 0.  1.
         13    1    4    4    0    0 -0.50595704841E+02  0.11854131555E+02  0.40523032930E+02  0.65898118191E+02  0.00000000000E+00 0. -1.
         -2    1    1    2    0  502  0.19397612675E+03  0.97239008912E+02  0.20224427132E+03  0.29662250063E+03  0.00000000000E+00 0.  1.
<scales pt_clust_5="13000.00000" pt_clust_6="13000.00000" pt_clust_7="13000.00000" pt_clust_8="13000.00000" pt_clust_9="13000.00000"></scales>
<clustering>
<clus scale="   80.007">  5  6 -1 -1</clus>
<clus scale="   89.421">  7  8 -1 -1</clus>
<clus scale="  147.688">  2  5  1 -1</clus>
<clus scale="  128.936">  7  9 -1 -1</clus>
<clus scale="  351.845">  1  5  2 -1</clus>
</clustering>
</event>
<event>
 9    2  0.3897980E-005  0.4052265E+03  0.7546771E-02  0.1062621E+00
         21   -1    0    0  501  502  0.00000000000E+00  0.00000000000E+00  0.58034248297E+03  0.58034248297E+03  0.00000000000E+00 0. -1.
          2   -1    0    0  502    0 -0.00000000000E+00 -0.00000000000E+00 -0.21050459349E+03  0.21050459349E+03  0.00000000000E+00 0. -1.
         24    2    1    2    0    0 -0.14296036778E+03 -0.15364398034E+03 -0.22763166440E+02  0.22662717896E+03  0.82447419889E+02 0.  0.
         23    2    1    2    0    0 -0.87438441192E+02  0.11631352668E+03  0.17467430513E+03  0.24489366516E+03  0.91035580286E+02 0.  0.
        -11    1    3    3    0    0 -0.16806885384E+02 -0.32306512104E+02  0.26211644041E+02  0.44869058425E+02  0.00000000000E+00 0.  1.
         12    1    3    3    0    0 -0.12615348239E+03 -0.12133746824E+03 -0.48974810481E+02  0.18175812053E+03  0.00000000000E+00 0. -1.
        -11    1    4    4    0    0 -0.58419337732E+02  0.12369591706E+03  0.11741226773E+03  0.18027517725E+03  0.00000000000E+00 0. -1.
         11    1    4    4    0    0 -0.29019103460E+02 -0.73823903818E+01  0.57262037396E+02  0.64618487913E+02  0.00000000000E+00 0.  1.
          1    1    1    2  501    0  0.23039880897E+03  0.37330453664E+02  0.21792675080E+03  0.31932623234E+03  0.00000000000E+00 0. -1.
<scales pt_clust_5="13000.00000" pt_clust_6="13000.00000" pt_clust_7="13000.00000" pt_clust_8="13000.00000" pt_clust_9="13000.00000"></scales>
<clustering>
<clus scale="   82.447">  5  6 -1 -1</clus>
<clus scale="   91.036">  7  8 -1 -1</clus>
<clus scale="  225.481">  2  5  1 -1</clus>
<clus scale="  155.412">  7  9 -1 -1</clus>
<clus scale="  405.226">  1  5  2 -1</clus>
</clustering>
</event>
<event>
 9    2  0.3897980E-005  0.1661756E+03  0.7546771E-02  0.1205978E+00
          2   -1    0    0  502    0 -0.00000000000E+00  0.00000000000E+00  0.60466818450E+03  0.60466818450E+03  0.00000000000E+00 0. -1.
         21   -1    0    0  501  502  0.00000000000E+00 -0.00000000000E+00 -0.93252922098E+02  0.93252922098E+02  0.00000000000E+00 0. -1.
         24    2    1    2    0    0  0.16143497160E+02 -0.54194609262E+02  0.52228436577E+03  0.53139042836E+03  0.79982250854E+02 0.  0.
         23    2    1    2    0    0 -0.44961733453E+02  0.48797380056E+01 -0.17461558235E+01  0.10868886427E+03  0.98817259824E+02 0.  0.
        -13    1    3    3    0    0  0.20742185475E+02 -0.12702444296E+02  0.36781826936E+02  0.44096407360E+02  0.00000000000E+00 0.  1.
         14    1    3    3    0    0 -0.45986883147E+01 -0.41492164966E+02  0.48550253884E+03  0.48729402100E+03  0.00000000000E+00 0. -1.
        -13    1    4    4    0    0 -0.72822189191E+02  0.21833274915E+02  0.74380744235E-01  0.76024789803E+02  0.00000000000E+00 0.  1.
         13    1    4    4    0    0  0.27860455739E+02 -0.16953536909E+02 -0.18205365678E+01  0.32664074471E+02  0.00000000000E+00 0. -1.
          1    1    1    2  501    0  0.28818236293E+02  0.49314871256E+02 -0.91229475484E+01  0.57841813959E+02  0.00000000000E+00 0. -1.
<scales pt_clust_5="13000.00000" pt_clust_6="13000.00000" pt_clust_7="13000.00000" pt_clust_8="13000.00000" pt_clust_9="13000.00000"></scales>
<clustering>
<clus scale="   79.982">  5  6 -1 -1</clus>
<clus scale="   97.953">  1  5  2 -1</clus>
<clus scale="   98.817">  7  8 -1 -1</clus>
<clus scale="   46.840">  7  9 -1 -1</clus>
<clus scale="  166.176">  2  5  1 -1</clus>
</clustering>
</event>
<event>
 9    2  0.3897980E-005  0.2945106E+03  0.7546771E-02  0.1125620E+00
         -3   -1    0    0    0  501 -0.00000000000E+00  0.00000000000E+00  0.28407729903E+02  0.28407729903E+02  0.00000000000E+00 0.  1.
         21   -1    0    0  501  502  0.00000000000E+00 -0.00000000000E+00 -0.15223414119E+04  0.15223414119E+04  0.00000000000E+00 0.  1.
         24    2    1    2    0    0  0.50312638577E+02  0.36854870917E+02 -0.28225802487E+03  0.30379508490E+03  0.93446336970E+02 0.  0.
         23    2    1    2    0    0  0.88649913607E+02  0.36604131541E+02 -0.52465311572E+03  0.54217977506E+03  0.97464593670E+02 0.  0.
        -11    1    3    3    0    0  0.41271135487E+02  0.55035583228E+02 -0.10596166104E+03  0.12633327216E+03  0.00000000000E+00 0.  1.
         12    1    3    3    0    0  0.90415030891E+01 -0.18180712311E+02 -0.17629636383E+03  0.17746181273E+03  0.00000000000E+00 0. -1.
        -13    1    4    4    0    0  0.37150990368E+02 -0.29308704430E+02 -0.27072881292E+03  0.27483319738E+03  0.00000000000E+00 0.  1.
         13    1    4    4    0    0  0.51498923239E+02  0.65912835971E+02 -0.25392430281E+03  0.26734657768E+03  0.00000000000E+00 0. -1.
         -4    1    1    2    0  502 -0.13896255218E+03 -0.73459002458E+02 -0.68702254140E+03  0.70477428184E+03  0.00000000000E+00 0.  1.
<scales pt_clust_5="13000.00000" pt_clust_6="13000.00000" pt_clust_7="13000.00000" pt_clust_8="13000.00000" pt_clust_9="13000.00000"></scales>
<clustering>
<clus scale="   93.446">  5  6 -1 -1</clus>
<clus scale="   97.465">  7  8 -1 -1</clus>
<clus scale="  112.347">  1  5  2 -1</clus>
<clus scale="  126.218">  7  9 -1 -1</clus>
<clus scale="  294.511">  2  5  1 -1</clus>
</clustering>
</event>
<event>
 9    2  0.3897980E-005  0.2351283E+03  0.7546771E-02  0.1159006E+00
         21   -1    0    0  501  502  0.00000000000E+00  0.00000000000E+00  0.46540184435E+03  0.46540184435E+03  0.00000000000E+00 0. -1.
         -1   -1    0    0    0  501 -0.00000000000E+00 -0.00000000000E+00 -0.59998593032E+02  0.59998593032E+02  0.00000000000E+00 0.  1.
         24    2    1    2    0    0  0.32230292888E+02  0.31701917327E+02  0.11455074909E+03  0.15139441282E+03  0.88060154295E+02 0.  0.
         23    2    1    2    0    0 -0.41394777703E+02  0.77503773309E+02  0.16115139972E+03  0.20420541608E+03  0.89497015741E+02 0.  0.
        -13    1    3    3    0    0 -0.23072445758E+02  0.20145665217E+02  0.94220040284E+01  0.32046212572E+02  0.00000000000E+00 0.  1.
         14    1    3    3    0    0  0.55302738646E+02  0.11556252110E+02  0.10512874506E+03  0.11934820025E+03  0.00000000000E+00 0. -1.
        -13    1    4    4    0    0 -0.23095512366E+01  0.69812965328E+02  0.14551467569E+03  0.16141160118E+03  0.00000000000E+00 0. -1.
         13    1    4    4    0    0 -0.39085226467E+02  0.76908079809E+01  0.15636724034E+02  0.42793814902E+02  0.00000000000E+00 0.  1.
         -2    1    1    2    0  502  0.91644848156E+01 -0.10920569064E+03  0.12970110251E+03  0.16980060849E+03  0.00000000000E+00 0.  1.
<scales pt_clust_5="13000.00000" pt_clust_6="13000.00000" pt_clust_7="13000.00000" pt_clust_8="13000.00000" pt_clust_9="13000.00000"></scales>
<clustering>
<clus scale="   88.060">  5  6 -1 -1</clus>
<clus scale="   89.497">  7  8 -1 -1</clus>
<clus scale="   98.987">  2  5  1 -1</clus>
<clus scale="   97.113">  7  9 -1 -1</clus>
<clus scale="  235.128">  1  5  2 -1</clus>
</clustering>
</event>
<event>
 9    2  0.3897980E-005  0.1316031E+03  0.7546771E-02  0.1245286E+00
          2   -1    0    0  502    0 -0.00000000000E+00  0.00000000000E+00  0.53293298776E+03  0.53293298776E+03  0.00000000000E+00 0. -1.
         21   -1    0    0  501  502  0.00000000000E+00 -0.00000000000E+00 -0.10355360891E+03  0.10355360891E+03  0.00000000000E+00 0. -1.
         24    2    1    2    0    0 -0.32517470437E+02 -0.10557210253E+02  0.48562735258E+03  0.49336698401E+03  0.80051325857E+02 0.  0.
         23    2    1    2    0    0  0.98465543289E+01 -0.12894866051E+02 -0.19138476541E+02  0.93712274116E+02  0.90291067294E+02 0.  0.
        -11    1    3    3    0    0 -0.55267937647E+02 -0.12818391945E+02  0.23723909909E+03  0.24392877288E+03  0.00000000000E+00 0.  1.
         12    1    3    3    0    0  0.22750467210E+02  0.22611816917E+01  0.24838825349E+03  0.24943821113E+03  0.00000000000E+00 0. -1.
        -13    1    4    4    0    0  0.45487212866E+02 -0.25896016835E+01 -0.30598258964E+02  0.54882110225E+02  0.00000000000E+00 0.  1.
         13    1    4    4    0    0 -0.35640658537E+02 -0.10305264367E+02  0.11459782423E+02  0.38830163891E+02  0.00000000000E+00 0. -1.
          1    1    1    2  501    0  0.22670916108E+02  0.23452076304E+02 -0.37109497192E+02  0.49407338544E+02  0.00000000000E+00 0. -1.
<scales pt_clust_5="13000.00000" pt_clust_6="13000.00000" pt_clust_7="13000.00000" pt_clust_8="13000.00000" pt_clust_9="13000.00000"></scales>
<clustering>
<clus scale="   80.051">  5  6 -1 -1</clus>
<clus scale="   87.046">  1  5  2 -1</clus>
<clus scale="   90.291">  7  8 -1 -1</clus>
<clus scale="   28.435">  7  9 -1 -1</clus>
<clus scale="  131.603">  2  5  1 -1</clus>
</clustering>
</event>
<event>
 9    2  0.3897980E-005  0.7713865E+03  0.7546771E-02  0.1030096E+00
          2   -1    0    0  502    0 -0.00000000000E+00  0.00000000000E+00  0.68180585337E+03  0.68180585337E+03  0.00000000000E+00 0. -1.
         21   -1    0    0  501  502  0.00000000000E+00 -0.00000000000E+00 -0.42829626071E+03  0.42829626071E+03  0.00000000000E+00 0. -1.
         24    2    1    2    0    0 -0.62066668035E+01 -0.17905954685E+02  0.32492215837E+03  0.33541704531E+03  0.81061947638E+02 0.  0.
         23    2    1    2    0    0 -0.58687769009E+02  0.24340060392E+03  0.25990203194E+03  0.36869432104E+03  0.75487270086E+02 0.  0.
        -13    1    3    3    0    0 -0.19699593411E+02 -0.45284616632E+02  0.24360282162E+03  0.24855805195E+03  0.00000000000E+00 0.  1.
         14    1    3    3    0    0  0.13492926607E+02  0.27378661947E+02  0.81319336748E+02  0.86858993360E+02  0.00000000000E+00 0. -1.
        -13    1    4    4    0    0 -0.32271107190E+02  0.22477804003E+03  0.21038008590E+03  0.30955835021E+03  0.00000000000E+00 0. -1.
         13    1    4    4    0    0 -0.26416661819E+02  0.18622563886E+02  0.49521946032E+02  0.59135970831E+02  0.00000000000E+00 0.  1.
          1    1    1    2  501    0  0.64894435813E+02 -0.22549464923E+03 -0.33131459765E+03  0.40599074774E+03  0.00000000000E+00 0. -1.
<scales pt_clust_5="13000.00000" pt_clust_6="13000.00000" pt_clust_7="13000.00000" pt_clust_8="13000.00000" pt_clust_9="13000.00000"></scales>
<clustering>
<clus scale="   75.487">  7  8 -1 -1</clus>
<clus scale="   81.062">  5  6 -1 -1</clus>
<clus scale="   83.248">  1  5  2 -1</clus>
<clus scale="  236.295">  7  9 -1 -1</clus>
<clus scale="  771.387">  2  5  1 -1</clus>
</clustering>
</event>
<event>
 9    2  0.3897980E-005  0.4029321E+03  0.7546771E-02  0.1101305E+00
          2   -1    0    0  502    0 -0.00000000000E+00  0.00000000000E+00  0.10486256032E+04  0.10486256032E+04  0.00000000000E+00 0. -1.
         21   -1    0    0  501  502  0.00000000000E+00 -0.00000000000E+00 -0.92823085949E+02  0.92823085949E+02  0.00000000000E+00 0. -1.
         24    2    1    2    0    0 -0.10503342241E+02 -0.82211416116E+01  0.59522400814E+03  0.60073511247E+03  0.80082133590E+02 0.  0.
         23    2    1    2    0    0 -0.88504452255E+02 -0.16086285599E+03  0.17461428021E+03  0.27057539713E+03  0.94926298620E+02 0.  0.
        -11    1    3    3    0    0  0.13431658379E+02  0.30570283604E+02  0.18527744318E+03  0.18826227089E+03  0.00000000000E+00 0.  1.
         12    1    3    3    0    0 -0.23935000621E+02 -0.38791425215E+02  0.40994656496E+03  0.41247284158E+03  0.00000000000E+00 0. -1.
        -11    1    4    4    0    0  0.57743722865E+01 -0.33687194596E+02  0.77880605047E+02  0.85050332730E+02  0.00000000000E+00 0.  1.
         11    1    4    4    0    0 -0.94278824541E+02 -0.12717566140E+03  0.96733675166E+02  0.18552506440E+03  0.00000000000E+00 0. -1.
          1    1    1    2  501    0  0.99007794496E+02  0.16908399761E+03  0.18596422888E+03  0.27013817953E+03  0.00000000000E+00 0. -1.
<scales pt_clust_5="13000.00000" pt_clust_6="13000.00000" pt_clust_7="13000.00000" pt_clust_8="13000.00000" pt_clust_9="13000.00000"></scales>
<clustering>
<clus scale="   80.082">  5  6 -1 -1</clus>
<clus scale="   81.185">  1  5  2 -1</clus>
<clus scale="   94.926">  7  8 -1 -1</clus>
<clus scale="  189.679">  7  9 -1 -1</clus>
<clus scale="  402.932">  2  5  1 -1</clus>
</clustering>
</event>
<event>
 9    2  0.3897980E-005  0.2139239E+03  0.7546771E-02  0.1158967E+00
         -1   -1    0    0    0  501 -0.00000000000E+00  0.00000000000E+00  0.85349224999E+03  0.85349224999E+03  0.00000000000E+00 0.  1.
         21   -1    0    0  501  502  0.00000000000E+00 -0.00000000000E+00 -0.80994851631E+02  0.80994851631E+02  0.00000000000E+00 0. -1.
         24    2    1    2    0    0  0.11965813901E+02  0.10404013939E+03  0.69440232137E+03  0.70675420047E+03  0.79620252716E+02 0.  0.
         23    2    1    2    0    0 -0.30480855597E+02 -0.14198365919E+03  0.61150480217E+02  0.18223963985E+03  0.91561253080E+02 0.  0.
        -11    1    3    3    0    0 -0.29139350997E+02  0.75475683208E+02  0.39562277177E+03  0.40381067108E+03  0.00000000000E+00 0.  1.
         12    1    3    3    0    0  0.41105164899E+02  0.28564456177E+02  0.29877954960E+03  0.30294352939E+03  0.00000000000E+00 0. -1.
        -11    1    4    4    0    0  0.25807151937E+02 -0.92962514239E+01  0.74064329646E+01  0.28412754722E+02  0.00000000000E+00 0.  1.
         11    1    4    4    0    0 -0.56288007534E+02 -0.13268740777E+03  0.53744047252E+02  0.15382688513E+03  0.00000000000E+00 0. -1.
         -2    1    1    2    0  502  0.18515041696E+02  0.37943519808E+02  0.16944596766E+02  0.45493261303E+02  0.00000000000E+00 0.  1.
<scales pt_clust_5="13000.00000" pt_clust_6="13000.00000" pt_clust_7="13000.00000" pt_clust_8="13000.00000" pt_clust_9="13000.00000"></scales>
<clustering>
<clus scale="   79.620">  5  6 -1 -1</clus>
<clus scale="   91.561">  7  8 -1 -1</clus>
<clus scale="   42.220">  7  9 -1 -1</clus>
<clus scale="  131.556">  1  5  2 -1</clus>
<clus scale="  213.924">  2  5  1 -1</clus>
</clustering>
</event>
<event>
 9    2  0.3897980E-005  0.3233198E+03  0.7546771E-02  0.1121049E+00
          4   -1    0    0  502    0 -0.00000000000E+00  0.00000000000E+00  0.10102709469E+03  0.10102709469E+03  0.00000000000E+00 0. -1.
         21   -1    0    0  501  502  0.00000000000E+00 -0.00000000000E+00 -0.51286993059E+03  0.51286993059E+03  0.00000000000E+00 0. -1.
         24    2    1    2    0    0 -0.35367726779E+02 -0.66193808245E+01 -0.64308171511E+01  0.95346529434E+02  0.88061983659E+02 0.  0.
         23    2    1    2    0    0  0.11808600807E+03  0.72564570739E+02 -0.37252489089E+03  0.40776852389E+03  0.91051922057E+02 0.  0.
        -13    1    3    3    0    0 -0.50237267412E+02  0.27096023973E+02 -0.11272142818E+02  0.58181085894E+02  0.00000000000E+00 0.  1.
         14    1    3    3    0    0  0.14869540633E+02 -0.33715404797E+02  0.48413256673E+01  0.37165443540E+02  0.00000000000E+00 0. -1.
        -13    1    4    4    0    0  0.18342281111E+02  0.40826266557E+02 -0.43182504547E+02  0.62192861457E+02  0.00000000000E+00 0.  1.
         13    1    4    4    0    0  0.99743726960E+02  0.31738304182E+02 -0.32934238634E+03  0.34557566243E+03  0.00000000000E+00 0. -1.
          3    1    1    2  501    0 -0.82718281293E+02 -0.65945189914E+02 -0.32887127860E+02  0.11078197196E+03  0.00000000000E+00 0. -1.
<scales pt_clust_5="13000.00000" pt_clust_6="13000.00000" pt_clust_7="13000.00000" pt_clust_8="13000.00000" pt_clust_9="13000.00000"></scales>
<clustering>
<clus scale="   88.062">  5  6 -1 -1</clus>
<clus scale="   91.052">  7  8 -1 -1</clus>
<clus scale="   95.129">  1  5  2 -1</clus>
<clus scale="  128.196">  7  9 -1 -1</clus>
<clus scale="  323.320">  2  5  1 -1</clus>
</clustering>
</event>
<event>
 9    2  0.3897980E-005  0.8155698E+03  0.7546771E-02  0.1018725E+00
          4   -1    0    0  502    0 -0.00000000000E+00  0.00000000000E+00  0.38630033089E+03  0.38630033089E+03  0.00000000000E+00 0. -1.
         21   -1    0    0  501  502  0.00000000000E+00 -0.00000000000E+00 -0.81203556026E+03  0.81203556026E+03  0.00000000000E+00 0. -1.
         24    2    1    2    0    0  0.34204456320E+02  0.42196552765E+02  0.16419422481E+03  0.19177203019E+03  0.82862984526E+02 0.  0.
         23    2    1    2    0    0 -0.61824326428E+02  0.30949986448E+03 -0.11522918863E+02  0.32906305120E+03  0.92397513805E+02 0.  0.
        -13    1    3    3    0    0 -0.12478465726E+02 -0.16634127113E+02  0.18378654858E+02  0.27752139487E+02  0.00000000000E+00 0.  1.
         14    1    3    3    0    0  0.46682922047E+02  0.58830679878E+02  0.14581556995E+03  0.16401989070E+03  0.00000000000E+00 0. -1.
        -11    1    4    4    0    0 -0.32494452606E+02  0.23282336104E+03  0.30135238055E+02  0.23700366974E+03  0.00000000000E+00 0. -1.
         11    1    4    4    0    0 -0.29329873821E+02  0.76676503432E+02 -0.41658156918E+02  0.92059381460E+02  0.00000000000E+00 0.  1.
          3    1    1    2  501    0  0.27619870107E+02 -0.35169641724E+03 -0.57840653532E+03  0.67750080976E+03  0.00000000000E+00 0. -1.
<scales pt_clust_5="13000.00000" pt_clust_6="13000.00000" pt_clust_7="13000.00000" pt_clust_8="13000.00000" pt_clust_9="13000.00000"></scales>
<clustering>
<clus scale="   82.863">  5  6 -1 -1</clus>
<clus scale="   92.398">  7  8 -1 -1</clus>
<clus scale="   99.080">  1  5  2 -1</clus>
<clus scale="  343.526">  7  9 -1 -1</clus>
<clus scale="  815.570">  2  5  1 -1</clus>
</clustering>
</event>
<event>
 9    2  0.3897980E-005  0.2177168E+03  0.7546771E-02  0.1171234E+00
          2   -1    0    0  502    0 -0.00000000000E+00  0.00000000000E+00  0.82699098969E+03  0.82699098969E+03  0.00000000000E+00 0. -1.
         21   -1    0    0  501  502  0.00000000000E+00 -0.00000000000E+00 -0.36979828601E+02  0.36979828601E+02  0.00000000000E+00 0. -1.
         24    2    1    2    0    0 -0.71573991968E+01 -0.50302902605E+02  0.45367199823E+03  0.46331558518E+03  0.79129255741E+02 0.  0.
         23    2    1    2    0    0  0.10075162987E+02 -0.55059854773E+02  0.21137009758E+03  0.23717100983E+03  0.91867694181E+02 0.  0.
        -11    1    3    3    0    0  0.33096245404E+02 -0.26910535888E+02  0.14472484611E+03  0.15088014940E+03  0.00000000000E+00 0.  1.
         12    1    3    3    0    0 -0.40253644601E+02 -0.23392366718E+02  0.30894715212E+03  0.31243543578E+03  0.00000000000E+00 0. -1.
        -13    1    4    4    0    0  0.31653559648E+02 -0.59070747045E+02  0.20283883420E+03  0.21362325167E+03  0.00000000000E+00 0.  1.
         13    1    4    4    0    0 -0.21578396662E+02  0.40108922727E+01  0.85312633814E+01  0.23547758156E+02  0.00000000000E+00 0. -1.
          1    1    1    2  501    0 -0.29177637899E+01  0.10536275738E+03  0.12496906528E+03  0.16348422329E+03  0.00000000000E+00 0. -1.
<scales pt_clust_5="13000.00000" pt_clust_6="13000.00000" pt_clust_7="13000.00000" pt_clust_8="13000.00000" pt_clust_9="13000.00000"></scales>
<clustering>
<clus scale="   79.129">  5  6 -1 -1</clus>
<clus scale="   91.868">  7  8 -1 -1</clus>
<clus scale="   94.037">  1  5  2 -1</clus>
<clus scale="   85.865">  7  9 -1 -1</clus>
<clus scale="  217.717">  2  5  1 -1</clus>
</clustering>
</event>
<event>
 9    2  0.3897980E-005  0.2368497E+03  0.7546771E-02  0.1153356E+00
         21   -1    0    0  501  502  0.00000000000E+00  0.00000000000E+00  0.18475224476E+03  0.18475224476E+03  0.00000000000E+00 0. -1.
          2   -1    0    0  502    0 -0.00000000000E+00 -0.00000000000E+00 -0.36232246072E+03  0.36232246072E+03  0.00000000000E+00 0. -1.
         24    2    1    2    0    0  0.39992752569E+02  0.35122896372E+02 -0.27082925806E+03  0.29252604723E+03  0.96901822371E+02 0.  0.
         23    2    1    2    0    0 -0.99232031170E+02  0.14925719218E+02  0.13714978023E+02  0.14345674054E+03  0.10159706040E+03 0.  0.
        -11    1    3    3    0    0  0.20973278726E+01 -0.21957868563E+02 -0.12687131539E+02  0.25446219420E+02  0.00000000000E+00 0.  1.
         12    1    3    3    0    0  0.37895424696E+02  0.57080764935E+02 -0.25814212652E+03  0.26707982781E+03  0.00000000000E+00 0. -1.
        -13    1    4    4    0    0  0.79520832461E+01  0.31929832848E+02  0.11668854225E+02  0.34912920424E+02  0.00000000000E+00 0.  1.
         13    1    4    4    0    0 -0.10718411442E+03 -0.17004113630E+02  0.20461237979E+01  0.10854382012E+03  0.00000000000E+00 0. -1.
          1    1    1    2  501    0  0.59239278601E+02 -0.50048615590E+02  0.79544064067E+02  0.11109191771E+03  0.00000000000E+00 0. -1.
<scales pt_clust_5="13000.00000" pt_clust_6="13000.00000" pt_clust_7="13000.00000" pt_clust_8="13000.00000" pt_clust_9="13000.00000"></scales>
<clustering>
<clus scale="   96.902">  5  6 -1 -1</clus>
<clus scale="  101.597">  7  8 -1 -1</clus>
<clus scale="   77.551">  7  9 -1 -1</clus>
<clus scale="  110.558">  2  5  1 -1</clus>
<clus scale="  236.850">  1  5  2 -1</clus>
</clustering>
</event>
<event>
 9    2  0.3897980E-005  0.3155299E+03  0.7546771E-02  0.1104062E+00
          2   -1    0    0  502    0 -0.00000000000E+00  0.00000000000E+00  0.41107502576E+03  0.41107502576E+03  0.00000000000E+00 0. -1.
         21   -1    0    0  501  502  0.00000000000E+00 -0.00000000000E+00 -0.26052527347E+03  0.26052527347E+03  0.00000000000E+00 0. -1.
         24    2    1    2    0    0  0.14175339970E+03 -0.22973198413E+00  0.28737632657E+03  0.32768074685E+03  0.68523278373E+02 0.  0.
         23    2    1    2    0    0 -0.66526443049E+02 -0.12586610259E+03 -0.67957735904E+02  0.18174011040E+03  0.90239517130E+02 0.  0.
        -13    1    3    3    0    0  0.40860873215E+02 -0.10335191867E+01  0.28476534878E+02  0.49815581503E+02  0.00000000000E+00 0.  1.
         14    1    3    3    0    0  0.10089252648E+03  0.80378720259E+00  0.25889979169E+03  0.27786516534E+03  0.00000000000E+00 0. -1.
        -11    1    4    4    0    0 -0.24533563586E+01 -0.96929335546E+02 -0.28224875632E+02  0.10098494270E+03  0.00000000000E+00 0. -1.
         11    1    4    4    0    0 -0.64073086690E+02 -0.28936767043E+02 -0.39732860271E+02  0.80755167700E+02  0.00000000000E+00 0.  1.
          1    1    1    2  501    0 -0.75226956650E+02  0.12609583457E+03 -0.68868838374E+02  0.16217944198E+03  0.00000000000E+00 0. -1.
<scales pt_clust_5="13000.00000" pt_clust_6="13000.00000" pt_clust_7="13000.00000" pt_clust_8="13000.00000" pt_clust_9="13000.00000"></scales>
<clustering>
<clus scale="   68.523">  5  6 -1 -1</clus>
<clus scale="   90.240">  7  8 -1 -1</clus>
<clus scale="  146.831">  7  9 -1 -1</clus>
<clus scale="  157.447">  1  5  2 -1</clus>
<clus scale="  315.530">  2  5  1 -1</clus>
</clustering>
</event>
<event>
 9    2  0.3897980E-005  0.1626647E+03  0.7546771E-02  0.1210471E+00
         21   -1    0    0  501  502  0.00000000000E+00  0.00000000000E+00  0.40345624981E+02  0.40345624981E+02  0.00000000000E+00 0. -1.
          2   -1    0    0  502    0 -0.00000000000E+00 -0.00000000000E+00 -0.41171739587E+03  0.41171739587E+03  0.00000000000E+00 0. -1.
         24    2    1    2    0    0  0.30662331596E+02  0.41807371995E+02 -0.12727786309E+03  0.15873445326E+03  0.79428818984E+02 0.  0.
         23    2    1    2    0    0  0.21412871703E+02 -0.11824819324E+02 -0.10197850767E+03  0.13903155785E+03  0.91278807096E+02 0.  0.
        -13    1    3    3    0    0 -0.26313800392E+02  0.22618316709E+02 -0.48602277294E+02  0.59717549347E+02  0.00000000000E+00 0.  1.
         14    1    3    3    0    0  0.56976131988E+02  0.19189055286E+02 -0.78675585799E+02  0.99016903910E+02  0.00000000000E+00 0. -1.
        -11    1    4    4    0    0 -0.78388592475E+01 -0.39381929334E+02 -0.14375298486E+02  0.42650126365E+02  0.00000000000E+00 0. -1.
         11    1    4    4    0    0  0.29251730950E+02  0.27557110010E+02 -0.87603209185E+02  0.96381431486E+02  0.00000000000E+00 0.  1.
          1    1    1    2  501    0 -0.52075203299E+02 -0.29982552671E+02 -0.14211540012E+03  0.15429700974E+03  0.00000000000E+00 0. -1.
<scales pt_clust_5="13000.00000" pt_clust_6="13000.00000" pt_clust_7="13000.00000" pt_clust_8="13000.00000" pt_clust_9="13000.00000"></scales>
<clustering>
<clus scale="   79.429">  5  6 -1 -1</clus>
<clus scale="   91.279">  7  8 -1 -1</clus>
<clus scale="   60.090">  7  9 -1 -1</clus>
<clus scale="   94.852">  2  5  1 -1</clus>
<clus scale="  162.665">  1  5  2 -1</clus>
</clustering>
</event>
<event>
 9    2  0.3897980E-005  0.3828633E+03  0.7546771E-02  0.1105271E+00
         21   -1    0    0  501  502  0.00000000000E+00  0.00000000000E+00  0.16657525564E+03  0.16657525564E+03  0.00000000000E+00 0. -1.
          2   -1    0    0  502    0 -0.00000000000E+00 -0.00000000000E+00 -0.37394318396E+03  0.37394318396E+03  0.00000000000E+00 0. -1.
         24    2    1    2    0    0 -0.21353358907E+02 -0.26519200217E+02 -0.12085561781E+03  0.14800256572E+03  0.78354611781E+02 0.  0.
         23    2    1    2    0    0  0.12291564933E+03 -0.10419119963E+03 -0.12522724193E+03  0.22251895220E+03  0.88706025943E+02 0.  0.
        -13    1    3    3    0    0  0.84546943012E+00  0.22765775116E+02 -0.70641694123E+02  0.74224283652E+02  0.00000000000E+00 0.  1.
         14    1    3    3    0    0 -0.22198828337E+02 -0.49284975332E+02 -0.50213923683E+02  0.73778282067E+02  0.00000000000E+00 0. -1.
        -13    1    4    4    0    0  0.11192847742E+03 -0.86444664443E+02 -0.59276208282E+02  0.15334383893E+03  0.00000000000E+00 0. -1.
         13    1    4    4    0    0  0.10987171903E+02 -0.17746535189E+02 -0.65951033645E+02  0.69175113274E+02  0.00000000000E+00 0.  1.
          1    1    1    2  501    0 -0.10156229042E+03  0.13071039985E+03  0.38714931410E+02  0.16999692167E+03  0.00000000000E+00 0. -1.
<scales pt_clust_5="13000.00000" pt_clust_6="13000.00000" pt_clust_7="13000.00000" pt_clust_8="13000.00000" pt_clust_9="13000.00000"></scales>
<clustering>
<clus scale="   78.355">  5  6 -1 -1</clus>
<clus scale="   85.432">  2  5  1 -1</clus>
<clus scale="   88.706">  7  8 -1 -1</clus>
<clus scale="  163.634">  7  9 -1 -1</clus>
<clus scale="  382.863">  1  5  2 -1</clus>
</clustering>
</event>
<event>
 9    2  0.3897980E-005  0.3890537E+03  0.7546771E-02  0.1100849E+00
         21   -1    0    0  501  502  0.00000000000E+00  0.00000000000E+00  0.56822723572E+02  0.56822723572E+02  0.00000000000E+00 0. -1.
          2   -1    0    0  502    0 -0.00000000000E+00 -0.00000000000E+00 -0.11288066436E+04  0.11288066436E+04  0.00000000000E+00 0. -1.
         24    2    1    2    0    0  0.14640621644E+02  0.42403050303E+02 -0.38944723774E+03  0.39999641479E+03  0.79470839816E+02 0.  0.
         23    2    1    2    0    0  0.39547850751E+02  0.12071414462E+03 -0.11735938316E+03  0.19489697983E+03  0.89864735703E+02 0.  0.
        -13    1    3    3    0    0 -0.19711805606E+02  0.36919298165E+02 -0.99134544967E+02  0.10760691364E+03  0.00000000000E+00 0.  1.
         14    1    3    3    0    0  0.34352427250E+02  0.54837521388E+01 -0.29031269278E+03  0.29238950115E+03  0.00000000000E+00 0. -1.
        -11    1    4    4    0    0  0.30525351491E+02  0.33928530958E+02  0.35669993996E+01  0.45778442321E+02  0.00000000000E+00 0.  1.
         11    1    4    4    0    0  0.90224992598E+01  0.86785613658E+02 -0.12092638256E+03  0.14911853751E+03  0.00000000000E+00 0. -1.
          1    1    1    2  501    0 -0.54188472395E+02 -0.16311719492E+03 -0.56517729912E+03  0.59073597255E+03  0.00000000000E+00 0. -1.
<scales pt_clust_5="13000.00000" pt_clust_6="13000.00000" pt_clust_7="13000.00000" pt_clust_8="13000.00000" pt_clust_9="13000.00000"></scales>
<clustering>
<clus scale="   79.471">  5  6 -1 -1</clus>
<clus scale="   89.865">  7  8 -1 -1</clus>
<clus scale="   91.258">  2  5  1 -1</clus>
<clus scale="  136.567">  7  9 -1 -1</clus>
<clus scale="  389.054">  1  5  2 -1</clus>
</clustering>
</event>
<event>
 9    2  0.3897980E-005  0.3692181E+03  0.7546771E-02  0.1071152E+00
          2   -1    0    0  502    0 -0.00000000000E+00  0.00000000000E+00  0.83318354592E+03  0.83318354592E+03  0.00000000000E+00 0. -1.
         21   -1    0    0  501  502  0.00000000000E+00 -0.00000000000E+00 -0.11158931439E+03  0.11158931439E+03  0.00000000000E+00 0. -1.
         24    2    1    2    0    0  0.20758216415E+03  0.79140012005E+02  0.22290083622E+03  0.32427540246E+03  0.78206505356E+02 0.  0.
         23    2    1    2    0    0 -0.41288387220E+02  0.84559590525E+02  0.19115600226E+03  0.23445286426E+03  0.97839016191E+02 0.  0.
        -13    1    3    3    0    0  0.10834768888E+03  0.75054865978E+02  0.95650429190E+02  0.16285410402E+03  0.00000000000E+00 0.  1.
         14    1    3    3    0    0  0.99234475269E+02  0.40851460275E+01  0.12725040703E+03  0.16142129844E+03  0.00000000000E+00 0. -1.
        -13    1    4    4    0    0 -0.30224356454E+02  0.34233316029E+01  0.12653310500E+03  0.13013784070E+03  0.00000000000E+00 0.  1.
         13    1    4    4    0    0 -0.11064030766E+02  0.81136258922E+02  0.64622897263E+02  0.10431502355E+03  0.00000000000E+00 0. -1.
          1    1    1    2  501    0 -0.16629377693E+03 -0.16369960253E+03  0.30753739305E+03  0.38604459359E+03  0.00000000000E+00 0. -1.
<scales pt_clust_5="13000.00000" pt_clust_6="13000.00000" pt_clust_7="13000.00000" pt_clust_8="13000.00000" pt_clust_9="13000.00000"></scales>
<clustering>
<clus scale="   78.207">  5  6 -1 -1</clus>
<clus scale="   97.839">  7  8 -1 -1</clus>
<clus scale="  233.348">  7  9 -1 -1</clus>
<clus scale="  235.520">  1  5  2 -1</clus>
<clus scale="  369.218">  2  5  1 -1</clus>
</clustering>
</event>
<event>
 9    2  0.3897980E-005  0.3262616E+03  0.7546771E-02  0.1116295E+00
         21   -1    0    0  501  502  0.00000000000E+00  0.00000000000E+00  0.34574595900E+02  0.34574595900E+02  0.00000000000E+00 0.  1.
          2   -1    0    0  502    0 -0.00000000000E+00 -0.00000000000E+00 -0.14322214913E+04  0.14322214913E+04  0.00000000000E+00 0. -1.
         24    2    1    2    0    0 -0.37275941547E+02  0.54084727275E+02 -0.52256225768E+03  0.53286902576E+03  0.81015010434E+02 0.  0.
         23    2    1    2    0    0 -0.11682686426E+03 -0.28807032582E+02 -0.27214046410E+03  0.31108814719E+03  0.90758149961E+02 0.  0.
        -11    1    3    3    0    0 -0.47635523347E+01 -0.21478927792E+02 -0.11608131574E+03  0.11814782111E+03  0.00000000000E+00 0.  1.
         12    1    3    3    0    0 -0.32512389212E+02  0.75563655067E+02 -0.40648094194E+03  0.41472120464E+03  0.00000000000E+00 0. -1.
        -11    1    4    4    0    0 -0.54300011411E+02 -0.58324348200E+02 -0.16992866242E+03  0.18768583097E+03  0.00000000000E+00 0.  1.
         11    1    4    4    0    0 -0.62526852844E+02  0.29517315618E+02 -0.10221180167E+03  0.12340231622E+03  0.00000000000E+00 0. -1.
          1    1    1    2  501    0  0.15410280580E+03 -0.25277694693E+02 -0.60294417360E+03  0.62283891424E+03  0.00000000000E+00 0. -1.
<scales pt_clust_5="13000.00000" pt_clust_6="13000.00000" pt_clust_7="13000.00000" pt_clust_8="13000.00000" pt_clust_9="13000.00000"></scales>
<clustering>
<clus scale="   81.015">  5  6 -1 -1</clus>
<clus scale="   90.758">  7  8 -1 -1</clus>
<clus scale="  104.298">  2  5  1 -1</clus>
<clus scale="  129.345">  7  9 -1 -1</clus>
<clus scale="  326.262">  1  5  2 -1</clus>
</clustering>
</event>
<event>
 9    2  0.3897980E-005  0.1798371E+03  0.7546771E-02  0.1184150E+00
          2   -1    0    0  502    0 -0.00000000000E+00  0.00000000000E+00  0.57880127462E+03  0.57880127462E+03  0.00000000000E+00 0. -1.
         21   -1    0    0  501  502  0.00000000000E+00 -0.00000000000E+00 -0.93615088888E+02  0.93615088888E+02  0.00000000000E+00 0. -1.
         24    2    1    2    0    0 -0.35547562868E+02 -0.90170617464E+02  0.47631753530E+03  0.49236071475E+03  0.78398402470E+02 0.  0.
         23    2    1    2    0    0  0.33771854150E+02  0.15485720250E+02  0.28214766387E+02  0.10288532276E+03  0.91700441286E+02 0.  0.
        -11    1    3    3    0    0 -0.31938223957E+02 -0.21184756186E+01  0.76136608953E+02  0.82591290772E+02  0.00000000000E+00 0.  1.
         12    1    3    3    0    0 -0.36093389108E+01 -0.88052141846E+02  0.40018092635E+03  0.40976942397E+03  0.00000000000E+00 0. -1.
        -13    1    4    4    0    0  0.57775076420E+02  0.30187270661E+02  0.34919727952E+02  0.73950105920E+02  0.00000000000E+00 0.  1.
         13    1    4    4    0    0 -0.24003222270E+02 -0.14701550411E+02 -0.67049615653E+01  0.28935216837E+02  0.00000000000E+00 0. -1.
          1    1    1    2  501    0  0.17757087178E+01  0.74684897214E+02 -0.19346115955E+02  0.77170326006E+02  0.00000000000E+00 0. -1.
<scales pt_clust_5="13000.00000" pt_clust_6="13000.00000" pt_clust_7="13000.00000" pt_clust_8="13000.00000" pt_clust_9="13000.00000"></scales>
<clustering>
<clus scale="   78.398">  5  6 -1 -1</clus>
<clus scale="   91.700">  7  8 -1 -1</clus>
<clus scale="   74.706">  7  9 -1 -1</clus>
<clus scale="  124.662">  1  5  2 -1</clus>
<clus scale="  179.837">  2  5  1 -1</clus>
</clustering>
</event>
<event>
 9    2  0.3897980E-005  0.2955030E+03  0.7546771E-02  0.1135872E+00
         21   -1    0    0  501  502  0.00000000000E+00  0.00000000000E+00  0.38103959577E+03  0.38103959577E+03  0.00000000000E+00 0.  1.
          2   -1    0    0  502    0 -0.00000000000E+00 -0.00000000000E+00 -0.13193701100E+03  0.13193701100E+03  0.00000000000E+00 0. -1.
         24    2    1    2    0    0  0.24989352469E+02 -0.12967982453E+01 -0.43762541184E+02  0.96933355711E+02  0.82793514336E+02 0.  0.
         23    2    1    2    0    0 -0.16461918838E+02  0.12223848052E+03  0.82914529430E+02  0.17359973059E+03  0.89715140186E+02 0.  0.
        -13    1    3    3    0    0  0.49937340079E+02 -0.14343317514E+02 -0.45025753138E+02  0.68751633705E+02  0.00000000000E+00 0.  1.
         14    1    3    3    0    0 -0.24947987610E+02  0.13046519269E+02  0.12632119532E+01  0.28181722007E+02  0.00000000000E+00 0. -1.
        -11    1    4    4    0    0 -0.32751359686E+02  0.75965981758E+02  0.91984964320E+02  0.12371222901E+03  0.00000000000E+00 0.  1.
         11    1    4    4    0    0  0.16289440848E+02  0.46272498757E+02 -0.90704348904E+01  0.49887501576E+02  0.00000000000E+00 0. -1.
          1    1    1    2  501    0 -0.85274336311E+01 -0.12094168227E+03  0.20995059652E+03  0.24244352046E+03  0.00000000000E+00 0. -1.
<scales pt_clust_5="13000.00000" pt_clust_6="13000.00000" pt_clust_7="13000.00000" pt_clust_8="13000.00000" pt_clust_9="13000.00000"></scales>
<clustering>
<clus scale="   82.794">  5  6 -1 -1</clus>
<clus scale="   86.492">  2  5  1 -1</clus>
<clus scale="   89.715">  7  8 -1 -1</clus>
<clus scale="  121.299">  7  9 -1 -1</clus>
<clus scale="  295.503">  1  5  2 -1</clus>
</clustering>
</event>
<event>
 9    2  0.4790525E-005  0.5227511E+03  0.7546771E-02  0.1042362E+00
          4   -1    0    0  502    0 -0.00000000000E+00  0.00000000000E+00  0.49628227340E+03  0.49628227340E+03  0.00000000000E+00 0. -1.
         21   -1    0    0  501  502  0.00000000000E+00 -0.00000000000E+00 -0.25427626400E+03  0.25427626400E+03  0.00000000000E+00 0. -1.
         24    2    1    2    0    0 -0.37540763708E+02 -0.16390559334E+03  0.46211816547E+02  0.19234344028E+03  0.81154880094E+02 0.  0.
         23    2    1    2    0    0  0.22049091533E+02 -0.16749558672E+03  0.84217577781E+02  0.20819213349E+03  0.87809054381E+02 0.  0.
        -13    1    3    3    0    0  0.61264117729E+01 -0.21929616889E+02 -0.19442869496E+02  0.29941045278E+02  0.00000000000E+00 0.  1.
         14    1    3    3    0    0 -0.43667175481E+02 -0.14197597645E+03  0.65654686043E+02  0.16240239500E+03  0.00000000000E+00 0. -1.
        -13    1    4    4    0    0 -0.19173586625E+02 -0.73583190202E+02  0.88740869803E+00  0.76045379864E+02  0.00000000000E+00 0.  1.
         13    1    4    4    0    0  0.41222678158E+02 -0.93912396514E+02  0.83330169083E+02  0.13214675362E+03  0.00000000000E+00 0. -1.
          3    1    1    2  501    0  0.15491672175E+02  0.33140118005E+03  0.11157661507E+03  0.35002296364E+03  0.00000000000E+00 0. -1.
<scales pt_clust_5="13000.00000" pt_clust_6="13000.00000" pt_clust_7="13000.00000" pt_clust_8="13000.00000" pt_clust_9="13000.00000"></scales>
<clustering>
<clus scale="   81.155">  5  6 -1 -1</clus>
<clus scale="   87.809">  7  8 -1 -1</clus>
<clus scale="  186.710">  1  5  2 -1</clus>
<clus scale="  231.181">  7  9 -1 -1</clus>
<clus scale="  522.751">  2  5  1 -1</clus>
</clustering>
</event>
<event>
 9    2  0.3897980E-005  0.3658503E+03  0.7546771E-02  0.1064894E+00
         21   -1    0    0  501  502  0.00000000000E+00  0.00000000000E+00  0.14836577845E+03  0.14836577845E+03  0.00000000000E+00 0. -1.
          2   -1    0    0  502    0 -0.00000000000E+00 -0.00000000000E+00 -0.75271606914E+03  0.75271606914E+03  0.00000000000E+00 0. -1.
         24    2    1    2    0    0 -0.22089115357E+03 -0.16589511548E+03 -0.17375999822E+03  0.33605576436E+03  0.80167628827E+02 0.  0.
         23    2    1    2    0    0  0.62270918956E+02  0.29637020131E+02 -0.38508181772E+02  0.12066696167E+03  0.91222887838E+02 0.  0.
        -13    1    3    3    0    0 -0.68949755342E+02 -0.37134319246E+02 -0.91859853780E+02  0.12071147072E+03  0.00000000000E+00 0.  1.
         14    1    3    3    0    0 -0.15194139823E+03 -0.12876079624E+03 -0.81900144444E+02  0.21534429364E+03  0.00000000000E+00 0. -1.
        -11    1    4    4    0    0  0.83869488747E+02  0.13638580234E+02 -0.17996524100E+02  0.86856069985E+02  0.00000000000E+00 0.  1.
         11    1    4    4    0    0 -0.21598569791E+02  0.15998439897E+02 -0.20511657672E+02  0.33810891686E+02  0.00000000000E+00 0. -1.
          1    1    1    2  501    0  0.15862023462E+03  0.13625809535E+03 -0.39208211070E+03  0.44435912156E+03  0.00000000000E+00 0. -1.
<scales pt_clust_5="13000.00000" pt_clust_6="13000.00000" pt_clust_7="13000.00000" pt_clust_8="13000.00000" pt_clust_9="13000.00000"></scales>
<clustering>
<clus scale="   80.168">  5  6 -1 -1</clus>
<clus scale="   91.223">  7  8 -1 -1</clus>
<clus scale="  209.109">  7  9 -1 -1</clus>
<clus scale="  287.647">  2  5  1 -1</clus>
<clus scale="  365.850">  1  5  2 -1</clus>
</clustering>
</event>
<event>
 9    2  0.3897980E-005  0.5733910E+03  0.7546771E-02  0.1046658E+00
         21   -1    0    0  501  502  0.00000000000E+00  0.00000000000E+00  0.20158376172E+03  0.20158376172E+03  0.00000000000E+00 0.  1.
          2   -1    0    0  502    0 -0.00000000000E+00 -0.00000000000E+00 -0.63939044796E+03  0.63939044796E+03  0.00000000000E+00 0. -1.
         24    2    1    2    0    0  0.95898027664E+02 -0.74381711718E+01 -0.96505351988E+01  0.12536608966E+03  0.79823339369E+02 0.  0.
         23    2    1    2    0    0  0.53091106678E+02  0.24176141705E+03 -0.91579909396E+02  0.27927257006E+03  0.91318345351E+02 0.  0.
        -13    1    3    3    0    0  0.10878699940E+03 -0.63545786316E+01 -0.17302777883E+02  0.11033756401E+03  0.00000000000E+00 0.  1.
         14    1    3    3    0    0 -0.12888971740E+02 -0.10835925402E+01  0.76522426839E+01  0.15028525656E+02  0.00000000000E+00 0. -1.
        -11    1    4    4    0    0  0.30936980451E+02  0.12298567766E+02 -0.12293848289E+02  0.35489297461E+02  0.00000000000E+00 0. -1.
         11    1    4    4    0    0  0.22154126227E+02  0.22946284929E+03 -0.79286061107E+02  0.24378327260E+03  0.00000000000E+00 0.  1.
          1    1    1    2  501    0 -0.14898913434E+03 -0.23432324588E+03 -0.33657624165E+03  0.43633554995E+03  0.00000000000E+00 0. -1.
<scales pt_clust_5="13000.00000" pt_clust_6="13000.00000" pt_clust_7="13000.00000" pt_clust_8="13000.00000" pt_clust_9="13000.00000"></scales>
<clustering>
<clus scale="   79.823">  5  6 -1 -1</clus>
<clus scale="   91.318">  7  8 -1 -1</clus>
<clus scale="  124.994">  2  5  1 -1</clus>
<clus scale="  253.723">  7  9 -1 -1</clus>
<clus scale="  573.391">  1  5  2 -1</clus>
</clustering>
</event>
<event>
 9    2  0.3897980E-005  0.2594457E+03  0.7546771E-02  0.1133385E+00
          2   -1    0    0  502    0 -0.00000000000E+00  0.00000000000E+00  0.59053120462E+03  0.59053120462E+03  0.00000000000E+00 0. -1.
         21   -1    0    0  501  502  0.00000000000E+00 -0.00000000000E+00 -0.69237498880E+02  0.69237498880E+02  0.00000000000E+00 0. -1.
         24    2    1    2    0    0  0.77105890433E+02  0.79839854733E+02  0.24931800407E+03  0.28389260530E+03  0.78203730364E+02 0.  0.
         23    2    1    2    0    0 -0.58586522827E+02 -0.87975065392E+01  0.14740883303E+02  0.10836958615E+03  0.89537125167E+02 0.  0.
        -11    1    3    3    0    0  0.81096192980E+02  0.36608808921E+02  0.13576894486E+03  0.16232684249E+03  0.00000000000E+00 0.  1.
         12    1    3    3    0    0 -0.39903025478E+01  0.43231045813E+02  0.11354905922E+03  0.12156576280E+03  0.00000000000E+00 0. -1.
        -13    1    4    4    0    0  0.20467245872E+02 -0.18653555173E+02  0.33808020438E+01  0.27897904879E+02  0.00000000000E+00 0.  1.
         13    1    4    4    0    0 -0.79053768699E+02  0.98560486337E+01  0.11360081259E+02  0.80471681270E+02  0.00000000000E+00 0. -1.
          1    1    1    2  501    0 -0.18519367605E+02 -0.71042348194E+02  0.25723481836E+03  0.26750651205E+03  0.00000000000E+00 0. -1.
<scales pt_clust_5="13000.00000" pt_clust_6="13000.00000" pt_clust_7="13000.00000" pt_clust_8="13000.00000" pt_clust_9="13000.00000"></scales>
<clustering>
<clus scale="   78.204">  5  6 -1 -1</clus>
<clus scale="   89.537">  7  8 -1 -1</clus>
<clus scale="   73.417">  7  9 -1 -1</clus>
<clus scale="  135.778">  1  5  2 -1</clus>
<clus scale="  259.446">  2  5  1 -1</clus>
</clustering>
</event>
<event>
 9    2  0.3897980E-005  0.6803174E+03  0.7546771E-02  0.1026233E+00
         -3   -1    0    0    0  501 -0.00000000000E+00  0.00000000000E+00  0.10075478855E+04  0.10075478855E+04  0.00000000000E+00 0.  1.
         21   -1    0    0  501  502  0.00000000000E+00 -0.00000000000E+00 -0.16708725527E+03  0.16708725527E+03  0.00000000000E+00 0.  1.
         24    2    1    2    0    0  0.24662733476E+02 -0.10701131251E+03  0.18706735614E+03  0.23136712134E+03  0.80479051181E+02 0.  0.
         23    2    1    2    0    0  0.68701347832E+02 -0.20944633630E+03  0.54691988660E+03  0.59657092193E+03  0.90486792106E+02 0.  0.
        -13    1    3    3    0    0 -0.31310967383E+01 -0.31782481086E+02  0.48773290994E+01  0.32306627956E+02  0.00000000000E+00 0.  1.
         14    1    3    3    0    0  0.27793830215E+02 -0.75228831421E+02  0.18219002704E+03  0.19906049339E+03  0.00000000000E+00 0. -1.
        -11    1    4    4    0    0  0.16907684227E+02 -0.11074569476E+03  0.37749458068E+03  0.39376723726E+03  0.00000000000E+00 0.  1.
         11    1    4    4    0    0  0.51793663605E+02 -0.98700641532E+02  0.16942530592E+03  0.20280368467E+03  0.00000000000E+00 0. -1.
         -4    1    1    2    0  502 -0.93364081309E+02  0.31645764880E+03  0.10647338747E+03  0.34669709748E+03  0.00000000000E+00 0.  1.
<scales pt_clust_5="13000.00000" pt_clust_6="13000.00000" pt_clust_7="13000.00000" pt_clust_8="13000.00000" pt_clust_9="13000.00000"></scales>
<clustering>
<clus scale="   80.479">  5  6 -1 -1</clus>
<clus scale="   90.487">  7  8 -1 -1</clus>
<clus scale="  136.149">  1  5  2 -1</clus>
<clus scale="  298.837">  7  9 -1 -1</clus>
<clus scale="  680.317">  2  5  1 -1</clus>
</clustering>
</event>
<event>
 9    2  0.3897980E-005  0.3185304E+03  0.7546771E-02  0.1103201E+00
         21   -1    0    0  501  502  0.00000000000E+00  0.00000000000E+00  0.13421957483E+03  0.13421957483E+03  0.00000000000E+00 0.  1.
          2   -1    0    0  502    0 -0.00000000000E+00 -0.00000000000E+00 -0.43819007524E+03  0.43819007524E+03  0.00000000000E+00 0. -1.
         24    2    1    2    0    0  0.15294857453E+02  0.13432464661E+03 -0.47684881363E+02  0.16357724967E+03  0.78782138500E+02 0.  0.
         23    2    1    2    0    0  0.11101207651E+03 -0.31973866957E+02 -0.75402276053E+02  0.16562897231E+03  0.91659390870E+02 0.  0.
        -13    1    3    3    0    0  0.22232750355E+02  0.11367530218E+03 -0.53333021811E+01  0.11595177284E+03  0.00000000000E+00 0.  1.
         14    1    3    3    0    0 -0.69378929020E+01  0.20649344432E+02 -0.42351579182E+02  0.47625476823E+02  0.00000000000E+00 0. -1.
        -11    1    4    4    0    0  0.44705965409E+02 -0.44667020960E+02 -0.75055767543E+02  0.98117961383E+02  0.00000000000E+00 0.  1.
         11    1    4    4    0    0  0.66306111101E+02  0.12693154003E+02 -0.34650851063E+00  0.67511010925E+02  0.00000000000E+00 0. -1.
          1    1    1    2  501    0 -0.12630693396E+03 -0.10235077965E+03 -0.18088334299E+03  0.24320342809E+03  0.00000000000E+00 0. -1.
<scales pt_clust_5="13000.00000" pt_clust_6="13000.00000" pt_clust_7="13000.00000" pt_clust_8="13000.00000" pt_clust_9="13000.00000"></scales>
<clustering>
<clus scale="   78.782">  5  6 -1 -1</clus>
<clus scale="   91.659">  7  8 -1 -1</clus>
<clus scale="  156.473">  2  5  1 -1</clus>
<clus scale="  117.746">  7  9 -1 -1</clus>
<clus scale="  318.530">  1  5  2 -1</clus>
</clustering>
</event>
<event>
 9    2  0.3897980E-005  0.4543185E+03  0.7546771E-02  0.1086795E+00
          4   -1    0    0  502    0 -0.00000000000E+00  0.00000000000E+00  0.67137452384E+02  0.67137452384E+02  0.00000000000E+00 0. -1.
         21   -1    0    0  501  502  0.00000000000E+00 -0.00000000000E+00 -0.11587325312E+04  0.11587325312E+04  0.00000000000E+00 0. -1.
         24    2    1    2    0    0  0.98992810939E+01 -0.18816258512E+02 -0.31905314339E+03  0.32964100563E+03  0.80101416562E+02 0.  0.
         23    2    1    2    0    0 -0.19159267112E+03  0.10174139095E+03 -0.30296813125E+03  0.38594609254E+03  0.10052679014E+03 0.  0.
        -13    1    3    3    0    0  0.12003186453E+02  0.30626851539E+02 -0.11020205308E+03  0.11500683903E+03  0.00000000000E+00 0.  1.
         14    1    3    3    0    0 -0.21039053587E+01 -0.49443110051E+02 -0.20885109030E+03  0.21463416660E+03  0.00000000000E+00 0. -1.
        -11    1    4    4    0    0 -0.15286204842E+03  0.10605927782E+03 -0.29060708389E+03  0.34506210089E+03  0.00000000000E+00 0. -1.
         11    1    4    4    0    0 -0.38730622703E+02 -0.43178868697E+01 -0.12361047353E+02  0.40883991655E+02  0.00000000000E+00 0.  1.
          3    1    1    2  501    0  0.18169339003E+03 -0.82925132437E+02 -0.46957380414E+03  0.51028288537E+03  0.00000000000E+00 0. -1.
<scales pt_clust_5="13000.00000" pt_clust_6="13000.00000" pt_clust_7="13000.00000" pt_clust_8="13000.00000" pt_clust_9="13000.00000"></scales>
<clustering>
<clus scale="   80.101">  5  6 -1 -1</clus>
<clus scale="   82.875">  1  5  2 -1</clus>
<clus scale="  100.527">  7  8 -1 -1</clus>
<clus scale="  205.303">  7  9 -1 -1</clus>
<clus scale="  454.319">  2  5  1 -1</clus>
</clustering>
</event>
<event>
 9    2  0.3897980E-005  0.2363574E+03  0.7546771E-02  0.1142493E+00
         -1   -1    0    0    0  501 -0.00000000000E+00  0.00000000000E+00  0.34838088354E+03  0.34838088354E+03  0.00000000000E+00 0.  1.
         21   -1    0    0  501  502  0.00000000000E+00 -0.00000000000E+00 -0.13559379838E+03  0.13559379838E+03  0.00000000000E+00 0.  1.
         24    2    1    2    0    0 -0.10293332316E+03 -0.60439869666E+02  0.20105243024E+03  0.24732618529E+03  0.80622052578E+02 0.  0.
         23    2    1    2    0    0  0.13781730880E+03  0.22098858802E+02 -0.30811728675E+02  0.16958792457E+03  0.91261883446E+02 0.  0.
        -13    1    3    3    0    0 -0.11682964101E+03 -0.54504741915E+02  0.18097096392E+03  0.22219455819E+03  0.00000000000E+00 0.  1.
         14    1    3    3    0    0  0.13896317841E+02 -0.59351277507E+01  0.20081466323E+02  0.25131627099E+02  0.00000000000E+00 0. -1.
        -13    1    4    4    0    0  0.65383037869E+02  0.87830003661E+00  0.30682738013E+02  0.72229796234E+02  0.00000000000E+00 0. -1.
         13    1    4    4    0    0  0.72434270933E+02  0.21220558765E+02 -0.61494466688E+02  0.97358128336E+02  0.00000000000E+00 0.  1.
         -2    1    1    2    0  502 -0.34883985637E+02  0.38341010864E+02  0.42546383597E+02  0.67060572062E+02  0.00000000000E+00 0.  1.
<scales pt_clust_5="13000.00000" pt_clust_6="13000.00000" pt_clust_7="13000.00000" pt_clust_8="13000.00000" pt_clust_9="13000.00000"></scales>
<clustering>
<clus scale="   80.622">  5  6 -1 -1</clus>
<clus scale="   91.262">  7  8 -1 -1</clus>
<clus scale="   51.836">  7  9 -1 -1</clus>
<clus scale="  144.042">  1  5  2 -1</clus>
<clus scale="  236.357">  2  5  1 -1</clus>
</clustering>
</event>
<event>
 9    2  0.3897980E-005  0.1988227E+03  0.7546771E-02  0.1173962E+00
         21   -1    0    0  501  502  0.00000000000E+00  0.00000000000E+00  0.55075162735E+02  0.55075162735E+02  0.00000000000E+00 0. -1.
          4   -1    0    0  502    0 -0.00000000000E+00 -0.00000000000E+00 -0.45130995381E+03  0.45130995381E+03  0.00000000000E+00 0. -1.
         24    2    1    2    0    0  0.71482514206E+02 -0.42653685301E+02 -0.15929393562E+03  0.19707713134E+03  0.80843992140E+02 0.  0.
         23    2    1    2    0    0  0.30530230641E+01 -0.20579504695E+02 -0.15825395046E+03  0.18382646604E+03  0.91186730497E+02 0.  0.
        -11    1    3    3    0    0  0.67427332974E+02 -0.94912441381E+01 -0.14604103342E+03  0.16113507498E+03  0.00000000000E+00 0.  1.
         12    1    3    3    0    0  0.40551812317E+01 -0.33162441163E+02 -0.13252902206E+02  0.35942056363E+02  0.00000000000E+00 0. -1.
        -11    1    4    4    0    0  0.17035645519E+02  0.16701100480E+02 -0.35969494106E+01  0.24126293137E+02  0.00000000000E+00 0.  1.
         11    1    4    4    0    0 -0.13982622455E+02 -0.37280605174E+02 -0.15465700104E+03  0.15970017290E+03  0.00000000000E+00 0. -1.
          3    1    1    2  501    0 -0.74535537270E+02  0.63233189996E+02 -0.78686904997E+02  0.12548151916E+03  0.00000000000E+00 0. -1.
<scales pt_clust_5="13000.00000" pt_clust_6="13000.00000" pt_clust_7="13000.00000" pt_clust_8="13000.00000" pt_clust_9="13000.00000"></scales>
<clustering>
<clus scale="   80.844">  5  6 -1 -1</clus>
<clus scale="   91.187">  7  8 -1 -1</clus>
<clus scale="   97.745">  7  9 -1 -1</clus>
<clus scale="  116.038">  2  5  1 -1</clus>
<clus scale="  198.823">  1  5  2 -1</clus>
</clustering>
</event>
<event>
 9    2  0.5508433E-005  0.4642986E+03  0.7546771E-02  0.1083669E+00
          4   -1    0    0  502    0 -0.00000000000E+00  0.00000000000E+00  0.70377137300E+03  0.70377137300E+03  0.00000000000E+00 0. -1.
         21   -1    0    0  501  502  0.00000000000E+00 -0.00000000000E+00 -0.11083947943E+03  0.11083947943E+03  0.00000000000E+00 0. -1.
         24    2    1    2    0    0 -0.34563520874E+02 -0.29710202256E+02  0.42456726595E+02  0.94474703170E+02  0.71032125215E+02 0.  0.
         23    2    1    2    0    0 -0.81646044197E+02 -0.31446332288E+02 -0.26489938318E+02  0.12841533886E+03  0.90187771202E+02 0.  0.
        -13    1    3    3    0    0  0.19881303134E+02 -0.17811661707E+02  0.23633116340E+02  0.35651727798E+02  0.00000000000E+00 0.  1.
         14    1    3    3    0    0 -0.54444824008E+02 -0.11898540550E+02  0.18823610255E+02  0.58822975371E+02  0.00000000000E+00 0. -1.
        -13    1    4    4    0    0 -0.20160315227E+02  0.10956711035E+02  0.27824490180E+02  0.36065081180E+02  0.00000000000E+00 0.  1.
         13    1    4    4    0    0 -0.61485728970E+02 -0.42403043323E+02 -0.54314428498E+02  0.92350257677E+02  0.00000000000E+00 0. -1.
          3    1    1    2  501    0  0.11620956507E+03  0.61156534545E+02  0.57696510529E+03  0.59172081040E+03  0.00000000000E+00 0. -1.
<scales pt_clust_5="13000.00000" pt_clust_6="13000.00000" pt_clust_7="13000.00000" pt_clust_8="13000.00000" pt_clust_9="13000.00000"></scales>
<clustering>
<clus scale="   71.032">  5  6 -1 -1</clus>
<clus scale="   84.397">  1  5  2 -1</clus>
<clus scale="   90.188">  7  8 -1 -1</clus>
<clus scale="   90.945">  7  9 -1 -1</clus>
<clus scale="  464.299">  2  5  1 -1</clus>
</clustering>
</event>
<event>
 9    2  0.3897980E-005  0.1350415E+03  0.7546771E-02  0.1237443E+00
         21   -1    0    0  501  502  0.00000000000E+00  0.00000000000E+00  0.11358215872E+03  0.11358215872E+03  0.00000000000E+00 0. -1.
          2   -1    0    0  502    0 -0.00000000000E+00 -0.00000000000E+00 -0.17312552415E+03  0.17312552415E+03  0.00000000000E+00 0. -1.
         24    2    1    2    0    0 -0.19648791271E+01  0.50981615829E+02 -0.10778492326E+03  0.14330801696E+03  0.79477117090E+02 0.  0.
         23    2    1    2    0    0 -0.25197304603E+02 -0.17268178319E+02  0.19857214640E+02  0.91630456601E+02  0.84075784040E+02 0.  0.
        -11    1    3    3    0    0  0.26450979833E+02 -0.19340463930E+01 -0.95935366797E+01  0.28203383053E+02  0.00000000000E+00 0.  1.
         12    1    3    3    0    0 -0.28415858960E+02  0.52915662222E+02 -0.98191386583E+02  0.11510463391E+03  0.00000000000E+00 0. -1.
        -13    1    4    4    0    0  0.23130531360E+02  0.16761340963E+02  0.15157058252E+02  0.32337291889E+02  0.00000000000E+00 0. -1.
         13    1    4    4    0    0 -0.48327835963E+02 -0.34029519283E+02  0.47001563878E+01  0.59293164711E+02  0.00000000000E+00 0.  1.
          1    1    1    2  501    0  0.27162183730E+02 -0.33713437510E+02  0.28384343191E+02  0.51769209305E+02  0.00000000000E+00 0. -1.
<scales pt_clust_5="13000.00000" pt_clust_6="13000.00000" pt_clust_7="13000.00000" pt_clust_8="13000.00000" pt_clust_9="13000.00000"></scales>
<clustering>
<clus scale="   79.477">  5  6 -1 -1</clus>
<clus scale="   84.076">  7  8 -1 -1</clus>
<clus scale="   43.294">  7  9 -1 -1</clus>
<clus scale="   94.444">  2  5  1 -1</clus>
<clus scale="  135.042">  1  5  2 -1</clus>
</clustering>
</event>
<event>
 9    2  0.3897980E-005  0.3368618E+03  0.7546771E-02  0.1097493E+00
         21   -1    0    0  501  502  0.00000000000E+00  0.00000000000E+00  0.21715423544E+03  0.21715423544E+03  0.00000000000E+00 0.  1.
         -1   -1    0    0    0  501 -0.00000000000E+00 -0.00000000000E+00 -0.28347667329E+03  0.28347667329E+03  0.00000000000E+00 0.  1.
         24    2    1    2    0    0  0.12229841409E+03 -0.49313111593E+02 -0.56980827912E+02  0.16363956856E+03  0.78373519658E+02 0.  0.
         23    2    1    2    0    0  0.38797932528E+02  0.96955552589E+02 -0.73301460409E+02  0.15723401056E+03  0.91889995286E+02 0.  0.
        -11    1    3    3    0    0  0.12878601996E+03 -0.35987597581E+02 -0.36966737312E+02  0.13873530836E+03  0.00000000000E+00 0.  1.
         12    1    3    3    0    0 -0.64876058691E+01 -0.13325514013E+02 -0.20014090601E+02  0.24904260202E+02  0.00000000000E+00 0. -1.
        -11    1    4    4    0    0  0.20050440704E+02 -0.34437688689E+01 -0.47821532694E+02  0.51969016785E+02  0.00000000000E+00 0. -1.
         11    1    4    4    0    0  0.18747491824E+02  0.10039932146E+03 -0.25479927715E+02  0.10526499378E+03  0.00000000000E+00 0.  1.
         -2    1    1    2    0  502 -0.16109634662E+03 -0.47642440995E+02  0.63959850473E+02  0.17975732962E+03  0.00000000000E+00 0.  1.
<scales pt_clust_5="13000.00000" pt_clust_6="13000.00000" pt_clust_7="13000.00000" pt_clust_8="13000.00000" pt_clust_9="13000.00000"></scales>
<clustering>
<clus scale="   78.374">  5  6 -1 -1</clus>
<clus scale="   91.890">  7  8 -1 -1</clus>
<clus scale="  153.398">  2  5  1 -1</clus>
<clus scale="  136.243">  7  9 -1 -1</clus>
<clus scale="  336.862">  1  5  2 -1</clus>
</clustering>
</event>
<event>
 9    2  0.3897980E-005  0.3347307E+03  0.7546771E-02  0.1120779E+00
         21   -1    0    0  501  502  0.00000000000E+00  0.00000000000E+00  0.48606835930E+02  0.48606835930E+02  0.00000000000E+00 0. -1.
          2   -1    0    0  502    0 -0.00000000000E+00 -0.00000000000E+00 -0.93724420902E+03  0.93724420902E+03  0.00000000000E+00 0. -1.
         24    2    1    2    0    0 -0.32011282225E+02 -0.22792448258E+01 -0.25537169466E+03  0.26956196248E+03  0.80118861929E+02 0.  0.
         23    2    1    2    0    0 -0.59832568376E+02 -0.95906031935E+02 -0.52295646233E+03  0.54238173753E+03  0.88975190471E+02 0.  0.
        -11    1    3    3    0    0 -0.19791852681E+02  0.38596107586E+02 -0.13938291347E+03  0.14597593473E+03  0.00000000000E+00 0.  1.
         12    1    3    3    0    0 -0.12219429545E+02 -0.40875352412E+02 -0.11598878119E+03  0.12358602775E+03  0.00000000000E+00 0. -1.
        -13    1    4    4    0    0 -0.68052752695E+00 -0.78839866756E+02 -0.23353698009E+03  0.24648673145E+03  0.00000000000E+00 0.  1.
         13    1    4    4    0    0 -0.59152040849E+02 -0.17066165178E+02 -0.28941948223E+03  0.29589500609E+03  0.00000000000E+00 0. -1.
          1    1    1    2  501    0  0.91843850601E+02  0.98185276760E+02 -0.11030921611E+03  0.17390734494E+03  0.00000000000E+00 0. -1.
<scales pt_clust_5="13000.00000" pt_clust_6="13000.00000" pt_clust_7="13000.00000" pt_clust_8="13000.00000" pt_clust_9="13000.00000"></scales>
<clustering>
<clus scale="   80.119">  5  6 -1 -1</clus>
<clus scale="   86.307">  2  5  1 -1</clus>
<clus scale="   88.975">  7  8 -1 -1</clus>
<clus scale="  129.571">  7  9 -1 -1</clus>
<clus scale="  334.731">  1  5  2 -1</clus>
</clustering>
</event>
<event>
 9    2  0.3897980E-005  0.2081927E+03  0.7546771E-02  0.1162436E+00
          4   -1    0    0  502    0 -0.00000000000E+00  0.00000000000E+00  0.12638926502E+04  0.12638926502E+04  0.00000000000E+00 0. -1.
         21   -1    0    0  501  502  0.00000000000E+00 -0.00000000000E+00 -0.31992563972E+02  0.31992563972E+02  0.00000000000E+00 0. -1.
         24    2    1    2    0    0 -0.76617833094E+02 -0.70970496227E+02  0.85700977420E+03  0.86706479566E+03  0.80177946536E+02 0.  0.
         23    2    1    2    0    0 -0.10437645002E+02  0.74901353033E+01  0.24539082484E+03  0.26036113658E+03  0.86059386291E+02 0.  0.
        -13    1    3    3    0    0 -0.84287498343E+02 -0.57066541977E+02  0.53097252539E+03  0.54064109658E+03  0.00000000000E+00 0.  1.
         14    1    3    3    0    0  0.76696652486E+01 -0.13903954250E+02  0.32603724881E+03  0.32642369908E+03  0.00000000000E+00 0. -1.
        -11    1    4    4    0    0  0.35701414225E+02  0.12011251805E+02  0.14449638247E+03  0.14932536856E+03  0.00000000000E+00 0.  1.
         11    1    4    4    0    0 -0.46139059227E+02 -0.45211165015E+01  0.10089444236E+03  0.11103576802E+03  0.00000000000E+00 0. -1.
          3    1    1    2  501    0  0.87055478096E+02  0.63480360923E+02  0.12949948723E+03  0.16845928197E+03  0.00000000000E+00 0. -1.
<scales pt_clust_5="13000.00000" pt_clust_6="13000.00000" pt_clust_7="13000.00000" pt_clust_8="13000.00000" pt_clust_9="13000.00000"></scales>
<clustering>
<clus scale="   80.178">  5  6 -1 -1</clus>
<clus scale="   86.059">  7  8 -1 -1</clus>
<clus scale="  107.742">  7  9 -1 -1</clus>
<clus scale="  131.665">  1  5  2 -1</clus>
<clus scale="  208.193">  2  5  1 -1</clus>
</clustering>
</event>
<event>
 9    2  0.3897980E-005  0.2488494E+03  0.7546771E-02  0.1149127E+00
          2   -1    0    0  502    0 -0.00000000000E+00  0.00000000000E+00  0.21803019653E+03  0.21803019653E+03  0.00000000000E+00 0. -1.
         21   -1    0    0  501  502  0.00000000000E+00 -0.00000000000E+00 -0.14490808445E+03  0.14490808445E+03  0.00000000000E+00 0.  1.
         24    2    1    2    0    0 -0.21593670051E+02  0.66392950003E+02  0.36056018887E+02  0.11134352780E+03  0.78886211021E+02 0.  0.
         23    2    1    2    0    0  0.28520022318E+02  0.18703021652E+02 -0.66901327434E+02  0.11706400094E+03  0.89805333979E+02 0.  0.
        -11    1    3    3    0    0  0.28491941945E+02  0.16885781605E+02  0.21337156850E+02  0.39397901449E+02  0.00000000000E+00 0.  1.
         12    1    3    3    0    0 -0.50085611996E+02  0.49507168398E+02  0.14718862037E+02  0.71945626354E+02  0.00000000000E+00 0. -1.
        -11    1    4    4    0    0  0.43741803371E+01  0.29218974796E+02  0.13482688441E+02  0.32475603602E+02  0.00000000000E+00 0. -1.
         11    1    4    4    0    0  0.24145841981E+02 -0.10515953144E+02 -0.80384015875E+02  0.84588397335E+02  0.00000000000E+00 0.  1.
          1    1    1    2  501    0 -0.69263522674E+01 -0.85095971654E+02  0.10396742062E+03  0.13453075224E+03  0.00000000000E+00 0. -1.
<scales pt_clust_5="13000.00000" pt_clust_6="13000.00000" pt_clust_7="13000.00000" pt_clust_8="13000.00000" pt_clust_9="13000.00000"></scales>
<clustering>
<clus scale="   78.886">  5  6 -1 -1</clus>
<clus scale="   89.805">  7  8 -1 -1</clus>
<clus scale="   85.377">  7  9 -1 -1</clus>
<clus scale="  105.344">  1  5  2 -1</clus>
<clus scale="  248.849">  2  5  1 -1</clus>
</clustering>
</event>
<event>
 9    2  0.3897980E-005  0.2000800E+03  0.7546771E-02  0.1195265E+00
         21   -1    0    0  501  502  0.00000000000E+00  0.00000000000E+00  0.11808287398E+03  0.11808287398E+03  0.00000000000E+00 0. -1.
         -3   -1    0    0    0  501 -0.00000000000E+00 -0.00000000000E+00 -0.22909900580E+03  0.22909900580E+03  0.00000000000E+00 0.  1.
         24    2    1    2    0    0  0.38610200479E+01 -0.25669255338E+02 -0.12810892479E+03  0.14637313156E+03  0.65873962135E+02 0.  0.
         23    2    1    2    0    0 -0.32890430307E+02 -0.57656700103E+02  0.83120394356E+01  0.11213505909E+03  0.89995033228E+02 0.  0.
        -11    1    3    3    0    0 -0.19946721769E+02 -0.24731977300E+02 -0.24671800737E+02  0.40227355892E+02  0.00000000000E+00 0.  1.
         12    1    3    3    0    0  0.23807741817E+02 -0.93727803889E+00 -0.10343712405E+03  0.10614577567E+03  0.00000000000E+00 0. -1.
        -13    1    4    4    0    0 -0.26094262972E+02  0.36613118985E+01 -0.29674289002E+02  0.39684747607E+02  0.00000000000E+00 0.  1.
         13    1    4    4    0    0 -0.67961673341E+01 -0.61318012001E+02  0.37986328437E+02  0.72450311486E+02  0.00000000000E+00 0. -1.
         -4    1    1    2    0  502  0.29029410259E+02  0.83325955441E+02  0.87807535317E+01  0.88673689123E+02  0.00000000000E+00 0.  1.
<scales pt_clust_5="13000.00000" pt_clust_6="13000.00000" pt_clust_7="13000.00000" pt_clust_8="13000.00000" pt_clust_9="13000.00000"></scales>
<clustering>
<clus scale="   65.874">  5  6 -1 -1</clus>
<clus scale="   70.804">  2  5  1 -1</clus>
<clus scale="   89.995">  7  8 -1 -1</clus>
<clus scale="   78.425">  7  9 -1 -1</clus>
<clus scale="  200.080">  1  5  2 -1</clus>
</clustering>
</event>
<event>
 9    2  0.3897980E-005  0.1844720E+03  0.7546771E-02  0.1190709E+00
          4   -1    0    0  502    0 -0.00000000000E+00  0.00000000000E+00  0.21820593432E+03  0.21820593432E+03  0.00000000000E+00 0. -1.
         21   -1    0    0  501  502  0.00000000000E+00 -0.00000000000E+00 -0.27557873458E+03  0.27557873458E+03  0.00000000000E+00 0. -1.
         24    2    1    2    0    0  0.23488705005E+02  0.55424902335E+02  0.17233463857E+03  0.19917402846E+03  0.79670740539E+02 0.  0.
         23    2    1    2    0    0 -0.82787939206E+01  0.26016365637E+02 -0.16151574443E+03  0.18730673227E+03  0.90835491659E+02 0.  0.
        -11    1    3    3    0    0  0.11377434295E+02 -0.19896010123E+02  0.30843202504E+02  0.38426558143E+02  0.00000000000E+00 0.  1.
         12    1    3    3    0    0  0.12111270711E+02  0.75320912458E+02  0.14149143607E+03  0.16074747032E+03  0.00000000000E+00 0. -1.
        -11    1    4    4    0    0  0.30401603426E+02  0.42924615488E+02 -0.87065429954E+02  0.10172103617E+03  0.00000000000E+00 0. -1.
         11    1    4    4    0    0 -0.38680397346E+02 -0.16908249851E+02 -0.74450314479E+02  0.85585696105E+02  0.00000000000E+00 0.  1.
          3    1    1    2  501    0 -0.15209911085E+02 -0.81441267971E+02 -0.68191694397E+02  0.10730390817E+03  0.00000000000E+00 0. -1.
<scales pt_clust_5="13000.00000" pt_clust_6="13000.00000" pt_clust_7="13000.00000" pt_clust_8="13000.00000" pt_clust_9="13000.00000"></scales>
<clustering>
<clus scale="   79.671">  5  6 -1 -1</clus>
<clus scale="   90.835">  7  8 -1 -1</clus>
<clus scale="   82.849">  7  9 -1 -1</clus>
<clus scale="   99.855">  1  5  2 -1</clus>
<clus scale="  184.472">  2  5  1 -1</clus>
</clustering>
</event>
<event>
 9    2  0.3897980E-005  0.1309052E+03  0.7546771E-02  0.1247185E+00
          2   -1    0    0  502    0 -0.00000000000E+00  0.00000000000E+00  0.32263244610E+03  0.32263244610E+03  0.00000000000E+00 0. -1.
         21   -1    0    0  501  502  0.00000000000E+00 -0.00000000000E+00 -0.44439799053E+02  0.44439799053E+02  0.00000000000E+00 0.  1.
         24    2    1    2    0    0  0.21282084729E+02  0.17876685565E+02  0.37377056481E+02  0.92976764097E+02  0.80468200511E+02 0.  0.
         23    2    1    2    0    0 -0.22575238787E+02 -0.43597376583E+02  0.20587973021E+03  0.23069340124E+03  0.91774775463E+02 0.  0.
        -11    1    3    3    0    0 -0.12474444872E+02  0.24364828236E+02 -0.14322026830E+02  0.30892994066E+02  0.00000000000E+00 0.  1.
         12    1    3    3    0    0  0.33756529601E+02 -0.64881426710E+01  0.51699083311E+02  0.62083770031E+02  0.00000000000E+00 0. -1.
        -13    1    4    4    0    0  0.25256540792E+02 -0.49663913256E+02  0.11651393348E+03  0.12915066328E+03  0.00000000000E+00 0. -1.
         13    1    4    4    0    0 -0.47831779579E+02  0.60665366725E+01  0.89365796738E+02  0.10154273796E+03  0.00000000000E+00 0.  1.
          1    1    1    2  501    0  0.12931540577E+01  0.25720691018E+02  0.34935860351E+02  0.43402079816E+02  0.00000000000E+00 0. -1.
<scales pt_clust_5="13000.00000" pt_clust_6="13000.00000" pt_clust_7="13000.00000" pt_clust_8="13000.00000" pt_clust_9="13000.00000"></scales>
<clustering>
<clus scale="   80.468">  5  6 -1 -1</clus>
<clus scale="   85.133">  1  5  2 -1</clus>
<clus scale="   91.775">  7  8 -1 -1</clus>
<clus scale="   28.799">  7  9 -1 -1</clus>
<clus scale="  130.905">  2  5  1 -1</clus>
</clustering>
</event>
<event>
 9    2  0.3897980E-005  0.2932581E+03  0.7546771E-02  0.1135665E+00
          2   -1    0    0  502    0 -0.00000000000E+00  0.00000000000E+00  0.59315478230E+03  0.59315478230E+03  0.00000000000E+00 0. -1.
         21   -1    0    0  501  502  0.00000000000E+00 -0.00000000000E+00 -0.10700923510E+03  0.10700923510E+03  0.00000000000E+00 0.  1.
         24    2    1    2    0    0  0.31844054863E+02  0.19672078266E+02 -0.40225295620E+02  0.97613955964E+02  0.80680700901E+02 0.  0.
         23    2    1    2    0    0  0.55866941294E+02 -0.11835275496E+03  0.24406435442E+03  0.29089633020E+03  0.89021211455E+02 0.  0.
        -11    1    3    3    0    0  0.48925570268E+02  0.35647770823E+02 -0.13354693219E+02  0.61990505899E+02  0.00000000000E+00 0.  1.
         12    1    3    3    0    0 -0.17081515405E+02 -0.15975692556E+02 -0.26870602401E+02  0.35623450065E+02  0.00000000000E+00 0. -1.
        -13    1    4    4    0    0  0.70205036420E+02 -0.87978348961E+02  0.22665525497E+03  0.25306430335E+03  0.00000000000E+00 0.  1.
         13    1    4    4    0    0 -0.14338095126E+02 -0.30374406000E+02  0.17409099444E+02  0.37832026844E+02  0.00000000000E+00 0. -1.
          1    1    1    2  501    0 -0.87710996156E+02  0.98680676695E+02  0.28230648840E+03  0.31165373124E+03  0.00000000000E+00 0. -1.
<scales pt_clust_5="13000.00000" pt_clust_6="13000.00000" pt_clust_7="13000.00000" pt_clust_8="13000.00000" pt_clust_9="13000.00000"></scales>
<clustering>
<clus scale="   80.681">  5  6 -1 -1</clus>
<clus scale="   88.941">  1  5  2 -1</clus>
<clus scale="   89.021">  7  8 -1 -1</clus>
<clus scale="  130.087">  7  9 -1 -1</clus>
<clus scale="  293.258">  2  5  1 -1</clus>
</clustering>
</event>
<event>
 9    2  0.3897980E-005  0.2085997E+03  0.7546771E-02  0.1178071E+00
         21   -1    0    0  501  502  0.00000000000E+00  0.00000000000E+00  0.26008506060E+03  0.26008506060E+03  0.00000000000E+00 0.  1.
         -3   -1    0    0    0  501 -0.00000000000E+00 -0.00000000000E+00 -0.21763179950E+03  0.21763179950E+03  0.00000000000E+00 0.  1.
         24    2    1    2    0    0  0.29722895253E+02 -0.30989348108E+02 -0.16171297432E+03  0.18583045305E+03  0.80858401045E+02 0.  0.
         23    2    1    2    0    0 -0.99918495086E+02  0.22260188483E+02  0.14699476855E+03  0.20093478756E+03  0.91039031300E+02 0.  0.
        -11    1    3    3    0    0  0.14175882452E+01 -0.49973931276E+02 -0.12997720100E+03  0.13926046152E+03  0.00000000000E+00 0.  1.
         12    1    3    3    0    0  0.28305307008E+02  0.18984583168E+02 -0.31735773320E+02  0.46569991529E+02  0.00000000000E+00 0. -1.
        -13    1    4    4    0    0 -0.66450390744E+02 -0.37329557441E+01  0.23844621117E+02  0.70697633234E+02  0.00000000000E+00 0. -1.
         13    1    4    4    0    0 -0.33468104342E+02  0.25993144227E+02  0.12315014743E+03  0.13023715433E+03  0.00000000000E+00 0.  1.
         -4    1    1    2    0  502  0.70195599833E+02  0.87291596256E+01  0.57171466876E+02  0.90951619493E+02  0.00000000000E+00 0.  1.
<scales pt_clust_5="13000.00000" pt_clust_6="13000.00000" pt_clust_7="13000.00000" pt_clust_8="13000.00000" pt_clust_9="13000.00000"></scales>
<clustering>
<clus scale="   80.858">  5  6 -1 -1</clus>
<clus scale="   91.039">  7  8 -1 -1</clus>
<clus scale="   70.736">  7  9 -1 -1</clus>
<clus scale="   91.553">  2  5  1 -1</clus>
<clus scale="  208.600">  1  5  2 -1</clus>
</clustering>
</event>
<event>
 9    2  0.3897980E-005  0.2290469E+03  0.7546771E-02  0.1152768E+00
         21   -1    0    0  501  502  0.00000000000E+00  0.00000000000E+00  0.33830147573E+02  0.33830147573E+02  0.00000000000E+00 0.  1.
          2   -1    0    0  502    0 -0.00000000000E+00 -0.00000000000E+00 -0.19026450550E+04  0.19026450550E+04  0.00000000000E+00 0. -1.
         24    2    1    2    0    0 -0.51029220483E+02  0.78001982934E+02 -0.14802194332E+04  0.14853999165E+04  0.81700983412E+02 0.  0.
         23    2    1    2    0    0 -0.18380047737E+02 -0.10762601282E+03 -0.31619474562E+03  0.34649471828E+03  0.90323240903E+02 0.  0.
        -13    1    3    3    0    0  0.15246865600E+02  0.25020182018E+02 -0.17590438994E+03  0.17832787449E+03  0.00000000000E+00 0.  1.
         14    1    3    3    0    0 -0.66276086083E+02  0.52981800917E+02 -0.13043150433E+04  0.13070720420E+04  0.00000000000E+00 0. -1.
        -11    1    4    4    0    0  0.18474085458E+02 -0.94475278686E+02 -0.17223126136E+03  0.19730807765E+03  0.00000000000E+00 0.  1.
         11    1    4    4    0    0 -0.36854133195E+02 -0.13150734132E+02 -0.14396348426E+03  0.14918664063E+03  0.00000000000E+00 0. -1.
          1    1    1    2  501    0  0.69409268220E+02  0.29624029884E+02 -0.72400728512E+02  0.10458056775E+03  0.00000000000E+00 0. -1.
<scales pt_clust_5="13000.00000" pt_clust_6="13000.00000" pt_clust_7="13000.00000" pt_clust_8="13000.00000" pt_clust_9="13000.00000"></scales>
<clustering>
<clus scale="   81.701">  5  6 -1 -1</clus>
<clus scale="   90.323">  7  8 -1 -1</clus>
<clus scale="   75.467">  7  9 -1 -1</clus>
<clus scale="  123.949">  2  5  1 -1</clus>
<clus scale="  229.047">  1  5  2 -1</clus>
</clustering>
</event>
<event>
 9    2  0.3897980E-005  0.3897548E+03  0.7546771E-02  0.1083352E+00
         21   -1    0    0  501  502  0.00000000000E+00  0.00000000000E+00  0.13485334829E+03  0.13485334829E+03  0.00000000000E+00 0.  1.
          2   -1    0    0  502    0 -0.00000000000E+00 -0.00000000000E+00 -0.60733988847E+03  0.60733988847E+03  0.00000000000E+00 0. -1.
         24    2    1    2    0    0  0.88431394441E+02  0.80116277842E+02 -0.20459216896E+02  0.14533688678E+03  0.80408342884E+02 0.  0.
         23    2    1    2    0    0  0.44324269044E+01 -0.13456659625E+03 -0.27394646112E+02  0.15879078752E+03  0.79600454350E+02 0.  0.
        -13    1    3    3    0    0  0.83167848415E+02  0.74246034007E+02  0.11817031369E+02  0.11211158194E+03  0.00000000000E+00 0.  1.
         14    1    3    3    0    0  0.52635460266E+01  0.58702438348E+01 -0.32276248265E+02  0.33225304837E+02  0.00000000000E+00 0. -1.
        -13    1    4    4    0    0 -0.19800859561E+02 -0.12995032229E+03 -0.26565889515E+02  0.13410781777E+03  0.00000000000E+00 0.  1.
         13    1    4    4    0    0  0.24233286466E+02 -0.46162739601E+01 -0.82875659761E+00  0.24682969750E+02  0.00000000000E+00 0. -1.
          1    1    1    2  501    0 -0.92863821346E+02  0.54450318406E+02 -0.42463267716E+03  0.43806556245E+03  0.00000000000E+00 0. -1.
<scales pt_clust_5="13000.00000" pt_clust_6="13000.00000" pt_clust_7="13000.00000" pt_clust_8="13000.00000" pt_clust_9="13000.00000"></scales>
<clustering>
<clus scale="   79.600">  7  8 -1 -1</clus>
<clus scale="   80.408">  5  6 -1 -1</clus>
<clus scale="  107.650">  7  9 -1 -1</clus>
<clus scale="  143.890">  2  5  1 -1</clus>
<clus scale="  389.755">  1  5  2 -1</clus>
</clustering>
</event>
<event>
 9    2  0.3897980E-005  0.5242635E+03  0.7546771E-02  0.1036301E+00
         21   -1    0    0  501  502  0.00000000000E+00  0.00000000000E+00  0.97226425398E+02  0.97226425398E+02  0.00000000000E+00 0. -1.
          2   -1    0    0  502    0 -0.00000000000E+00 -0.00000000000E+00 -0.16342336469E+04  0.16342336469E+04  0.00000000000E+00 0. -1.
         24    2    1    2    0    0  0.15755487602E+03 -0.13590708421E+03 -0.77983667785E+03  0.81050433891E+03  0.74011923138E+02 0.  0.
         23    2    1    2    0    0  0.12813864710E+03  0.16681283558E+03 -0.40060090744E+03  0.46300610726E+03  0.98221857635E+02 0.  0.
        -13    1    3    3    0    0  0.13906370199E+01 -0.30180415042E+02 -0.74547411777E+02  0.80436981085E+02  0.00000000000E+00 0.  1.
         14    1    3    3    0    0  0.15616423900E+03 -0.10572666917E+03 -0.70528926607E+03  0.73006735782E+03  0.00000000000E+00 0. -1.
        -11    1    4    4    0    0  0.41043695793E+02  0.41348780217E+02 -0.21442330921E+03  0.22219734949E+03  0.00000000000E+00 0.  1.
         11    1    4    4    0    0  0.87094951312E+02  0.12546405536E+03 -0.18617759824E+03  0.24080875777E+03  0.00000000000E+00 0. -1.
          1    1    1    2  501    0 -0.28569352312E+03 -0.30905751366E+02 -0.35656963624E+03  0.45794962617E+03  0.00000000000E+00 0. -1.
<scales pt_clust_5="13000.00000" pt_clust_6="13000.00000" pt_clust_7="13000.00000" pt_clust_8="13000.00000" pt_clust_9="13000.00000"></scales>
<clustering>
<clus scale="   74.012">  5  6 -1 -1</clus>
<clus scale="   98.222">  7  8 -1 -1</clus>
<clus scale="  220.844">  2  5  1 -1</clus>
<clus scale="  230.559">  7  9 -1 -1</clus>
<clus scale="  524.264">  1  5  2 -1</clus>
</clustering>
</event>
<event>
 9    2  0.3897980E-005  0.7766441E+03  0.7546771E-02  0.1016843E+00
          2   -1    0    0  502    0 -0.00000000000E+00  0.00000000000E+00  0.10669611877E+04  0.10669611877E+04  0.00000000000E+00 0. -1.
         21   -1    0    0  501  502  0.00000000000E+00 -0.00000000000E+00 -0.19187977201E+03  0.19187977201E+03  0.00000000000E+00 0. -1.
         24    2    1    2    0    0  0.75510211476E+02 -0.51428405719E+02  0.70021450570E+02  0.14022681673E+03  0.80086725728E+02 0.  0.
         23    2    1    2    0    0  0.33846497696E+03  0.56136160187E+02  0.45110285919E+03  0.57392776307E+03  0.90495737725E+02 0.  0.
        -11    1    3    3    0    0  0.47294975644E+02 -0.84337529317E-01 -0.20595552013E+01  0.47339873274E+02  0.00000000000E+00 0.  1.
         12    1    3    3    0    0  0.28215235833E+02 -0.51344068190E+02  0.72081005771E+02  0.92886943455E+02  0.00000000000E+00 0. -1.
        -13    1    4    4    0    0  0.10516964406E+03 -0.21134142281E+02  0.16448294611E+03  0.19637195717E+03  0.00000000000E+00 0.  1.
         13    1    4    4    0    0  0.23329533290E+03  0.77270302468E+02  0.28661991307E+03  0.37755580590E+03  0.00000000000E+00 0. -1.
          1    1    1    2  501    0 -0.41397518844E+03 -0.47077544674E+01  0.35395710589E+03  0.54468637986E+03  0.00000000000E+00 0. -1.
<scales pt_clust_5="13000.00000" pt_clust_6="13000.00000" pt_clust_7="13000.00000" pt_clust_8="13000.00000" pt_clust_9="13000.00000"></scales>
<clustering>
<clus scale="   80.087">  5  6 -1 -1</clus>
<clus scale="   90.496">  7  8 -1 -1</clus>
<clus scale="  121.493">  1  5  2 -1</clus>
<clus scale="  379.789">  7  9 -1 -1</clus>
<clus scale="  776.644">  2  5  1 -1</clus>
</clustering>
</event>
<event>
 9    2  0.3897980E-005  0.2958179E+03  0.7546771E-02  0.1128312E+00
         21   -1    0    0  501  502  0.00000000000E+00  0.00000000000E+00  0.59958390308E+02  0.59958390308E+02  0.00000000000E+00 0.  1.
          2   -1    0    0  502    0 -0.00000000000E+00 -0.00000000000E+00 -0.67407022010E+03  0.67407022010E+03  0.00000000000E+00 0. -1.
         24    2    1    2    0    0  0.23151306205E+02  0.63021222351E+02 -0.19736002226E+03  0.22296079394E+03  0.79075152882E+02 0.  0.
         23    2    1    2    0    0  0.51205912600E+02  0.32809469036E+02 -0.42063389130E+02  0.11723545583E+03  0.90974263693E+02 0.  0.
        -13    1    3    3    0    0  0.28218497993E+02  0.74950727614E+02 -0.19352900205E+03  0.20944538628E+03  0.00000000000E+00 0.  1.
         14    1    3    3    0    0 -0.50671917883E+01 -0.11929505263E+02 -0.38310202077E+01  0.13515407662E+02  0.00000000000E+00 0. -1.
        -13    1    4    4    0    0  0.26250916776E+02  0.14606563209E+02 -0.69630479652E+02  0.75834464572E+02  0.00000000000E+00 0. -1.
         13    1    4    4    0    0  0.24954995824E+02  0.18202905827E+02  0.27567090522E+02  0.41400991256E+02  0.00000000000E+00 0.  1.
          1    1    1    2  501    0 -0.74357218805E+02 -0.95830691387E+02 -0.37468841841E+03  0.39383236064E+03  0.00000000000E+00 0. -1.
<scales pt_clust_5="13000.00000" pt_clust_6="13000.00000" pt_clust_7="13000.00000" pt_clust_8="13000.00000" pt_clust_9="13000.00000"></scales>
<clustering>
<clus scale="   79.075">  5  6 -1 -1</clus>
<clus scale="   90.974">  7  8 -1 -1</clus>
<clus scale="  103.733">  2  5  1 -1</clus>
<clus scale="   70.345">  7  9 -1 -1</clus>
<clus scale="  295.818">  1  5  2 -1</clus>
</clustering>
</event>
<event>
 9    2  0.3897980E-005  0.4080112E+03  0.7546771E-02  0.1091861E+00
         21   -1    0    0  501  502  0.00000000000E+00  0.00000000000E+00  0.62422705944E+03  0.62422705944E+03  0.00000000000E+00 0.  1.
          2   -1    0    0  502    0 -0.00000000000E+00 -0.00000000000E+00 -0.11839942437E+03  0.11839942437E+03  0.00000000000E+00 0. -1.
         24    2    1    2    0    0  0.18925484948E+01  0.57014010399E+02  0.22804654841E+03  0.24903202148E+03  0.82204260001E+02 0.  0.
         23    2    1    2    0    0 -0.17014065482E+02  0.16241453449E+03  0.12122859192E+03  0.22361996317E+03  0.92959975212E+02 0.  0.
        -13    1    3    3    0    0 -0.22953048067E+02  0.33522165935E+02  0.20200880296E+03  0.20605371751E+03  0.00000000000E+00 0.  1.
         14    1    3    3    0    0  0.24845596562E+02  0.23491844463E+02  0.26037745445E+02  0.42978303976E+02  0.00000000000E+00 0. -1.
        -13    1    4    4    0    0 -0.39999907215E+02  0.55641630350E+02  0.12787743383E+02  0.69710185669E+02  0.00000000000E+00 0. -1.
         13    1    4    4    0    0  0.22985841733E+02  0.10677290414E+03  0.10844084854E+03  0.15390977750E+03  0.00000000000E+00 0.  1.
          1    1    1    2  501    0  0.15121516987E+02 -0.21942854489E+03  0.15655249474E+03  0.26997449916E+03  0.00000000000E+00 0. -1.
<scales pt_clust_5="13000.00000" pt_clust_6="13000.00000" pt_clust_7="13000.00000" pt_clust_8="13000.00000" pt_clust_9="13000.00000"></scales>
<clustering>
<clus scale="   82.204">  5  6 -1 -1</clus>
<clus scale="   92.960">  7  8 -1 -1</clus>
<clus scale="  100.059">  2  5  1 -1</clus>
<clus scale="  190.149">  7  9 -1 -1</clus>
<clus scale="  408.011">  1  5  2 -1</clus>
</clustering>
</event>
<event>
 9    2  0.3897980E-005  0.2996584E+03  0.7546771E-02  0.1117409E+00
          2   -1    0    0  502    0 -0.00000000000E+00  0.00000000000E+00  0.33082588777E+03  0.33082588777E+03  0.00000000000E+00 0. -1.
         21   -1    0    0  501  502  0.00000000000E+00 -0.00000000000E+00 -0.15199419884E+03  0.15199419884E+03  0.00000000000E+00 0. -1.
         24    2    1    2    0    0 -0.85668055201E+02 -0.59735970936E+02 -0.54938763448E+01  0.13100893856E+03  0.78903468870E+02 0.  0.
         23    2    1    2    0    0 -0.42444828393E+02  0.19686333127E+02 -0.26770887735E+02  0.10165400363E+03  0.86184342287E+02 0.  0.
        -13    1    3    3    0    0 -0.55588071910E+02 -0.53371726629E+02 -0.38293418237E+02  0.86052082033E+02  0.00000000000E+00 0.  1.
         14    1    3    3    0    0 -0.30079983291E+02 -0.63642443072E+01  0.32799541892E+02  0.44956856527E+02  0.00000000000E+00 0. -1.
        -11    1    4    4    0    0 -0.59343212999E+01 -0.31194375239E+02 -0.22434125381E+02  0.38879238643E+02  0.00000000000E+00 0.  1.
         11    1    4    4    0    0 -0.36510507094E+02  0.50880708366E+02 -0.43367623545E+01  0.62774764992E+02  0.00000000000E+00 0. -1.
          1    1    1    2  501    0  0.12811288359E+03  0.40049637810E+02  0.21109645300E+03  0.25015714442E+03  0.00000000000E+00 0. -1.
<scales pt_clust_5="13000.00000" pt_clust_6="13000.00000" pt_clust_7="13000.00000" pt_clust_8="13000.00000" pt_clust_9="13000.00000"></scales>
<clustering>
<clus scale="   78.903">  5  6 -1 -1</clus>
<clus scale="   86.184">  7  8 -1 -1</clus>
<clus scale="  130.894">  1  5  2 -1</clus>
<clus scale="   55.580">  7  9 -1 -1</clus>
<clus scale="  299.658">  2  5  1 -1</clus>
</clustering>
</event>
<event>
 9    2  0.3897980E-005  0.3275214E+03  0.7546771E-02  0.1084453E+00
          2   -1    0    0  502    0 -0.00000000000E+00  0.00000000000E+00  0.56899538221E+03  0.56899538221E+03  0.00000000000E+00 0. -1.
         21   -1    0    0  501  502  0.00000000000E+00 -0.00000000000E+00 -0.16372570718E+03  0.16372570718E+03  0.00000000000E+00 0. -1.
         24    2    1    2    0    0  0.10708512683E+03  0.19252992039E+03  0.31447277655E+03  0.39284709294E+03  0.83070552007E+02 0.  0.
         23    2    1    2    0    0 -0.46365410378E+02 -0.17352989562E+02  0.10934821144E+03  0.15354634881E+03  0.95752662427E+02 0.  0.
        -13    1    3    3    0    0  0.70206568307E+02  0.12383185489E+03  0.13083459506E+03  0.19334161937E+03  0.00000000000E+00 0.  1.
         14    1    3    3    0    0  0.36878558524E+02  0.68698065497E+02  0.18363818149E+03  0.19950547357E+03  0.00000000000E+00 0. -1.
        -13    1    4    4    0    0  0.21398096192E+02 -0.29004303760E+02  0.55657857830E+02  0.66309315300E+02  0.00000000000E+00 0.  1.
         13    1    4    4    0    0 -0.67763506570E+02  0.11651314198E+02  0.53690353612E+02  0.87237033513E+02  0.00000000000E+00 0. -1.
          1    1    1    2  501    0 -0.60719716453E+02 -0.17517693082E+03 -0.18551312963E+02  0.18632764763E+03  0.00000000000E+00 0. -1.
<scales pt_clust_5="13000.00000" pt_clust_6="13000.00000" pt_clust_7="13000.00000" pt_clust_8="13000.00000" pt_clust_9="13000.00000"></scales>
<clustering>
<clus scale="   83.071">  5  6 -1 -1</clus>
<clus scale="   95.753">  7  8 -1 -1</clus>
<clus scale="  185.402">  7  9 -1 -1</clus>
<clus scale="  235.448">  1  5  2 -1</clus>
<clus scale="  327.521">  2  5  1 -1</clus>
</clustering>
</event>
<event>
 9    2  0.3897980E-005  0.1519260E+03  0.7546771E-02  0.1216580E+00
         21   -1    0    0  501  502  0.00000000000E+00  0.00000000000E+00  0.61037817865E+02  0.61037817865E+02  0.00000000000E+00 0. -1.
          4   -1    0    0  502    0 -0.00000000000E+00 -0.00000000000E+00 -0.28094733542E+03  0.28094733542E+03  0.00000000000E+00 0. -1.
         24    2    1    2    0    0 -0.58130406483E+02  0.26967049383E+02 -0.13017002585E+03  0.16553489981E+03  0.79694425859E+02 0.  0.
         23    2    1    2    0    0  0.20756145727E+02 -0.41832262708E+02 -0.35016599339E+02  0.10853556521E+03  0.91504376380E+02 0.  0.
        -11    1    3    3    0    0 -0.71116265964E+02  0.12288756230E+02 -0.12643690544E+03  0.14558443554E+03  0.00000000000E+00 0.  1.
         12    1    3    3    0    0  0.12985859481E+02  0.14678293153E+02 -0.37331204096E+01  0.19950464263E+02  0.00000000000E+00 0. -1.
        -11    1    4    4    0    0  0.30182680826E+02  0.18516061244E+02 -0.31436315673E+02  0.47350614452E+02  0.00000000000E+00 0.  1.
         11    1    4    4    0    0 -0.94265350989E+01 -0.60348323952E+02 -0.35802836657E+01  0.61184950755E+02  0.00000000000E+00 0. -1.
          3    1    1    2  501    0  0.37374260757E+02  0.14865213325E+02 -0.54722892358E+02  0.67914688266E+02  0.00000000000E+00 0. -1.
<scales pt_clust_5="13000.00000" pt_clust_6="13000.00000" pt_clust_7="13000.00000" pt_clust_8="13000.00000" pt_clust_9="13000.00000"></scales>
<clustering>
<clus scale="   79.694">  5  6 -1 -1</clus>
<clus scale="   91.504">  7  8 -1 -1</clus>
<clus scale="   40.222">  7  9 -1 -1</clus>
<clus scale="  102.262">  2  5  1 -1</clus>
<clus scale="  151.926">  1  5  2 -1</clus>
</clustering>
</event>
<event>
 9    2  0.3897980E-005  0.3291516E+03  0.7546771E-02  0.1076098E+00
          2   -1    0    0  502    0 -0.00000000000E+00  0.00000000000E+00  0.20433077291E+04  0.20433077291E+04  0.00000000000E+00 0. -1.
         21   -1    0    0  501  502  0.00000000000E+00 -0.00000000000E+00 -0.51734068777E+02  0.51734068777E+02  0.00000000000E+00 0. -1.
         24    2    1    2    0    0 -0.42017889210E+02  0.27641893774E+03  0.62225994721E+03  0.68672335834E+03  0.78794649802E+02 0.  0.
         23    2    1    2    0    0  0.61490975446E+02 -0.10033815772E+03  0.53373784054E+03  0.55416934189E+03  0.91535190568E+02 0.  0.
        -13    1    3    3    0    0  0.18373147366E+02  0.28440512964E+02  0.53372572118E+02  0.63206540613E+02  0.00000000000E+00 0.  1.
         14    1    3    3    0    0 -0.60391036577E+02  0.24797842478E+03  0.56888737509E+03  0.62351681773E+03  0.00000000000E+00 0. -1.
        -11    1    4    4    0    0  0.12157915475E+02  0.17456721111E+02  0.83861775808E+02  0.86517914112E+02  0.00000000000E+00 0.  1.
         11    1    4    4    0    0  0.49333059971E+02 -0.11779487884E+03  0.44987606473E+03  0.46765142778E+03  0.00000000000E+00 0. -1.
          1    1    1    2  501    0 -0.19473086236E+02 -0.17608078002E+03  0.83557587259E+03  0.85414909766E+03  0.00000000000E+00 0. -1.
<scales pt_clust_5="13000.00000" pt_clust_6="13000.00000" pt_clust_7="13000.00000" pt_clust_8="13000.00000" pt_clust_9="13000.00000"></scales>
<clustering>
<clus scale="   78.795">  5  6 -1 -1</clus>
<clus scale="   91.535">  7  8 -1 -1</clus>
<clus scale="  177.154">  7  9 -1 -1</clus>
<clus scale="  290.485">  1  5  2 -1</clus>
<clus scale="  329.152">  2  5  1 -1</clus>
</clustering>
</event>
<event>
 9    2  0.3897980E-005  0.2289271E+03  0.7546771E-02  0.1160985E+00
         21   -1    0    0  501  502  0.00000000000E+00  0.00000000000E+00  0.28653422403E+03  0.28653422403E+03  0.00000000000E+00 0. -1.
          2   -1    0    0  502    0 -0.00000000000E+00 -0.00000000000E+00 -0.96018378739E+02  0.96018378739E+02  0.00000000000E+00 0. -1.
         24    2    1    2    0    0  0.29695340037E+02 -0.55440767597E+02  0.50417842628E+02  0.11415913095E+03  0.80838458619E+02 0.  0.
         23    2    1    2    0    0 -0.59280709551E+02  0.11294840116E+03  0.12935123608E+03  0.20283498649E+03  0.90214996643E+02 0.  0.
        -11    1    3    3    0    0 -0.24563303345E+02 -0.49123786993E+01  0.10251704823E+01  0.25070666330E+02  0.00000000000E+00 0.  1.
         12    1    3    3    0    0  0.54258643382E+02 -0.50528388897E+02  0.49392672146E+02  0.89088464618E+02  0.00000000000E+00 0. -1.
        -11    1    4    4    0    0  0.22890679791E+02  0.13221122713E+02  0.15688342984E+02  0.30739313796E+02  0.00000000000E+00 0.  1.
         11    1    4    4    0    0 -0.82171389342E+02  0.99727278448E+02  0.11366289309E+03  0.17209567269E+03  0.00000000000E+00 0. -1.
          1    1    1    2  501    0  0.29585369514E+02 -0.57507633565E+02  0.10746766589E+02  0.65558485337E+02  0.00000000000E+00 0. -1.
<scales pt_clust_5="13000.00000" pt_clust_6="13000.00000" pt_clust_7="13000.00000" pt_clust_8="13000.00000" pt_clust_9="13000.00000"></scales>
<clustering>
<clus scale="   80.838">  5  6 -1 -1</clus>
<clus scale="   90.215">  7  8 -1 -1</clus>
<clus scale="   64.672">  7  9 -1 -1</clus>
<clus scale="  102.422">  2  5  1 -1</clus>
<clus scale="  228.927">  1  5  2 -1</clus>
</clustering>
</event>
<event>
 9    2  0.3897980E-005  0.8522671E+03  0.7546771E-02  0.9867801E-01
         21   -1    0    0  501  502  0.00000000000E+00  0.00000000000E+00  0.35123633447E+03  0.35123633447E+03  0.00000000000E+00 0.  1.
          2   -1    0    0  502    0 -0.00000000000E+00 -0.00000000000E+00 -0.10035963386E+04  0.10035963386E+04  0.00000000000E+00 0. -1.
         24    2    1    2    0    0 -0.81103205050E+02  0.20632971797E+03  0.60236955985E+02  0.24390799666E+03  0.81932518476E+02 0.  0.
         23    2    1    2    0    0  0.30484664364E+01 -0.19348273096E+03 -0.89070783819E+03  0.91603734434E+03  0.91209116276E+02 0.  0.
        -13    1    3    3    0    0 -0.92439061190E+02  0.13196252936E+03  0.40110942307E+02  0.16603607102E+03  0.00000000000E+00 0.  1.
         14    1    3    3    0    0  0.11335856141E+02  0.74367188610E+02  0.20126013678E+02  0.77871925639E+02  0.00000000000E+00 0. -1.
        -11    1    4    4    0    0  0.20216291283E+02 -0.44292474747E+01 -0.49051077149E+02  0.53238377473E+02  0.00000000000E+00 0.  1.
         11    1    4    4    0    0 -0.17167824847E+02 -0.18905348348E+03 -0.84165676104E+03  0.86279896687E+03  0.00000000000E+00 0. -1.
          1    1    1    2  501    0  0.78054738613E+02 -0.12846987010E+02  0.17811087809E+03  0.19488733204E+03  0.00000000000E+00 0. -1.
<scales pt_clust_5="13000.00000" pt_clust_6="13000.00000" pt_clust_7="13000.00000" pt_clust_8="13000.00000" pt_clust_9="13000.00000"></scales>
<clustering>
<clus scale="   81.933">  5  6 -1 -1</clus>
<clus scale="   91.209">  7  8 -1 -1</clus>
<clus scale="   79.105">  7  9 -1 -1</clus>
<clus scale="  236.353">  2  5  1 -1</clus>
<clus scale="  852.267">  1  5  2 -1</clus>
</clustering>
</event>
<event>
 9    2  0.3897980E-005  0.2392542E+03  0.7546771E-02  0.1159409E+00
          4   -1    0    0  502    0 -0.00000000000E+00  0.00000000000E+00  0.10215391113E+04  0.10215391113E+04  0.00000000000E+00 0. -1.
         21   -1    0    0  501  502  0.00000000000E+00 -0.00000000000E+00 -0.11023115652E+03  0.11023115652E+03  0.00000000000E+00 0. -1.
         24    2    1    2    0    0  0.44606494241E+02  0.92209757624E+01  0.88634367470E+03  0.89121722399E+03  0.81168127497E+02 0.  0.
         23    2    1    2    0    0 -0.14528791160E+02  0.94049193961E+02  0.14349188907E+02  0.13246938951E+03  0.91026937096E+02 0.  0.
        -11    1    3    3    0    0 -0.60419238897E+01 -0.21951135338E+02  0.96993627047E+02  0.99629919576E+02  0.00000000000E+00 0.  1.
         12    1    3    3    0    0  0.50648418131E+02  0.31172111100E+02  0.78935004766E+03  0.79158730441E+03  0.00000000000E+00 0. -1.
        -13    1    4    4    0    0 -0.29041302874E+02 -0.67680120047E+01  0.40602279895E+01  0.30094662491E+02  0.00000000000E+00 0.  1.
         13    1    4    4    0    0  0.14512511714E+02  0.10081720597E+03  0.10288960917E+02  0.10237472702E+03  0.00000000000E+00 0. -1.
          3    1    1    2  501    0 -0.30077703081E+02 -0.10327016972E+03  0.10615091203E+02  0.10808365435E+03  0.00000000000E+00 0. -1.
<scales pt_clust_5="13000.00000" pt_clust_6="13000.00000" pt_clust_7="13000.00000" pt_clust_8="13000.00000" pt_clust_9="13000.00000"></scales>
<clustering>
<clus scale="   81.168">  5  6 -1 -1</clus>
<clus scale="   91.027">  7  8 -1 -1</clus>
<clus scale="   93.075">  1  5  2 -1</clus>
<clus scale="   99.665">  7  9 -1 -1</clus>
<clus scale="  239.254">  2  5  1 -1</clus>
</clustering>
</event>
<event>
 9    2  0.3897980E-005  0.2543818E+03  0.7546771E-02  0.1155415E+00
         -1   -1    0    0    0  501 -0.00000000000E+00  0.00000000000E+00  0.51382727130E+03  0.51382727130E+03  0.00000000000E+00 0.  1.
         21   -1    0    0  501  502  0.00000000000E+00 -0.00000000000E+00 -0.65834889373E+02  0.65834889373E+02  0.00000000000E+00 0.  1.
         24    2    1    2    0    0  0.19200280061E+02  0.23542577526E+02  0.22804546869E+03  0.24337841278E+03  0.79406626350E+02 0.  0.
         23    2    1    2    0    0  0.83486365681E+02 -0.37466581822E+02  0.54042078302E+02  0.14067485401E+03  0.92169139715E+02 0.  0.
        -11    1    3    3    0    0  0.44787041867E+02  0.31078688452E+02  0.18380843603E+03  0.19172194750E+03  0.00000000000E+00 0.  1.
         12    1    3    3    0    0 -0.25586761807E+02 -0.75361109263E+01  0.44237032656E+02  0.51656465286E+02  0.00000000000E+00 0. -1.
        -11    1    4    4    0    0  0.77613795944E+02 -0.10179073048E+02 -0.17414327166E+01  0.78297812465E+02  0.00000000000E+00 0.  1.
         11    1    4    4    0    0  0.58725697370E+01 -0.27287508775E+02  0.55783511018E+02  0.62377041546E+02  0.00000000000E+00 0. -1.
         -2    1    1    2    0  502 -0.10268664574E+03  0.13924004297E+02  0.16590483493E+03  0.19560889388E+03  0.00000000000E+00 0.  1.
<scales pt_clust_5="13000.00000" pt_clust_6="13000.00000" pt_clust_7="13000.00000" pt_clust_8="13000.00000" pt_clust_9="13000.00000"></scales>
<clustering>
<clus scale="   79.407">  5  6 -1 -1</clus>
<clus scale="   85.020">  1  5  2 -1</clus>
<clus scale="   92.169">  7  8 -1 -1</clus>
<clus scale="   94.824">  7  9 -1 -1</clus>
<clus scale="  254.382">  2  5  1 -1</clus>
</clustering>
</event>
<event>
 9    2  0.3897980E-005  0.3361028E+03  0.7546771E-02  0.1090909E+00
          2   -1    0    0  502    0 -0.00000000000E+00  0.00000000000E+00  0.51859260023E+03  0.51859260023E+03  0.00000000000E+00 0. -1.
         21   -1    0    0  501  502  0.00000000000E+00 -0.00000000000E+00 -0.20056903072E+03  0.20056903072E+03  0.00000000000E+00 0.  1.
         24    2    1    2    0    0  0.79155683687E+02  0.14577999447E+03 -0.78263533224E+02  0.19953811976E+03  0.78567496810E+02 0.  0.
         23    2    1    2    0    0 -0.24236553624E+02  0.48121146952E+02  0.24667496813E+03  0.26863037521E+03  0.91709777380E+02 0.  0.
        -13    1    3    3    0    0  0.92935287163E+02  0.13798689498E+03 -0.77907701724E+02  0.18370345879E+03  0.00000000000E+00 0.  1.
         14    1    3    3    0    0 -0.13779603476E+02  0.77930994959E+01 -0.35583149998E+00  0.15834660962E+02  0.00000000000E+00 0. -1.
        -13    1    4    4    0    0  0.23008976503E+02  0.50577068217E+02  0.16662604229E+03  0.17564649384E+03  0.00000000000E+00 0.  1.
         13    1    4    4    0    0 -0.47245530127E+02 -0.24559212655E+01  0.80048925845E+02  0.92983881372E+02  0.00000000000E+00 0. -1.
          1    1    1    2  501    0 -0.54919130063E+02 -0.19390114142E+03  0.14961213459E+03  0.25099313598E+03  0.00000000000E+00 0. -1.
<scales pt_clust_5="13000.00000" pt_clust_6="13000.00000" pt_clust_7="13000.00000" pt_clust_8="13000.00000" pt_clust_9="13000.00000"></scales>
<clustering>
<clus scale="   78.567">  5  6 -1 -1</clus>
<clus scale="   91.710">  7  8 -1 -1</clus>
<clus scale="  183.549">  1  5  2 -1</clus>
<clus scale="  131.713">  7  9 -1 -1</clus>
<clus scale="  336.103">  2  5  1 -1</clus>
</clustering>
</event>
<event>
 9    2  0.3897980E-005  0.4040857E+03  0.7546771E-02  0.1044729E+00
          2   -1    0    0  502    0 -0.00000000000E+00  0.00000000000E+00  0.20251879022E+04  0.20251879022E+04  0.00000000000E+00 0. -1.
         21   -1    0    0  501  502  0.00000000000E+00 -0.00000000000E+00 -0.88592680017E+02  0.88592680017E+02  0.00000000000E+00 0. -1.
         24    2    1    2    0    0  0.11406745639E+03 -0.35168340468E+03  0.13477517935E+04  0.13996224298E+04  0.76259080910E+02 0.  0.
         23    2    1    2    0    0 -0.64184533026E+02  0.12919908868E+03  0.19653625115E+03  0.26040436624E+03  0.91497962521E+02 0.  0.
        -13    1    3    3    0    0  0.35404294578E+02 -0.30232670134E+02  0.16967143668E+03  0.17594281697E+03  0.00000000000E+00 0.  1.
         14    1    3    3    0    0  0.78663161807E+02 -0.32145073455E+03  0.11780803568E+04  0.12236796128E+04  0.00000000000E+00 0. -1.
        -13    1    4    4    0    0 -0.38158688129E+02  0.75277923104E+02  0.41175381789E+02  0.93905608203E+02  0.00000000000E+00 0. -1.
         13    1    4    4    0    0 -0.26025844898E+02  0.53921165580E+02  0.15536086936E+03  0.16649875804E+03  0.00000000000E+00 0.  1.
          1    1    1    2  501    0 -0.49882923359E+02  0.22248431600E+03  0.39230717753E+03  0.45375378616E+03  0.00000000000E+00 0. -1.
<scales pt_clust_5="13000.00000" pt_clust_6="13000.00000" pt_clust_7="13000.00000" pt_clust_8="13000.00000" pt_clust_9="13000.00000"></scales>
<clustering>
<clus scale="   76.259">  5  6 -1 -1</clus>
<clus scale="   91.498">  7  8 -1 -1</clus>
<clus scale="  228.008">  7  9 -1 -1</clus>
<clus scale="  377.502">  1  5  2 -1</clus>
<clus scale="  404.086">  2  5  1 -1</clus>
</clustering>
</event>
<event>
 9    2  0.3897980E-005  0.1617476E+03  0.7546771E-02  0.1201348E+00
         21   -1    0    0  501  502  0.00000000000E+00  0.00000000000E+00  0.16622335528E+02  0.16622335528E+02  0.00000000000E+00 0. -1.
          2   -1    0    0  502    0 -0.00000000000E+00 -0.00000000000E+00 -0.16635707161E+04  0.16635707161E+04  0.00000000000E+00 0. -1.
         24    2    1    2    0    0 -0.30191277543E+02  0.83538599970E+02 -0.11839460143E+04  0.11897509262E+04  0.76739108373E+02 0.  0.
         23    2    1    2    0    0  0.32665846507E+01 -0.79719959149E+02 -0.29381994099E+03  0.31908806467E+03  0.95504412618E+02 0.  0.
        -13    1    3    3    0    0 -0.22160499528E+02  0.30714311280E+02 -0.16038434617E+03  0.16479561630E+03  0.00000000000E+00 0.  1.
         14    1    3    3    0    0 -0.80307780144E+01  0.52824288690E+02 -0.10235616681E+04  0.10249553099E+04  0.00000000000E+00 0. -1.
        -11    1    4    4    0    0  0.39866151924E+02 -0.37123169030E+01 -0.98740383814E+02  0.10654930672E+03  0.00000000000E+00 0.  1.
         11    1    4    4    0    0 -0.36599567274E+02 -0.76007642246E+02 -0.19507955718E+03  0.21253875796E+03  0.00000000000E+00 0. -1.
          1    1    1    2  501    0  0.26924692892E+02 -0.38186408210E+01 -0.16918242528E+03  0.17135406073E+03  0.00000000000E+00 0. -1.
<scales pt_clust_5="13000.00000" pt_clust_6="13000.00000" pt_clust_7="13000.00000" pt_clust_8="13000.00000" pt_clust_9="13000.00000"></scales>
<clustering>
<clus scale="   76.739">  5  6 -1 -1</clus>
<clus scale="   95.504">  7  8 -1 -1</clus>
<clus scale="   27.194">  7  9 -1 -1</clus>
<clus scale="  117.384">  2  5  1 -1</clus>
<clus scale="  161.748">  1  5  2 -1</clus>
</clustering>
</event>
<event>
 9    2  0.3897980E-005  0.1529940E+03  0.7546771E-02  0.1224056E+00
         21   -1    0    0  501  502  0.00000000000E+00  0.00000000000E+00  0.10075448941E+03  0.10075448941E+03  0.00000000000E+00 0. -1.
         -1   -1    0    0    0  501 -0.00000000000E+00 -0.00000000000E+00 -0.17829229386E+03  0.17829229386E+03  0.00000000000E+00 0.  1.
         24    2    1    2    0    0  0.22996617723E+02  0.72272746994E+01 -0.91648277913E+02  0.12540351390E+03  0.82131337058E+02 0.  0.
         23    2    1    2    0    0 -0.14934045039E+02  0.38758519942E+02  0.28077930894E+02  0.10491147016E+03  0.92156376869E+02 0.  0.
        -13    1    3    3    0    0  0.16611353238E+01  0.43260133754E+02 -0.52840973863E+02  0.68310812188E+02  0.00000000000E+00 0.  1.
         14    1    3    3    0    0  0.21335482399E+02 -0.36032859054E+02 -0.38807304050E+02  0.57092701709E+02  0.00000000000E+00 0. -1.
        -11    1    4    4    0    0  0.31168758087E+02  0.19445513810E+00 -0.11188417613E+02  0.33116611877E+02  0.00000000000E+00 0.  1.
         11    1    4    4    0    0 -0.46102803126E+02  0.38564064804E+02  0.39266348507E+02  0.71794858279E+02  0.00000000000E+00 0. -1.
         -2    1    1    2    0  502 -0.80625726844E+01 -0.45985794641E+02 -0.13967457432E+02  0.48731799209E+02  0.00000000000E+00 0.  1.
<scales pt_clust_5="13000.00000" pt_clust_6="13000.00000" pt_clust_7="13000.00000" pt_clust_8="13000.00000" pt_clust_9="13000.00000"></scales>
<clustering>
<clus scale="   82.131">  5  6 -1 -1</clus>
<clus scale="   85.596">  2  5  1 -1</clus>
<clus scale="   92.156">  7  8 -1 -1</clus>
<clus scale="   42.799">  7  9 -1 -1</clus>
<clus scale="  152.994">  1  5  2 -1</clus>
</clustering>
</event>
<event>
 9    2  0.3897980E-005  0.2411856E+03  0.7546771E-02  0.1146250E+00
         -3   -1    0    0    0  501 -0.00000000000E+00  0.00000000000E+00  0.48866414500E+02  0.48866414500E+02  0.00000000000E+00 0.  1.
         21   -1    0    0  501  502  0.00000000000E+00 -0.00000000000E+00 -0.73231589145E+03  0.73231589145E+03  0.00000000000E+00 0.  1.
         24    2    1    2    0    0  0.60948679169E+02 -0.71927458356E+02 -0.14209747495E+03  0.18853361150E+03  0.80404785427E+02 0.  0.
         23    2    1    2    0    0  0.56006980473E+02  0.26119535080E+02 -0.24301995995E+03  0.26895285037E+03  0.97251852518E+02 0.  0.
        -13    1    3    3    0    0  0.30748912324E+02 -0.85194785393E+02 -0.11023348805E+03  0.14267119175E+03  0.00000000000E+00 0.  1.
         14    1    3    3    0    0  0.30199766845E+02  0.13267327037E+02 -0.31863986904E+02  0.45862419753E+02  0.00000000000E+00 0. -1.
        -13    1    4    4    0    0 -0.52985269105E+01 -0.30859268359E+02 -0.58989316862E+02  0.66784042517E+02  0.00000000000E+00 0. -1.
         13    1    4    4    0    0  0.61305507383E+02  0.56978803439E+02 -0.18403064308E+03  0.20216880786E+03  0.00000000000E+00 0.  1.
         -4    1    1    2    0  502 -0.11695565964E+03  0.45807923277E+02 -0.29833204206E+03  0.32369584408E+03  0.00000000000E+00 0.  1.
<scales pt_clust_5="13000.00000" pt_clust_6="13000.00000" pt_clust_7="13000.00000" pt_clust_8="13000.00000" pt_clust_9="13000.00000"></scales>
<clustering>
<clus scale="   80.405">  5  6 -1 -1</clus>
<clus scale="   97.252">  7  8 -1 -1</clus>
<clus scale="  123.908">  1  5  2 -1</clus>
<clus scale="   87.422">  7  9 -1 -1</clus>
<clus scale="  241.186">  2  5  1 -1</clus>
</clustering>
</event>
<event>
 9    2  0.3897980E-005  0.2020894E+03  0.7546771E-02  0.1186812E+00
          2   -1    0    0  502    0 -0.00000000000E+00  0.00000000000E+00  0.85379948094E+03  0.85379948094E+03  0.00000000000E+00 0. -1.
         21   -1    0    0  501  502  0.00000000000E+00 -0.00000000000E+00 -0.23764996335E+02  0.23764996335E+02  0.00000000000E+00 0. -1.
         24    2    1    2    0    0  0.10034989528E+02 -0.14597084328E+02  0.23892555705E+03  0.25286463268E+03  0.80878456732E+02 0.  0.
         23    2    1    2    0    0 -0.46349583722E+02  0.75694360434E+02  0.43719438048E+03  0.45516720851E+03  0.90334607209E+02 0.  0.
        -13    1    3    3    0    0 -0.34043477985E+02  0.48650917109E+01  0.10874159001E+03  0.11404981767E+03  0.00000000000E+00 0.  1.
         14    1    3    3    0    0  0.44078467514E+02 -0.19462176039E+02  0.13018396703E+03  0.13881481501E+03  0.00000000000E+00 0. -1.
        -13    1    4    4    0    0  0.23019389714E+02 -0.11050088107E+01  0.87058520568E+02  0.90057200438E+02  0.00000000000E+00 0.  1.
         13    1    4    4    0    0 -0.69368973436E+02  0.76799369245E+02  0.35013585992E+03  0.36511000807E+03  0.00000000000E+00 0. -1.
          1    1    1    2  501    0  0.36314594194E+02 -0.61097276106E+02  0.15391454707E+03  0.16953263609E+03  0.00000000000E+00 0. -1.
<scales pt_clust_5="13000.00000" pt_clust_6="13000.00000" pt_clust_7="13000.00000" pt_clust_8="13000.00000" pt_clust_9="13000.00000"></scales>
<clustering>
<clus scale="   80.878">  5  6 -1 -1</clus>
<clus scale="   82.796">  1  5  2 -1</clus>
<clus scale="   90.335">  7  8 -1 -1</clus>
<clus scale="   75.778">  7  9 -1 -1</clus>
<clus scale="  202.089">  2  5  1 -1</clus>
</clustering>
</event>
<event>
 9    2  0.3897980E-005  0.1418206E+03  0.7546771E-02  0.1228303E+00
          4   -1    0    0  502    0 -0.00000000000E+00  0.00000000000E+00  0.10758763539E+03  0.10758763539E+03  0.00000000000E+00 0. -1.
         21   -1    0    0  501  502  0.00000000000E+00 -0.00000000000E+00 -0.13548212014E+03  0.13548212014E+03  0.00000000000E+00 0.  1.
         24    2    1    2    0    0  0.17694900990E+02  0.55920346320E+02 -0.23635618095E+02  0.10118522014E+03  0.78991212667E+02 0.  0.
         23    2    1    2    0    0  0.96986300031E+01 -0.27346151400E+02 -0.21315064238E+02  0.98782284508E+02  0.91987674983E+02 0.  0.
        -11    1    3    3    0    0  0.46539739470E+02  0.50981039007E+02 -0.14586219514E+02  0.70553323720E+02  0.00000000000E+00 0.  1.
         12    1    3    3    0    0 -0.28844838480E+02  0.49393073128E+01 -0.90493985801E+01  0.30631896421E+02  0.00000000000E+00 0. -1.
        -13    1    4    4    0    0  0.23650095347E+02 -0.11022104181E+02  0.32009291473E+02  0.41296592246E+02  0.00000000000E+00 0. -1.
         13    1    4    4    0    0 -0.13951465343E+02 -0.16324047219E+02 -0.53324355711E+02  0.57485692262E+02  0.00000000000E+00 0.  1.
          3    1    1    2  501    0 -0.27393530993E+02 -0.28574194920E+02  0.17056197583E+02  0.43102250888E+02  0.00000000000E+00 0. -1.
<scales pt_clust_5="13000.00000" pt_clust_6="13000.00000" pt_clust_7="13000.00000" pt_clust_8="13000.00000" pt_clust_9="13000.00000"></scales>
<clustering>
<clus scale="   78.991">  5  6 -1 -1</clus>
<clus scale="   91.988">  7  8 -1 -1</clus>
<clus scale="   39.584">  7  9 -1 -1</clus>
<clus scale="   98.386">  1  5  2 -1</clus>
<clus scale="  141.821">  2  5  1 -1</clus>
</clustering>
</event>
<event>
 9    2  0.3897980E-005  0.1961464E+03  0.7546771E-02  0.1169631E+00
          2   -1    0    0  502    0 -0.00000000000E+00  0.00000000000E+00  0.50599462877E+03  0.50599462877E+03  0.00000000000E+00 0. -1.
         21   -1    0    0  501  502  0.00000000000E+00 -0.00000000000E+00 -0.69012227719E+02  0.69012227719E+02  0.00000000000E+00 0. -1.
         24    2    1    2    0    0  0.76804466128E+02  0.73261899807E+02  0.31983827858E+03  0.34654205827E+03  0.80800010663E+02 0.  0.
         23    2    1    2    0    0 -0.54084271235E+02  0.42903618938E+01  0.31815733481E+02  0.11094248324E+03  0.91391892912E+02 0.  0.
        -13    1    3    3    0    0  0.44003687934E+02  0.79909480380E+01  0.50423597698E+02  0.67399695898E+02  0.00000000000E+00 0.  1.
         14    1    3    3    0    0  0.32800778194E+02  0.65270951769E+02  0.26941468088E+03  0.27914236237E+03  0.00000000000E+00 0. -1.
        -13    1    4    4    0    0 -0.19187336691E+02  0.34601328615E+02 -0.17577948421E+02  0.43294227120E+02  0.00000000000E+00 0. -1.
         13    1    4    4    0    0 -0.34896934544E+02 -0.30310966721E+02  0.49393681902E+02  0.67648256119E+02  0.00000000000E+00 0.  1.
          1    1    1    2  501    0 -0.22720194893E+02 -0.77552261701E+02  0.85328388992E+02  0.11752231498E+03  0.00000000000E+00 0. -1.
<scales pt_clust_5="13000.00000" pt_clust_6="13000.00000" pt_clust_7="13000.00000" pt_clust_8="13000.00000" pt_clust_9="13000.00000"></scales>
<clustering>
<clus scale="   80.800">  5  6 -1 -1</clus>
<clus scale="   91.392">  7  8 -1 -1</clus>
<clus scale="   80.812">  7  9 -1 -1</clus>
<clus scale="  133.397">  1  5  2 -1</clus>
<clus scale="  196.146">  2  5  1 -1</clus>
</clustering>
</event>
<event>
 9    2  0.3897980E-005  0.3978884E+03  0.7546771E-02  0.1077939E+00
         21   -1    0    0  501  502  0.00000000000E+00  0.00000000000E+00  0.12694624296E+03  0.12694624296E+03  0.00000000000E+00 0.  1.
          4   -1    0    0  502    0 -0.00000000000E+00 -0.00000000000E+00 -0.74854182572E+03  0.74854182572E+03  0.00000000000E+00 0. -1.
         24    2    1    2    0    0  0.13336425049E+03  0.20044224178E+02 -0.37764532260E+03  0.40876879497E+03  0.79297817318E+02 0.  0.
         23    2    1    2    0    0  0.30716504321E+02 -0.74724953356E+02  0.45513787840E+02  0.12952213355E+03  0.90427627993E+02 0.  0.
        -11    1    3    3    0    0  0.86003824078E+02 -0.24376189021E+02 -0.25109540704E+03  0.26653284936E+03  0.00000000000E+00 0.  1.
         12    1    3    3    0    0  0.47360426408E+02  0.44420413199E+02 -0.12654991555E+03  0.14223594562E+03  0.00000000000E+00 0. -1.
        -13    1    4    4    0    0  0.56781970752E+02 -0.75647476597E+02  0.40828727797E+02  0.10302290003E+03  0.00000000000E+00 0.  1.
         13    1    4    4    0    0 -0.26065466431E+02  0.92252324114E+00  0.46850600431E+01  0.26499233517E+02  0.00000000000E+00 0. -1.
          3    1    1    2  501    0 -0.16408075481E+03  0.54680729179E+02 -0.28946404800E+03  0.33719714015E+03  0.00000000000E+00 0. -1.
<scales pt_clust_5="13000.00000" pt_clust_6="13000.00000" pt_clust_7="13000.00000" pt_clust_8="13000.00000" pt_clust_9="13000.00000"></scales>
<clustering>
<clus scale="   79.298">  5  6 -1 -1</clus>
<clus scale="   90.428">  7  8 -1 -1</clus>
<clus scale="  156.448">  2  5  1 -1</clus>
<clus scale="   85.999">  7  9 -1 -1</clus>
<clus scale="  397.888">  1  5  2 -1</clus>
</clustering>
</event>
<event>
 9    2  0.3897980E-005  0.2751048E+03  0.7546771E-02  0.1117007E+00
          2   -1    0    0  502    0 -0.00000000000E+00  0.00000000000E+00  0.19794214414E+04  0.19794214414E+04  0.00000000000E+00 0. -1.
         21   -1    0    0  501  502  0.00000000000E+00 -0.00000000000E+00 -0.25473145102E+02  0.25473145102E+02  0.00000000000E+00 0. -1.
         24    2    1    2    0    0 -0.32566542205E+02 -0.14625412881E+03  0.86638800613E+03  0.88307908689E+03  0.82156233337E+02 0.  0.
         23    2    1    2    0    0 -0.23965367107E+02 -0.47366432801E+01  0.21954496958E+03  0.23895386447E+03  0.91116305163E+02 0.  0.
        -13    1    3    3    0    0 -0.24923850358E+02 -0.33834098688E+02  0.10028279048E+03  0.10873170015E+03  0.00000000000E+00 0.  1.
         14    1    3    3    0    0 -0.76426918471E+01 -0.11242003012E+03  0.76610521566E+03  0.77434738675E+03  0.00000000000E+00 0. -1.
        -13    1    4    4    0    0 -0.22661001037E+02 -0.32355795004E+02  0.20283746225E+03  0.20664814185E+03  0.00000000000E+00 0.  1.
         13    1    4    4    0    0 -0.13043660699E+01  0.27619151723E+02  0.16707507333E+02  0.32305722621E+02  0.00000000000E+00 0. -1.
          1    1    1    2  501    0  0.56531909312E+02  0.15099077209E+03  0.86801532060E+03  0.88286163515E+03  0.00000000000E+00 0. -1.
<scales pt_clust_5="13000.00000" pt_clust_6="13000.00000" pt_clust_7="13000.00000" pt_clust_8="13000.00000" pt_clust_9="13000.00000"></scales>
<clustering>
<clus scale="   82.156">  5  6 -1 -1</clus>
<clus scale="   91.116">  7  8 -1 -1</clus>
<clus scale="  161.227">  7  9 -1 -1</clus>
<clus scale="  170.882">  1  5  2 -1</clus>
<clus scale="  275.105">  2  5  1 -1</clus>
</clustering>
</event>
<event>
 9    2  0.3897980E-005  0.2852339E+03  0.7546771E-02  0.1107687E+00
          2   -1    0    0  502    0 -0.00000000000E+00  0.00000000000E+00  0.41291116032E+03  0.41291116032E+03  0.00000000000E+00 0. -1.
         21   -1    0    0  501  502  0.00000000000E+00 -0.00000000000E+00 -0.14781791440E+03  0.14781791440E+03  0.00000000000E+00 0. -1.
         24    2    1    2    0    0 -0.12920087804E+03 -0.12192088037E+03  0.17551071798E+03  0.26175846129E+03  0.78459620031E+02 0.  0.
         23    2    1    2    0    0  0.14316155457E+03  0.96808030022E+02 -0.99504247184E+01  0.19537348796E+03  0.90580149397E+02 0.  0.
        -11    1    3    3    0    0 -0.83896202380E+02 -0.29950297934E+02  0.10303140308E+03  0.13620228758E+03  0.00000000000E+00 0.  1.
         12    1    3    3    0    0 -0.45304675662E+02 -0.91970582433E+02  0.72479314904E+02  0.12555617372E+03  0.00000000000E+00 0. -1.
        -11    1    4    4    0    0 -0.57851609786E+01  0.25516032064E+02  0.12013468377E+02  0.28789918414E+02  0.00000000000E+00 0.  1.
         11    1    4    4    0    0  0.14894671554E+03  0.71291997958E+02 -0.21963893095E+02  0.16658356955E+03  0.00000000000E+00 0. -1.
          1    1    1    2  501    0 -0.13960676523E+02  0.25112850346E+02  0.99532952646E+02  0.10359712546E+03  0.00000000000E+00 0. -1.
<scales pt_clust_5="13000.00000" pt_clust_6="13000.00000" pt_clust_7="13000.00000" pt_clust_8="13000.00000" pt_clust_9="13000.00000"></scales>
<clustering>
<clus scale="   78.460">  5  6 -1 -1</clus>
<clus scale="   90.580">  7  8 -1 -1</clus>
<clus scale="   28.733">  7  9 -1 -1</clus>
<clus scale="  194.200">  1  5  2 -1</clus>
<clus scale="  285.234">  2  5  1 -1</clus>
</clustering>
</event>
<event>
 9    2  0.3897980E-005  0.2299083E+03  0.7546771E-02  0.1160158E+00
          2   -1    0    0  502    0 -0.00000000000E+00  0.00000000000E+00  0.30030445168E+02  0.30030445168E+02  0.00000000000E+00 0. -1.
         21   -1    0    0  501  502  0.00000000000E+00 -0.00000000000E+00 -0.94670376325E+03  0.94670376325E+03  0.00000000000E+00 0. -1.
         24    2    1    2    0    0  0.69365997719E+02 -0.51107735549E+01 -0.21663804286E+03  0.23991183336E+03  0.76078147507E+02 0.  0.
         23    2    1    2    0    0  0.45536859463E+02 -0.21560949665E+02 -0.23671149126E+03  0.25871885468E+03  0.91458381535E+02 0.  0.
        -11    1    3    3    0    0  0.32546325200E+02  0.34340072102E+02 -0.79152632156E+02  0.92215199470E+02  0.00000000000E+00 0.  1.
         12    1    3    3    0    0  0.36819672519E+02 -0.39450845657E+02 -0.13748541070E+03  0.14769663389E+03  0.00000000000E+00 0. -1.
        -13    1    4    4    0    0 -0.87452820169E+01 -0.43032430406E+02 -0.76544338436E+02  0.88245712478E+02  0.00000000000E+00 0.  1.
         13    1    4    4    0    0  0.54282141480E+02  0.21471480741E+02 -0.16016715283E+03  0.17047314220E+03  0.00000000000E+00 0. -1.
          1    1    1    2  501    0 -0.11490285718E+03  0.26671723219E+02 -0.46332378397E+03  0.47810352038E+03  0.00000000000E+00 0. -1.
<scales pt_clust_5="13000.00000" pt_clust_6="13000.00000" pt_clust_7="13000.00000" pt_clust_8="13000.00000" pt_clust_9="13000.00000"></scales>
<clustering>
<clus scale="   76.078">  5  6 -1 -1</clus>
<clus scale="   91.458">  7  8 -1 -1</clus>
<clus scale="  103.081">  1  5  2 -1</clus>
<clus scale="   90.449">  7  9 -1 -1</clus>
<clus scale="  229.908">  2  5  1 -1</clus>
</clustering>
</event>
<event>
 9    2  0.3897980E-005  0.1744579E+03  0.7546771E-02  0.1201405E+00
          2   -1    0    0  502    0 -0.00000000000E+00  0.00000000000E+00  0.61075931348E+03  0.61075931348E+03  0.00000000000E+00 0. -1.
         21   -1    0    0  501  502  0.00000000000E+00 -0.00000000000E+00 -0.29668940243E+02  0.29668940243E+02  0.00000000000E+00 0. -1.
         24    2    1    2    0    0 -0.44723851891E+02  0.10588150212E+02  0.23387214507E+03  0.25184613011E+03  0.81350852223E+02 0.  0.
         23    2    1    2    0    0  0.71562900079E+02 -0.14524211102E+02  0.34067831912E+03  0.36067876372E+03  0.93248335684E+02 0.  0.
        -13    1    3    3    0    0 -0.42481275968E+02  0.10180252747E+02  0.44145275872E+02  0.62105569280E+02  0.00000000000E+00 0.  1.
         14    1    3    3    0    0 -0.22425759235E+01  0.40789746551E+00  0.18972686920E+03  0.18974056083E+03  0.00000000000E+00 0. -1.
        -13    1    4    4    0    0  0.68020176529E+02  0.26579760650E+02  0.16883530761E+03  0.18395268192E+03  0.00000000000E+00 0. -1.
         13    1    4    4    0    0  0.35427235499E+01 -0.41103971752E+02  0.17184301151E+03  0.17672608180E+03  0.00000000000E+00 0.  1.
          1    1    1    2  501    0 -0.26839048188E+02  0.39360608898E+01  0.65399090501E+01  0.27903359893E+02  0.00000000000E+00 0. -1.
<scales pt_clust_5="13000.00000" pt_clust_6="13000.00000" pt_clust_7="13000.00000" pt_clust_8="13000.00000" pt_clust_9="13000.00000"></scales>
<clustering>
<clus scale="   81.351">  5  6 -1 -1</clus>
<clus scale="   93.248">  7  8 -1 -1</clus>
<clus scale="   27.126">  7  9 -1 -1</clus>
<clus scale="   93.436">  1  5  2 -1</clus>
<clus scale="  174.458">  2  5  1 -1</clus>
</clustering>
</event>
<event>
 9    2  0.3897980E-005  0.2118868E+03  0.7546771E-02  0.1151988E+00
         21   -1    0    0  501  502  0.00000000000E+00  0.00000000000E+00  0.24583413185E+03  0.24583413185E+03  0.00000000000E+00 0. -1.
          2   -1    0    0  502    0 -0.00000000000E+00 -0.00000000000E+00 -0.21410168217E+03  0.21410168217E+03  0.00000000000E+00 0. -1.
         24    2    1    2    0    0  0.95466357094E+02 -0.99328101232E+02 -0.11978099150E+03  0.19945101201E+03  0.80332578908E+02 0.  0.
         23    2    1    2    0    0 -0.23383803393E+02  0.10281723476E+03  0.10101434948E+03  0.17240400464E+03  0.91657274627E+02 0.  0.
        -13    1    3    3    0    0  0.31330354999E+02 -0.88627962830E+02 -0.78127487325E+02  0.12223097486E+03  0.00000000000E+00 0.  1.
         14    1    3    3    0    0  0.64136002095E+02 -0.10700138403E+02 -0.41653504179E+02  0.77220037147E+02  0.00000000000E+00 0. -1.
        -13    1    4    4    0    0  0.11281371468E+02  0.91160450872E+02  0.10004594700E+03  0.13581858730E+03  0.00000000000E+00 0. -1.
         13    1    4    4    0    0 -0.34665174861E+02  0.11656783886E+02  0.96840247826E+00  0.36585417342E+02  0.00000000000E+00 0.  1.
          1    1    1    2  501    0 -0.72082553702E+02 -0.34891335264E+01  0.50499091705E+02  0.88080797362E+02  0.00000000000E+00 0. -1.
<scales pt_clust_5="13000.00000" pt_clust_6="13000.00000" pt_clust_7="13000.00000" pt_clust_8="13000.00000" pt_clust_9="13000.00000"></scales>
<clustering>
<clus scale="   80.333">  5  6 -1 -1</clus>
<clus scale="   91.657">  7  8 -1 -1</clus>
<clus scale="   72.167">  7  9 -1 -1</clus>
<clus scale="  159.478">  2  5  1 -1</clus>
<clus scale="  211.887">  1  5  2 -1</clus>
</clustering>
</event>
<event>
 9    2  0.3897980E-005  0.4241567E+03  0.7546771E-02  0.1076241E+00
         21   -1    0    0  501  502  0.00000000000E+00  0.00000000000E+00  0.15168030960E+03  0.15168030960E+03  0.00000000000E+00 0.  1.
         -3   -1    0    0    0  501 -0.00000000000E+00 -0.00000000000E+00 -0.81940547806E+03  0.81940547806E+03  0.00000000000E+00 0.  1.
         24    2    1    2    0    0 -0.96851094595E+02  0.50196580625E+02 -0.49495143022E+03  0.51309056016E+03  0.79907280117E+02 0.  0.
         23    2    1    2    0    0 -0.40475832491E+02  0.13760075397E+03 -0.14202311303E+03  0.22332071945E+03  0.95547467739E+02 0.  0.
        -11    1    3    3    0    0 -0.91143890912E+02  0.67987354799E+02 -0.45489193479E+03  0.46888821866E+03  0.00000000000E+00 0.  1.
         12    1    3    3    0    0 -0.57072036826E+01 -0.17790774174E+02 -0.40059495426E+02  0.44202341492E+02  0.00000000000E+00 0. -1.
        -13    1    4    4    0    0 -0.66172416539E+02  0.80217469457E+02 -0.11453792616E+03  0.15470154377E+03  0.00000000000E+00 0. -1.
         13    1    4    4    0    0  0.25696584048E+02  0.57383284511E+02 -0.27485186872E+02  0.68619175675E+02  0.00000000000E+00 0.  1.
         -4    1    1    2    0  502  0.13732692709E+03 -0.18779733459E+03 -0.30750625207E+02  0.23467450806E+03  0.00000000000E+00 0.  1.
<scales pt_clust_5="13000.00000" pt_clust_6="13000.00000" pt_clust_7="13000.00000" pt_clust_8="13000.00000" pt_clust_9="13000.00000"></scales>
<clustering>
<clus scale="   79.907">  5  6 -1 -1</clus>
<clus scale="   95.547">  7  8 -1 -1</clus>
<clus scale="  135.222">  2  5  1 -1</clus>
<clus scale="  192.631">  7  9 -1 -1</clus>
<clus scale="  424.157">  1  5  2 -1</clus>
</clustering>
</event>
<event>
 9    2  0.3897980E-005  0.1942195E+03  0.7546771E-02  0.1188688E+00
          2   -1    0    0  502    0 -0.00000000000E+00  0.00000000000E+00  0.56386287706E+03  0.56386287706E+03  0.00000000000E+00 0. -1.
         21   -1    0    0  501  502  0.00000000000E+00 -0.00000000000E+00 -0.16454732259E+03  0.16454732259E+03  0.00000000000E+00 0. -1.
         24    2    1    2    0    0  0.33412329229E+02  0.11188034070E+02  0.50117658715E+03  0.50910021584E+03  0.82240515605E+02 0.  0.
         23    2    1    2    0    0  0.24352585409E+02  0.25728376191E+01  0.99461467790E+01  0.92712225814E+02  0.88864858465E+02 0.  0.
        -11    1    3    3    0    0  0.34361929442E+02 -0.28614058626E+02  0.18025906001E+03  0.18572246838E+03  0.00000000000E+00 0.  1.
         12    1    3    3    0    0 -0.94960021290E+00  0.39802092696E+02  0.32091752714E+03  0.32337774746E+03  0.00000000000E+00 0. -1.
        -11    1    4    4    0    0 -0.33878488646E+02  0.11146033696E+01  0.48195215041E+01  0.34237729497E+02  0.00000000000E+00 0.  1.
         11    1    4    4    0    0  0.58231074055E+02  0.14582342495E+01  0.51266252749E+01  0.58474496316E+02  0.00000000000E+00 0. -1.
          1    1    1    2  501    0 -0.57764914639E+02 -0.13760871689E+02 -0.11180717946E+03  0.12659775800E+03  0.00000000000E+00 0. -1.
<scales pt_clust_5="13000.00000" pt_clust_6="13000.00000" pt_clust_7="13000.00000" pt_clust_8="13000.00000" pt_clust_9="13000.00000"></scales>
<clustering>
<clus scale="   82.241">  5  6 -1 -1</clus>
<clus scale="   88.865">  7  8 -1 -1</clus>
<clus scale="   59.381">  7  9 -1 -1</clus>
<clus scale="   89.471">  1  5  2 -1</clus>
<clus scale="  194.219">  2  5  1 -1</clus>
</clustering>
</event>
<event>
 9    2  0.3897980E-005  0.1511142E+03  0.7546771E-02  0.1210668E+00
          2   -1    0    0  502    0 -0.00000000000E+00  0.00000000000E+00  0.92332921675E+03  0.92332921675E+03  0.00000000000E+00 0. -1.
         21   -1    0    0  501  502  0.00000000000E+00 -0.00000000000E+00 -0.19802633697E+02  0.19802633697E+02  0.00000000000E+00 0. -1.
         24    2    1    2    0    0  0.73176601906E+01  0.84476685949E+02  0.34699997974E+03  0.36645397991E+03  0.81790432376E+02 0.  0.
         23    2    1    2    0    0  0.97231580399E+01 -0.35722813527E+02  0.37809043331E+03  0.39091782013E+03  0.92161310376E+02 0.  0.
        -13    1    3    3    0    0  0.25083599914E+02  0.28802722418E+01  0.33068251206E+02  0.41605194275E+02  0.00000000000E+00 0.  1.
         14    1    3    3    0    0 -0.17765939724E+02  0.81596413707E+02  0.31393172854E+03  0.32484878563E+03  0.00000000000E+00 0. -1.
        -11    1    4    4    0    0 -0.29368588157E+02  0.16799450158E+02  0.12591698447E+03  0.13038336732E+03  0.00000000000E+00 0.  1.
         11    1    4    4    0    0  0.39091746197E+02 -0.52522263685E+02  0.25217344883E+03  0.26053445281E+03  0.00000000000E+00 0. -1.
          1    1    1    2  501    0 -0.17040818230E+02 -0.48753872422E+02  0.17843617001E+03  0.18576005041E+03  0.00000000000E+00 0. -1.
<scales pt_clust_5="13000.00000" pt_clust_6="13000.00000" pt_clust_7="13000.00000" pt_clust_8="13000.00000" pt_clust_9="13000.00000"></scales>
<clustering>
<clus scale="   81.790">  5  6 -1 -1</clus>
<clus scale="   92.161">  7  8 -1 -1</clus>
<clus scale="   51.646">  7  9 -1 -1</clus>
<clus scale="  117.811">  1  5  2 -1</clus>
<clus scale="  151.114">  2  5  1 -1</clus>
</clustering>
</event>
<event>
 9    2  0.3897980E-005  0.2492115E+03  0.7546771E-02  0.1149936E+00
         21   -1    0    0  501  502  0.00000000000E+00  0.00000000000E+00  0.94881881439E+02  0.94881881439E+02  0.00000000000E+00 0. -1.
          2   -1    0    0  502    0 -0.00000000000E+00 -0.00000000000E+00 -0.32670520174E+03  0.32670520174E+03  0.00000000000E+00 0. -1.
         24    2    1    2    0    0  0.34924521058E+01 -0.58258297992E+02 -0.69868645456E+02  0.12437390835E+03  0.84740869447E+02 0.  0.
         23    2    1    2    0    0  0.81431553237E+02 -0.23651730688E+02 -0.11767788545E+03  0.17119026595E+03  0.90925905033E+02 0.  0.
        -11    1    3    3    0    0 -0.32336706726E+02 -0.72912663441E+01 -0.48026158000E+02  0.58355265564E+02  0.00000000000E+00 0.  1.
         12    1    3    3    0    0  0.35829158832E+02 -0.50967031648E+02 -0.21842487457E+02  0.66018642790E+02  0.00000000000E+00 0. -1.
        -11    1    4    4    0    0  0.76371099146E+02  0.20492063761E+02 -0.84576784704E+02  0.11578299518E+03  0.00000000000E+00 0. -1.
         11    1    4    4    0    0  0.50604540909E+01 -0.44143794449E+02 -0.33101100744E+02  0.55407270772E+02  0.00000000000E+00 0.  1.
          1    1    1    2  501    0 -0.84924005342E+02  0.81910028680E+02 -0.44276789396E+02  0.12602290887E+03  0.00000000000E+00 0. -1.
<scales pt_clust_5="13000.00000" pt_clust_6="13000.00000" pt_clust_7="13000.00000" pt_clust_8="13000.00000" pt_clust_9="13000.00000"></scales>
<clustering>
<clus scale="   84.741">  5  6 -1 -1</clus>
<clus scale="   90.926">  7  8 -1 -1</clus>
<clus scale="  102.894">  2  5  1 -1</clus>
<clus scale="  103.103">  7  9 -1 -1</clus>
<clus scale="  249.211">  1  5  2 -1</clus>
</clustering>
</event>
<event>
 9    2  0.3897980E-005  0.1827899E+03  0.7546771E-02  0.1201592E+00
         21   -1    0    0  501  502  0.00000000000E+00  0.00000000000E+00  0.26728074945E+02  0.26728074945E+02  0.00000000000E+00 0. -1.
          2   -1    0    0  502    0 -0.00000000000E+00 -0.00000000000E+00 -0.73362965513E+03  0.73362965513E+03  0.00000000000E+00 0. -1.
         24    2    1    2    0    0 -0.12657408512E+01  0.56482077981E+01 -0.35166619101E+03  0.36085263445E+03  0.80697023125E+02 0.  0.
         23    2    1    2    0    0 -0.28257333928E+02  0.57940648205E+02 -0.23765492447E+03  0.26260980632E+03  0.91260350738E+02 0.  0.
        -13    1    3    3    0    0  0.34480438900E+02  0.22201209143E+02 -0.15926363943E+03  0.16445881307E+03  0.00000000000E+00 0.  1.
         14    1    3    3    0    0 -0.35746179752E+02 -0.16553001345E+02 -0.19240255158E+03  0.19639382138E+03  0.00000000000E+00 0. -1.
        -13    1    4    4    0    0 -0.50438637731E+02  0.23929031246E+02 -0.19850101285E+03  0.20620210187E+03  0.00000000000E+00 0.  1.
         13    1    4    4    0    0  0.22181303803E+02  0.34011616959E+02 -0.39153911618E+02  0.56407704453E+02  0.00000000000E+00 0. -1.
          1    1    1    2  501    0  0.29523074779E+02 -0.63588856003E+02 -0.11758046471E+03  0.13689528930E+03  0.00000000000E+00 0. -1.
<scales pt_clust_5="13000.00000" pt_clust_6="13000.00000" pt_clust_7="13000.00000" pt_clust_8="13000.00000" pt_clust_9="13000.00000"></scales>
<clustering>
<clus scale="   80.697">  5  6 -1 -1</clus>
<clus scale="   80.904">  2  5  1 -1</clus>
<clus scale="   91.260">  7  8 -1 -1</clus>
<clus scale="   68.202">  7  9 -1 -1</clus>
<clus scale="  182.790">  1  5  2 -1</clus>
</clustering>
</event>
<event>
 9    2  0.3897980E-005  0.2292207E+03  0.7546771E-02  0.1153400E+00
         21   -1    0    0  501  502  0.00000000000E+00  0.00000000000E+00  0.67103172012E+02  0.67103172012E+02  0.00000000000E+00 0.  1.
          2   -1    0    0  502    0 -0.00000000000E+00 -0.00000000000E+00 -0.47122724044E+03  0.47122724044E+03  0.00000000000E+00 0. -1.
         24    2    1    2    0    0  0.50125587625E+02 -0.76094043197E+02 -0.10077726740E+03  0.15811806236E+03  0.80885017620E+02 0.  0.
         23    2    1    2    0    0  0.44722696854E+02 -0.90748137847E+01 -0.12654978945E+03  0.16225108158E+03  0.90708833111E+02 0.  0.
        -11    1    3    3    0    0  0.66025239236E+02 -0.81546964989E+02 -0.89090854072E+02  0.13764599520E+03  0.00000000000E+00 0.  1.
         12    1    3    3    0    0 -0.15899651610E+02  0.54529217922E+01 -0.11686413326E+02  0.20472067161E+02  0.00000000000E+00 0. -1.
        -11    1    4    4    0    0 -0.10275051666E+02 -0.34897836656E+02 -0.71682099676E+02  0.80385067668E+02  0.00000000000E+00 0.  1.
         11    1    4    4    0    0  0.54997748519E+02  0.25823022871E+02 -0.54867689771E+02  0.81866013908E+02  0.00000000000E+00 0. -1.
          1    1    1    2  501    0 -0.94848284479E+02  0.85168856981E+02 -0.17679701158E+03  0.21796126851E+03  0.00000000000E+00 0. -1.
<scales pt_clust_5="13000.00000" pt_clust_6="13000.00000" pt_clust_7="13000.00000" pt_clust_8="13000.00000" pt_clust_9="13000.00000"></scales>
<clustering>
<clus scale="   80.885">  5  6 -1 -1</clus>
<clus scale="   90.709">  7  8 -1 -1</clus>
<clus scale="  121.841">  2  5  1 -1</clus>
<clus scale="   77.732">  7  9 -1 -1</clus>
<clus scale="  229.221">  1  5  2 -1</clus>
</clustering>
</event>
<event>
 9    2  0.3897980E-005  0.2854685E+03  0.7546771E-02  0.1137089E+00
         21   -1    0    0  501  502  0.00000000000E+00  0.00000000000E+00  0.34410941353E+02  0.34410941353E+02  0.00000000000E+00 0. -1.
          2   -1    0    0  502    0 -0.00000000000E+00 -0.00000000000E+00 -0.11789232042E+04  0.11789232042E+04  0.00000000000E+00 0. -1.
         24    2    1    2    0    0  0.16616230189E+01  0.47105543229E+02 -0.13342797554E+03  0.16272304189E+03  0.80337229923E+02 0.  0.
         23    2    1    2    0    0  0.62229216627E+02  0.80642011343E+02 -0.58392801106E+03  0.60020688363E+03  0.94343901001E+02 0.  0.
        -13    1    3    3    0    0 -0.38503188926E+02  0.26418583542E+02 -0.54400082038E+02  0.71692440603E+02  0.00000000000E+00 0.  1.
         14    1    3    3    0    0  0.40164811945E+02  0.20686959686E+02 -0.79027893498E+02  0.91030601285E+02  0.00000000000E+00 0. -1.
        -13    1    4    4    0    0  0.16246349016E+02  0.90373488781E+02 -0.39050462008E+03  0.40115479511E+03  0.00000000000E+00 0. -1.
         13    1    4    4    0    0  0.45982867611E+02 -0.97314774386E+01 -0.19342339098E+03  0.19905208852E+03  0.00000000000E+00 0.  1.
          1    1    1    2  501    0 -0.63890839646E+02 -0.12774755457E+03 -0.42715627629E+03  0.45040422008E+03  0.00000000000E+00 0. -1.
<scales pt_clust_5="13000.00000" pt_clust_6="13000.00000" pt_clust_7="13000.00000" pt_clust_8="13000.00000" pt_clust_9="13000.00000"></scales>
<clustering>
<clus scale="   80.337">  5  6 -1 -1</clus>
<clus scale="   93.144">  2  5  1 -1</clus>
<clus scale="   94.344">  7  8 -1 -1</clus>
<clus scale="  124.863">  7  9 -1 -1</clus>
<clus scale="  285.468">  1  5  2 -1</clus>
</clustering>
</event>
<event>
 9    2  0.3897980E-005  0.5849174E+03  0.7546771E-02  0.1018416E+00
         21   -1    0    0  501  502  0.00000000000E+00  0.00000000000E+00  0.21115647982E+03  0.21115647982E+03  0.00000000000E+00 0. -1.
          2   -1    0    0  502    0 -0.00000000000E+00 -0.00000000000E+00 -0.91964427962E+03  0.91964427962E+03  0.00000000000E+00 0. -1.
         24    2    1    2    0    0 -0.20846837135E+03 -0.15341783068E+03 -0.35742806783E+03  0.44861949786E+03  0.80675507781E+02 0.  0.
         23    2    1    2    0    0  0.34917719595E+03 -0.17464640502E+02 -0.20110301416E+03  0.41481108843E+03  0.96933425310E+02 0.  0.
        -13    1    3    3    0    0 -0.27117641605E+02 -0.62760201505E+02 -0.89650662745E+02  0.11274506956E+03  0.00000000000E+00 0.  1.
         14    1    3    3    0    0 -0.18135072975E+03 -0.90657629177E+02 -0.26777740509E+03  0.33587442830E+03  0.00000000000E+00 0. -1.
        -13    1    4    4    0    0  0.25095338257E+03 -0.31189091392E+01 -0.91989617758E+02  0.26730023867E+03  0.00000000000E+00 0. -1.
         13    1    4    4    0    0  0.98223813380E+02 -0.14345731363E+02 -0.10911339640E+03  0.14751084976E+03  0.00000000000E+00 0.  1.
          1    1    1    2  501    0 -0.14070882460E+03  0.17088247118E+03 -0.14995671781E+03  0.26737017315E+03  0.00000000000E+00 0. -1.
<scales pt_clust_5="13000.00000" pt_clust_6="13000.00000" pt_clust_7="13000.00000" pt_clust_8="13000.00000" pt_clust_9="13000.00000"></scales>
<clustering>
<clus scale="   80.676">  5  6 -1 -1</clus>
<clus scale="   96.933">  7  8 -1 -1</clus>
<clus scale="  221.359">  7  9 -1 -1</clus>
<clus scale="  271.117">  2  5  1 -1</clus>
<clus scale="  584.917">  1  5  2 -1</clus>
</clustering>
</event>
<event>
 9    2  0.3897980E-005  0.3911883E+03  0.7546771E-02  0.1091205E+00
          2   -1    0    0  502    0 -0.00000000000E+00  0.00000000000E+00  0.13336201565E+03  0.13336201565E+03  0.00000000000E+00 0. -1.
         21   -1    0    0  501  502  0.00000000000E+00 -0.00000000000E+00 -0.67577779347E+03  0.67577779347E+03  0.00000000000E+00 0. -1.
         24    2    1    2    0    0  0.58518906020E+02  0.60310480969E+02 -0.35892658460E+03  0.37705586163E+03  0.79252843336E+02 0.  0.
         23    2    1    2    0    0 -0.12828682918E+03 -0.14621311054E+03  0.31780265587E+01  0.21507824294E+03  0.91721134436E+02 0.  0.
        -13    1    3    3    0    0  0.38469910462E+02  0.54104032427E+02 -0.11942470709E+03  0.13663616285E+03  0.00000000000E+00 0.  1.
         14    1    3    3    0    0  0.20048995558E+02  0.62064485418E+01 -0.23950187752E+03  0.24041969878E+03  0.00000000000E+00 0. -1.
        -11    1    4    4    0    0 -0.55202815350E+02 -0.12539452584E+03  0.16259227344E+02  0.13796920093E+03  0.00000000000E+00 0.  1.
         11    1    4    4    0    0 -0.73084013826E+02 -0.20818584700E+02 -0.13081200785E+02  0.77109042011E+02  0.00000000000E+00 0. -1.
          1    1    1    2  501    0  0.69767923156E+02  0.85902629568E+02 -0.18666721977E+03  0.21700570454E+03  0.00000000000E+00 0. -1.
<scales pt_clust_5="13000.00000" pt_clust_6="13000.00000" pt_clust_7="13000.00000" pt_clust_8="13000.00000" pt_clust_9="13000.00000"></scales>
<clustering>
<clus scale="   79.253">  5  6 -1 -1</clus>
<clus scale="   91.721">  7  8 -1 -1</clus>
<clus scale="  110.665">  7  9 -1 -1</clus>
<clus scale="  115.511">  1  5  2 -1</clus>
<clus scale="  391.188">  2  5  1 -1</clus>
</clustering>
</event>
<event>
 9    2  0.3897980E-005  0.2716879E+03  0.7546771E-02  0.1129014E+00
          2   -1    0    0  502    0 -0.00000000000E+00  0.00000000000E+00  0.26934758262E+03  0.26934758262E+03  0.00000000000E+00 0. -1.
         21   -1    0    0  501  502  0.00000000000E+00 -0.00000000000E+00 -0.17500983626E+03  0.17500983626E+03  0.00000000000E+00 0. -1.
         24    2    1    2    0    0 -0.16079365796E+02  0.10395782651E+03  0.11098794854E+03  0.17215980605E+03  0.79087915648E+02 0.  0.
         23    2    1    2    0    0  0.48276985392E+02  0.44437584380E+02 -0.39397004357E+02  0.11865510507E+03  0.90672728994E+02 0.  0.
        -13    1    3    3    0    0  0.27445959175E+02  0.65895707502E+02  0.44815054552E+02  0.84284720186E+02  0.00000000000E+00 0.  1.
         14    1    3    3    0    0 -0.43525324970E+02  0.38062119004E+02  0.66172893990E+02  0.87875085866E+02  0.00000000000E+00 0. -1.
        -11    1    4    4    0    0 -0.14531672484E+02  0.42137031211E+02 -0.18000313691E+00  0.44572764168E+02  0.00000000000E+00 0.  1.
         11    1    4    4    0    0  0.62808657876E+02  0.23005531686E+01 -0.39217001220E+02  0.74082340904E+02  0.00000000000E+00 0. -1.
          1    1    1    2  501    0 -0.32197619596E+02 -0.14839541089E+03  0.22746802169E+02  0.15354250776E+03  0.00000000000E+00 0. -1.
<scales pt_clust_5="13000.00000" pt_clust_6="13000.00000" pt_clust_7="13000.00000" pt_clust_8="13000.00000" pt_clust_9="13000.00000"></scales>
<clustering>
<clus scale="   79.088">  5  6 -1 -1</clus>
<clus scale="   90.673">  7  8 -1 -1</clus>
<clus scale="  131.608">  1  5  2 -1</clus>
<clus scale="   88.056">  7  9 -1 -1</clus>
<clus scale="  271.688">  2  5  1 -1</clus>
</clustering>
</event>
<event>
 9    2  0.4089960E-005  0.3576080E+03  0.7546771E-02  0.1088465E+00
         21   -1    0    0  501  502  0.00000000000E+00  0.00000000000E+00  0.31368172469E+03  0.31368172469E+03  0.00000000000E+00 0. -1.
          2   -1    0    0  502    0 -0.00000000000E+00 -0.00000000000E+00 -0.21654585564E+03  0.21654585564E+03  0.00000000000E+00 0. -1.
         24    2    1    2    0    0  0.12734834153E+03  0.60006148368E+02  0.14587569981E+02  0.16321571355E+03  0.81291045148E+02 0.  0.
         23    2    1    2    0    0  0.44605168025E+02  0.46167707583E+02 -0.52998111091E+02  0.12367315954E+03  0.91461316269E+02 0.  0.
        -11    1    3    3    0    0  0.24008860113E+02 -0.49827900627E+01  0.31559122713E+02  0.39965382359E+02  0.00000000000E+00 0.  1.
         12    1    3    3    0    0  0.10333948141E+03  0.64988938431E+02 -0.16971552732E+02  0.12325033119E+03  0.00000000000E+00 0. -1.
        -11    1    4    4    0    0 -0.18906912170E+02  0.44008464583E+02 -0.18350234619E+02  0.51292761607E+02  0.00000000000E+00 0.  1.
         11    1    4    4    0    0  0.63512080195E+02  0.21592429999E+01 -0.34647876472E+02  0.72380397934E+02  0.00000000000E+00 0. -1.
          1    1    1    2  501    0 -0.17195350955E+03 -0.10617385595E+03  0.13554641016E+03  0.24333870724E+03  0.00000000000E+00 0. -1.
<scales pt_clust_5="13000.00000" pt_clust_6="13000.00000" pt_clust_7="13000.00000" pt_clust_8="13000.00000" pt_clust_9="13000.00000"></scales>
<clustering>
<clus scale="   81.291">  5  6 -1 -1</clus>
<clus scale="   91.461">  7  8 -1 -1</clus>
<clus scale="  162.563">  2  5  1 -1</clus>
<clus scale="  149.206">  7  9 -1 -1</clus>
<clus scale="  357.608">  1  5  2 -1</clus>
</clustering>
</event>
<event>
 9    2  0.3897980E-005  0.2397046E+03  0.7546771E-02  0.1156532E+00
          2   -1    0    0  502    0 -0.00000000000E+00  0.00000000000E+00  0.65341599987E+03  0.65341599987E+03  0.00000000000E+00 0. -1.
         21   -1    0    0  501  502  0.00000000000E+00 -0.00000000000E+00 -0.11688010192E+03  0.11688010192E+03  0.00000000000E+00 0.  1.
         24    2    1    2    0    0  0.29637396932E+02  0.50534982600E+02  0.52074768815E+03  0.53007206787E+03  0.79787735035E+02 0.  0.
         23    2    1    2    0    0 -0.44241048938E+02 -0.74336554114E+02 -0.72921732784E+02  0.14722276850E+03  0.94200694068E+02 0.  0.
        -13    1    3    3    0    0 -0.23968602940E+02  0.23627402267E+02  0.11201878816E+03  0.11696562300E+03  0.00000000000E+00 0.  1.
         14    1    3    3    0    0  0.53605999873E+02  0.26907580333E+02  0.40872889999E+03  0.41310644487E+03  0.00000000000E+00 0. -1.
        -13    1    4    4    0    0 -0.43440616671E+02  0.30384584491E+01 -0.50453971073E+02  0.66647750176E+02  0.00000000000E+00 0.  1.
         13    1    4    4    0    0 -0.80043226706E+00 -0.77375012563E+02 -0.22467761710E+02  0.80575018320E+02  0.00000000000E+00 0. -1.
          1    1    1    2  501    0  0.14603652006E+02  0.23801571514E+02  0.88709942584E+02  0.93001265431E+02  0.00000000000E+00 0. -1.
<scales pt_clust_5="13000.00000" pt_clust_6="13000.00000" pt_clust_7="13000.00000" pt_clust_8="13000.00000" pt_clust_9="13000.00000"></scales>
<clustering>
<clus scale="   79.788">  5  6 -1 -1</clus>
<clus scale="   94.201">  7  8 -1 -1</clus>
<clus scale="   27.925">  7  9 -1 -1</clus>
<clus scale="   98.986">  1  5  2 -1</clus>
<clus scale="  239.705">  2  5  1 -1</clus>
</clustering>
</event>
<event>
 9    2  0.3897980E-005  0.1991154E+03  0.7546771E-02  0.1185465E+00
         21   -1    0    0  501  502  0.00000000000E+00  0.00000000000E+00  0.75469204346E+02  0.75469204346E+02  0.00000000000E+00 0.  1.
          2   -1    0    0  502    0 -0.00000000000E+00 -0.00000000000E+00 -0.27575721510E+03  0.27575721510E+03  0.00000000000E+00 0. -1.
         24    2    1    2    0    0 -0.32500442406E+02 -0.23376546342E+02 -0.68256943317E+02  0.11231401817E+03  0.79703743274E+02 0.  0.
         23    2    1    2    0    0 -0.54084334651E+02  0.54863396668E+01 -0.45240759207E+02  0.11501913787E+03  0.90705350482E+02 0.  0.
        -13    1    3    3    0    0  0.70700928248E+01  0.25335551651E+02 -0.17426855967E+02  0.31552681327E+02  0.00000000000E+00 0.  1.
         14    1    3    3    0    0 -0.39570535231E+02 -0.48712097993E+02 -0.50830087350E+02  0.80761336847E+02  0.00000000000E+00 0. -1.
        -13    1    4    4    0    0 -0.72876407087E+02  0.13593877990E+02 -0.10743851257E+02  0.74907907250E+02  0.00000000000E+00 0.  1.
         13    1    4    4    0    0  0.18792072436E+02 -0.81075383228E+01 -0.34496907950E+02  0.40111230624E+02  0.00000000000E+00 0. -1.
          1    1    1    2  501    0  0.86584777057E+02  0.17890206676E+02 -0.86790308231E+02  0.12389326340E+03  0.00000000000E+00 0. -1.
<scales pt_clust_5="13000.00000" pt_clust_6="13000.00000" pt_clust_7="13000.00000" pt_clust_8="13000.00000" pt_clust_9="13000.00000"></scales>
<clustering>
<clus scale="   79.704">  5  6 -1 -1</clus>
<clus scale="   89.193">  2  5  1 -1</clus>
<clus scale="   90.705">  7  8 -1 -1</clus>
<clus scale="   68.282">  7  9 -1 -1</clus>
<clus scale="  199.115">  1  5  2 -1</clus>
</clustering>
</event>
<event>
 9    2  0.3897980E-005  0.3879020E+03  0.7546771E-02  0.1103702E+00
         21   -1    0    0  501  502  0.00000000000E+00  0.00000000000E+00  0.98242241299E+02  0.98242241299E+02  0.00000000000E+00 0. -1.
         -3   -1    0    0    0  501 -0.00000000000E+00 -0.00000000000E+00 -0.60680877120E+03  0.60680877120E+03  0.00000000000E+00 0.  1.
         24    2    1    2    0    0  0.23531245944E+02 -0.39394134344E+01 -0.16946469278E+03  0.18982481434E+03  0.82133668645E+02 0.  0.
         23    2    1    2    0    0 -0.19062055815E+03  0.37633490693E+02 -0.15985233254E+03  0.26787116184E+03  0.91922327636E+02 0.  0.
        -11    1    3    3    0    0  0.33374622508E+02  0.27052445059E+02 -0.49558873793E+02  0.65587972852E+02  0.00000000000E+00 0.  1.
         12    1    3    3    0    0 -0.98433765644E+01 -0.30991858494E+02 -0.11990581899E+03  0.12423684148E+03  0.00000000000E+00 0. -1.
        -11    1    4    4    0    0 -0.70924153417E+02 -0.22256878852E+02 -0.90538987754E+02  0.11714483556E+03  0.00000000000E+00 0.  1.
         11    1    4    4    0    0 -0.11969640474E+03  0.59890369546E+02 -0.69313344782E+02  0.15072632629E+03  0.00000000000E+00 0. -1.
         -4    1    1    2    0  502  0.16708931221E+03 -0.33694077259E+02 -0.17924950458E+03  0.24735503631E+03  0.00000000000E+00 0.  1.
<scales pt_clust_5="13000.00000" pt_clust_6="13000.00000" pt_clust_7="13000.00000" pt_clust_8="13000.00000" pt_clust_9="13000.00000"></scales>
<clustering>
<clus scale="   82.134">  5  6 -1 -1</clus>
<clus scale="   85.529">  2  5  1 -1</clus>
<clus scale="   91.922">  7  8 -1 -1</clus>
<clus scale="  182.360">  7  9 -1 -1</clus>
<clus scale="  387.902">  1  5  2 -1</clus>
</clustering>
</event>
<event>
 9    2  0.3897980E-005  0.2208953E+03  0.7546771E-02  0.1150120E+00
         21   -1    0    0  501  502  0.00000000000E+00  0.00000000000E+00  0.75599703634E+02  0.75599703634E+02  0.00000000000E+00 0.  1.
          2   -1    0    0  502    0 -0.00000000000E+00 -0.00000000000E+00 -0.50029295048E+03  0.50029295048E+03  0.00000000000E+00 0. -1.
         24    2    1    2    0    0  0.26633561267E+02  0.12126649179E+03 -0.26577223677E+03  0.30377024210E+03  0.78908615042E+02 0.  0.
         23    2    1    2    0    0 -0.94671242002E+01 -0.41571458306E+02 -0.16136787587E+03  0.19056278919E+03  0.91960712664E+02 0.  0.
        -13    1    3    3    0    0  0.48425300113E+02  0.89165335639E+02 -0.22828859081E+03  0.24982223173E+03  0.00000000000E+00 0.  1.
         14    1    3    3    0    0 -0.21791738846E+02  0.32101156154E+02 -0.37483645958E+02  0.53948010368E+02  0.00000000000E+00 0. -1.
        -13    1    4    4    0    0 -0.38972076117E+02 -0.55399672179E+02 -0.95577265674E+02  0.11714503877E+03  0.00000000000E+00 0.  1.
         13    1    4    4    0    0  0.29504951917E+02  0.13828213873E+02 -0.65790610194E+02  0.73417750416E+02  0.00000000000E+00 0. -1.
          1    1    1    2  501    0 -0.17166437067E+02 -0.79695033488E+02  0.24468657934E+01  0.81559622831E+02  0.00000000000E+00 0. -1.
<scales pt_clust_5="13000.00000" pt_clust_6="13000.00000" pt_clust_7="13000.00000" pt_clust_8="13000.00000" pt_clust_9="13000.00000"></scales>
<clustering>
<clus scale="   78.909">  5  6 -1 -1</clus>
<clus scale="   91.961">  7  8 -1 -1</clus>
<clus scale="   81.523">  7  9 -1 -1</clus>
<clus scale="  147.110">  2  5  1 -1</clus>
<clus scale="  220.895">  1  5  2 -1</clus>
</clustering>
</event>
<event>
 9    2  0.3897980E-005  0.4307637E+03  0.7546771E-02  0.1051618E+00
         21   -1    0    0  501  502  0.00000000000E+00  0.00000000000E+00  0.87564095600E+02  0.87564095600E+02  0.00000000000E+00 0. -1.
          2   -1    0    0  502    0 -0.00000000000E+00 -0.00000000000E+00 -0.13720748255E+04  0.13720748255E+04  0.00000000000E+00 0. -1.
         24    2    1    2    0    0 -0.57986520369E+02  0.23575755901E+03 -0.57922116478E+03  0.63320636292E+03  0.80678851870E+02 0.  0.
         23    2    1    2    0    0  0.10738510784E+03 -0.31037249158E+03 -0.57768130395E+03  0.67057532568E+03  0.89960733409E+02 0.  0.
        -13    1    3    3    0    0 -0.63131408904E+00  0.55976013692E+02 -0.22494107832E+03  0.23180207373E+03  0.00000000000E+00 0.  1.
         14    1    3    3    0    0 -0.57355206280E+02  0.17978154532E+03 -0.35428008646E+03  0.40140428920E+03  0.00000000000E+00 0. -1.
        -13    1    4    4    0    0  0.17933315785E+02 -0.10322823675E+02 -0.79709009342E+02  0.82351021086E+02  0.00000000000E+00 0.  1.
         13    1    4    4    0    0  0.89451792058E+02 -0.30004966791E+03 -0.49797229461E+03  0.58822430459E+03  0.00000000000E+00 0. -1.
          1    1    1    2  501    0 -0.49398587474E+02  0.74614932571E+02 -0.12760826120E+03  0.15585723253E+03  0.00000000000E+00 0. -1.
<scales pt_clust_5="13000.00000" pt_clust_6="13000.00000" pt_clust_7="13000.00000" pt_clust_8="13000.00000" pt_clust_9="13000.00000"></scales>
<clustering>
<clus scale="   80.679">  5  6 -1 -1</clus>
<clus scale="   89.961">  7  8 -1 -1</clus>
<clus scale="   89.485">  7  9 -1 -1</clus>
<clus scale="  255.838">  2  5  1 -1</clus>
<clus scale="  430.764">  1  5  2 -1</clus>
</clustering>
</event>
<event>
 9    2  0.3897980E-005  0.3479666E+03  0.7546771E-02  0.1093138E+00
         21   -1    0    0  501  502  0.00000000000E+00  0.00000000000E+00  0.24133198892E+03  0.24133198892E+03  0.00000000000E+00 0. -1.
          2   -1    0    0  502    0 -0.00000000000E+00 -0.00000000000E+00 -0.53750942804E+03  0.53750942804E+03  0.00000000000E+00 0. -1.
         24    2    1    2    0    0 -0.11758787832E+03 -0.63565887978E+02 -0.38866257154E+03  0.41879381175E+03  0.80387380851E+02 0.  0.
         23    2    1    2    0    0 -0.24139558335E+02  0.18710833554E+02 -0.84443532504E+02  0.12895802371E+03  0.92556189031E+02 0.  0.
        -11    1    3    3    0    0 -0.60846248090E+02  0.31959142129E+01 -0.99740858664E+02  0.11687907709E+03  0.00000000000E+00 0.  1.
         12    1    3    3    0    0 -0.56741630234E+02 -0.66761802190E+02 -0.28892171287E+03  0.30191473466E+03  0.00000000000E+00 0. -1.
        -13    1    4    4    0    0 -0.33103427747E+02 -0.28344191639E+02 -0.18241949559E+02  0.47244035094E+02  0.00000000000E+00 0.  1.
         13    1    4    4    0    0  0.89638694113E+01  0.47055025193E+02 -0.66201582945E+02  0.81713988614E+02  0.00000000000E+00 0. -1.
          1    1    1    2  501    0  0.14172743666E+03  0.44855054423E+02  0.17692866492E+03  0.23108958151E+03  0.00000000000E+00 0. -1.
<scales pt_clust_5="13000.00000" pt_clust_6="13000.00000" pt_clust_7="13000.00000" pt_clust_8="13000.00000" pt_clust_9="13000.00000"></scales>
<clustering>
<clus scale="   80.387">  5  6 -1 -1</clus>
<clus scale="   92.556">  7  8 -1 -1</clus>
<clus scale="  148.656">  7  9 -1 -1</clus>
<clus scale="  155.980">  2  5  1 -1</clus>
<clus scale="  347.967">  1  5  2 -1</clus>
</clustering>
</event>
<event>
 9    2  0.3897980E-005  0.2691758E+03  0.7546771E-02  0.1126295E+00
         21   -1    0    0  501  502  0.00000000000E+00  0.00000000000E+00  0.40431732639E+02  0.40431732639E+02  0.00000000000E+00 0.  1.
          2   -1    0    0  502    0 -0.00000000000E+00 -0.00000000000E+00 -0.11963285458E+04  0.11963285458E+04  0.00000000000E+00 0. -1.
         24    2    1    2    0    0 -0.72592759173E+02 -0.97821888741E+02 -0.22327719883E+03  0.26607239207E+03  0.78121570042E+02 0.  0.
         23    2    1    2    0    0  0.28927407005E+02 -0.64261037667E+01 -0.15600447369E+03  0.18589149010E+03  0.96644506274E+02 0.  0.
        -13    1    3    3    0    0 -0.25918269851E+02 -0.54693696728E+01 -0.87564995241E+01  0.27898870956E+02  0.00000000000E+00 0.  1.
         14    1    3    3    0    0 -0.46674489322E+02 -0.92352519068E+02 -0.21452069930E+03  0.23817352112E+03  0.00000000000E+00 0. -1.
        -11    1    4    4    0    0  0.44332976678E+02 -0.20174166281E+02 -0.15781860758E+03  0.16516392677E+03  0.00000000000E+00 0.  1.
         11    1    4    4    0    0 -0.15405569673E+02  0.13748062514E+02  0.18141338889E+01  0.20727563330E+02  0.00000000000E+00 0. -1.
          1    1    1    2  501    0  0.43665352169E+02  0.10424799251E+03 -0.77661514063E+03  0.78479639625E+03  0.00000000000E+00 0. -1.
<scales pt_clust_5="13000.00000" pt_clust_6="13000.00000" pt_clust_7="13000.00000" pt_clust_8="13000.00000" pt_clust_9="13000.00000"></scales>
<clustering>
<clus scale="   78.122">  5  6 -1 -1</clus>
<clus scale="   96.645">  7  8 -1 -1</clus>
<clus scale="  113.024">  7  9 -1 -1</clus>
<clus scale="  144.713">  2  5  1 -1</clus>
<clus scale="  269.176">  1  5  2 -1</clus>
</clustering>
</event>
<event>
 9    2  0.3897980E-005  0.1600896E+03  0.7546771E-02  0.1216768E+00
          2   -1    0    0  502    0 -0.00000000000E+00  0.00000000000E+00  0.89372341797E+03  0.89372341797E+03  0.00000000000E+00 0. -1.
         21   -1    0    0  501  502  0.00000000000E+00 -0.00000000000E+00 -0.17372512832E+02  0.17372512832E+02  0.00000000000E+00 0. -1.
         24    2    1    2    0    0  0.30974210446E+02 -0.18874820636E+02  0.25489366746E+03  0.26935004337E+03  0.79139140649E+02 0.  0.
         23    2    1    2    0    0  0.88522104183E+01  0.57268244117E+02  0.44556083382E+03  0.45735569341E+03  0.85391804299E+02 0.  0.
        -11    1    3    3    0    0  0.40467850398E+02 -0.35884297516E+02  0.23633548911E+03  0.24244544363E+03  0.00000000000E+00 0.  1.
         12    1    3    3    0    0 -0.94936399523E+01  0.17009476880E+02  0.18558178354E+02  0.26904599739E+02  0.00000000000E+00 0. -1.
        -13    1    4    4    0    0  0.29933336566E+01  0.77115805404E+02  0.39912085944E+03  0.40651355197E+03  0.00000000000E+00 0. -1.
         13    1    4    4    0    0  0.58588767616E+01 -0.19847561286E+02  0.46439974377E+02  0.50842141438E+02  0.00000000000E+00 0.  1.
          1    1    1    2  501    0 -0.39826420864E+02 -0.38393423482E+02  0.17589640386E+03  0.18439019403E+03  0.00000000000E+00 0. -1.
<scales pt_clust_5="13000.00000" pt_clust_6="13000.00000" pt_clust_7="13000.00000" pt_clust_8="13000.00000" pt_clust_9="13000.00000"></scales>
<clustering>
<clus scale="   79.139">  5  6 -1 -1</clus>
<clus scale="   85.392">  7  8 -1 -1</clus>
<clus scale="   55.319">  7  9 -1 -1</clus>
<clus scale="   87.056">  1  5  2 -1</clus>
<clus scale="  160.090">  2  5  1 -1</clus>
</clustering>
</event>
<event>
 9    2  0.3897980E-005  0.1558630E+03  0.7546771E-02  0.1222506E+00
         21   -1    0    0  501  502  0.00000000000E+00  0.00000000000E+00  0.16090363018E+02  0.16090363018E+02  0.00000000000E+00 0. -1.
          2   -1    0    0  502    0 -0.00000000000E+00 -0.00000000000E+00 -0.89235388245E+03  0.89235388245E+03  0.00000000000E+00 0. -1.
         24    2    1    2    0    0  0.18891282269E+02  0.25133124630E+02 -0.28984281576E+03  0.30166380413E+03  0.77483148980E+02 0.  0.
         23    2    1    2    0    0 -0.93883798561E+01  0.34558045645E+02 -0.35774393975E+03  0.37025052078E+03  0.88443889052E+02 0.  0.
        -11    1    3    3    0    0  0.16781906925E+02  0.14958506122E+02 -0.15927118414E+02  0.27551087209E+02  0.00000000000E+00 0.  1.
         12    1    3    3    0    0  0.21093753447E+01  0.10174618509E+02 -0.27391569735E+03  0.27411271692E+03  0.00000000000E+00 0. -1.
        -11    1    4    4    0    0  0.14733652594E+02 -0.15134328024E+02 -0.24018893500E+02  0.31984928458E+02  0.00000000000E+00 0.  1.
         11    1    4    4    0    0 -0.24122032451E+02  0.49692373669E+02 -0.33372504625E+03  0.33826559232E+03  0.00000000000E+00 0. -1.
          1    1    1    2  501    0 -0.95029024131E+01 -0.59691170275E+02 -0.22867676392E+03  0.23652992056E+03  0.00000000000E+00 0. -1.
<scales pt_clust_5="13000.00000" pt_clust_6="13000.00000" pt_clust_7="13000.00000" pt_clust_8="13000.00000" pt_clust_9="13000.00000"></scales>
<clustering>
<clus scale="   77.483">  5  6 -1 -1</clus>
<clus scale="   83.619">  2  5  1 -1</clus>
<clus scale="   88.444">  7  8 -1 -1</clus>
<clus scale="   49.938">  7  9 -1 -1</clus>
<clus scale="  155.863">  1  5  2 -1</clus>
</clustering>
</event>
<event>
 9    2  0.3897980E-005  0.1645806E+03  0.7546771E-02  0.1207102E+00
          2   -1    0    0  502    0 -0.00000000000E+00  0.00000000000E+00  0.90675532673E+03  0.90675532673E+03  0.00000000000E+00 0. -1.
         21   -1    0    0  501  502  0.00000000000E+00 -0.00000000000E+00 -0.35947237354E+02  0.35947237354E+02  0.00000000000E+00 0.  1.
         24    2    1    2    0    0 -0.52848385714E+02 -0.17274292597E+02  0.69479162278E+03  0.70172836735E+03  0.81215450471E+02 0.  0.
         23    2    1    2    0    0  0.68236018724E+02 -0.83909981237E+01  0.17767734704E+03  0.21100346232E+03  0.90700928091E+02 0.  0.
        -13    1    3    3    0    0 -0.92670630164E+00 -0.36492332134E+02  0.16168445071E+03  0.16575406689E+03  0.00000000000E+00 0.  1.
         14    1    3    3    0    0 -0.51921679412E+02  0.19218039537E+02  0.53310717207E+03  0.53597430046E+03  0.00000000000E+00 0. -1.
        -11    1    4    4    0    0  0.29336940064E+02  0.36966945653E+02  0.11549347229E+03  0.12476358950E+03  0.00000000000E+00 0. -1.
         11    1    4    4    0    0  0.38899078660E+02 -0.45357943777E+02  0.62183874755E+02  0.86239872819E+02  0.00000000000E+00 0.  1.
          1    1    1    2  501    0 -0.15387633010E+02  0.25665290721E+02 -0.16608804547E+01  0.29970734414E+02  0.00000000000E+00 0. -1.
<scales pt_clust_5="13000.00000" pt_clust_6="13000.00000" pt_clust_7="13000.00000" pt_clust_8="13000.00000" pt_clust_9="13000.00000"></scales>
<clustering>
<clus scale="   81.215">  5  6 -1 -1</clus>
<clus scale="   90.701">  7  8 -1 -1</clus>
<clus scale="   29.925">  7  9 -1 -1</clus>
<clus scale="   98.424">  1  5  2 -1</clus>
<clus scale="  164.581">  2  5  1 -1</clus>
</clustering>
</event>
<event>
 9    2  0.3897980E-005  0.1643051E+03  0.7546771E-02  0.1199552E+00
         21   -1    0    0  501  502  0.00000000000E+00  0.00000000000E+00  0.33350136244E+02  0.33350136244E+02  0.00000000000E+00 0. -1.
          2   -1    0    0  502    0 -0.00000000000E+00 -0.00000000000E+00 -0.88897474726E+03  0.88897474726E+03  0.00000000000E+00 0. -1.
         24    2    1    2    0    0 -0.38217283409E+02 -0.74317717118E+02 -0.11485971022E+03  0.16355692318E+03  0.81082860445E+02 0.  0.
         23    2    1    2    0    0  0.22284998177E+02  0.13462954849E+02 -0.41594866794E+03  0.42791644540E+03  0.97063471951E+02 0.  0.
        -13    1    3    3    0    0  0.23618263626E+02 -0.25502616135E+02 -0.53044618052E+02  0.63418745736E+02  0.00000000000E+00 0.  1.
         14    1    3    3    0    0 -0.61835547035E+02 -0.48815100983E+02 -0.61815092170E+02  0.10013817744E+03  0.00000000000E+00 0. -1.
        -11    1    4    4    0    0  0.57832537861E+02 -0.80299396493E+00 -0.18554751011E+03  0.19435309554E+03  0.00000000000E+00 0. -1.
         11    1    4    4    0    0 -0.35547539684E+02  0.14265948814E+02 -0.23040115783E+03  0.23356334987E+03  0.00000000000E+00 0.  1.
          1    1    1    2  501    0  0.15932285232E+02  0.60854762269E+02 -0.32481623286E+03  0.33085151493E+03  0.00000000000E+00 0. -1.
<scales pt_clust_5="13000.00000" pt_clust_6="13000.00000" pt_clust_7="13000.00000" pt_clust_8="13000.00000" pt_clust_9="13000.00000"></scales>
<clustering>
<clus scale="   81.083">  5  6 -1 -1</clus>
<clus scale="   97.063">  7  8 -1 -1</clus>
<clus scale="   62.906">  7  9 -1 -1</clus>
<clus scale="  116.439">  2  5  1 -1</clus>
<clus scale="  164.305">  1  5  2 -1</clus>
</clustering>
</event>
<event>
 9    2  0.3897980E-005  0.2269481E+03  0.7546771E-02  0.1153887E+00
          2   -1    0    0  502    0 -0.00000000000E+00  0.00000000000E+00  0.18414412886E+03  0.18414412886E+03  0.00000000000E+00 0. -1.
         21   -1    0    0  501  502  0.00000000000E+00 -0.00000000000E+00 -0.17418518869E+03  0.17418518869E+03  0.00000000000E+00 0. -1.
         24    2    1    2    0    0 -0.90694617458E+02  0.27442432787E+02 -0.30510119939E+02  0.12780127961E+03  0.80147981254E+02 0.  0.
         23    2    1    2    0    0  0.81731331562E+01 -0.98126659795E+02  0.25254000721E+02  0.12081225351E+03  0.65285485198E+02 0.  0.
        -13    1    3    3    0    0 -0.42746044972E+02  0.53710067478E+02 -0.24113326761E+02  0.72756087283E+02  0.00000000000E+00 0.  1.
         14    1    3    3    0    0 -0.47948572486E+02 -0.26267634691E+02 -0.63967931781E+01  0.55045192330E+02  0.00000000000E+00 0. -1.
        -11    1    4    4    0    0 -0.26834170019E+02 -0.62527441992E+02  0.11332065774E+02  0.68979485337E+02  0.00000000000E+00 0.  1.
         11    1    4    4    0    0  0.35007303175E+02 -0.35599217803E+02  0.13921934947E+02  0.51832768173E+02  0.00000000000E+00 0. -1.
          1    1    1    2  501    0  0.82521484302E+02  0.70684227009E+02  0.15215059384E+02  0.10971578442E+03  0.00000000000E+00 0. -1.
<scales pt_clust_5="13000.00000" pt_clust_6="13000.00000" pt_clust_7="13000.00000" pt_clust_8="13000.00000" pt_clust_9="13000.00000"></scales>
<clustering>
<clus scale="   65.285">  7  8 -1 -1</clus>
<clus scale="   80.148">  5  6 -1 -1</clus>
<clus scale="  108.656">  7  9 -1 -1</clus>
<clus scale="  124.106">  1  5  2 -1</clus>
<clus scale="  226.948">  2  5  1 -1</clus>
</clustering>
</event>
<event>
 9    2  0.3897980E-005  0.2752069E+03  0.7546771E-02  0.1109413E+00
         21   -1    0    0  501  502  0.00000000000E+00  0.00000000000E+00  0.11684658952E+03  0.11684658952E+03  0.00000000000E+00 0.  1.
         -1   -1    0    0    0  501 -0.00000000000E+00 -0.00000000000E+00 -0.60922490883E+03  0.60922490883E+03  0.00000000000E+00 0.  1.
         24    2    1    2    0    0  0.12680882509E+03  0.14085321572E+03 -0.37206353449E+03  0.42571420510E+03  0.82953024210E+02 0.  0.
         23    2    1    2    0    0 -0.52315990807E+02 -0.16465521658E+03 -0.74690326082E+02  0.20981830254E+03  0.92718779268E+02 0.  0.
        -11    1    3    3    0    0  0.91923954833E+02  0.14478388926E+03 -0.31681881890E+03  0.36025900692E+03  0.00000000000E+00 0.  1.
         12    1    3    3    0    0  0.34884870257E+02 -0.39306735382E+01 -0.55244715595E+02  0.65455198178E+02  0.00000000000E+00 0. -1.
        -11    1    4    4    0    0 -0.24602628515E+02 -0.68910277742E+02 -0.81970664790E+02  0.10987768470E+03  0.00000000000E+00 0. -1.
         11    1    4    4    0    0 -0.27713362293E+02 -0.95744938842E+02  0.72803387084E+01  0.99940617845E+02  0.00000000000E+00 0.  1.
         -2    1    1    2    0  502 -0.74492834282E+02  0.23802000860E+02 -0.45624458732E+02  0.90538990711E+02  0.00000000000E+00 0.  1.
<scales pt_clust_5="13000.00000" pt_clust_6="13000.00000" pt_clust_7="13000.00000" pt_clust_8="13000.00000" pt_clust_9="13000.00000"></scales>
<clustering>
<clus scale="   82.953">  5  6 -1 -1</clus>
<clus scale="   92.719">  7  8 -1 -1</clus>
<clus scale="   78.203">  7  9 -1 -1</clus>
<clus scale="  206.885">  2  5  1 -1</clus>
<clus scale="  275.207">  1  5  2 -1</clus>
</clustering>
</event>
<event>
 9    2  0.3897980E-005  0.1836420E+03  0.7546771E-02  0.1197150E+00
         21   -1    0    0  501  502  0.00000000000E+00  0.00000000000E+00  0.34604977590E+03  0.34604977590E+03  0.00000000000E+00 0. -1.
          2   -1    0    0  502    0 -0.00000000000E+00 -0.00000000000E+00 -0.53291235344E+02  0.53291235344E+02  0.00000000000E+00 0. -1.
         24    2    1    2    0    0  0.23844643246E+02  0.17466610915E+02  0.90136741936E+02  0.12588170530E+03  0.82752172026E+02 0.  0.
         23    2    1    2    0    0  0.14155152519E+02 -0.64377888822E+02  0.89107822343E+02  0.14488996557E+03  0.93316757382E+02 0.  0.
        -11    1    3    3    0    0  0.53267041635E+02  0.64246327681E+01  0.71337188432E+02  0.89261683180E+02  0.00000000000E+00 0.  1.
         12    1    3    3    0    0 -0.29422398390E+02  0.11041978147E+02  0.18799553505E+02  0.36620022124E+02  0.00000000000E+00 0. -1.
        -13    1    4    4    0    0  0.53633584539E+02 -0.43751764703E+02  0.47577576804E+02  0.83990500175E+02  0.00000000000E+00 0. -1.
         13    1    4    4    0    0 -0.39478432020E+02 -0.20626124119E+02  0.41530245539E+02  0.60899465395E+02  0.00000000000E+00 0.  1.
          1    1    1    2  501    0 -0.37999795765E+02  0.46911277907E+02  0.11351397627E+03  0.12856934037E+03  0.00000000000E+00 0. -1.
<scales pt_clust_5="13000.00000" pt_clust_6="13000.00000" pt_clust_7="13000.00000" pt_clust_8="13000.00000" pt_clust_9="13000.00000"></scales>
<clustering>
<clus scale="   82.752">  5  6 -1 -1</clus>
<clus scale="   87.872">  2  5  1 -1</clus>
<clus scale="   93.317">  7  8 -1 -1</clus>
<clus scale="   60.393">  7  9 -1 -1</clus>
<clus scale="  183.642">  1  5  2 -1</clus>
</clustering>
</event>
<event>
 9    2  0.3897980E-005  0.5012717E+03  0.7546771E-02  0.1055815E+00
         21   -1    0    0  501  502  0.00000000000E+00  0.00000000000E+00  0.51127872541E+02  0.51127872541E+02  0.00000000000E+00 0.  1.
         -3   -1    0    0    0  501 -0.00000000000E+00 -0.00000000000E+00 -0.20759911884E+04  0.20759911884E+04  0.00000000000E+00 0.  1.
         24    2    1    2    0    0  0.12457749522E+03  0.24328996746E+02 -0.58482496934E+03  0.60232933346E+03  0.68329560118E+02 0.  0.
         23    2    1    2    0    0  0.16819797920E+03  0.34139845662E+02 -0.70773353453E+03  0.73396331061E+03  0.91429186558E+02 0.  0.
        -11    1    3    3    0    0  0.43278670875E+02 -0.18419997456E+02 -0.12816568605E+03  0.13652392735E+03  0.00000000000E+00 0.  1.
         12    1    3    3    0    0  0.81298824341E+02  0.42748994201E+02 -0.45665928329E+03  0.46580540611E+03  0.00000000000E+00 0. -1.
        -13    1    4    4    0    0  0.29849016224E+02 -0.25709593213E+02 -0.21887920787E+03  0.22239616587E+03  0.00000000000E+00 0. -1.
         13    1    4    4    0    0  0.13834896298E+03  0.59849438876E+02 -0.48885432666E+03  0.51156714475E+03  0.00000000000E+00 0.  1.
         -4    1    1    2    0  502 -0.29277547442E+03 -0.58468842408E+02 -0.73230481198E+03  0.79082641686E+03  0.00000000000E+00 0.  1.
<scales pt_clust_5="13000.00000" pt_clust_6="13000.00000" pt_clust_7="13000.00000" pt_clust_8="13000.00000" pt_clust_9="13000.00000"></scales>
<clustering>
<clus scale="   68.330">  5  6 -1 -1</clus>
<clus scale="   91.429">  7  8 -1 -1</clus>
<clus scale="  144.154">  2  5  1 -1</clus>
<clus scale="  233.349">  7  9 -1 -1</clus>
<clus scale="  501.272">  1  5  2 -1</clus>
</clustering>
</event>
<event>
 9    2  0.3897980E-005  0.2867679E+03  0.7546771E-02  0.1136701E+00
         21   -1    0    0  501  502  0.00000000000E+00  0.00000000000E+00  0.58742678040E+03  0.58742678040E+03  0.00000000000E+00 0. -1.
          2   -1    0    0  502    0 -0.00000000000E+00 -0.00000000000E+00 -0.61515932577E+02  0.61515932577E+02  0.00000000000E+00 0. -1.
         24    2    1    2    0    0 -0.25132672207E+02  0.54078528940E+02  0.11246982311E+03  0.14578337880E+03  0.71043605758E+02 0.  0.
         23    2    1    2    0    0  0.20631085727E+02  0.92982213119E+02  0.24490575788E+03  0.27943793980E+03  0.95054712149E+02 0.  0.
        -11    1    3    3    0    0 -0.10569954432E+01  0.20885123726E+02 -0.48816259887E+01  0.21474075177E+02  0.00000000000E+00 0.  1.
         12    1    3    3    0    0 -0.24075676764E+02  0.33193405215E+02  0.11735144910E+03  0.12430930363E+03  0.00000000000E+00 0. -1.
        -11    1    4    4    0    0  0.24390774321E+02 -0.13590183093E+02  0.50342290185E+02  0.57566910022E+02  0.00000000000E+00 0.  1.
         11    1    4    4    0    0 -0.37596885941E+01  0.10657239621E+03  0.19456346770E+03  0.22187102978E+03  0.00000000000E+00 0. -1.
          1    1    1    2  501    0  0.45015864795E+01 -0.14706074206E+03  0.16853526682E+03  0.22372139437E+03  0.00000000000E+00 0. -1.
<scales pt_clust_5="13000.00000" pt_clust_6="13000.00000" pt_clust_7="13000.00000" pt_clust_8="13000.00000" pt_clust_9="13000.00000"></scales>
<clustering>
<clus scale="   71.044">  5  6 -1 -1</clus>
<clus scale="   92.754">  2  5  1 -1</clus>
<clus scale="   95.055">  7  8 -1 -1</clus>
<clus scale="  114.323">  7  9 -1 -1</clus>
<clus scale="  286.768">  1  5  2 -1</clus>
</clustering>
</event>
<event>
 9    2  0.3897980E-005  0.2786821E+03  0.7546771E-02  0.1130668E+00
         -1   -1    0    0    0  501 -0.00000000000E+00  0.00000000000E+00  0.71476789866E+02  0.71476789866E+02  0.00000000000E+00 0.  1.
         21   -1    0    0  501  502  0.00000000000E+00 -0.00000000000E+00 -0.12386711448E+04  0.12386711448E+04  0.00000000000E+00 0.  1.
         24    2    1    2    0    0  0.46330420545E+02  0.70011081595E+02 -0.73770759370E+01  0.11731942272E+03  0.81617193562E+02 0.  0.
         23    2    1    2    0    0  0.79252978540E+02 -0.11714295952E+02 -0.33348219400E+03  0.35497448048E+03  0.91532774121E+02 0.  0.
        -13    1    3    3    0    0  0.26984679578E+02  0.76221248108E+02  0.19935460015E+02  0.83278293457E+02  0.00000000000E+00 0.  1.
         14    1    3    3    0    0  0.19345740967E+02 -0.62101665129E+01 -0.27312535952E+02  0.34041129267E+02  0.00000000000E+00 0. -1.
        -13    1    4    4    0    0  0.75544520011E+02  0.23201712820E+02 -0.28045082073E+03  0.29137253960E+03  0.00000000000E+00 0.  1.
         13    1    4    4    0    0  0.37084585290E+01 -0.34916008772E+02 -0.53031373269E+02  0.63601940883E+02  0.00000000000E+00 0. -1.
         -2    1    1    2    0  502 -0.12558339909E+03 -0.58296785643E+02 -0.82633508500E+03  0.83785403146E+03  0.00000000000E+00 0.  1.
<scales pt_clust_5="13000.00000" pt_clust_6="13000.00000" pt_clust_7="13000.00000" pt_clust_8="13000.00000" pt_clust_9="13000.00000"></scales>
<clustering>
<clus scale="   81.617">  5  6 -1 -1</clus>
<clus scale="   91.533">  7  8 -1 -1</clus>
<clus scale="  117.087">  1  5  2 -1</clus>
<clus scale="  114.538">  7  9 -1 -1</clus>
<clus scale="  278.682">  2  5  1 -1</clus>
</clustering>
</event>
<event>
 9    2  0.3897980E-005  0.3726893E+03  0.7546771E-02  0.1076803E+00
          2   -1    0    0  502    0 -0.00000000000E+00  0.00000000000E+00  0.24347460622E+03  0.24347460622E+03  0.00000000000E+00 0. -1.
         21   -1    0    0  501  502  0.00000000000E+00 -0.00000000000E+00 -0.35389430551E+03  0.35389430551E+03  0.00000000000E+00 0. -1.
         24    2    1    2    0    0 -0.62942825687E+02 -0.16645546015E+03 -0.10925894876E+03  0.22467784983E+03  0.82905963600E+02 0.  0.
         23    2    1    2    0    0 -0.10167509146E+03  0.44706115486E+02 -0.64703470709E+02  0.15830906905E+03  0.92405417779E+02 0.  0.
        -11    1    3    3    0    0  0.13422476656E+02 -0.42314684115E+02 -0.51267028092E+02  0.67815953438E+02  0.00000000000E+00 0.  1.
         12    1    3    3    0    0 -0.76365302342E+02 -0.12414077603E+03 -0.57991920665E+02  0.15686189639E+03  0.00000000000E+00 0. -1.
        -11    1    4    4    0    0 -0.52797640445E+02  0.26465681738E+02  0.16921829509E+02  0.61435913441E+02  0.00000000000E+00 0.  1.
         11    1    4    4    0    0 -0.48877451018E+02  0.18240433748E+02 -0.81625300218E+02  0.96873155606E+02  0.00000000000E+00 0. -1.
          1    1    1    2  501    0  0.16461791715E+03  0.12174934466E+03  0.63542720174E+02  0.21438199285E+03  0.00000000000E+00 0. -1.
<scales pt_clust_5="13000.00000" pt_clust_6="13000.00000" pt_clust_7="13000.00000" pt_clust_8="13000.00000" pt_clust_9="13000.00000"></scales>
<clustering>
<clus scale="   82.906">  5  6 -1 -1</clus>
<clus scale="   92.405">  7  8 -1 -1</clus>
<clus scale="  196.323">  1  5  2 -1</clus>
<clus scale="  117.566">  7  9 -1 -1</clus>
<clus scale="  372.689">  2  5  1 -1</clus>
</clustering>
</event>
<event>
 9    2  0.3897980E-005  0.1446644E+03  0.7546771E-02  0.1234339E+00
         21   -1    0    0  501  502  0.00000000000E+00  0.00000000000E+00  0.69203439904E+02  0.69203439904E+02  0.00000000000E+00 0.  1.
         -1   -1    0    0    0  501 -0.00000000000E+00 -0.00000000000E+00 -0.21619431666E+03  0.21619431666E+03  0.00000000000E+00 0.  1.
         24    2    1    2    0    0 -0.38345757577E+01 -0.12941629469E+02 -0.39441362784E+01  0.81952064780E+02  0.80736577623E+02 0.  0.
         23    2    1    2    0    0  0.12644636249E+02 -0.26167401286E+02 -0.67803986029E+02  0.11818957441E+03  0.92340539647E+02 0.  0.
        -13    1    3    3    0    0 -0.29063052779E+02  0.19577716089E+02  0.13091567550E+02  0.37407715046E+02  0.00000000000E+00 0.  1.
         14    1    3    3    0    0  0.25228477021E+02 -0.32519345558E+02 -0.17035703828E+02  0.44544349734E+02  0.00000000000E+00 0. -1.
        -13    1    4    4    0    0  0.52644603965E+02 -0.10568283149E+02 -0.34113429754E+02  0.63615006287E+02  0.00000000000E+00 0.  1.
         13    1    4    4    0    0 -0.39999967715E+02 -0.15599118137E+02 -0.33690556275E+02  0.54574568125E+02  0.00000000000E+00 0. -1.
         -2    1    1    2    0  502 -0.88100604918E+01  0.39109030755E+02 -0.75242754448E+02  0.85256117372E+02  0.00000000000E+00 0.  1.
<scales pt_clust_5="13000.00000" pt_clust_6="13000.00000" pt_clust_7="13000.00000" pt_clust_8="13000.00000" pt_clust_9="13000.00000"></scales>
<clustering>
<clus scale="   80.737">  5  6 -1 -1</clus>
<clus scale="   81.857">  2  5  1 -1</clus>
<clus scale="   92.341">  7  8 -1 -1</clus>
<clus scale="   34.765">  7  9 -1 -1</clus>
<clus scale="  144.664">  1  5  2 -1</clus>
</clustering>
</event>
<event>
 9    2  0.3897980E-005  0.4368634E+03  0.7546771E-02  0.1087617E+00
         21   -1    0    0  501  502  0.00000000000E+00  0.00000000000E+00  0.19072648052E+03  0.19072648052E+03  0.00000000000E+00 0.  1.
         -3   -1    0    0    0  501 -0.00000000000E+00 -0.00000000000E+00 -0.49524053489E+03  0.49524053489E+03  0.00000000000E+00 0.  1.
         24    2    1    2    0    0  0.39122472988E+02  0.14234942036E+02 -0.22385647540E+03  0.24172010492E+03  0.81139916665E+02 0.  0.
         23    2    1    2    0    0  0.16776724570E+03  0.70535348993E+02  0.78956520113E+01  0.20376607413E+03  0.91308200371E+02 0.  0.
        -13    1    3    3    0    0  0.63159452060E+02  0.43608770096E+01 -0.17918076361E+03  0.19003652197E+03  0.00000000000E+00 0.  1.
         14    1    3    3    0    0 -0.24036979072E+02  0.98740650261E+01 -0.44675711790E+02  0.51683582954E+02  0.00000000000E+00 0. -1.
        -13    1    4    4    0    0  0.41892609499E+02  0.59640771233E+02 -0.17357288792E+02  0.74921877968E+02  0.00000000000E+00 0. -1.
         13    1    4    4    0    0  0.12587463620E+03  0.10894577760E+02  0.25252940803E+02  0.12884419616E+03  0.00000000000E+00 0.  1.
         -4    1    1    2    0  502 -0.20688971869E+03 -0.84770291029E+02 -0.88553230978E+02  0.24048083636E+03  0.00000000000E+00 0.  1.
<scales pt_clust_5="13000.00000" pt_clust_6="13000.00000" pt_clust_7="13000.00000" pt_clust_8="13000.00000" pt_clust_9="13000.00000"></scales>
<clustering>
<clus scale="   81.140">  5  6 -1 -1</clus>
<clus scale="   91.197">  2  5  1 -1</clus>
<clus scale="   91.308">  7  8 -1 -1</clus>
<clus scale="  197.510">  7  9 -1 -1</clus>
<clus scale="  436.863">  1  5  2 -1</clus>
</clustering>
</event>
<event>
 9    2  0.3897980E-005  0.2087452E+03  0.7546771E-02  0.1180961E+00
         21   -1    0    0  501  502  0.00000000000E+00  0.00000000000E+00  0.15811447973E+03  0.15811447973E+03  0.00000000000E+00 0. -1.
          2   -1    0    0  502    0 -0.00000000000E+00 -0.00000000000E+00 -0.16239826088E+03  0.16239826088E+03  0.00000000000E+00 0. -1.
         24    2    1    2    0    0  0.36247581814E+02  0.22143856010E+01  0.57130147089E+02  0.10292084677E+03  0.77524552903E+02 0.  0.
         23    2    1    2    0    0 -0.88417218544E+02 -0.51058173046E+02 -0.64984426052E+02  0.14603677507E+03  0.81726510222E+02 0.  0.
        -13    1    3    3    0    0  0.18144080104E+01  0.31148685914E+02  0.13005484209E+01  0.31228578846E+02  0.00000000000E+00 0.  1.
         14    1    3    3    0    0  0.34433173803E+02 -0.28934300313E+02  0.55829598668E+02  0.71692267925E+02  0.00000000000E+00 0. -1.
        -13    1    4    4    0    0 -0.71956554850E+02  0.39891084863E+01 -0.46130045150E+02  0.85566581315E+02  0.00000000000E+00 0. -1.
         13    1    4    4    0    0 -0.16460663694E+02 -0.55047281532E+02 -0.18854380902E+02  0.60470193753E+02  0.00000000000E+00 0.  1.
          1    1    1    2  501    0  0.52169636731E+02  0.48843787445E+02  0.35704978132E+01  0.71555118777E+02  0.00000000000E+00 0. -1.
<scales pt_clust_5="13000.00000" pt_clust_6="13000.00000" pt_clust_7="13000.00000" pt_clust_8="13000.00000" pt_clust_9="13000.00000"></scales>
<clustering>
<clus scale="   77.525">  5  6 -1 -1</clus>
<clus scale="   81.727">  7  8 -1 -1</clus>
<clus scale="   71.466">  7  9 -1 -1</clus>
<clus scale="   85.609">  2  5  1 -1</clus>
<clus scale="  208.745">  1  5  2 -1</clus>
</clustering>
</event>
<event>
 9    2  0.3897980E-005  0.4230794E+03  0.7546771E-02  0.1078377E+00
         21   -1    0    0  501  502  0.00000000000E+00  0.00000000000E+00  0.58114582503E+03  0.58114582503E+03  0.00000000000E+00 0. -1.
          2   -1    0    0  502    0 -0.00000000000E+00 -0.00000000000E+00 -0.18611769772E+03  0.18611769772E+03  0.00000000000E+00 0. -1.
         24    2    1    2    0    0  0.38230818847E+02  0.89479502017E+02  0.31014985314E+03  0.33575401146E+03  0.84081198974E+02 0.  0.
         23    2    1    2    0    0 -0.15468724981E+03 -0.17063581669E+03  0.13054005917E+03  0.28240067073E+03  0.98309229409E+02 0.  0.
        -13    1    3    3    0    0  0.61237850107E+02  0.44315714152E+02  0.21572439390E+03  0.22858471281E+03  0.00000000000E+00 0.  1.
         14    1    3    3    0    0 -0.23007031259E+02  0.45163787865E+02  0.94425459241E+02  0.10716929866E+03  0.00000000000E+00 0. -1.
        -11    1    4    4    0    0 -0.12279569023E+03 -0.15676953489E+03  0.67249699361E+02  0.21018561005E+03  0.00000000000E+00 0. -1.
         11    1    4    4    0    0 -0.31891559575E+02 -0.13866281802E+02  0.63290359810E+02  0.72215060674E+02  0.00000000000E+00 0.  1.
          1    1    1    2  501    0  0.11645643096E+03  0.81156314673E+02 -0.45661785003E+02  0.14910884056E+03  0.00000000000E+00 0. -1.
<scales pt_clust_5="13000.00000" pt_clust_6="13000.00000" pt_clust_7="13000.00000" pt_clust_8="13000.00000" pt_clust_9="13000.00000"></scales>
<clustering>
<clus scale="   84.081">  5  6 -1 -1</clus>
<clus scale="   98.309">  7  8 -1 -1</clus>
<clus scale="  128.600">  2  5  1 -1</clus>
<clus scale="  190.531">  7  9 -1 -1</clus>
<clus scale="  423.079">  1  5  2 -1</clus>
</clustering>
</event>
<event>
 9    2  0.3897980E-005  0.2279593E+03  0.7546771E-02  0.1164986E+00
          2   -1    0    0  502    0 -0.00000000000E+00  0.00000000000E+00  0.17054280172E+03  0.17054280172E+03  0.00000000000E+00 0. -1.
         21   -1    0    0  501  502  0.00000000000E+00 -0.00000000000E+00 -0.28148711835E+03  0.28148711835E+03  0.00000000000E+00 0. -1.
         24    2    1    2    0    0 -0.10163479527E+02 -0.47452829126E+02  0.10270420825E+03  0.13960211674E+03  0.81151274153E+02 0.  0.
         23    2    1    2    0    0 -0.85785399002E+02  0.28224900290E+02 -0.11734258941E+03  0.17512982904E+03  0.93516811602E+02 0.  0.
        -13    1    3    3    0    0 -0.37784160660E+01  0.21728786063E+02  0.11271175135E+02  0.24768043133E+02  0.00000000000E+00 0.  1.
         14    1    3    3    0    0 -0.63850634615E+01 -0.69181615189E+02  0.91433033117E+02  0.11483407360E+03  0.00000000000E+00 0. -1.
        -11    1    4    4    0    0 -0.68869033303E+02  0.42855680117E+02 -0.12706017286E+03  0.15074428876E+03  0.00000000000E+00 0.  1.
         11    1    4    4    0    0 -0.16916365699E+02 -0.14630779827E+02  0.97175834481E+01  0.24385540283E+02  0.00000000000E+00 0. -1.
          1    1    1    2  501    0  0.95948878529E+02  0.19227928836E+02 -0.96305935463E+02  0.13729797429E+03  0.00000000000E+00 0. -1.
<scales pt_clust_5="13000.00000" pt_clust_6="13000.00000" pt_clust_7="13000.00000" pt_clust_8="13000.00000" pt_clust_9="13000.00000"></scales>
<clustering>
<clus scale="   81.151">  5  6 -1 -1</clus>
<clus scale="   93.517">  7  8 -1 -1</clus>
<clus scale="   94.555">  1  5  2 -1</clus>
<clus scale="   91.732">  7  9 -1 -1</clus>
<clus scale="  227.959">  2  5  1 -1</clus>
</clustering>
</event>
<event>
 9    2  0.3897980E-005  0.5082920E+03  0.7546771E-02  0.1017352E+00
         21   -1    0    0  501  502  0.00000000000E+00  0.00000000000E+00  0.44158019370E+03  0.44158019370E+03  0.00000000000E+00 0. -1.
          2   -1    0    0  502    0 -0.00000000000E+00 -0.00000000000E+00 -0.49495747978E+03  0.49495747978E+03  0.00000000000E+00 0. -1.
         24    2    1    2    0    0  0.70700362695E+02 -0.40871450136E+03 -0.25430806453E+02  0.42747798151E+03  0.10022282103E+03 0.  0.
         23    2    1    2    0    0  0.26858064251E+02  0.34954113994E+02 -0.65893773885E+02  0.12091735858E+03  0.91300999272E+02 0.  0.
        -11    1    3    3    0    0 -0.20255688347E+02 -0.28062582509E+02 -0.90234417847E+01  0.35766240355E+02  0.00000000000E+00 0.  1.
         12    1    3    3    0    0  0.90956051043E+02 -0.38065191885E+03 -0.16407364668E+02  0.39171174116E+03  0.00000000000E+00 0. -1.
        -13    1    4    4    0    0  0.88933761327E+01 -0.18669831858E+02  0.12567464844E+02  0.24199089513E+02  0.00000000000E+00 0.  1.
         13    1    4    4    0    0  0.17964688118E+02  0.53623945852E+02 -0.78461238729E+02  0.96718269064E+02  0.00000000000E+00 0. -1.
          1    1    1    2  501    0 -0.97558426947E+02  0.37376038736E+03  0.37947294265E+02  0.38814233339E+03  0.00000000000E+00 0. -1.
<scales pt_clust_5="13000.00000" pt_clust_6="13000.00000" pt_clust_7="13000.00000" pt_clust_8="13000.00000" pt_clust_9="13000.00000"></scales>
<clustering>
<clus scale="   91.301">  7  8 -1 -1</clus>
<clus scale="  100.223">  5  6 -1 -1</clus>
<clus scale="  386.283">  7  9 -1 -1</clus>
<clus scale="  426.721">  2  5  1 -1</clus>
<clus scale="  508.292">  1  5  2 -1</clus>
</clustering>
</event>
<event>
 9    2  0.3897980E-005  0.2239496E+03  0.7546771E-02  0.1134303E+00
         21   -1    0    0  501  502  0.00000000000E+00  0.00000000000E+00  0.42163768708E+02  0.42163768708E+02  0.00000000000E+00 0. -1.
          2   -1    0    0  502    0 -0.00000000000E+00 -0.00000000000E+00 -0.11026738655E+04  0.11026738655E+04  0.00000000000E+00 0. -1.
         24    2    1    2    0    0 -0.11964825432E+03 -0.14576493035E+03 -0.47276972458E+03  0.51587644056E+03  0.83989105044E+02 0.  0.
         23    2    1    2    0    0  0.82241264424E+02  0.86232947111E+02 -0.45233123840E+03  0.47638670875E+03  0.90227491894E+02 0.  0.
        -11    1    3    3    0    0 -0.28341990593E+02 -0.55992231984E+02 -0.26070464399E+03  0.26815165462E+03  0.00000000000E+00 0.  1.
         12    1    3    3    0    0 -0.91306263732E+02 -0.89772698367E+02 -0.21206508058E+03  0.24772478594E+03  0.00000000000E+00 0. -1.
        -11    1    4    4    0    0  0.36656489082E+02 -0.37810951993E+01 -0.53315088796E+02  0.64811214817E+02  0.00000000000E+00 0.  1.
         11    1    4    4    0    0  0.45584775342E+02  0.90014042310E+02 -0.39901614961E+03  0.41157549393E+03  0.00000000000E+00 0. -1.
          1    1    1    2  501    0  0.37406989901E+02  0.59531983240E+02 -0.13540913378E+03  0.15257448487E+03  0.00000000000E+00 0. -1.
<scales pt_clust_5="13000.00000" pt_clust_6="13000.00000" pt_clust_7="13000.00000" pt_clust_8="13000.00000" pt_clust_9="13000.00000"></scales>
<clustering>
<clus scale="   83.989">  5  6 -1 -1</clus>
<clus scale="   90.227">  7  8 -1 -1</clus>
<clus scale="   70.309">  7  9 -1 -1</clus>
<clus scale="  206.440">  2  5  1 -1</clus>
<clus scale="  223.950">  1  5  2 -1</clus>
</clustering>
</event>
<event>
 9    2  0.3897980E-005  0.1882634E+03  0.7546771E-02  0.1189443E+00
         21   -1    0    0  501  502  0.00000000000E+00  0.00000000000E+00  0.34993176538E+03  0.34993176538E+03  0.00000000000E+00 0.  1.
         -1   -1    0    0    0  501 -0.00000000000E+00 -0.00000000000E+00 -0.57994152204E+02  0.57994152204E+02  0.00000000000E+00 0.  1.
         24    2    1    2    0    0 -0.35522233426E+02  0.44156602828E+02  0.10240227537E+03  0.14078032175E+03  0.78238343216E+02 0.  0.
         23    2    1    2    0    0  0.85924127390E+02 -0.54598937927E+02  0.14153877150E+03  0.19676759036E+03  0.91215465188E+02 0.  0.
        -13    1    3    3    0    0  0.14368752994E+02  0.39948737132E+02  0.67524573459E+02  0.79761711879E+02  0.00000000000E+00 0.  1.
         14    1    3    3    0    0 -0.49890986419E+02  0.42078656954E+01  0.34877701916E+02  0.61018609871E+02  0.00000000000E+00 0. -1.
        -11    1    4    4    0    0  0.21743782869E+02  0.13551893221E+02 -0.16702442649E+01  0.25675584107E+02  0.00000000000E+00 0. -1.
         11    1    4    4    0    0  0.64180344521E+02 -0.68150831148E+02  0.14320901576E+03  0.17109200626E+03  0.00000000000E+00 0.  1.
         -2    1    1    2    0  502 -0.50401893964E+02  0.10442335099E+02  0.47996566306E+02  0.70378005475E+02  0.00000000000E+00 0.  1.
<scales pt_clust_5="13000.00000" pt_clust_6="13000.00000" pt_clust_7="13000.00000" pt_clust_8="13000.00000" pt_clust_9="13000.00000"></scales>
<clustering>
<clus scale="   78.238">  5  6 -1 -1</clus>
<clus scale="   91.215">  7  8 -1 -1</clus>
<clus scale="   51.472">  7  9 -1 -1</clus>
<clus scale="   96.607">  2  5  1 -1</clus>
<clus scale="  188.263">  1  5  2 -1</clus>
</clustering>
</event>
<event>
 9    2  0.3897980E-005  0.1311110E+03  0.7546771E-02  0.1245600E+00
         21   -1    0    0  501  502  0.00000000000E+00  0.00000000000E+00  0.20513792757E+03  0.20513792757E+03  0.00000000000E+00 0.  1.
          2   -1    0    0  502    0 -0.00000000000E+00 -0.00000000000E+00 -0.33552741565E+03  0.33552741565E+03  0.00000000000E+00 0. -1.
         24    2    1    2    0    0  0.12009943597E+02 -0.24779953185E+02 -0.30784304928E+03  0.32003018957E+03  0.83028274839E+02 0.  0.
         23    2    1    2    0    0  0.62038005922E+01  0.80699567366E+01  0.17204129817E+03  0.19533185249E+03  0.91938637018E+02 0.  0.
        -13    1    3    3    0    0 -0.29137469686E+02 -0.92871153276E+01 -0.51119506338E+02  0.59568838993E+02  0.00000000000E+00 0.  1.
         14    1    3    3    0    0  0.41147413283E+02 -0.15492837858E+02 -0.25672354294E+03  0.26046135058E+03  0.00000000000E+00 0. -1.
        -11    1    4    4    0    0  0.27054624348E+02  0.20149180763E+02  0.16743398924E+03  0.17079836924E+03  0.00000000000E+00 0.  1.
         11    1    4    4    0    0 -0.20850823756E+02 -0.12079224026E+02  0.46073089282E+01  0.24533483241E+02  0.00000000000E+00 0. -1.
          1    1    1    2  501    0 -0.18213744189E+02  0.16709996448E+02  0.54122630226E+01  0.25303301163E+02  0.00000000000E+00 0. -1.
<scales pt_clust_5="13000.00000" pt_clust_6="13000.00000" pt_clust_7="13000.00000" pt_clust_8="13000.00000" pt_clust_9="13000.00000"></scales>
<clustering>
<clus scale="   83.028">  5  6 -1 -1</clus>
<clus scale="   87.476">  2  5  1 -1</clus>
<clus scale="   91.939">  7  8 -1 -1</clus>
<clus scale="   13.743">  7  9 -1 -1</clus>
<clus scale="  131.111">  1  5  2 -1</clus>
</clustering>
</event>
<event>
 9    2  0.3897980E-005  0.2315479E+03  0.7546771E-02  0.1144906E+00
         21   -1    0    0  501  502  0.00000000000E+00  0.00000000000E+00  0.77220294285E+02  0.77220294285E+02  0.00000000000E+00 0.  1.
          4   -1    0    0  502    0 -0.00000000000E+00 -0.00000000000E+00 -0.55847802542E+03  0.55847802542E+03  0.00000000000E+00 0. -1.
         24    2    1    2    0    0 -0.11420013151E+03  0.36700861797E+02 -0.63218948968E+02  0.15781669342E+03  0.80751779663E+02 0.  0.
         23    2    1    2    0    0 -0.16222029159E+01  0.34454684685E+02 -0.17966683523E+03  0.20347479321E+03  0.89062129743E+02 0.  0.
        -13    1    3    3    0    0 -0.72934740822E+02  0.14514727444E+02  0.55865565890E+01  0.74574548916E+02  0.00000000000E+00 0.  1.
         14    1    3    3    0    0 -0.41265390692E+02  0.22186134353E+02 -0.68805505557E+02  0.83242144503E+02  0.00000000000E+00 0. -1.
        -13    1    4    4    0    0 -0.39518737960E+02 -0.53956625103E+01 -0.64196993034E+02  0.75578421117E+02  0.00000000000E+00 0. -1.
         13    1    4    4    0    0  0.37896535044E+02  0.39850347195E+02 -0.11546984219E+03  0.12789637210E+03  0.00000000000E+00 0.  1.
          3    1    1    2  501    0  0.11582233443E+03 -0.71155546482E+02 -0.23837194694E+03  0.27440683307E+03  0.00000000000E+00 0. -1.
<scales pt_clust_5="13000.00000" pt_clust_6="13000.00000" pt_clust_7="13000.00000" pt_clust_8="13000.00000" pt_clust_9="13000.00000"></scales>
<clustering>
<clus scale="   80.752">  5  6 -1 -1</clus>
<clus scale="   89.062">  7  8 -1 -1</clus>
<clus scale="  135.934">  7  9 -1 -1</clus>
<clus scale="  144.601">  2  5  1 -1</clus>
<clus scale="  231.548">  1  5  2 -1</clus>
</clustering>
</event>
<event>
 9    2  0.3897980E-005  0.6066449E+03  0.7546771E-02  0.1024457E+00
         21   -1    0    0  501  502  0.00000000000E+00  0.00000000000E+00  0.40925810078E+03  0.40925810078E+03  0.00000000000E+00 0. -1.
          2   -1    0    0  502    0 -0.00000000000E+00 -0.00000000000E+00 -0.55621308877E+03  0.55621308877E+03  0.00000000000E+00 0. -1.
         24    2    1    2    0    0  0.43663917206E+02  0.18082209148E+03 -0.27887533215E+03  0.34464835042E+03  0.80049160717E+02 0.  0.
         23    2    1    2    0    0 -0.26972380551E+03 -0.21589378289E+03  0.15879800743E+03  0.39048503194E+03  0.88885860829E+02 0.  0.
        -13    1    3    3    0    0 -0.22389897059E+02  0.54594985848E+02 -0.66386992931E+02  0.88820902948E+02  0.00000000000E+00 0.  1.
         14    1    3    3    0    0  0.66053814265E+02  0.12622710563E+03 -0.21248833922E+03  0.25582744747E+03  0.00000000000E+00 0. -1.
        -11    1    4    4    0    0 -0.67911800158E+01 -0.33630940603E+02  0.24477756383E+01  0.34396975120E+02  0.00000000000E+00 0.  1.
         11    1    4    4    0    0 -0.26293262549E+03 -0.18226284229E+03  0.15635023179E+03  0.35608805682E+03  0.00000000000E+00 0. -1.
          1    1    1    2  501    0  0.22605988830E+03  0.35071691419E+02 -0.26877663267E+02  0.23033780719E+03  0.00000000000E+00 0. -1.
<scales pt_clust_5="13000.00000" pt_clust_6="13000.00000" pt_clust_7="13000.00000" pt_clust_8="13000.00000" pt_clust_9="13000.00000"></scales>
<clustering>
<clus scale="   80.049">  5  6 -1 -1</clus>
<clus scale="   88.886">  7  8 -1 -1</clus>
<clus scale="  202.512">  2  5  1 -1</clus>
<clus scale="  281.016">  7  9 -1 -1</clus>
<clus scale="  606.645">  1  5  2 -1</clus>
</clustering>
</event>
<event>
 9    2  0.3897980E-005  0.2766834E+03  0.7546771E-02  0.1130517E+00
         21   -1    0    0  501  502  0.00000000000E+00  0.00000000000E+00  0.38319795255E+02  0.38319795255E+02  0.00000000000E+00 0. -1.
          2   -1    0    0  502    0 -0.00000000000E+00 -0.00000000000E+00 -0.12768556346E+04  0.12768556346E+04  0.00000000000E+00 0. -1.
         24    2    1    2    0    0 -0.23662147477E+02 -0.86750625888E+02 -0.15065341225E+03  0.19265955804E+03  0.79597024854E+02 0.  0.
         23    2    1    2    0    0  0.88169374490E+01 -0.61793148909E+02 -0.28585306957E+03  0.30671153031E+03  0.91999205453E+02 0.  0.
        -13    1    3    3    0    0  0.21686418112E+02 -0.62781585865E+02 -0.10353437729E+03  0.12300892462E+03  0.00000000000E+00 0.  1.
         14    1    3    3    0    0 -0.45348565589E+02 -0.23969040023E+02 -0.47119034960E+02  0.69650633423E+02  0.00000000000E+00 0. -1.
        -11    1    4    4    0    0  0.34223589091E+02 -0.30505197358E+02 -0.24526006482E+03  0.24950815720E+03  0.00000000000E+00 0. -1.
         11    1    4    4    0    0 -0.25406651642E+02 -0.31287951551E+02 -0.40593004749E+02  0.57203373104E+02  0.00000000000E+00 0.  1.
          1    1    1    2  501    0  0.14845210028E+02  0.14854377480E+03 -0.80202935755E+03  0.81580434153E+03  0.00000000000E+00 0. -1.
<scales pt_clust_5="13000.00000" pt_clust_6="13000.00000" pt_clust_7="13000.00000" pt_clust_8="13000.00000" pt_clust_9="13000.00000"></scales>
<clustering>
<clus scale="   79.597">  5  6 -1 -1</clus>
<clus scale="   91.999">  7  8 -1 -1</clus>
<clus scale="  120.089">  2  5  1 -1</clus>
<clus scale="   85.085">  7  9 -1 -1</clus>
<clus scale="  276.683">  1  5  2 -1</clus>
</clustering>
</event>
<event>
 9    2  0.3897980E-005  0.3918028E+03  0.7546771E-02  0.1075356E+00
         21   -1    0    0  501  502  0.00000000000E+00  0.00000000000E+00  0.11152127659E+03  0.11152127659E+03  0.00000000000E+00 0. -1.
          2   -1    0    0  502    0 -0.00000000000E+00 -0.00000000000E+00 -0.72332918866E+03  0.72332918866E+03  0.00000000000E+00 0. -1.
         24    2    1    2    0    0 -0.67813584694E+02  0.14038057012E+03 -0.20583336996E+03  0.27064770117E+03  0.81101265251E+02 0.  0.
         23    2    1    2    0    0  0.18535278334E+03 -0.14974204650E+03 -0.19001253419E+03  0.31814852346E+03  0.91298329941E+02 0.  0.
        -11    1    3    3    0    0 -0.45431021279E+02  0.20860503570E+02 -0.35285843500E+02  0.61190105860E+02  0.00000000000E+00 0.  1.
         12    1    3    3    0    0 -0.22382563415E+02  0.11952006655E+03 -0.17054752646E+03  0.20945759531E+03  0.00000000000E+00 0. -1.
        -11    1    4    4    0    0  0.62756328170E+02 -0.68129464693E+01 -0.25424139033E+02  0.68052625302E+02  0.00000000000E+00 0.  1.
         11    1    4    4    0    0  0.12259645517E+03 -0.14292910003E+03 -0.16458839516E+03  0.25009589816E+03  0.00000000000E+00 0. -1.
          1    1    1    2  501    0 -0.11753919864E+03  0.93614763832E+01 -0.21596200793E+03  0.24605424062E+03  0.00000000000E+00 0. -1.
<scales pt_clust_5="13000.00000" pt_clust_6="13000.00000" pt_clust_7="13000.00000" pt_clust_8="13000.00000" pt_clust_9="13000.00000"></scales>
<clustering>
<clus scale="   81.101">  5  6 -1 -1</clus>
<clus scale="   91.298">  7  8 -1 -1</clus>
<clus scale="  117.911">  7  9 -1 -1</clus>
<clus scale="  175.735">  2  5  1 -1</clus>
<clus scale="  391.803">  1  5  2 -1</clus>
</clustering>
</event>
<event>
 9    2  0.3897980E-005  0.2437778E+03  0.7546771E-02  0.1158622E+00
         21   -1    0    0  501  502  0.00000000000E+00  0.00000000000E+00  0.78483841864E+02  0.78483841864E+02  0.00000000000E+00 0.  1.
         -3   -1    0    0    0  501 -0.00000000000E+00 -0.00000000000E+00 -0.77307411509E+03  0.77307411509E+03  0.00000000000E+00 0.  1.
         24    2    1    2    0    0 -0.35863950397E+02 -0.85943465779E+01 -0.57146773542E+03  0.57845213546E+03  0.81678728350E+02 0.  0.
         23    2    1    2    0    0  0.49206954296E+02 -0.62264092667E+02 -0.15295391349E+03  0.19507464092E+03  0.91438910169E+02 0.  0.
        -11    1    3    3    0    0 -0.60196121109E+02 -0.12047672371E+02 -0.32380706171E+03  0.32957507888E+03  0.00000000000E+00 0.  1.
         12    1    3    3    0    0  0.24332170712E+02  0.34533257932E+01 -0.24766067371E+03  0.24887705658E+03  0.00000000000E+00 0. -1.
        -13    1    4    4    0    0  0.49161219834E+02  0.64176923896E+01 -0.44042199992E+02  0.66315365423E+02  0.00000000000E+00 0. -1.
         13    1    4    4    0    0  0.45734461823E-01 -0.68681785057E+02 -0.10891171350E+03  0.12875927550E+03  0.00000000000E+00 0.  1.
         -4    1    1    2    0  502 -0.13343003899E+02  0.70858439245E+02  0.29831375684E+02  0.78031180566E+02  0.00000000000E+00 0.  1.
<scales pt_clust_5="13000.00000" pt_clust_6="13000.00000" pt_clust_7="13000.00000" pt_clust_8="13000.00000" pt_clust_9="13000.00000"></scales>
<clustering>
<clus scale="   81.679">  5  6 -1 -1</clus>
<clus scale="   89.619">  2  5  1 -1</clus>
<clus scale="   91.439">  7  8 -1 -1</clus>
<clus scale="   72.023">  7  9 -1 -1</clus>
<clus scale="  243.778">  1  5  2 -1</clus>
</clustering>
</event>
<event>
 9    2  0.3897980E-005  0.2248072E+03  0.7546771E-02  0.1150074E+00
         21   -1    0    0  501  502  0.00000000000E+00  0.00000000000E+00  0.40008947999E+02  0.40008947999E+02  0.00000000000E+00 0. -1.
          2   -1    0    0  502    0 -0.00000000000E+00 -0.00000000000E+00 -0.85601734800E+03  0.85601734800E+03  0.00000000000E+00 0. -1.
         24    2    1    2    0    0 -0.74361356446E+02  0.86089176955E+02 -0.24004258992E+03  0.27774245735E+03  0.81113931703E+02 0.  0.
         23    2    1    2    0    0  0.12022463375E+02  0.19411030396E+02 -0.33035071906E+03  0.34379667269E+03  0.92429577750E+02 0.  0.
        -11    1    3    3    0    0 -0.48422465549E+02  0.34137195707E+02 -0.45451187726E+02  0.74671907477E+02  0.00000000000E+00 0.  1.
         12    1    3    3    0    0 -0.25938890897E+02  0.51951981248E+02 -0.19459140219E+03  0.20307054987E+03  0.00000000000E+00 0. -1.
        -11    1    4    4    0    0  0.49543820232E+02  0.22008922833E+01 -0.23002528688E+03  0.23531057489E+03  0.00000000000E+00 0. -1.
         11    1    4    4    0    0 -0.37521356857E+02  0.17210138112E+02 -0.10032543218E+03  0.10848609780E+03  0.00000000000E+00 0.  1.
          1    1    1    2  501    0  0.62338893071E+02 -0.10550020735E+03 -0.24561509101E+03  0.27448716596E+03  0.00000000000E+00 0. -1.
<scales pt_clust_5="13000.00000" pt_clust_6="13000.00000" pt_clust_7="13000.00000" pt_clust_8="13000.00000" pt_clust_9="13000.00000"></scales>
<clustering>
<clus scale="   81.114">  5  6 -1 -1</clus>
<clus scale="   92.430">  7  8 -1 -1</clus>
<clus scale="  122.542">  7  9 -1 -1</clus>
<clus scale="  139.716">  2  5  1 -1</clus>
<clus scale="  224.807">  1  5  2 -1</clus>
</clustering>
</event>
<event>
 9    2  0.3897980E-005  0.2977968E+03  0.7546771E-02  0.1136815E+00
          2   -1    0    0  502    0 -0.00000000000E+00  0.00000000000E+00  0.10525603468E+04  0.10525603468E+04  0.00000000000E+00 0. -1.
         21   -1    0    0  501  502  0.00000000000E+00 -0.00000000000E+00 -0.34395331278E+02  0.34395331278E+02  0.00000000000E+00 0. -1.
         24    2    1    2    0    0  0.82608038568E+01 -0.65343659751E+01  0.20869985895E+03  0.22444956576E+03  0.81920922979E+02 0.  0.
         23    2    1    2    0    0 -0.99800407094E+02  0.22782000008E+02  0.19067033671E+03  0.23676613945E+03  0.96041067810E+02 0.  0.
        -13    1    3    3    0    0  0.17272381132E+02  0.10305006160E+02  0.61939895118E+01  0.21045042362E+02  0.00000000000E+00 0.  1.
         14    1    3    3    0    0 -0.90115772752E+01 -0.16839372135E+02  0.20250586944E+03  0.20340452339E+03  0.00000000000E+00 0. -1.
        -13    1    4    4    0    0  0.97810963016E+01  0.21867293810E+02  0.68903284585E+02  0.72948687515E+02  0.00000000000E+00 0.  1.
         13    1    4    4    0    0 -0.10958150340E+03  0.91470619739E+00  0.12176705213E+03  0.16381745193E+03  0.00000000000E+00 0. -1.
          1    1    1    2  501    0  0.91539603237E+02 -0.16247634033E+02  0.61879481987E+03  0.62573997288E+03  0.00000000000E+00 0. -1.
<scales pt_clust_5="13000.00000" pt_clust_6="13000.00000" pt_clust_7="13000.00000" pt_clust_8="13000.00000" pt_clust_9="13000.00000"></scales>
<clustering>
<clus scale="   81.921">  5  6 -1 -1</clus>
<clus scale="   82.595">  1  5  2 -1</clus>
<clus scale="   96.041">  7  8 -1 -1</clus>
<clus scale="   99.944">  7  9 -1 -1</clus>
<clus scale="  297.797">  2  5  1 -1</clus>
</clustering>
</event>
<event>
 9    2  0.3897980E-005  0.1011434E+04  0.7546771E-02  0.9902676E-01
          2   -1    0    0  502    0 -0.00000000000E+00  0.00000000000E+00  0.16755051098E+04  0.16755051098E+04  0.00000000000E+00 0. -1.
         21   -1    0    0  501  502  0.00000000000E+00 -0.00000000000E+00 -0.19318122463E+03  0.19318122463E+03  0.00000000000E+00 0. -1.
         24    2    1    2    0    0 -0.96944037831E+02 -0.14682841783E+02  0.15871276785E+03  0.20286972595E+03  0.79703517590E+02 0.  0.
         23    2    1    2    0    0  0.47145309276E+03 -0.25593433303E+03  0.79926503355E+03  0.96693929228E+03  0.91523765248E+02 0.  0.
        -11    1    3    3    0    0 -0.42235767718E+02  0.25756665964E+01  0.10005327797E+02  0.43481038597E+02  0.00000000000E+00 0.  1.
         12    1    3    3    0    0 -0.54708270113E+02 -0.17258508379E+02  0.14870744005E+03  0.15938868736E+03  0.00000000000E+00 0. -1.
        -13    1    4    4    0    0  0.36493902522E+02 -0.19974131593E+02  0.11653873199E+03  0.12374185592E+03  0.00000000000E+00 0.  1.
         13    1    4    4    0    0  0.43495919024E+03 -0.23596020143E+03  0.68272630156E+03  0.84319743635E+03  0.00000000000E+00 0. -1.
          1    1    1    2  501    0 -0.37450905493E+03  0.27061717481E+03  0.52434608374E+03  0.69887731617E+03  0.00000000000E+00 0. -1.
<scales pt_clust_5="13000.00000" pt_clust_6="13000.00000" pt_clust_7="13000.00000" pt_clust_8="13000.00000" pt_clust_9="13000.00000"></scales>
<clustering>
<clus scale="   79.704">  5  6 -1 -1</clus>
<clus scale="   91.524">  7  8 -1 -1</clus>
<clus scale="  126.358">  1  5  2 -1</clus>
<clus scale="  491.488">  7  9 -1 -1</clus>
<clus scale=" 1011.434">  2  5  1 -1</clus>
</clustering>
</event>
<event>
 9    2  0.3897980E-005  0.3213084E+03  0.7546771E-02  0.1087043E+00
          2   -1    0    0  502    0 -0.00000000000E+00  0.00000000000E+00  0.19583406403E+03  0.19583406403E+03  0.00000000000E+00 0. -1.
         21   -1    0    0  501  502  0.00000000000E+00 -0.00000000000E+00 -0.40852218169E+03  0.40852218169E+03  0.00000000000E+00 0. -1.
         24    2    1    2    0    0  0.58122487702E+02 -0.21042538311E+03 -0.29800135934E+02  0.23464407162E+03  0.80701467224E+02 0.  0.
         23    2    1    2    0    0 -0.10236251557E+03  0.37999221230E+02 -0.89918157190E+02  0.16888550843E+03  0.92276836516E+02 0.  0.
        -11    1    3    3    0    0  0.12346448304E+02 -0.83994834921E+02 -0.50221841048E+02  0.98639750595E+02  0.00000000000E+00 0.  1.
         12    1    3    3    0    0  0.45776039399E+02 -0.12643054819E+03  0.20421705115E+02  0.13600432103E+03  0.00000000000E+00 0. -1.
        -13    1    4    4    0    0 -0.22138918640E+02  0.12771646218E+02  0.18589579912E+02  0.31604100161E+02  0.00000000000E+00 0.  1.
         13    1    4    4    0    0 -0.80223596931E+02  0.25227575011E+02 -0.10850773710E+03  0.13728140827E+03  0.00000000000E+00 0. -1.
          1    1    1    2  501    0  0.44240027869E+02  0.17242616188E+03 -0.92969824542E+02  0.20082666567E+03  0.00000000000E+00 0. -1.
<scales pt_clust_5="13000.00000" pt_clust_6="13000.00000" pt_clust_7="13000.00000" pt_clust_8="13000.00000" pt_clust_9="13000.00000"></scales>
<clustering>
<clus scale="   80.701">  5  6 -1 -1</clus>
<clus scale="   92.277">  7  8 -1 -1</clus>
<clus scale="  178.011">  7  9 -1 -1</clus>
<clus scale="  232.744">  1  5  2 -1</clus>
<clus scale="  321.308">  2  5  1 -1</clus>
</clustering>
</event>
<event>
 9    2  0.3897980E-005  0.5540068E+03  0.7546771E-02  0.1043444E+00
          2   -1    0    0  502    0 -0.00000000000E+00  0.00000000000E+00  0.79110993713E+03  0.79110993713E+03  0.00000000000E+00 0. -1.
         21   -1    0    0  501  502  0.00000000000E+00 -0.00000000000E+00 -0.23956172455E+03  0.23956172455E+03  0.00000000000E+00 0.  1.
         24    2    1    2    0    0 -0.69767547317E+02  0.92627670710E+02  0.44003332580E+03  0.46555298596E+03  0.98299841721E+02 0.  0.
         23    2    1    2    0    0  0.21742987902E+03  0.14072155466E+03  0.90382530510E+02  0.28816633024E+03  0.88275273041E+02 0.  0.
        -13    1    3    3    0    0 -0.37804836546E+02 -0.49068102305E+01  0.53950374152E+02  0.66060013049E+02  0.00000000000E+00 0.  1.
         14    1    3    3    0    0 -0.31962710770E+02  0.97534480940E+02  0.38608295165E+03  0.39949297291E+03  0.00000000000E+00 0. -1.
        -13    1    4    4    0    0  0.11627896336E+03  0.11153355431E+03  0.21972485958E+02  0.16261402522E+03  0.00000000000E+00 0.  1.
         13    1    4    4    0    0  0.10115091566E+03  0.29188000344E+02  0.68410044553E+02  0.12555230503E+03  0.00000000000E+00 0. -1.
          1    1    1    2  501    0 -0.14766233170E+03 -0.23334922537E+03  0.21132356272E+02  0.27695234547E+03  0.00000000000E+00 0. -1.
<scales pt_clust_5="13000.00000" pt_clust_6="13000.00000" pt_clust_7="13000.00000" pt_clust_8="13000.00000" pt_clust_9="13000.00000"></scales>
<clustering>
<clus scale="   88.275">  7  8 -1 -1</clus>
<clus scale="   98.300">  5  6 -1 -1</clus>
<clus scale="  152.021">  1  5  2 -1</clus>
<clus scale="  262.485">  7  9 -1 -1</clus>
<clus scale="  554.007">  2  5  1 -1</clus>
</clustering>
</event>
<event>
 9    2  0.3897980E-005  0.1225238E+04  0.7546771E-02  0.9637503E-01
          2   -1    0    0  502    0 -0.00000000000E+00  0.00000000000E+00  0.17691289707E+04  0.17691289707E+04  0.00000000000E+00 0. -1.
         21   -1    0    0  501  502  0.00000000000E+00 -0.00000000000E+00 -0.28431572221E+03  0.28431572221E+03  0.00000000000E+00 0. -1.
         24    2    1    2    0    0 -0.34879013366E+02  0.14784198004E+03  0.32087342257E+03  0.36348507581E+03  0.78024678064E+02 0.  0.
         23    2    1    2    0    0 -0.32011635802E+03  0.39773655801E+03  0.27101350918E+03  0.58497316378E+03  0.89868948726E+02 0.  0.
        -13    1    3    3    0    0 -0.48345629108E+02  0.11296162082E+03  0.29013965047E+03  0.31508513834E+03  0.00000000000E+00 0.  1.
         14    1    3    3    0    0  0.13466615741E+02  0.34880359222E+02  0.30733772109E+02  0.48399937469E+02  0.00000000000E+00 0. -1.
        -11    1    4    4    0    0 -0.34135833924E+02  0.20305707480E+02  0.45748680403E+02  0.60584805624E+02  0.00000000000E+00 0.  1.
         11    1    4    4    0    0 -0.28598052409E+03  0.37743085053E+03  0.22526482877E+03  0.52438835816E+03  0.00000000000E+00 0. -1.
          1    1    1    2  501    0  0.35499537138E+03 -0.54557853805E+03  0.89292631670E+03  0.11049864533E+04  0.00000000000E+00 0. -1.
<scales pt_clust_5="13000.00000" pt_clust_6="13000.00000" pt_clust_7="13000.00000" pt_clust_8="13000.00000" pt_clust_9="13000.00000"></scales>
<clustering>
<clus scale="   78.025">  5  6 -1 -1</clus>
<clus scale="   89.869">  7  8 -1 -1</clus>
<clus scale="  170.768">  1  5  2 -1</clus>
<clus scale="  552.011">  7  9 -1 -1</clus>
<clus scale=" 1225.238">  2  5  1 -1</clus>
</clustering>
</event>
<event>
 9    2  0.3897980E-005  0.2714098E+03  0.7546771E-02  0.1147523E+00
         21   -1    0    0  501  502  0.00000000000E+00  0.00000000000E+00  0.58821078359E+03  0.58821078359E+03  0.00000000000E+00 0. -1.
          4   -1    0    0  502    0 -0.00000000000E+00 -0.00000000000E+00 -0.56378873760E+02  0.56378873760E+02  0.00000000000E+00 0. -1.
         24    2    1    2    0    0 -0.33527658938E+01 -0.31151742002E+02  0.73293101527E+02  0.11174717969E+03  0.78319099637E+02 0.  0.
         23    2    1    2    0    0 -0.89761405355E+02 -0.17316484488E+01  0.39617403008E+03  0.41604807789E+03  0.89900125201E+02 0.  0.
        -11    1    3    3    0    0  0.33933408107E+02 -0.21197799942E+02  0.16945463008E+02  0.43450795444E+02  0.00000000000E+00 0.  1.
         12    1    3    3    0    0 -0.37286174001E+02 -0.99539420596E+01  0.56347638519E+02  0.68296384244E+02  0.00000000000E+00 0. -1.
        -11    1    4    4    0    0 -0.12432215714E+02  0.37960646130E+02  0.13540784143E+03  0.14117667712E+03  0.00000000000E+00 0. -1.
         11    1    4    4    0    0 -0.77329189641E+02 -0.39692294579E+02  0.26076618865E+03  0.27487140077E+03  0.00000000000E+00 0.  1.
          3    1    1    2  501    0  0.93114171249E+02  0.32883390451E+02  0.62364778227E+02  0.11679439977E+03  0.00000000000E+00 0. -1.
<scales pt_clust_5="13000.00000" pt_clust_6="13000.00000" pt_clust_7="13000.00000" pt_clust_8="13000.00000" pt_clust_9="13000.00000"></scales>
<clustering>
<clus scale="   78.319">  5  6 -1 -1</clus>
<clus scale="   84.354">  2  5  1 -1</clus>
<clus scale="   89.900">  7  8 -1 -1</clus>
<clus scale="   91.215">  7  9 -1 -1</clus>
<clus scale="  271.410">  1  5  2 -1</clus>
</clustering>
</event>
<event>
 9    2  0.3897980E-005  0.1578948E+03  0.7546771E-02  0.1216773E+00
         21   -1    0    0  501  502  0.00000000000E+00  0.00000000000E+00  0.42958195850E+02  0.42958195850E+02  0.00000000000E+00 0. -1.
          2   -1    0    0  502    0 -0.00000000000E+00 -0.00000000000E+00 -0.35983056894E+03  0.35983056894E+03  0.00000000000E+00 0. -1.
         24    2    1    2    0    0  0.42394612956E+00  0.62679278707E+02 -0.11889921521E+03  0.14956133371E+03  0.65594949911E+02 0.  0.
         23    2    1    2    0    0 -0.19609778474E+02 -0.54231089907E+02 -0.19834821304E+03  0.23226058288E+03  0.10619515158E+03 0.  0.
        -13    1    3    3    0    0  0.30534796504E+02  0.47753078447E+02 -0.67383899278E+02  0.88052939647E+02  0.00000000000E+00 0.  1.
         14    1    3    3    0    0 -0.30110850375E+02  0.14926200260E+02 -0.51515315932E+02  0.61508394062E+02  0.00000000000E+00 0. -1.
        -13    1    4    4    0    0 -0.11137656551E+02  0.28133820659E+02 -0.95761221245E+02  0.10042793811E+03  0.00000000000E+00 0.  1.
         13    1    4    4    0    0 -0.84721219223E+01 -0.82364910566E+02 -0.10258699180E+03  0.13183264478E+03  0.00000000000E+00 0. -1.
          1    1    1    2  501    0  0.19185832344E+02 -0.84481888001E+01  0.37505516749E+00  0.20966848192E+02  0.00000000000E+00 0. -1.
<scales pt_clust_5="13000.00000" pt_clust_6="13000.00000" pt_clust_7="13000.00000" pt_clust_8="13000.00000" pt_clust_9="13000.00000"></scales>
<clustering>
<clus scale="   65.595">  5  6 -1 -1</clus>
<clus scale="   90.728">  2  5  1 -1</clus>
<clus scale="  106.195">  7  8 -1 -1</clus>
<clus scale="   20.002">  7  9 -1 -1</clus>
<clus scale="  157.895">  1  5  2 -1</clus>
</clustering>
</event>
<event>
 9    2  0.3897980E-005  0.2004939E+03  0.7546771E-02  0.1172872E+00
          2   -1    0    0  502    0 -0.00000000000E+00  0.00000000000E+00  0.70445445234E+03  0.70445445234E+03  0.00000000000E+00 0. -1.
         21   -1    0    0  501  502  0.00000000000E+00 -0.00000000000E+00 -0.37354430476E+02  0.37354430476E+02  0.00000000000E+00 0.  1.
         24    2    1    2    0    0 -0.80457249377E+02  0.16263809175E+02  0.17006545871E+03  0.20586004801E+03  0.81964740303E+02 0.  0.
         23    2    1    2    0    0  0.37184910069E+02  0.80820489186E+01  0.12074255680E+03  0.15639529419E+03  0.91829657350E+02 0.  0.
        -13    1    3    3    0    0 -0.85664316986E+02 -0.38832807994E+01  0.95066201733E+02  0.12802748840E+03  0.00000000000E+00 0.  1.
         14    1    3    3    0    0  0.52070676091E+01  0.20147089975E+02  0.74999256981E+02  0.77832559608E+02  0.00000000000E+00 0. -1.
        -11    1    4    4    0    0  0.57164189480E+02  0.33451480429E+02  0.71060093414E+02  0.97140532106E+02  0.00000000000E+00 0. -1.
         11    1    4    4    0    0 -0.19979279411E+02 -0.25369431510E+02  0.49682463390E+02  0.59254762083E+02  0.00000000000E+00 0.  1.
          1    1    1    2  501    0  0.43272339308E+02 -0.24345858094E+02  0.37629200635E+03  0.37955354062E+03  0.00000000000E+00 0. -1.
<scales pt_clust_5="13000.00000" pt_clust_6="13000.00000" pt_clust_7="13000.00000" pt_clust_8="13000.00000" pt_clust_9="13000.00000"></scales>
<clustering>
<clus scale="   81.965">  5  6 -1 -1</clus>
<clus scale="   91.830">  7  8 -1 -1</clus>
<clus scale="   49.651">  7  9 -1 -1</clus>
<clus scale="  116.000">  1  5  2 -1</clus>
<clus scale="  200.494">  2  5  1 -1</clus>
</clustering>
</event>
<event>
 9    2  0.3897980E-005  0.4172046E+03  0.7546771E-02  0.1086262E+00
          2   -1    0    0  502    0 -0.00000000000E+00  0.00000000000E+00  0.15486861058E+04  0.15486861058E+04  0.00000000000E+00 0. -1.
         21   -1    0    0  501  502  0.00000000000E+00 -0.00000000000E+00 -0.48151857977E+02  0.48151857977E+02  0.00000000000E+00 0.  1.
         24    2    1    2    0    0 -0.67965417737E+02 -0.29078069383E+02  0.16372541221E+03  0.19643890929E+03  0.79482088256E+02 0.  0.
         23    2    1    2    0    0 -0.13220630112E+03 -0.62193258442E+02  0.35981352796E+03  0.39894061626E+03  0.91330898084E+02 0.  0.
        -11    1    3    3    0    0 -0.10695794108E+02 -0.47262574902E+02  0.73502267548E+02  0.88038254939E+02  0.00000000000E+00 0.  1.
         12    1    3    3    0    0 -0.57269623629E+02  0.18184505519E+02  0.90223144663E+02  0.10840065435E+03  0.00000000000E+00 0. -1.
        -11    1    4    4    0    0 -0.10915035571E+03 -0.29512304172E+02  0.16474498660E+03  0.19981413078E+03  0.00000000000E+00 0.  1.
         11    1    4    4    0    0 -0.23055945414E+02 -0.32680954270E+02  0.19506854136E+03  0.19912648548E+03  0.00000000000E+00 0. -1.
          1    1    1    2  501    0  0.20017171886E+03  0.91271327825E+02  0.97699530761E+03  0.10014584382E+04  0.00000000000E+00 0. -1.
<scales pt_clust_5="13000.00000" pt_clust_6="13000.00000" pt_clust_7="13000.00000" pt_clust_8="13000.00000" pt_clust_9="13000.00000"></scales>
<clustering>
<clus scale="   79.482">  5  6 -1 -1</clus>
<clus scale="   91.331">  7  8 -1 -1</clus>
<clus scale="  108.546">  1  5  2 -1</clus>
<clus scale="  166.585">  7  9 -1 -1</clus>
<clus scale="  417.205">  2  5  1 -1</clus>
</clustering>
</event>
<event>
 9    2  0.3897980E-005  0.2773830E+03  0.7546771E-02  0.1123716E+00
          2   -1    0    0  502    0 -0.00000000000E+00  0.00000000000E+00  0.12383454078E+04  0.12383454078E+04  0.00000000000E+00 0. -1.
         21   -1    0    0  501  502  0.00000000000E+00 -0.00000000000E+00 -0.50219169621E+02  0.50219169621E+02  0.00000000000E+00 0.  1.
         24    2    1    2    0    0 -0.44589373724E+02 -0.10682054451E+03  0.12037604941E+03  0.18537294696E+03  0.80460519611E+02 0.  0.
         23    2    1    2    0    0 -0.61538888305E+02  0.47286024330E+02  0.25164995083E+03  0.27806911503E+03  0.89284556955E+02 0.  0.
        -13    1    3    3    0    0 -0.53422050733E+02 -0.11354061455E+03  0.94085484745E+02  0.15683579023E+03  0.00000000000E+00 0.  1.
         14    1    3    3    0    0  0.88326770089E+01  0.67200700349E+01  0.26290564661E+02  0.28537156737E+02  0.00000000000E+00 0. -1.
        -11    1    4    4    0    0 -0.60287787926E+02  0.68585878241E+02  0.16248385435E+03  0.18638573709E+03  0.00000000000E+00 0. -1.
         11    1    4    4    0    0 -0.12511003790E+01 -0.21299853911E+02  0.89166096475E+02  0.91683377934E+02  0.00000000000E+00 0.  1.
          1    1    1    2  501    0  0.10612826203E+03  0.59534520181E+02  0.81610023797E+03  0.82512251545E+03  0.00000000000E+00 0. -1.
<scales pt_clust_5="13000.00000" pt_clust_6="13000.00000" pt_clust_7="13000.00000" pt_clust_8="13000.00000" pt_clust_9="13000.00000"></scales>
<clustering>
<clus scale="   80.461">  5  6 -1 -1</clus>
<clus scale="   89.285">  7  8 -1 -1</clus>
<clus scale="  121.686">  7  9 -1 -1</clus>
<clus scale="  140.971">  1  5  2 -1</clus>
<clus scale="  277.383">  2  5  1 -1</clus>
</clustering>
</event>
<event>
 9    2  0.3897980E-005  0.2034435E+03  0.7546771E-02  0.1184278E+00
         21   -1    0    0  501  502  0.00000000000E+00  0.00000000000E+00  0.36635031817E+02  0.36635031817E+02  0.00000000000E+00 0.  1.
         -1   -1    0    0    0  501 -0.00000000000E+00 -0.00000000000E+00 -0.57120531210E+03  0.57120531210E+03  0.00000000000E+00 0.  1.
         24    2    1    2    0    0 -0.22552138582E+02  0.15987104110E+02 -0.15628682328E+03  0.17832010184E+03  0.81291457959E+02 0.  0.
         23    2    1    2    0    0 -0.63609921060E+02  0.94520435046E+01 -0.18147248348E+03  0.21317419970E+03  0.91517287838E+02 0.  0.
        -11    1    3    3    0    0 -0.16554582348E+02  0.25186842658E+02 -0.16279020151E+03  0.16555688130E+03  0.00000000000E+00 0.  1.
         12    1    3    3    0    0 -0.59975562332E+01 -0.91997385481E+01  0.65033782278E+01  0.12763220538E+02  0.00000000000E+00 0. -1.
        -13    1    4    4    0    0 -0.45883909854E+02  0.44501531308E+02 -0.14928298893E+03  0.16239190329E+03  0.00000000000E+00 0. -1.
         13    1    4    4    0    0 -0.17726011206E+02 -0.35049487803E+02 -0.32189494549E+02  0.50782296402E+02  0.00000000000E+00 0.  1.
         -2    1    1    2    0  502  0.86162059642E+02 -0.25439147615E+02 -0.19681097353E+03  0.21634604238E+03  0.00000000000E+00 0.  1.
<scales pt_clust_5="13000.00000" pt_clust_6="13000.00000" pt_clust_7="13000.00000" pt_clust_8="13000.00000" pt_clust_9="13000.00000"></scales>
<clustering>
<clus scale="   81.291">  5  6 -1 -1</clus>
<clus scale="   85.863">  2  5  1 -1</clus>
<clus scale="   91.517">  7  8 -1 -1</clus>
<clus scale="   76.598">  7  9 -1 -1</clus>
<clus scale="  203.444">  1  5  2 -1</clus>
</clustering>
</event>
<event>
 9    2  0.3897980E-005  0.2434237E+03  0.7546771E-02  0.1160322E+00
         21   -1    0    0  501  502  0.00000000000E+00  0.00000000000E+00  0.14582290951E+04  0.14582290951E+04  0.00000000000E+00 0.  1.
          4   -1    0    0  502    0 -0.00000000000E+00 -0.00000000000E+00 -0.19266432518E+02  0.19266432518E+02  0.00000000000E+00 0. -1.
         24    2    1    2    0    0  0.38223804865E+02  0.46441556263E+02  0.27251125754E+03  0.28591507846E+03  0.62186567694E+02 0.  0.
         23    2    1    2    0    0  0.42150005454E+02 -0.10134390857E+03  0.72692085255E+03  0.74140123567E+03  0.95992997763E+02 0.  0.
        -13    1    3    3    0    0  0.23596571267E+02  0.60119487536E+02  0.17930784263E+03  0.19058450458E+03  0.00000000000E+00 0.  1.
         14    1    3    3    0    0  0.14627233598E+02 -0.13677931273E+02  0.93203414909E+02  0.95330573886E+02  0.00000000000E+00 0. -1.
        -11    1    4    4    0    0  0.50304507524E+02 -0.71935510903E+01  0.28406557333E+03  0.28857501730E+03  0.00000000000E+00 0. -1.
         11    1    4    4    0    0 -0.81545020706E+01 -0.94150357483E+02  0.44285527921E+03  0.45282621837E+03  0.00000000000E+00 0.  1.
          3    1    1    2  501    0 -0.80373810319E+02  0.54902352311E+02  0.43953055247E+03  0.45017921346E+03  0.00000000000E+00 0. -1.
<scales pt_clust_5="13000.00000" pt_clust_6="13000.00000" pt_clust_7="13000.00000" pt_clust_8="13000.00000" pt_clust_9="13000.00000"></scales>
<clustering>
<clus scale="   62.187">  5  6 -1 -1</clus>
<clus scale="   86.516">  2  5  1 -1</clus>
<clus scale="   95.993">  7  8 -1 -1</clus>
<clus scale="   98.393">  7  9 -1 -1</clus>
<clus scale="  243.424">  1  5  2 -1</clus>
</clustering>
</event>
<event>
 9    2  0.3897980E-005  0.1130985E+03  0.7546771E-02  0.1271555E+00
         -1   -1    0    0    0  501 -0.00000000000E+00  0.00000000000E+00  0.26955301414E+03  0.26955301414E+03  0.00000000000E+00 0.  1.
         21   -1    0    0  501  502  0.00000000000E+00 -0.00000000000E+00 -0.38285266246E+02  0.38285266246E+02  0.00000000000E+00 0. -1.
         24    2    1    2    0    0 -0.15267911854E+02  0.22131652973E+01  0.55357212451E+02  0.98707262786E+02  0.80253943974E+02 0.  0.
         23    2    1    2    0    0  0.29411970656E+02  0.14420694123E+02  0.13718966790E+03  0.16467828695E+03  0.84999486930E+02 0.  0.
        -13    1    3    3    0    0 -0.16383002723E+02  0.39923435971E+02  0.36550253370E+02  0.56552670488E+02  0.00000000000E+00 0.  1.
         14    1    3    3    0    0  0.11150908693E+01 -0.37710270674E+02  0.18806959081E+02  0.42154592298E+02  0.00000000000E+00 0. -1.
        -11    1    4    4    0    0  0.57514543564E+02  0.54862315895E+01  0.11145331948E+03  0.12553829647E+03  0.00000000000E+00 0.  1.
         11    1    4    4    0    0 -0.28102572907E+02  0.89344625335E+01  0.25736348422E+02  0.39139990481E+02  0.00000000000E+00 0. -1.
         -2    1    1    2    0  502 -0.14144058802E+02 -0.16633859420E+02  0.38720867545E+02  0.44452730648E+02  0.00000000000E+00 0.  1.
<scales pt_clust_5="13000.00000" pt_clust_6="13000.00000" pt_clust_7="13000.00000" pt_clust_8="13000.00000" pt_clust_9="13000.00000"></scales>
<clustering>
<clus scale="   80.254">  5  6 -1 -1</clus>
<clus scale="   81.723">  1  5  2 -1</clus>
<clus scale="   84.999">  7  8 -1 -1</clus>
<clus scale="   23.775">  7  9 -1 -1</clus>
<clus scale="  113.098">  2  5  1 -1</clus>
</clustering>
</event>
<event>
 9    2  0.3897980E-005  0.3305991E+03  0.7546771E-02  0.1115736E+00
          2   -1    0    0  502    0 -0.00000000000E+00  0.00000000000E+00  0.81822069862E+03  0.81822069862E+03  0.00000000000E+00 0. -1.
         21   -1    0    0  501  502  0.00000000000E+00 -0.00000000000E+00 -0.63044030119E+02  0.63044030119E+02  0.00000000000E+00 0.  1.
         24    2    1    2    0    0 -0.52861855621E+02  0.59466081563E+02  0.31343507544E+03  0.32951167871E+03  0.63291462720E+02 0.  0.
         23    2    1    2    0    0  0.23266605372E+01 -0.11111192709E+03  0.47819280971E+02  0.15125849668E+03  0.90780920316E+02 0.  0.
        -11    1    3    3    0    0 -0.36094185142E+01  0.49568507185E+02  0.12562854728E+03  0.13510217133E+03  0.00000000000E+00 0.  1.
         12    1    3    3    0    0 -0.49252437107E+02  0.98975743779E+01  0.18780652816E+03  0.19440950737E+03  0.00000000000E+00 0. -1.
        -13    1    4    4    0    0  0.52712551757E+01 -0.19830240486E+02 -0.26497283933E+02  0.33513141074E+02  0.00000000000E+00 0. -1.
         13    1    4    4    0    0 -0.29445946385E+01 -0.91281686605E+02  0.74316564904E+02  0.11774535560E+03  0.00000000000E+00 0.  1.
          1    1    1    2  501    0  0.50535195084E+02  0.51645845528E+02  0.39392231209E+03  0.40049455335E+03  0.00000000000E+00 0. -1.
<scales pt_clust_5="13000.00000" pt_clust_6="13000.00000" pt_clust_7="13000.00000" pt_clust_8="13000.00000" pt_clust_9="13000.00000"></scales>
<clustering>
<clus scale="   63.291">  5  6 -1 -1</clus>
<clus scale="   90.781">  7  8 -1 -1</clus>
<clus scale="   72.257">  7  9 -1 -1</clus>
<clus scale="  101.668">  1  5  2 -1</clus>
<clus scale="  330.599">  2  5  1 -1</clus>
</clustering>
</event>
<event>
 9    2  0.3897980E-005  0.1753196E+03  0.7546771E-02  0.1204315E+00
          2   -1    0    0  502    0 -0.00000000000E+00  0.00000000000E+00  0.56228044452E+02  0.56228044452E+02  0.00000000000E+00 0. -1.
         21   -1    0    0  501  502  0.00000000000E+00 -0.00000000000E+00 -0.33837764489E+03  0.33837764489E+03  0.00000000000E+00 0. -1.
         24    2    1    2    0    0 -0.29956643591E+02 -0.18806069245E+02 -0.39003709230E+02  0.94844314951E+02  0.78886538833E+02 0.  0.
         23    2    1    2    0    0 -0.32926451807E+02 -0.25468655388E+02 -0.69630683954E+02  0.10996658501E+03  0.74238898396E+02 0.  0.
        -13    1    3    3    0    0  0.17528643302E+02 -0.11368110788E+02 -0.41766798797E+02  0.46700671951E+02  0.00000000000E+00 0.  1.
         14    1    3    3    0    0 -0.47485286893E+02 -0.74379584569E+01  0.27630895673E+01  0.48143643000E+02  0.00000000000E+00 0. -1.
        -13    1    4    4    0    0 -0.38041158205E+02  0.60564401461E+01 -0.62909218007E+01  0.39030576244E+02  0.00000000000E+00 0.  1.
         13    1    4    4    0    0  0.51147063988E+01 -0.31525095534E+02 -0.63339762153E+02  0.70936008766E+02  0.00000000000E+00 0. -1.
          1    1    1    2  501    0  0.62883095398E+02  0.44274724633E+02 -0.17351520725E+03  0.18979478938E+03  0.00000000000E+00 0. -1.
<scales pt_clust_5="13000.00000" pt_clust_6="13000.00000" pt_clust_7="13000.00000" pt_clust_8="13000.00000" pt_clust_9="13000.00000"></scales>
<clustering>
<clus scale="   74.239">  7  8 -1 -1</clus>
<clus scale="   76.906">  7  9 -1 -1</clus>
<clus scale="   78.887">  5  6 -1 -1</clus>
<clus scale="   86.453">  1  5  2 -1</clus>
<clus scale="  175.320">  2  5  1 -1</clus>
</clustering>
</event>
<event>
 9    2  0.3897980E-005  0.2788484E+03  0.7546771E-02  0.1138811E+00
         21   -1    0    0  501  502  0.00000000000E+00  0.00000000000E+00  0.42747950882E+03  0.42747950882E+03  0.00000000000E+00 0. -1.
          4   -1    0    0  502    0 -0.00000000000E+00 -0.00000000000E+00 -0.83468162296E+02  0.83468162296E+02  0.00000000000E+00 0. -1.
         24    2    1    2    0    0 -0.50927674876E+02 -0.80334576548E+01  0.11786586412E+03  0.15192372686E+03  0.80810224281E+02 0.  0.
         23    2    1    2    0    0  0.52860848078E+02 -0.11749968604E+03  0.13934607707E+03  0.20639221724E+03  0.81117030659E+02 0.  0.
        -13    1    3    3    0    0 -0.51798698873E+02 -0.25392908298E+02  0.35482462786E+02  0.67726731518E+02  0.00000000000E+00 0.  1.
         14    1    3    3    0    0  0.87102399706E+00  0.17359450644E+02  0.82383401331E+02  0.84196995340E+02  0.00000000000E+00 0. -1.
        -11    1    4    4    0    0  0.36110681474E+02 -0.87972136327E+02  0.14354416049E+03  0.17218595790E+03  0.00000000000E+00 0. -1.
         11    1    4    4    0    0  0.16750166603E+02 -0.29527549718E+02 -0.41980834246E+01  0.34206259340E+02  0.00000000000E+00 0.  1.
          3    1    1    2  501    0 -0.19331732016E+01  0.12553314370E+03  0.86799405340E+02  0.15263172702E+03  0.00000000000E+00 0. -1.
<scales pt_clust_5="13000.00000" pt_clust_6="13000.00000" pt_clust_7="13000.00000" pt_clust_8="13000.00000" pt_clust_9="13000.00000"></scales>
<clustering>
<clus scale="   80.810">  5  6 -1 -1</clus>
<clus scale="   81.117">  7  8 -1 -1</clus>
<clus scale="   95.856">  2  5  1 -1</clus>
<clus scale="  124.552">  7  9 -1 -1</clus>
<clus scale="  278.848">  1  5  2 -1</clus>
</clustering>
</event>
<event>
 9    2  0.3897980E-005  0.1464504E+03  0.7546771E-02  0.1231945E+00
         21   -1    0    0  501  502  0.00000000000E+00  0.00000000000E+00  0.44210340854E+02  0.44210340854E+02  0.00000000000E+00 0. -1.
          2   -1    0    0  502    0 -0.00000000000E+00 -0.00000000000E+00 -0.70235780185E+03  0.70235780185E+03  0.00000000000E+00 0. -1.
         24    2    1    2    0    0 -0.21285803737E+02  0.25677323303E+01 -0.56924407215E+03  0.57524525927E+03  0.80053831563E+02 0.  0.
         23    2    1    2    0    0 -0.25504306967E+02 -0.20170481572E+02 -0.50286397763E+02  0.10815292823E+03  0.90061179667E+02 0.  0.
        -13    1    3    3    0    0  0.19080230087E+02 -0.21560825113E+02 -0.11403327412E+03  0.11761169996E+03  0.00000000000E+00 0.  1.
         14    1    3    3    0    0 -0.40366033824E+02  0.24128557444E+02 -0.45521079802E+03  0.45763355931E+03  0.00000000000E+00 0. -1.
        -13    1    4    4    0    0  0.18498040274E+02 -0.41752167965E+02 -0.16199419372E+02  0.48454537576E+02  0.00000000000E+00 0.  1.
         13    1    4    4    0    0 -0.44002347241E+02  0.21581686393E+02 -0.34086978390E+02  0.59698390649E+02  0.00000000000E+00 0. -1.
          1    1    1    2  501    0  0.46790110704E+02  0.17602749242E+02 -0.38616991086E+02  0.63169955209E+02  0.00000000000E+00 0. -1.
<scales pt_clust_5="13000.00000" pt_clust_6="13000.00000" pt_clust_7="13000.00000" pt_clust_8="13000.00000" pt_clust_9="13000.00000"></scales>
<clustering>
<clus scale="   80.054">  5  6 -1 -1</clus>
<clus scale="   82.875">  2  5  1 -1</clus>
<clus scale="   90.061">  7  8 -1 -1</clus>
<clus scale="   42.728">  7  9 -1 -1</clus>
<clus scale="  146.450">  1  5  2 -1</clus>
</clustering>
</event>
<event>
 9    2  0.3897980E-005  0.3006186E+03  0.7546771E-02  0.1114406E+00
         -3   -1    0    0    0  501 -0.00000000000E+00  0.00000000000E+00  0.13445988881E+03  0.13445988881E+03  0.00000000000E+00 0.  1.
         21   -1    0    0  501  502  0.00000000000E+00 -0.00000000000E+00 -0.40312042122E+03  0.40312042122E+03  0.00000000000E+00 0. -1.
         24    2    1    2    0    0  0.10218228198E+03  0.54097350474E+02 -0.17228062483E+03  0.22188963126E+03  0.78655277574E+02 0.  0.
         23    2    1    2    0    0  0.65059881185E+02  0.20958564261E+02 -0.43827363319E+02  0.12499431965E+03  0.95029956398E+02 0.  0.
        -11    1    3    3    0    0  0.13287815786E+02  0.47889403042E+02 -0.74920048906E+02  0.89905365247E+02  0.00000000000E+00 0.  1.
         12    1    3    3    0    0  0.88894466190E+02  0.62079474321E+01 -0.97360575923E+02  0.13198426601E+03  0.00000000000E+00 0. -1.
        -11    1    4    4    0    0  0.13980309249E+02  0.54112992221E+02 -0.25239195320E+02  0.61324399339E+02  0.00000000000E+00 0.  1.
         11    1    4    4    0    0  0.51079571936E+02 -0.33154427961E+02 -0.18588167998E+02  0.63669920308E+02  0.00000000000E+00 0. -1.
         -4    1    1    2    0  502 -0.16724216316E+03 -0.75055914735E+02 -0.52552544260E+02  0.19069635913E+03  0.00000000000E+00 0.  1.
<scales pt_clust_5="13000.00000" pt_clust_6="13000.00000" pt_clust_7="13000.00000" pt_clust_8="13000.00000" pt_clust_9="13000.00000"></scales>
<clustering>
<clus scale="   78.655">  5  6 -1 -1</clus>
<clus scale="   95.030">  7  8 -1 -1</clus>
<clus scale="  139.837">  1  5  2 -1</clus>
<clus scale="  110.739">  7  9 -1 -1</clus>
<clus scale="  300.619">  2  5  1 -1</clus>
</clustering>
</event>
<event>
 9    2  0.3897980E-005  0.1256829E+03  0.7546771E-02  0.1251699E+00
         -3   -1    0    0    0  501 -0.00000000000E+00  0.00000000000E+00  0.99451652665E+02  0.99451652665E+02  0.00000000000E+00 0.  1.
         21   -1    0    0  501  502  0.00000000000E+00 -0.00000000000E+00 -0.26160622423E+03  0.26160622423E+03  0.00000000000E+00 0. -1.
         24    2    1    2    0    0  0.33589876795E+02  0.79634177763E+01  0.59579023606E+02  0.10618148266E+03  0.80827912012E+02 0.  0.
         23    2    1    2    0    0  0.15998583429E+01 -0.22259639865E+01 -0.11209001280E+03  0.13958133367E+03  0.83134007951E+02 0.  0.
        -11    1    3    3    0    0  0.54823632857E+02 -0.79316804961E+01  0.57079332599E+02  0.79539879841E+02  0.00000000000E+00 0.  1.
         12    1    3    3    0    0 -0.21233756062E+02  0.15895098272E+02  0.24996910066E+01  0.26641602819E+02  0.00000000000E+00 0. -1.
        -11    1    4    4    0    0 -0.21033308282E+02 -0.41052225672E+01  0.35587571768E+01  0.21723665949E+02  0.00000000000E+00 0.  1.
         11    1    4    4    0    0  0.22633166625E+02  0.18792585807E+01 -0.11564876998E+03  0.11785766772E+03  0.00000000000E+00 0. -1.
         -4    1    1    2    0  502 -0.35189735138E+02 -0.57374537898E+01 -0.10964358237E+03  0.11529506056E+03  0.00000000000E+00 0.  1.
<scales pt_clust_5="13000.00000" pt_clust_6="13000.00000" pt_clust_7="13000.00000" pt_clust_8="13000.00000" pt_clust_9="13000.00000"></scales>
<clustering>
<clus scale="   80.828">  5  6 -1 -1</clus>
<clus scale="   83.134">  7  8 -1 -1</clus>
<clus scale="   35.654">  7  9 -1 -1</clus>
<clus scale="   87.891">  1  5  2 -1</clus>
<clus scale="  125.683">  2  5  1 -1</clus>
</clustering>
</event>
<event>
 9    2  0.3897980E-005  0.1072005E+04  0.7546771E-02  0.9312604E-01
         21   -1    0    0  501  502  0.00000000000E+00  0.00000000000E+00  0.98674115909E+03  0.98674115909E+03  0.00000000000E+00 0.  1.
          2   -1    0    0  502    0 -0.00000000000E+00 -0.00000000000E+00 -0.88878875602E+03  0.88878875602E+03  0.00000000000E+00 0. -1.
         24    2    1    2    0    0  0.79110249632E+03 -0.75581690750E+02  0.91988190284E+01  0.79985734043E+03  0.90174248592E+02 0.  0.
         23    2    1    2    0    0  0.10006052285E+03  0.54997014924E+02 -0.82560801052E+02  0.16795903277E+03  0.91417563592E+02 0.  0.
        -13    1    3    3    0    0  0.73311976738E+03 -0.92458575890E+02  0.15897138235E+02  0.73909803178E+03  0.00000000000E+00 0.  1.
         14    1    3    3    0    0  0.57982728939E+02  0.16876885140E+02 -0.66983192067E+01  0.60759308649E+02  0.00000000000E+00 0. -1.
        -11    1    4    4    0    0 -0.67122830694E+01  0.31802669395E+02 -0.26870266513E+01  0.32614178464E+02  0.00000000000E+00 0. -1.
         11    1    4    4    0    0  0.10677280592E+03  0.23194345530E+02 -0.79873774400E+02  0.13534485430E+03  0.00000000000E+00 0.  1.
          1    1    1    2  501    0 -0.89116301917E+03  0.20584675825E+02  0.17131438510E+03  0.90771354191E+03  0.00000000000E+00 0. -1.
<scales pt_clust_5="13000.00000" pt_clust_6="13000.00000" pt_clust_7="13000.00000" pt_clust_8="13000.00000" pt_clust_9="13000.00000"></scales>
<clustering>
<clus scale="   90.174">  5  6 -1 -1</clus>
<clus scale="   91.418">  7  8 -1 -1</clus>
<clus scale="  799.804">  2  5  1 -1</clus>
<clus scale="  302.998">  7  9 -1 -1</clus>
<clus scale=" 1072.005">  1  5  2 -1</clus>
</clustering>
</event>
<event>
 9    2  0.3897980E-005  0.2508623E+03  0.7546771E-02  0.1133889E+00
         21   -1    0    0  501  502  0.00000000000E+00  0.00000000000E+00  0.10458418749E+03  0.10458418749E+03  0.00000000000E+00 0. -1.
          2   -1    0    0  502    0 -0.00000000000E+00 -0.00000000000E+00 -0.40734658292E+03  0.40734658292E+03  0.00000000000E+00 0. -1.
         24    2    1    2    0    0  0.49606818665E+02 -0.11379885440E+03 -0.17810667303E+03  0.23180411969E+03  0.81241290022E+02 0.  0.
         23    2    1    2    0    0 -0.12068618590E+03  0.92094403264E+02 -0.87493997080E+02  0.19703421139E+03  0.90115183814E+02 0.  0.
        -13    1    3    3    0    0  0.63308586587E+02 -0.43972450282E+02 -0.97303291527E+02  0.12413494295E+03  0.00000000000E+00 0.  1.
         14    1    3    3    0    0 -0.13701767922E+02 -0.69826404122E+02 -0.80803381508E+02  0.10766917674E+03  0.00000000000E+00 0. -1.
        -13    1    4    4    0    0 -0.19565989489E+02  0.35713628208E+02 -0.68528942509E+02  0.79715162585E+02  0.00000000000E+00 0.  1.
         13    1    4    4    0    0 -0.10112019641E+03  0.56380775056E+02 -0.18965054571E+02  0.11731904881E+03  0.00000000000E+00 0. -1.
          1    1    1    2  501    0  0.71079367234E+02  0.21704451140E+02 -0.37161725319E+02  0.83092439333E+02  0.00000000000E+00 0. -1.
<scales pt_clust_5="13000.00000" pt_clust_6="13000.00000" pt_clust_7="13000.00000" pt_clust_8="13000.00000" pt_clust_9="13000.00000"></scales>
<clustering>
<clus scale="   81.241">  5  6 -1 -1</clus>
<clus scale="   90.115">  7  8 -1 -1</clus>
<clus scale="   74.319">  7  9 -1 -1</clus>
<clus scale="  148.362">  2  5  1 -1</clus>
<clus scale="  250.862">  1  5  2 -1</clus>
</clustering>
</event>
<event>
 9    2  0.3897980E-005  0.2426437E+03  0.7546771E-02  0.1150159E+00
          2   -1    0    0  502    0 -0.00000000000E+00  0.00000000000E+00  0.91548167920E+03  0.91548167920E+03  0.00000000000E+00 0. -1.
         21   -1    0    0  501  502  0.00000000000E+00 -0.00000000000E+00 -0.46934906305E+02  0.46934906305E+02  0.00000000000E+00 0.  1.
         24    2    1    2    0    0  0.70372817808E+02  0.33549622182E+02  0.55488528264E+03  0.56585702875E+03  0.78858033579E+02 0.  0.
         23    2    1    2    0    0  0.33600500857E+02 -0.76216017127E+02  0.20788544963E+03  0.24222406822E+03  0.92294442583E+02 0.  0.
        -13    1    3    3    0    0  0.86145333952E+02  0.17854592070E+02  0.46577372183E+03  0.47400945662E+03  0.00000000000E+00 0.  1.
         14    1    3    3    0    0 -0.15772516144E+02  0.15695030112E+02  0.89111560805E+02  0.91847572123E+02  0.00000000000E+00 0. -1.
        -11    1    4    4    0    0  0.19259682428E+02  0.19172875759E+02  0.56883527797E+02  0.63041813638E+02  0.00000000000E+00 0. -1.
         11    1    4    4    0    0  0.14340818429E+02 -0.95388892886E+02  0.15100192183E+03  0.17918225458E+03  0.00000000000E+00 0.  1.
          1    1    1    2  501    0 -0.10397331866E+03  0.42666394945E+02  0.10577604063E+03  0.15433548854E+03  0.00000000000E+00 0. -1.
<scales pt_clust_5="13000.00000" pt_clust_6="13000.00000" pt_clust_7="13000.00000" pt_clust_8="13000.00000" pt_clust_9="13000.00000"></scales>
<clustering>
<clus scale="   78.858">  5  6 -1 -1</clus>
<clus scale="   92.294">  7  8 -1 -1</clus>
<clus scale="  110.890">  1  5  2 -1</clus>
<clus scale="   95.578">  7  9 -1 -1</clus>
<clus scale="  242.644">  2  5  1 -1</clus>
</clustering>
</event>
<event>
 9    2  0.3897980E-005  0.2064621E+03  0.7546771E-02  0.1165124E+00
         21   -1    0    0  501  502  0.00000000000E+00  0.00000000000E+00  0.40183852129E+02  0.40183852129E+02  0.00000000000E+00 0.  1.
          2   -1    0    0  502    0 -0.00000000000E+00 -0.00000000000E+00 -0.94847839489E+03  0.94847839489E+03  0.00000000000E+00 0. -1.
         24    2    1    2    0    0  0.97764250219E+02  0.10013143777E+02 -0.62713859563E+03  0.63984240486E+03  0.80233242926E+02 0.  0.
         23    2    1    2    0    0 -0.90331720641E+02 -0.55114957185E+02 -0.26748507040E+03  0.30110916264E+03  0.88999925168E+02 0.  0.
        -13    1    3    3    0    0  0.39696650776E+02  0.39888265893E+02 -0.20099614871E+03  0.20872553661E+03  0.00000000000E+00 0.  1.
         14    1    3    3    0    0  0.58067599443E+02 -0.29875122116E+02 -0.42614244692E+03  0.43111686825E+03  0.00000000000E+00 0. -1.
        -11    1    4    4    0    0 -0.29548595597E+02  0.22326342508E+02 -0.10249020642E+03  0.10897627028E+03  0.00000000000E+00 0. -1.
         11    1    4    4    0    0 -0.60783125044E+02 -0.77441299693E+02 -0.16499486398E+03  0.19213289237E+03  0.00000000000E+00 0.  1.
          1    1    1    2  501    0 -0.74325295775E+01  0.45101813408E+02 -0.13670876731E+02  0.47710679509E+02  0.00000000000E+00 0. -1.
<scales pt_clust_5="13000.00000" pt_clust_6="13000.00000" pt_clust_7="13000.00000" pt_clust_8="13000.00000" pt_clust_9="13000.00000"></scales>
<clustering>
<clus scale="   80.233">  5  6 -1 -1</clus>
<clus scale="   89.000">  7  8 -1 -1</clus>
<clus scale="   45.710">  7  9 -1 -1</clus>
<clus scale="  126.868">  2  5  1 -1</clus>
<clus scale="  206.462">  1  5  2 -1</clus>
</clustering>
</event>
<event>
 9    2  0.3897980E-005  0.2171561E+03  0.7546771E-02  0.1169037E+00
          2   -1    0    0  502    0 -0.00000000000E+00  0.00000000000E+00  0.20595744883E+03  0.20595744883E+03  0.00000000000E+00 0. -1.
         21   -1    0    0  501  502  0.00000000000E+00 -0.00000000000E+00 -0.12382847221E+03  0.12382847221E+03  0.00000000000E+00 0. -1.
         24    2    1    2    0    0 -0.58026772327E+02 -0.12485160700E+02  0.45558232364E+02  0.10957192301E+03  0.80046662836E+02 0.  0.
         23    2    1    2    0    0  0.45844788936E+02 -0.76505385316E+02  0.28126875456E+02  0.12999749776E+03  0.90296232735E+02 0.  0.
        -11    1    3    3    0    0 -0.47941653823E+02 -0.28117441776E+02  0.63041283964E+02  0.84042823531E+02  0.00000000000E+00 0.  1.
         12    1    3    3    0    0 -0.10085118504E+02  0.15632281075E+02 -0.17483051600E+02  0.25529099477E+02  0.00000000000E+00 0. -1.
        -11    1    4    4    0    0  0.53602026409E+02 -0.40073771691E+01  0.78756444875E+01  0.54325519630E+02  0.00000000000E+00 0.  1.
         11    1    4    4    0    0 -0.77572374735E+01 -0.72498008147E+02  0.20251230968E+02  0.75671978131E+02  0.00000000000E+00 0. -1.
          1    1    1    2  501    0  0.12181983391E+02  0.88990546016E+02  0.84438687999E+01  0.90216500264E+02  0.00000000000E+00 0. -1.
<scales pt_clust_5="13000.00000" pt_clust_6="13000.00000" pt_clust_7="13000.00000" pt_clust_8="13000.00000" pt_clust_9="13000.00000"></scales>
<clustering>
<clus scale="   80.047">  5  6 -1 -1</clus>
<clus scale="   90.296">  7  8 -1 -1</clus>
<clus scale="   89.821">  7  9 -1 -1</clus>
<clus scale="   99.652">  1  5  2 -1</clus>
<clus scale="  217.156">  2  5  1 -1</clus>
</clustering>
</event>
<event>
 9    2  0.3897980E-005  0.6805933E+03  0.7546771E-02  0.1021362E+00
         21   -1    0    0  501  502  0.00000000000E+00  0.00000000000E+00  0.45276782823E+03  0.45276782823E+03  0.00000000000E+00 0.  1.
         -3   -1    0    0    0  501 -0.00000000000E+00 -0.00000000000E+00 -0.39394433717E+03  0.39394433717E+03  0.00000000000E+00 0.  1.
         24    2    1    2    0    0  0.80983666121E+02  0.10927801071E+03  0.52989257886E+02  0.16609388907E+03  0.79241912725E+02 0.  0.
         23    2    1    2    0    0 -0.91675374645E+02  0.11634015679E+03  0.27665232191E+03  0.32797070818E+03  0.95335574717E+02 0.  0.
        -13    1    3    3    0    0  0.49920168290E+02  0.72646983590E+01  0.22081100771E+02  0.55066996065E+02  0.00000000000E+00 0.  1.
         14    1    3    3    0    0  0.31063497831E+02  0.10201331235E+03  0.30908157114E+02  0.11102689301E+03  0.00000000000E+00 0. -1.
        -11    1    4    4    0    0  0.41481412380E+01  0.29551628907E+02  0.97310151437E+01  0.31387871902E+02  0.00000000000E+00 0. -1.
         11    1    4    4    0    0 -0.95823515883E+02  0.86788527887E+02  0.26692130677E+03  0.29658283628E+03  0.00000000000E+00 0.  1.
         -4    1    1    2    0  502  0.10691708524E+02 -0.22561816750E+03 -0.27081808873E+03  0.35264756815E+03  0.00000000000E+00 0.  1.
<scales pt_clust_5="13000.00000" pt_clust_6="13000.00000" pt_clust_7="13000.00000" pt_clust_8="13000.00000" pt_clust_9="13000.00000"></scales>
<clustering>
<clus scale="   79.242">  5  6 -1 -1</clus>
<clus scale="   95.336">  7  8 -1 -1</clus>
<clus scale="  157.415">  2  5  1 -1</clus>
<clus scale="  151.165">  7  9 -1 -1</clus>
<clus scale="  680.593">  1  5  2 -1</clus>
</clustering>
</event>
<event>
 9    2  0.3897980E-005  0.1426424E+03  0.7546771E-02  0.1236375E+00
          4   -1    0    0  502    0 -0.00000000000E+00  0.00000000000E+00  0.13085724530E+03  0.13085724530E+03  0.00000000000E+00 0. -1.
         21   -1    0    0  501  502  0.00000000000E+00 -0.00000000000E+00 -0.37493706226E+03  0.37493706226E+03  0.00000000000E+00 0. -1.
         24    2    1    2    0    0  0.14018352899E+02  0.64754593809E+01  0.10238585357E+03  0.13111402033E+03  0.80433684011E+02 0.  0.
         23    2    1    2    0    0 -0.15055591886E+02  0.36475059784E+02 -0.26695791516E+03  0.28430713787E+03  0.89481391047E+02 0.  0.
        -13    1    3    3    0    0 -0.19529121685E+02  0.59151187690E+01 -0.29008695564E+01  0.20610440753E+02  0.00000000000E+00 0.  1.
         14    1    3    3    0    0  0.33547474585E+02  0.56034061189E+00  0.10528672313E+03  0.11050357958E+03  0.00000000000E+00 0. -1.
        -13    1    4    4    0    0 -0.31923245414E+02  0.59366112974E+02 -0.21155306134E+03  0.22203181468E+03  0.00000000000E+00 0. -1.
         13    1    4    4    0    0  0.16867653528E+02 -0.22891053190E+02 -0.55404853827E+02  0.62275323197E+02  0.00000000000E+00 0.  1.
          3    1    1    2  501    0  0.10372389865E+01 -0.42950519165E+02 -0.79507755368E+02  0.90373149358E+02  0.00000000000E+00 0. -1.
<scales pt_clust_5="13000.00000" pt_clust_6="13000.00000" pt_clust_7="13000.00000" pt_clust_8="13000.00000" pt_clust_9="13000.00000"></scales>
<clustering>
<clus scale="   80.434">  5  6 -1 -1</clus>
<clus scale="   81.903">  1  5  2 -1</clus>
<clus scale="   89.481">  7  8 -1 -1</clus>
<clus scale="   40.966">  7  9 -1 -1</clus>
<clus scale="  142.642">  2  5  1 -1</clus>
</clustering>
</event>
<event>
 9    2  0.3897980E-005  0.3651497E+03  0.7546771E-02  0.1112602E+00
         -1   -1    0    0    0  501 -0.00000000000E+00  0.00000000000E+00  0.82450954095E+02  0.82450954095E+02  0.00000000000E+00 0.  1.
         21   -1    0    0  501  502  0.00000000000E+00 -0.00000000000E+00 -0.85635389150E+03  0.85635389150E+03  0.00000000000E+00 0.  1.
         24    2    1    2    0    0  0.79492801373E+01 -0.15302148431E+02  0.15419775244E+01  0.81688116496E+02  0.79832473848E+02 0.  0.
         23    2    1    2    0    0 -0.15750502224E+03 -0.57653712010E+02 -0.32859848474E+03  0.38029264231E+03  0.92269968478E+02 0.  0.
        -13    1    3    3    0    0 -0.14630222387E+01  0.28508068528E+02 -0.16965542932E+02  0.33206626632E+02  0.00000000000E+00 0.  1.
         14    1    3    3    0    0  0.94123023760E+01 -0.43810216959E+02  0.18507520457E+02  0.48481489864E+02  0.00000000000E+00 0. -1.
        -13    1    4    4    0    0 -0.90789395143E+02 -0.13278994459E+02 -0.25681804405E+03  0.27271698464E+03  0.00000000000E+00 0.  1.
         13    1    4    4    0    0 -0.66715627096E+02 -0.44374717551E+02 -0.71780440692E+02  0.10757565767E+03  0.00000000000E+00 0. -1.
         -2    1    1    2    0  502  0.14955574210E+03  0.72955860441E+02 -0.44684643019E+03  0.47682408679E+03  0.00000000000E+00 0.  1.
<scales pt_clust_5="13000.00000" pt_clust_6="13000.00000" pt_clust_7="13000.00000" pt_clust_8="13000.00000" pt_clust_9="13000.00000"></scales>
<clustering>
<clus scale="   79.832">  5  6 -1 -1</clus>
<clus scale="   81.674">  1  5  2 -1</clus>
<clus scale="   92.270">  7  8 -1 -1</clus>
<clus scale="  166.682">  7  9 -1 -1</clus>
<clus scale="  365.150">  2  5  1 -1</clus>
</clustering>
</event>
<event>
 9    2  0.3897980E-005  0.3436893E+03  0.7546771E-02  0.1119514E+00
         21   -1    0    0  501  502  0.00000000000E+00  0.00000000000E+00  0.21219124548E+03  0.21219124548E+03  0.00000000000E+00 0.  1.
         -1   -1    0    0    0  501 -0.00000000000E+00 -0.00000000000E+00 -0.23545835718E+03  0.23545835718E+03  0.00000000000E+00 0.  1.
         24    2    1    2    0    0 -0.19331714681E+02 -0.12254893789E+02 -0.60224600165E+02  0.10197894385E+03  0.79049382726E+02 0.  0.
         23    2    1    2    0    0 -0.59595671625E+02  0.83568403474E+01 -0.12400003105E+03  0.16636073098E+03  0.93157953261E+02 0.  0.
        -13    1    3    3    0    0 -0.17001069822E+02  0.14804365014E+02  0.11483569079E+02  0.25299762002E+02  0.00000000000E+00 0.  1.
         14    1    3    3    0    0 -0.23306448591E+01 -0.27059258803E+02 -0.71708169244E+02  0.76679181847E+02  0.00000000000E+00 0. -1.
        -13    1    4    4    0    0 -0.76224664155E+02  0.25274474221E+02 -0.66870700539E+02  0.10450210076E+03  0.00000000000E+00 0.  1.
         13    1    4    4    0    0  0.16628992531E+02 -0.16917633874E+02 -0.57129330508E+02  0.61858630220E+02  0.00000000000E+00 0. -1.
         -2    1    1    2    0  502  0.78927386306E+02  0.38980534418E+01  0.16095751951E+03  0.17930992782E+03  0.00000000000E+00 0.  1.
<scales pt_clust_5="13000.00000" pt_clust_6="13000.00000" pt_clust_7="13000.00000" pt_clust_8="13000.00000" pt_clust_9="13000.00000"></scales>
<clustering>
<clus scale="   79.049">  5  6 -1 -1</clus>
<clus scale="   82.296">  2  5  1 -1</clus>
<clus scale="   93.158">  7  8 -1 -1</clus>
<clus scale="   77.843">  7  9 -1 -1</clus>
<clus scale="  343.689">  1  5  2 -1</clus>
</clustering>
</event>
<event>
 9    2  0.3897980E-005  0.1697409E+03  0.7546771E-02  0.1190482E+00
         21   -1    0    0  501  502  0.00000000000E+00  0.00000000000E+00  0.64882329407E+02  0.64882329407E+02  0.00000000000E+00 0.  1.
          2   -1    0    0  502    0 -0.00000000000E+00 -0.00000000000E+00 -0.35554217375E+03  0.35554217375E+03  0.00000000000E+00 0. -1.
         24    2    1    2    0    0 -0.25373170396E+02  0.97010056053E+02 -0.16448831259E+03  0.20892691069E+03  0.80865940165E+02 0.  0.
         23    2    1    2    0    0  0.40379405685E+01 -0.84557162314E+02 -0.54930484537E+02  0.13609498375E+03  0.91314116142E+02 0.  0.
        -11    1    3    3    0    0  0.10217578655E+02  0.70950472621E+02 -0.14277886608E+03  0.15976286514E+03  0.00000000000E+00 0.  1.
         12    1    3    3    0    0 -0.35590749051E+02  0.26059583432E+02 -0.21709446511E+02  0.49164045546E+02  0.00000000000E+00 0. -1.
        -13    1    4    4    0    0 -0.26285571213E+02  0.64467253202E-02 -0.35515969173E+02  0.44185012865E+02  0.00000000000E+00 0. -1.
         13    1    4    4    0    0  0.30323511782E+02 -0.84563609039E+02 -0.19414515364E+02  0.91909970881E+02  0.00000000000E+00 0.  1.
          1    1    1    2  501    0  0.21335229828E+02 -0.12452893739E+02 -0.71241047215E+02  0.75402608725E+02  0.00000000000E+00 0. -1.
<scales pt_clust_5="13000.00000" pt_clust_6="13000.00000" pt_clust_7="13000.00000" pt_clust_8="13000.00000" pt_clust_9="13000.00000"></scales>
<clustering>
<clus scale="   80.866">  5  6 -1 -1</clus>
<clus scale="   91.314">  7  8 -1 -1</clus>
<clus scale="   24.704">  7  9 -1 -1</clus>
<clus scale="  128.818">  2  5  1 -1</clus>
<clus scale="  169.741">  1  5  2 -1</clus>
</clustering>
</event>
<event>
 9    2  0.3897980E-005  0.6999688E+03  0.7546771E-02  0.1012658E+00
          2   -1    0    0  502    0 -0.00000000000E+00  0.00000000000E+00  0.14105198932E+04  0.14105198932E+04  0.00000000000E+00 0. -1.
         21   -1    0    0  501  502  0.00000000000E+00 -0.00000000000E+00 -0.18113446858E+03  0.18113446858E+03  0.00000000000E+00 0.  1.
         24    2    1    2    0    0  0.95634675151E+02  0.14134006895E+03  0.14029631265E+02  0.18914017474E+03  0.80337842671E+02 0.  0.
         23    2    1    2    0    0  0.17101648326E+03  0.12586200305E+03  0.15900324379E+03  0.28073858713E+03  0.91892553609E+02 0.  0.
        -11    1    3    3    0    0  0.10930711171E+03  0.13418595804E+03  0.11052298299E+02  0.17342453489E+03  0.00000000000E+00 0.  1.
         12    1    3    3    0    0 -0.13672436554E+02  0.71541109085E+01  0.29773329662E+01  0.15715639847E+02  0.00000000000E+00 0. -1.
        -13    1    4    4    0    0  0.12031432489E+03  0.68275856631E+02  0.49284405214E+02  0.14685394775E+03  0.00000000000E+00 0. -1.
         13    1    4    4    0    0  0.50702158366E+02  0.57586146422E+02  0.10971883858E+03  0.13388463938E+03  0.00000000000E+00 0.  1.
          1    1    1    2  501    0 -0.26665115841E+03 -0.26720207201E+03  0.10563525496E+04  0.11217755999E+04  0.00000000000E+00 0. -1.
<scales pt_clust_5="13000.00000" pt_clust_6="13000.00000" pt_clust_7="13000.00000" pt_clust_8="13000.00000" pt_clust_9="13000.00000"></scales>
<clustering>
<clus scale="   80.338">  5  6 -1 -1</clus>
<clus scale="   91.893">  7  8 -1 -1</clus>
<clus scale="  188.619">  1  5  2 -1</clus>
<clus scale="  239.543">  7  9 -1 -1</clus>
<clus scale="  699.969">  2  5  1 -1</clus>
</clustering>
</event>
<event>
 9    2  0.3897980E-005  0.1693785E+03  0.7546771E-02  0.1212247E+00
         21   -1    0    0  501  502  0.00000000000E+00  0.00000000000E+00  0.14775851505E+03  0.14775851505E+03  0.00000000000E+00 0. -1.
         -1   -1    0    0    0  501 -0.00000000000E+00 -0.00000000000E+00 -0.10605017388E+03  0.10605017388E+03  0.00000000000E+00 0.  1.
         24    2    1    2    0    0 -0.10099630150E+01  0.15215133788E+02  0.16570993372E+02  0.82575080593E+02  0.79445111821E+02 0.  0.
         23    2    1    2    0    0 -0.20946105613E+02  0.27637286064E+02  0.60667424008E+02  0.11139394631E+03  0.86749732084E+02 0.  0.
        -13    1    3    3    0    0 -0.20229569257E+02  0.41741885604E+02  0.12267542427E+01  0.46401782424E+02  0.00000000000E+00 0.  1.
         14    1    3    3    0    0  0.19219606242E+02 -0.26526751816E+02  0.15344239130E+02  0.36173298170E+02  0.00000000000E+00 0. -1.
        -11    1    4    4    0    0 -0.22636629074E+02 -0.76519875585E+01  0.70731557877E+02  0.74658711274E+02  0.00000000000E+00 0. -1.
         11    1    4    4    0    0  0.16905234607E+01  0.35289273623E+02 -0.10064133868E+02  0.36735235033E+02  0.00000000000E+00 0.  1.
         -2    1    1    2    0  502  0.21956068628E+02 -0.42852419852E+02 -0.35530076213E+02  0.59839662035E+02  0.00000000000E+00 0.  1.
<scales pt_clust_5="13000.00000" pt_clust_6="13000.00000" pt_clust_7="13000.00000" pt_clust_8="13000.00000" pt_clust_9="13000.00000"></scales>
<clustering>
<clus scale="   79.445">  5  6 -1 -1</clus>
<clus scale="   80.895">  2  5  1 -1</clus>
<clus scale="   86.750">  7  8 -1 -1</clus>
<clus scale="   39.208">  7  9 -1 -1</clus>
<clus scale="  169.378">  1  5  2 -1</clus>
</clustering>
</event>
<event>
 9    2  0.3897980E-005  0.2102785E+03  0.7546771E-02  0.1167492E+00
         21   -1    0    0  501  502  0.00000000000E+00  0.00000000000E+00  0.21650597729E+03  0.21650597729E+03  0.00000000000E+00 0.  1.
         -3   -1    0    0    0  501 -0.00000000000E+00 -0.00000000000E+00 -0.12132518399E+03  0.12132518399E+03  0.00000000000E+00 0.  1.
         24    2    1    2    0    0 -0.78098209979E+02  0.12682873038E+01  0.38417692793E+02  0.12002601626E+03  0.82640102283E+02 0.  0.
         23    2    1    2    0    0  0.10356058281E+02  0.66121208379E+02  0.52256516362E+02  0.12214610182E+03  0.87804695468E+02 0.  0.
        -13    1    3    3    0    0 -0.79619417868E+02  0.24483160212E+02  0.10926976977E+02  0.84012354219E+02  0.00000000000E+00 0.  1.
         14    1    3    3    0    0  0.15212078890E+01 -0.23214872908E+02  0.27490715816E+02  0.36013662042E+02  0.00000000000E+00 0. -1.
        -11    1    4    4    0    0  0.34901040140E+02  0.68654520977E+02  0.58474326303E+02  0.96699393432E+02  0.00000000000E+00 0.  1.
         11    1    4    4    0    0 -0.24544981859E+02 -0.25333125981E+01 -0.62178099414E+01  0.25446708385E+02  0.00000000000E+00 0. -1.
         -4    1    1    2    0  502  0.67742151698E+02 -0.67389495683E+02  0.45065841403E+01  0.95659043199E+02  0.00000000000E+00 0.  1.
<scales pt_clust_5="13000.00000" pt_clust_6="13000.00000" pt_clust_7="13000.00000" pt_clust_8="13000.00000" pt_clust_9="13000.00000"></scales>
<clustering>
<clus scale="   82.640">  5  6 -1 -1</clus>
<clus scale="   87.805">  7  8 -1 -1</clus>
<clus scale="   95.553">  7  9 -1 -1</clus>
<clus scale="  113.712">  2  5  1 -1</clus>
<clus scale="  210.278">  1  5  2 -1</clus>
</clustering>
</event>
<event>
 9    2  0.3897980E-005  0.2031476E+03  0.7546771E-02  0.1165434E+00
         -3   -1    0    0    0  501 -0.00000000000E+00  0.00000000000E+00  0.18069719621E+03  0.18069719621E+03  0.00000000000E+00 0.  1.
         21   -1    0    0  501  502  0.00000000000E+00 -0.00000000000E+00 -0.21721969799E+03  0.21721969799E+03  0.00000000000E+00 0.  1.
         24    2    1    2    0    0  0.52239142167E+02 -0.90593905142E+02  0.88748712430E+02  0.15925010262E+03  0.80920192811E+02 0.  0.
         23    2    1    2    0    0 -0.25396420326E+01  0.82685672841E+02 -0.13941738198E+03  0.18639161091E+03  0.91985085434E+02 0.  0.
        -13    1    3    3    0    0  0.73546456427E+02 -0.79129975019E+02  0.72183988818E+02  0.12992752765E+03  0.00000000000E+00 0.  1.
         14    1    3    3    0    0 -0.21307314259E+02 -0.11463930123E+02  0.16564723611E+02  0.29322574974E+02  0.00000000000E+00 0. -1.
        -13    1    4    4    0    0 -0.24358171740E+02  0.83107470532E+02 -0.63470581060E+02  0.10737172276E+03  0.00000000000E+00 0. -1.
         13    1    4    4    0    0  0.21818529707E+02 -0.42179769122E+00 -0.75946800922E+02  0.79019888143E+02  0.00000000000E+00 0.  1.
         -4    1    1    2    0  502 -0.49699500135E+02  0.79082323009E+01  0.14146167770E+02  0.52275180673E+02  0.00000000000E+00 0.  1.
<scales pt_clust_5="13000.00000" pt_clust_6="13000.00000" pt_clust_7="13000.00000" pt_clust_8="13000.00000" pt_clust_9="13000.00000"></scales>
<clustering>
<clus scale="   80.920">  5  6 -1 -1</clus>
<clus scale="   91.985">  7  8 -1 -1</clus>
<clus scale="   50.325">  7  9 -1 -1</clus>
<clus scale="  132.228">  1  5  2 -1</clus>
<clus scale="  203.148">  2  5  1 -1</clus>
</clustering>
</event>
<event>
 9    2  0.3897980E-005  0.3171887E+03  0.7546771E-02  0.1118287E+00
          2   -1    0    0  502    0 -0.00000000000E+00  0.00000000000E+00  0.10422987959E+04  0.10422987959E+04  0.00000000000E+00 0. -1.
         21   -1    0    0  501  502  0.00000000000E+00 -0.00000000000E+00 -0.47738675703E+02  0.47738675703E+02  0.00000000000E+00 0. -1.
         24    2    1    2    0    0 -0.47730215049E+02  0.55712925900E+02  0.42090193657E+03  0.43452823590E+03  0.79210125860E+02 0.  0.
         23    2    1    2    0    0  0.49962453388E+02  0.10755515309E+03  0.22627291853E+03  0.27166295019E+03  0.92395709539E+02 0.  0.
        -13    1    3    3    0    0 -0.14047252098E+02  0.14589715824E+02  0.15107598965E+02  0.25267066427E+02  0.00000000000E+00 0.  1.
         14    1    3    3    0    0 -0.33682962951E+02  0.41123210076E+02  0.40579433761E+03  0.40926116947E+03  0.00000000000E+00 0. -1.
        -13    1    4    4    0    0  0.65124208036E+01  0.35616456302E+02  0.16162973727E+03  0.16563549002E+03  0.00000000000E+00 0.  1.
         13    1    4    4    0    0  0.43450032585E+02  0.71938696786E+02  0.64643181264E+02  0.10602746017E+03  0.00000000000E+00 0. -1.
          1    1    1    2  501    0 -0.22322383388E+01 -0.16326807899E+03  0.34738526512E+03  0.38384628555E+03  0.00000000000E+00 0. -1.
<scales pt_clust_5="13000.00000" pt_clust_6="13000.00000" pt_clust_7="13000.00000" pt_clust_8="13000.00000" pt_clust_9="13000.00000"></scales>
<clustering>
<clus scale="   79.210">  5  6 -1 -1</clus>
<clus scale="   92.396">  7  8 -1 -1</clus>
<clus scale="  107.965">  1  5  2 -1</clus>
<clus scale="  133.680">  7  9 -1 -1</clus>
<clus scale="  317.189">  2  5  1 -1</clus>
</clustering>
</event>
<event>
 9    2  0.3897980E-005  0.3144565E+03  0.7546771E-02  0.1106622E+00
          2   -1    0    0  502    0 -0.00000000000E+00  0.00000000000E+00  0.91989371690E+03  0.91989371690E+03  0.00000000000E+00 0. -1.
         21   -1    0    0  501  502  0.00000000000E+00 -0.00000000000E+00 -0.62916719236E+02  0.62916719236E+02  0.00000000000E+00 0. -1.
         24    2    1    2    0    0 -0.12629398503E+03 -0.37190370013E+00  0.41071733958E+03  0.43688866669E+03  0.78947229734E+02 0.  0.
         23    2    1    2    0    0  0.15078345951E+03 -0.10391897332E+03  0.32618837356E+03  0.38500739857E+03  0.91088074024E+02 0.  0.
        -13    1    3    3    0    0 -0.26342968671E+02  0.25840079010E+02  0.53247760243E+02  0.64784146614E+02  0.00000000000E+00 0.  1.
         14    1    3    3    0    0 -0.99951016358E+02 -0.26211982710E+02  0.35746957934E+03  0.37210452008E+03  0.00000000000E+00 0. -1.
        -11    1    4    4    0    0  0.57521102070E+02 -0.83526888608E+02  0.11554286259E+03  0.15373864641E+03  0.00000000000E+00 0.  1.
         11    1    4    4    0    0  0.93262357439E+02 -0.20392084707E+02  0.21064551097E+03  0.23126875216E+03  0.00000000000E+00 0. -1.
          1    1    1    2  501    0 -0.24489474479E+02  0.10429087702E+03  0.12007128453E+03  0.16091437088E+03  0.00000000000E+00 0. -1.
<scales pt_clust_5="13000.00000" pt_clust_6="13000.00000" pt_clust_7="13000.00000" pt_clust_8="13000.00000" pt_clust_9="13000.00000"></scales>
<clustering>
<clus scale="   78.947">  5  6 -1 -1</clus>
<clus scale="   91.088">  7  8 -1 -1</clus>
<clus scale="  107.128">  7  9 -1 -1</clus>
<clus scale="  148.939">  1  5  2 -1</clus>
<clus scale="  314.457">  2  5  1 -1</clus>
</clustering>
</event>
<event>
 9    2  0.3897980E-005  0.1496930E+03  0.7546771E-02  0.1219151E+00
          2   -1    0    0  502    0 -0.00000000000E+00  0.00000000000E+00  0.90258492115E+03  0.90258492115E+03  0.00000000000E+00 0. -1.
         21   -1    0    0  501  502  0.00000000000E+00 -0.00000000000E+00 -0.26856703651E+02  0.26856703651E+02  0.00000000000E+00 0. -1.
         24    2    1    2    0    0  0.41243926612E+02 -0.41469320685E+02  0.65474537758E+03  0.66253073449E+03  0.82672236251E+02 0.  0.
         23    2    1    2    0    0 -0.28435105690E+02  0.54042898730E+01  0.10385609713E+03  0.14368984415E+03  0.94989056290E+02 0.  0.
        -13    1    3    3    0    0  0.55182161698E+01  0.25023060561E+02  0.15011478620E+03  0.15228609032E+03  0.00000000000E+00 0.  1.
         14    1    3    3    0    0  0.35725710442E+02 -0.66492381246E+02  0.50463059138E+03  0.51024464417E+03  0.00000000000E+00 0. -1.
        -13    1    4    4    0    0 -0.38301857112E+02  0.42070682135E+02  0.82225966570E+02  0.99990420200E+02  0.00000000000E+00 0.  1.
         13    1    4    4    0    0  0.98667514223E+01 -0.36666392261E+02  0.21630130562E+02  0.43699423946E+02  0.00000000000E+00 0. -1.
          1    1    1    2  501    0 -0.12808820922E+02  0.36065030812E+02  0.11712674280E+03  0.12322104617E+03  0.00000000000E+00 0. -1.
<scales pt_clust_5="13000.00000" pt_clust_6="13000.00000" pt_clust_7="13000.00000" pt_clust_8="13000.00000" pt_clust_9="13000.00000"></scales>
<clustering>
<clus scale="   82.672">  5  6 -1 -1</clus>
<clus scale="   94.989">  7  8 -1 -1</clus>
<clus scale="   38.272">  7  9 -1 -1</clus>
<clus scale="  101.269">  1  5  2 -1</clus>
<clus scale="  149.693">  2  5  1 -1</clus>
</clustering>
</event>
<event>
 9    2  0.3897980E-005  0.1910120E+03  0.7546771E-02  0.1195254E+00
          2   -1    0    0  502    0 -0.00000000000E+00  0.00000000000E+00  0.92244306539E+03  0.92244306539E+03  0.00000000000E+00 0. -1.
         21   -1    0    0  501  502  0.00000000000E+00 -0.00000000000E+00 -0.20247786972E+02  0.20247786972E+02  0.00000000000E+00 0.  1.
         24    2    1    2    0    0  0.53271746224E+01  0.68531614168E+01  0.30628447705E+03  0.31691511740E+03  0.80930007708E+02 0.  0.
         23    2    1    2    0    0 -0.59686993619E+02 -0.43398022621E+02  0.29741872125E+03  0.32018116908E+03  0.92801722543E+02 0.  0.
        -11    1    3    3    0    0  0.22803244535E+02  0.26830702067E+02  0.62880833386E+02  0.72068535035E+02  0.00000000000E+00 0.  1.
         12    1    3    3    0    0 -0.17476069912E+02 -0.19977540650E+02  0.24340364366E+03  0.24484658237E+03  0.00000000000E+00 0. -1.
        -11    1    4    4    0    0 -0.48089835971E+02 -0.89096227135E+01  0.27058776658E+03  0.27497227700E+03  0.00000000000E+00 0. -1.
         11    1    4    4    0    0 -0.11597157649E+02 -0.34488399907E+02  0.26830954674E+02  0.45208892072E+02  0.00000000000E+00 0.  1.
          1    1    1    2  501    0  0.54359818997E+02  0.36544861204E+02  0.29849208013E+03  0.30559456589E+03  0.00000000000E+00 0. -1.
<scales pt_clust_5="13000.00000" pt_clust_6="13000.00000" pt_clust_7="13000.00000" pt_clust_8="13000.00000" pt_clust_9="13000.00000"></scales>
<clustering>
<clus scale="   80.930">  5  6 -1 -1</clus>
<clus scale="   81.394">  1  5  2 -1</clus>
<clus scale="   92.802">  7  8 -1 -1</clus>
<clus scale="   69.592">  7  9 -1 -1</clus>
<clus scale="  191.012">  2  5  1 -1</clus>
</clustering>
</event>
<event>
 9    2  0.3897980E-005  0.3357831E+03  0.7546771E-02  0.1116979E+00
          2   -1    0    0  502    0 -0.00000000000E+00  0.00000000000E+00  0.26068257661E+03  0.26068257661E+03  0.00000000000E+00 0. -1.
         21   -1    0    0  501  502  0.00000000000E+00 -0.00000000000E+00 -0.18569189046E+03  0.18569189046E+03  0.00000000000E+00 0.  1.
         24    2    1    2    0    0  0.11926378851E+02 -0.47282108514E+02 -0.22557891399E+02  0.96708910955E+02  0.80410936418E+02 0.  0.
         23    2    1    2    0    0  0.76778764825E+02 -0.54140255859E+02 -0.58714433786E+02  0.14333274916E+03  0.90943643074E+02 0.  0.
        -13    1    3    3    0    0  0.18376605474E+02 -0.24877741936E+02  0.27564490070E+02  0.41429491735E+02  0.00000000000E+00 0.  1.
         14    1    3    3    0    0 -0.64502266227E+01 -0.22404366577E+02 -0.50122381469E+02  0.55279419220E+02  0.00000000000E+00 0. -1.
        -11    1    4    4    0    0  0.46067495783E+02 -0.49981484839E+02 -0.80567725514E+02  0.10541120144E+03  0.00000000000E+00 0.  1.
         11    1    4    4    0    0  0.30711269042E+02 -0.41587710207E+01  0.21853291727E+02  0.37921547725E+02  0.00000000000E+00 0. -1.
          1    1    1    2  501    0 -0.88705143676E+02  0.10142236437E+03  0.15626301133E+03  0.20633280694E+03  0.00000000000E+00 0. -1.
<scales pt_clust_5="13000.00000" pt_clust_6="13000.00000" pt_clust_7="13000.00000" pt_clust_8="13000.00000" pt_clust_9="13000.00000"></scales>
<clustering>
<clus scale="   80.411">  5  6 -1 -1</clus>
<clus scale="   90.944">  7  8 -1 -1</clus>
<clus scale="   94.041">  1  5  2 -1</clus>
<clus scale="  101.126">  7  9 -1 -1</clus>
<clus scale="  335.783">  2  5  1 -1</clus>
</clustering>
</event>
<event>
 9    2  0.3897980E-005  0.2651689E+03  0.7546771E-02  0.1152552E+00
          2   -1    0    0  502    0 -0.00000000000E+00  0.00000000000E+00  0.10311414957E+04  0.10311414957E+04  0.00000000000E+00 0. -1.
         21   -1    0    0  501  502  0.00000000000E+00 -0.00000000000E+00 -0.28935884184E+02  0.28935884184E+02  0.00000000000E+00 0. -1.
         24    2    1    2    0    0 -0.53233000527E+01  0.15020356397E+01  0.23597100818E+03  0.24925680989E+03  0.80100230577E+02 0.  0.
         23    2    1    2    0    0  0.13532629148E+02  0.11475290052E+03  0.45184029666E+03  0.47552013258E+03  0.92781369725E+02 0.  0.
        -11    1    3    3    0    0 -0.36949346821E+02 -0.16950614264E+02  0.15752858076E+03  0.16268937061E+03  0.00000000000E+00 0.  1.
         12    1    3    3    0    0  0.31626046768E+02  0.18452649904E+02  0.78442427424E+02  0.86567439276E+02  0.00000000000E+00 0. -1.
        -11    1    4    4    0    0 -0.16455219118E+02  0.10851963736E+03  0.27585406220E+03  0.29688844633E+03  0.00000000000E+00 0. -1.
         11    1    4    4    0    0  0.29987848267E+02  0.62332631660E+01  0.17598623446E+03  0.17863168625E+03  0.00000000000E+00 0.  1.
          1    1    1    2  501    0 -0.82093290957E+01 -0.11625493616E+03  0.31439430669E+03  0.33530043744E+03  0.00000000000E+00 0. -1.
<scales pt_clust_5="13000.00000" pt_clust_6="13000.00000" pt_clust_7="13000.00000" pt_clust_8="13000.00000" pt_clust_9="13000.00000"></scales>
<clustering>
<clus scale="   80.100">  5  6 -1 -1</clus>
<clus scale="   80.291">  1  5  2 -1</clus>
<clus scale="   92.781">  7  8 -1 -1</clus>
<clus scale="  116.103">  7  9 -1 -1</clus>
<clus scale="  265.169">  2  5  1 -1</clus>
</clustering>
</event>
<event>
 9    2  0.3897980E-005  0.1500309E+03  0.7546771E-02  0.1224686E+00
          2   -1    0    0  502    0 -0.00000000000E+00  0.00000000000E+00  0.13580110613E+03  0.13580110613E+03  0.00000000000E+00 0. -1.
         21   -1    0    0  501  502  0.00000000000E+00 -0.00000000000E+00 -0.10587179490E+03  0.10587179490E+03  0.00000000000E+00 0. -1.
         24    2    1    2    0    0 -0.22148018613E+02 -0.30244008907E+02  0.15935081620E+02  0.90990725502E+02  0.81364307273E+02 0.  0.
         23    2    1    2    0    0 -0.26346012191E+02  0.23059562488E+02 -0.64387049407E+01  0.97571045735E+02  0.90844902245E+02 0.  0.
        -13    1    3    3    0    0 -0.39958545708E+02  0.61647895975E+01 -0.11514265587E+02  0.42038890541E+02  0.00000000000E+00 0.  1.
         14    1    3    3    0    0  0.17810527095E+02 -0.36408798505E+02  0.27449347208E+02  0.48951834962E+02  0.00000000000E+00 0. -1.
        -11    1    4    4    0    0 -0.56756800685E+02  0.16629643769E+02  0.13471790901E+02  0.60657799383E+02  0.00000000000E+00 0.  1.
         11    1    4    4    0    0  0.30410788494E+02  0.64299187189E+01 -0.19910495842E+02  0.36913246352E+02  0.00000000000E+00 0. -1.
          1    1    1    2  501    0  0.48494030803E+02  0.71844464198E+01  0.20432934544E+02  0.53111129794E+02  0.00000000000E+00 0. -1.
<scales pt_clust_5="13000.00000" pt_clust_6="13000.00000" pt_clust_7="13000.00000" pt_clust_8="13000.00000" pt_clust_9="13000.00000"></scales>
<clustering>
<clus scale="   81.364">  5  6 -1 -1</clus>
<clus scale="   89.585">  1  5  2 -1</clus>
<clus scale="   90.845">  7  8 -1 -1</clus>
<clus scale="   39.117">  7  9 -1 -1</clus>
<clus scale="  150.031">  2  5  1 -1</clus>
</clustering>
</event>
<event>
 9    2  0.3897980E-005  0.2708077E+03  0.7546771E-02  0.1134832E+00
         21   -1    0    0  501  502  0.00000000000E+00  0.00000000000E+00  0.26774078558E+03  0.26774078558E+03  0.00000000000E+00 0.  1.
         -1   -1    0    0    0  501 -0.00000000000E+00 -0.00000000000E+00 -0.14815884912E+03  0.14815884912E+03  0.00000000000E+00 0.  1.
         24    2    1    2    0    0 -0.27340688925E+02  0.65309348544E+02 -0.99953800531E+01  0.11568788278E+03  0.90944787218E+02 0.  0.
         23    2    1    2    0    0  0.83998496540E+02 -0.85981510786E+02  0.16979524306E+03  0.22772087613E+03  0.92616441541E+02 0.  0.
        -11    1    3    3    0    0  0.15116483107E+02  0.33771101107E+02 -0.40318408250E+02  0.54722658701E+02  0.00000000000E+00 0.  1.
         12    1    3    3    0    0 -0.42457172032E+02  0.31538247437E+02  0.30323028196E+02  0.60965224082E+02  0.00000000000E+00 0. -1.
        -13    1    4    4    0    0  0.52536042426E+02 -0.64057756422E+02  0.39275288584E+02  0.91684132788E+02  0.00000000000E+00 0. -1.
         13    1    4    4    0    0  0.31462454113E+02 -0.21923754364E+02  0.13051995447E+03  0.13603674335E+03  0.00000000000E+00 0.  1.
         -2    1    1    2    0  502 -0.56657807615E+02  0.20672162242E+02 -0.40217926547E+02  0.72490875779E+02  0.00000000000E+00 0.  1.
<scales pt_clust_5="13000.00000" pt_clust_6="13000.00000" pt_clust_7="13000.00000" pt_clust_8="13000.00000" pt_clust_9="13000.00000"></scales>
<clustering>
<clus scale="   90.945">  5  6 -1 -1</clus>
<clus scale="   92.616">  7  8 -1 -1</clus>
<clus scale="   60.311">  7  9 -1 -1</clus>
<clus scale="  115.255">  2  5  1 -1</clus>
<clus scale="  270.808">  1  5  2 -1</clus>
</clustering>
</event>
<event>
 9    2  0.3897980E-005  0.4287854E+03  0.7546771E-02  0.1050102E+00
         21   -1    0    0  501  502  0.00000000000E+00  0.00000000000E+00  0.13602712019E+03  0.13602712019E+03  0.00000000000E+00 0.  1.
          2   -1    0    0  502    0 -0.00000000000E+00 -0.00000000000E+00 -0.90327037392E+03  0.90327037392E+03  0.00000000000E+00 0. -1.
         24    2    1    2    0    0  0.19321155631E+03  0.17028067173E+03 -0.32965674706E+03  0.42664845343E+03  0.83839842972E+02 0.  0.
         23    2    1    2    0    0 -0.36569654234E+02 -0.17786319475E+02  0.25066177379E+02  0.10094725349E+03  0.88928859031E+02 0.  0.
        -11    1    3    3    0    0  0.17093410224E+03  0.10234125642E+03 -0.23706533531E+03  0.30966461418E+03  0.00000000000E+00 0.  1.
         12    1    3    3    0    0  0.22277454071E+02  0.67939415312E+02 -0.92591411757E+02  0.11698383924E+03  0.00000000000E+00 0. -1.
        -13    1    4    4    0    0 -0.35064904426E+02  0.32121409672E+02  0.82682166267E+01  0.48266923332E+02  0.00000000000E+00 0.  1.
         13    1    4    4    0    0 -0.15047498073E+01 -0.49907729147E+02  0.16797960752E+02  0.52680330163E+02  0.00000000000E+00 0. -1.
          1    1    1    2  501    0 -0.15664190207E+03 -0.15249435226E+03 -0.46265268404E+03  0.51170178718E+03  0.00000000000E+00 0. -1.
<scales pt_clust_5="13000.00000" pt_clust_6="13000.00000" pt_clust_7="13000.00000" pt_clust_8="13000.00000" pt_clust_9="13000.00000"></scales>
<clustering>
<clus scale="   83.840">  5  6 -1 -1</clus>
<clus scale="   88.929">  7  8 -1 -1</clus>
<clus scale="  218.612">  7  9 -1 -1</clus>
<clus scale="  270.842">  2  5  1 -1</clus>
<clus scale="  428.785">  1  5  2 -1</clus>
</clustering>
</event>
<event>
 9    2  0.3897980E-005  0.3033603E+03  0.7546771E-02  0.1108872E+00
         21   -1    0    0  501  502  0.00000000000E+00  0.00000000000E+00  0.43381728227E+02  0.43381728227E+02  0.00000000000E+00 0.  1.
          2   -1    0    0  502    0 -0.00000000000E+00 -0.00000000000E+00 -0.12271166413E+04  0.12271166413E+04  0.00000000000E+00 0. -1.
         24    2    1    2    0    0  0.10499923469E+03  0.79421128127E+02 -0.35607230491E+03  0.38899233311E+03  0.84823310586E+02 0.  0.
         23    2    1    2    0    0  0.57632748752E+01 -0.13734114192E+03 -0.59187219752E+03  0.61463494530E+03  0.92561402228E+02 0.  0.
        -13    1    3    3    0    0  0.36672148927E+02  0.43861181158E+02 -0.59239870765E+02  0.82328682777E+02  0.00000000000E+00 0.  1.
         14    1    3    3    0    0  0.68327085758E+02  0.35559946969E+02 -0.29683243414E+03  0.30666365033E+03  0.00000000000E+00 0. -1.
        -11    1    4    4    0    0  0.20525927831E+02 -0.72295383448E+01 -0.26469520950E+02  0.34266827652E+02  0.00000000000E+00 0. -1.
         11    1    4    4    0    0 -0.14762652955E+02 -0.13011160358E+03 -0.56540267657E+03  0.58036811764E+03  0.00000000000E+00 0.  1.
          1    1    1    2  501    0 -0.11076250956E+03  0.57920013798E+02 -0.23579041064E+03  0.26687109112E+03  0.00000000000E+00 0. -1.
<scales pt_clust_5="13000.00000" pt_clust_6="13000.00000" pt_clust_7="13000.00000" pt_clust_8="13000.00000" pt_clust_9="13000.00000"></scales>
<clustering>
<clus scale="   84.823">  5  6 -1 -1</clus>
<clus scale="   92.561">  7  8 -1 -1</clus>
<clus scale="  124.992">  7  9 -1 -1</clus>
<clus scale="  156.613">  2  5  1 -1</clus>
<clus scale="  303.360">  1  5  2 -1</clus>
</clustering>
</event>
<event>
 9    2  0.3897980E-005  0.1466553E+03  0.7546771E-02  0.1221329E+00
          2   -1    0    0  502    0 -0.00000000000E+00  0.00000000000E+00  0.28912063678E+03  0.28912063678E+03  0.00000000000E+00 0. -1.
         21   -1    0    0  501  502  0.00000000000E+00 -0.00000000000E+00 -0.20702135659E+03  0.20702135659E+03  0.00000000000E+00 0. -1.
         24    2    1    2    0    0 -0.62815679949E+02 -0.57972604210E+01  0.25170734453E+03  0.27192188230E+03  0.81274257349E+02 0.  0.
         23    2    1    2    0    0  0.93073436319E+01 -0.18113043904E+01 -0.10958668293E+03  0.14345131424E+03  0.92082197046E+02 0.  0.
        -11    1    3    3    0    0 -0.10554514193E+02 -0.30024947919E+02  0.33369704112E+02  0.46113256444E+02  0.00000000000E+00 0.  1.
         12    1    3    3    0    0 -0.52261165757E+02  0.24227687498E+02  0.21833764042E+03  0.22580862586E+03  0.00000000000E+00 0. -1.
        -13    1    4    4    0    0 -0.38285406835E+01 -0.27364167601E+02 -0.11129059260E+03  0.11466931321E+03  0.00000000000E+00 0. -1.
         13    1    4    4    0    0  0.13135884315E+02  0.25552863211E+02  0.17039096673E+01  0.28782001028E+02  0.00000000000E+00 0.  1.
          1    1    1    2  501    0  0.53508336318E+02  0.76085648114E+01 -0.60021381416E+02  0.80768796828E+02  0.00000000000E+00 0. -1.
<scales pt_clust_5="13000.00000" pt_clust_6="13000.00000" pt_clust_7="13000.00000" pt_clust_8="13000.00000" pt_clust_9="13000.00000"></scales>
<clustering>
<clus scale="   81.274">  5  6 -1 -1</clus>
<clus scale="   92.082">  7  8 -1 -1</clus>
<clus scale="   54.047">  7  9 -1 -1</clus>
<clus scale="  102.883">  1  5  2 -1</clus>
<clus scale="  146.655">  2  5  1 -1</clus>
</clustering>
</event>
<event>
 9    2  0.3897980E-005  0.1081564E+04  0.7546771E-02  0.9669531E-01
         21   -1    0    0  501  502  0.00000000000E+00  0.00000000000E+00  0.12640917204E+03  0.12640917204E+03  0.00000000000E+00 0. -1.
          2   -1    0    0  502    0 -0.00000000000E+00 -0.00000000000E+00 -0.39135474460E+04  0.39135474460E+04  0.00000000000E+00 0. -1.
         24    2    1    2    0    0 -0.20140785634E+03 -0.54395968090E+02 -0.22244374928E+03  0.31479529379E+03  0.78043638171E+02 0.  0.
         23    2    1    2    0    0 -0.40727972277E+03 -0.14114506774E+03 -0.15571789912E+04  0.16183021731E+04  0.91086826803E+02 0.  0.
        -11    1    3    3    0    0 -0.33474510652E+02 -0.13876884425E+02 -0.42377173104E+01  0.36483818780E+02  0.00000000000E+00 0.  1.
         12    1    3    3    0    0 -0.16793334569E+03 -0.40519083665E+02 -0.21820603196E+03  0.27831147501E+03  0.00000000000E+00 0. -1.
        -11    1    4    4    0    0 -0.38519683345E+03 -0.14164871326E+03 -0.15250725983E+04  0.15793313106E+04  0.00000000000E+00 0.  1.
         11    1    4    4    0    0 -0.22082889325E+02  0.50364551374E+00 -0.32106392941E+02  0.38970862544E+02  0.00000000000E+00 0. -1.
          1    1    1    2  501    0  0.60868757911E+03  0.19554103583E+03 -0.20075155334E+04  0.21068591511E+04  0.00000000000E+00 0. -1.
<scales pt_clust_5="13000.00000" pt_clust_6="13000.00000" pt_clust_7="13000.00000" pt_clust_8="13000.00000" pt_clust_9="13000.00000"></scales>
<clustering>
<clus scale="   78.044">  5  6 -1 -1</clus>
<clus scale="   91.087">  7  8 -1 -1</clus>
<clus scale="  222.744">  2  5  1 -1</clus>
<clus scale="  521.738">  7  9 -1 -1</clus>
<clus scale=" 1081.564">  1  5  2 -1</clus>
</clustering>
</event>
<event>
 9    2  0.3897980E-005  0.2379066E+03  0.7546771E-02  0.1155460E+00
          2   -1    0    0  502    0 -0.00000000000E+00  0.00000000000E+00  0.82036001195E+03  0.82036001195E+03  0.00000000000E+00 0. -1.
         21   -1    0    0  501  502  0.00000000000E+00 -0.00000000000E+00 -0.36766126289E+02  0.36766126289E+02  0.00000000000E+00 0. -1.
         24    2    1    2    0    0 -0.36863469671E+02 -0.51486836605E+02  0.31376888922E+03  0.33050002471E+03  0.82277218897E+02 0.  0.
         23    2    1    2    0    0 -0.13466164361E+02 -0.57289354225E+02  0.11617485175E+03  0.15321781610E+03  0.80719856913E+02 0.  0.
        -13    1    3    3    0    0 -0.44507720689E+02  0.65477030409E+01  0.14893805850E+03  0.15558391590E+03  0.00000000000E+00 0.  1.
         14    1    3    3    0    0  0.76442510182E+01 -0.58034539646E+02  0.16483083072E+03  0.17491610881E+03  0.00000000000E+00 0. -1.
        -13    1    4    4    0    0  0.32184471117E+02 -0.33953438326E+02  0.70159310395E+02  0.84326775050E+02  0.00000000000E+00 0.  1.
         13    1    4    4    0    0 -0.45650635477E+02 -0.23335915899E+02  0.46015541358E+02  0.68891041049E+02  0.00000000000E+00 0. -1.
          1    1    1    2  501    0  0.50329634032E+02  0.10877619083E+03  0.35365014469E+03  0.37340829744E+03  0.00000000000E+00 0. -1.
<scales pt_clust_5="13000.00000" pt_clust_6="13000.00000" pt_clust_7="13000.00000" pt_clust_8="13000.00000" pt_clust_9="13000.00000"></scales>
<clustering>
<clus scale="   80.720">  7  8 -1 -1</clus>
<clus scale="   82.277">  5  6 -1 -1</clus>
<clus scale="  103.824">  1  5  2 -1</clus>
<clus scale="   74.965">  7  9 -1 -1</clus>
<clus scale="  237.907">  2  5  1 -1</clus>
</clustering>
</event>
<event>
 9    2  0.3897980E-005  0.2623441E+03  0.7546771E-02  0.1147614E+00
         21   -1    0    0  501  502  0.00000000000E+00  0.00000000000E+00  0.94579726881E+02  0.94579726881E+02  0.00000000000E+00 0.  1.
          2   -1    0    0  502    0 -0.00000000000E+00 -0.00000000000E+00 -0.43452816649E+03  0.43452816649E+03  0.00000000000E+00 0. -1.
         24    2    1    2    0    0 -0.31738374731E+02  0.36120986832E+02  0.77699236709E+01  0.93524952993E+02  0.79840434606E+02 0.  0.
         23    2    1    2    0    0  0.71407366593E+02 -0.14300870111E+02 -0.36581403384E+02  0.12116927302E+03  0.89667534599E+02 0.  0.
        -11    1    3    3    0    0 -0.58454720369E+02  0.22025186686E+02  0.98865220646E+01  0.63244023436E+02  0.00000000000E+00 0.  1.
         12    1    3    3    0    0  0.26716345638E+02  0.14095800147E+02 -0.21165983937E+01  0.30280929556E+02  0.00000000000E+00 0. -1.
        -13    1    4    4    0    0  0.89453027130E+02 -0.26517416555E+02 -0.25505297689E+02  0.96724028316E+02  0.00000000000E+00 0.  1.
         13    1    4    4    0    0 -0.18045660537E+02  0.12216546444E+02 -0.11076105696E+02  0.24445244704E+02  0.00000000000E+00 0. -1.
          1    1    1    2  501    0 -0.39668991862E+02 -0.21820116721E+02 -0.31113695989E+03  0.31441366736E+03  0.00000000000E+00 0. -1.
<scales pt_clust_5="13000.00000" pt_clust_6="13000.00000" pt_clust_7="13000.00000" pt_clust_8="13000.00000" pt_clust_9="13000.00000"></scales>
<clustering>
<clus scale="   79.840">  5  6 -1 -1</clus>
<clus scale="   89.668">  7  8 -1 -1</clus>
<clus scale="   45.274">  7  9 -1 -1</clus>
<clus scale="   93.202">  2  5  1 -1</clus>
<clus scale="  262.344">  1  5  2 -1</clus>
</clustering>
</event>
<event>
 9    2  0.3897980E-005  0.2338657E+03  0.7546771E-02  0.1154788E+00
         21   -1    0    0  501  502  0.00000000000E+00  0.00000000000E+00  0.79546016815E+02  0.79546016815E+02  0.00000000000E+00 0. -1.
          2   -1    0    0  502    0 -0.00000000000E+00 -0.00000000000E+00 -0.37447038890E+03  0.37447038890E+03  0.00000000000E+00 0. -1.
         24    2    1    2    0    0 -0.21995609978E+02 -0.73137814072E+02 -0.10354708558E+03  0.15182699280E+03  0.80600807093E+02 0.  0.
         23    2    1    2    0    0 -0.27296040588E+02 -0.11645073200E+02 -0.12616574852E+02  0.98294349663E+02  0.92854292593E+02 0.  0.
        -13    1    3    3    0    0  0.24275779808E+02 -0.52711358321E+02 -0.70918436336E+02  0.91636375930E+02  0.00000000000E+00 0.  1.
         14    1    3    3    0    0 -0.46271389786E+02 -0.20426455751E+02 -0.32628649245E+02  0.60190616867E+02  0.00000000000E+00 0. -1.
        -11    1    4    4    0    0 -0.20462137904E+01 -0.38845469871E+02 -0.37162685334E+02  0.53797980461E+02  0.00000000000E+00 0.  1.
         11    1    4    4    0    0 -0.25249826797E+02  0.27200396671E+02  0.24546110482E+02  0.44496369202E+02  0.00000000000E+00 0. -1.
          1    1    1    2  501    0  0.49291650565E+02  0.84782887272E+02 -0.17876071165E+03  0.20389506325E+03  0.00000000000E+00 0. -1.
<scales pt_clust_5="13000.00000" pt_clust_6="13000.00000" pt_clust_7="13000.00000" pt_clust_8="13000.00000" pt_clust_9="13000.00000"></scales>
<clustering>
<clus scale="   80.601">  5  6 -1 -1</clus>
<clus scale="   92.854">  7  8 -1 -1</clus>
<clus scale="   98.070">  7  9 -1 -1</clus>
<clus scale="  111.038">  2  5  1 -1</clus>
<clus scale="  233.866">  1  5  2 -1</clus>
</clustering>
</event>
<event>
 9    2  0.3897980E-005  0.6182367E+03  0.7546771E-02  0.1011390E+00
          2   -1    0    0  502    0 -0.00000000000E+00  0.00000000000E+00  0.59997219636E+03  0.59997219636E+03  0.00000000000E+00 0. -1.
         21   -1    0    0  501  502  0.00000000000E+00 -0.00000000000E+00 -0.69759666448E+03  0.69759666448E+03  0.00000000000E+00 0. -1.
         24    2    1    2    0    0 -0.26710190412E+03 -0.56298706391E+02 -0.48903861796E+03  0.56584376541E+03  0.80668615211E+02 0.  0.
         23    2    1    2    0    0  0.56918010539E+02 -0.20994042253E+03  0.33803093604E+02  0.23882935552E+03  0.92640007467E+02 0.  0.
        -11    1    3    3    0    0 -0.16701822577E+03 -0.27729524957E+02 -0.37500883014E+03  0.41145551033E+03  0.00000000000E+00 0.  1.
         12    1    3    3    0    0 -0.10008367835E+03 -0.28569181434E+02 -0.11402978781E+03  0.15438825509E+03  0.00000000000E+00 0. -1.
        -13    1    4    4    0    0 -0.29203491385E+01 -0.11670233208E+03  0.49753524661E+02  0.12689907788E+03  0.00000000000E+00 0. -1.
         13    1    4    4    0    0  0.59838359678E+02 -0.93238090452E+02 -0.15950431058E+02  0.11193027763E+03  0.00000000000E+00 0.  1.
          1    1    1    2  501    0  0.21018389358E+03  0.26623912892E+03  0.35761105623E+03  0.49289573992E+03  0.00000000000E+00 0. -1.
<scales pt_clust_5="13000.00000" pt_clust_6="13000.00000" pt_clust_7="13000.00000" pt_clust_8="13000.00000" pt_clust_9="13000.00000"></scales>
<clustering>
<clus scale="   80.669">  5  6 -1 -1</clus>
<clus scale="   92.640">  7  8 -1 -1</clus>
<clus scale="  284.641">  1  5  2 -1</clus>
<clus scale="  223.747">  7  9 -1 -1</clus>
<clus scale="  618.237">  2  5  1 -1</clus>
</clustering>
</event>
<event>
 9    2  0.3897980E-005  0.1671961E+03  0.7546771E-02  0.1205505E+00
          2   -1    0    0  502    0 -0.00000000000E+00  0.00000000000E+00  0.10052418795E+04  0.10052418795E+04  0.00000000000E+00 0. -1.
         21   -1    0    0  501  502  0.00000000000E+00 -0.00000000000E+00 -0.10944894185E+03  0.10944894185E+03  0.00000000000E+00 0.  1.
         24    2    1    2    0    0  0.94631094784E+01 -0.53058330762E+02  0.93737921663E+03  0.94240046020E+03  0.80833747455E+02 0.  0.
         23    2    1    2    0    0  0.23096040840E+02  0.34634600153E+02  0.16428618487E+02  0.10325949523E+03  0.93057193272E+02 0.  0.
        -11    1    3    3    0    0 -0.28816797802E+01 -0.29335576951E+02  0.92179766465E+02  0.96778042443E+02  0.00000000000E+00 0.  1.
         12    1    3    3    0    0  0.12344789259E+02 -0.23722753811E+02  0.84519945016E+03  0.84562241776E+03  0.00000000000E+00 0. -1.
        -13    1    4    4    0    0  0.50759454489E+02  0.25838892522E+02 -0.16561555496E+02  0.59316571945E+02  0.00000000000E+00 0.  1.
         13    1    4    4    0    0 -0.27663413649E+02  0.87957076319E+01  0.32990173983E+02  0.43942923286E+02  0.00000000000E+00 0. -1.
          1    1    1    2  501    0 -0.32559150318E+02  0.18423730608E+02 -0.58014897473E+02  0.69030865906E+02  0.00000000000E+00 0. -1.
<scales pt_clust_5="13000.00000" pt_clust_6="13000.00000" pt_clust_7="13000.00000" pt_clust_8="13000.00000" pt_clust_9="13000.00000"></scales>
<clustering>
<clus scale="   80.834">  5  6 -1 -1</clus>
<clus scale="   93.057">  7  8 -1 -1</clus>
<clus scale="   37.410">  7  9 -1 -1</clus>
<clus scale="   97.154">  1  5  2 -1</clus>
<clus scale="  167.196">  2  5  1 -1</clus>
</clustering>
</event>
<event>
 9    2  0.3897980E-005  0.6147306E+03  0.7546771E-02  0.9986330E-01
         -3   -1    0    0    0  501 -0.00000000000E+00  0.00000000000E+00  0.22914531169E+03  0.22914531169E+03  0.00000000000E+00 0.  1.
         21   -1    0    0  501  502  0.00000000000E+00 -0.00000000000E+00 -0.13289770414E+04  0.13289770414E+04  0.00000000000E+00 0. -1.
         24    2    1    2    0    0  0.12304770377E+03 -0.40597789498E+03 -0.70871023901E+03  0.82951425259E+03  0.76582659666E+02 0.  0.
         23    2    1    2    0    0 -0.51888637349E+02 -0.74771241515E+02 -0.64149893926E+02  0.14286603264E+03  0.89511592253E+02 0.  0.
        -11    1    3    3    0    0  0.65201589065E+02 -0.22583441489E+03 -0.31843230580E+03  0.39579232375E+03  0.00000000000E+00 0.  1.
         12    1    3    3    0    0  0.57846114707E+02 -0.18014348009E+03 -0.39027793321E+03  0.43372192884E+03  0.00000000000E+00 0. -1.
        -13    1    4    4    0    0 -0.56005664426E+02 -0.13650530058E+02 -0.57209126071E+02  0.81214872557E+02  0.00000000000E+00 0. -1.
         13    1    4    4    0    0  0.41170270771E+01 -0.61120711457E+02 -0.69407678553E+01  0.61651160082E+02  0.00000000000E+00 0.  1.
         -4    1    1    2    0  502 -0.71159066422E+02  0.48074913650E+03 -0.32697159681E+03  0.58574206789E+03  0.00000000000E+00 0.  1.
<scales pt_clust_5="13000.00000" pt_clust_6="13000.00000" pt_clust_7="13000.00000" pt_clust_8="13000.00000" pt_clust_9="13000.00000"></scales>
<clustering>
<clus scale="   76.583">  5  6 -1 -1</clus>
<clus scale="   89.512">  7  8 -1 -1</clus>
<clus scale="  431.073">  1  5  2 -1</clus>
<clus scale="  171.042">  7  9 -1 -1</clus>
<clus scale="  614.731">  2  5  1 -1</clus>
</clustering>
</event>
<event>
 9    2  0.3897980E-005  0.2908985E+03  0.7546771E-02  0.1135243E+00
         21   -1    0    0  501  502  0.00000000000E+00  0.00000000000E+00  0.89460360851E+02  0.89460360851E+02  0.00000000000E+00 0. -1.
          2   -1    0    0  502    0 -0.00000000000E+00 -0.00000000000E+00 -0.51046467015E+03  0.51046467015E+03  0.00000000000E+00 0. -1.
         24    2    1    2    0    0 -0.14908083685E+02  0.44917118395E+02 -0.48639250494E+01  0.92190119591E+02  0.78965574139E+02 0.  0.
         23    2    1    2    0    0 -0.72648213170E+02  0.29081434938E+00 -0.46501392001E+02  0.12518707533E+03  0.90728038228E+02 0.  0.
        -11    1    3    3    0    0  0.11304521995E+02  0.59915288427E+02  0.27865916196E+01  0.61036047527E+02  0.00000000000E+00 0.  1.
         12    1    3    3    0    0 -0.26212605681E+02 -0.14998170032E+02 -0.76505166689E+01  0.31154072064E+02  0.00000000000E+00 0. -1.
        -13    1    4    4    0    0 -0.88720554644E+02 -0.19083316925E+02 -0.32577899918E+02  0.96420067228E+02  0.00000000000E+00 0. -1.
         13    1    4    4    0    0  0.16072341474E+02  0.19374131275E+02 -0.13923492083E+02  0.28767008097E+02  0.00000000000E+00 0.  1.
          1    1    1    2  501    0  0.87556296855E+02 -0.45207932745E+02 -0.36963899225E+03  0.38254783609E+03  0.00000000000E+00 0. -1.
<scales pt_clust_5="13000.00000" pt_clust_6="13000.00000" pt_clust_7="13000.00000" pt_clust_8="13000.00000" pt_clust_9="13000.00000"></scales>
<clustering>
<clus scale="   78.966">  5  6 -1 -1</clus>
<clus scale="   90.728">  7  8 -1 -1</clus>
<clus scale="   92.062">  2  5  1 -1</clus>
<clus scale="   75.912">  7  9 -1 -1</clus>
<clus scale="  290.898">  1  5  2 -1</clus>
</clustering>
</event>
<event>
 9    2  0.3897980E-005  0.2111196E+03  0.7546771E-02  0.1167018E+00
          2   -1    0    0  502    0 -0.00000000000E+00  0.00000000000E+00  0.38350148586E+03  0.38350148586E+03  0.00000000000E+00 0. -1.
         21   -1    0    0  501  502  0.00000000000E+00 -0.00000000000E+00 -0.11247950038E+03  0.11247950038E+03  0.00000000000E+00 0.  1.
         24    2    1    2    0    0 -0.51882516126E+02  0.61294079624E+02 -0.39695928263E+02  0.12032543408E+03  0.80334822402E+02 0.  0.
         23    2    1    2    0    0  0.12566773190E+02 -0.81232705393E+02  0.97301914126E+02  0.15773431563E+03  0.93036420932E+02 0.  0.
        -11    1    3    3    0    0 -0.62062938886E+02  0.60949299367E+02 -0.54282670582E+02  0.10253406167E+03  0.00000000000E+00 0.  1.
         12    1    3    3    0    0  0.10180422760E+02  0.34478025680E+00  0.14586742319E+02  0.17791372417E+02  0.00000000000E+00 0. -1.
        -13    1    4    4    0    0 -0.58180795873E+01  0.20220716225E+02  0.16444603563E+02  0.26704913426E+02  0.00000000000E+00 0.  1.
         13    1    4    4    0    0  0.18384852778E+02 -0.10145342162E+03  0.80857310564E+02  0.13102940220E+03  0.00000000000E+00 0. -1.
          1    1    1    2  501    0  0.39315742936E+02  0.19938625769E+02  0.21341599962E+03  0.21792123653E+03  0.00000000000E+00 0. -1.
<scales pt_clust_5="13000.00000" pt_clust_6="13000.00000" pt_clust_7="13000.00000" pt_clust_8="13000.00000" pt_clust_9="13000.00000"></scales>
<clustering>
<clus scale="   80.335">  5  6 -1 -1</clus>
<clus scale="   93.036">  7  8 -1 -1</clus>
<clus scale="   44.083">  7  9 -1 -1</clus>
<clus scale="  113.589">  1  5  2 -1</clus>
<clus scale="  211.120">  2  5  1 -1</clus>
</clustering>
</event>
<event>
 9    2  0.3897980E-005  0.5857872E+03  0.7546771E-02  0.1038780E+00
          2   -1    0    0  502    0 -0.00000000000E+00  0.00000000000E+00  0.52587551095E+03  0.52587551095E+03  0.00000000000E+00 0. -1.
         21   -1    0    0  501  502  0.00000000000E+00 -0.00000000000E+00 -0.43401819705E+03  0.43401819705E+03  0.00000000000E+00 0.  1.
         24    2    1    2    0    0  0.62247678704E+02  0.10088522084E+03  0.30326889999E+03  0.33712452867E+03  0.87340259008E+02 0.  0.
         23    2    1    2    0    0 -0.26639006128E+03 -0.19996166187E+03 -0.63314883048E+02  0.35180260024E+03  0.93850754692E+02 0.  0.
        -11    1    3    3    0    0  0.20130477640E+02 -0.11530552694E+02  0.25217906786E+02  0.34265618309E+02  0.00000000000E+00 0.  1.
         12    1    3    3    0    0  0.42117201064E+02  0.11241577354E+03  0.27805099320E+03  0.30285891036E+03  0.00000000000E+00 0. -1.
        -13    1    4    4    0    0 -0.36247205934E+02 -0.70603807379E+02  0.36072795792E+01  0.79446648893E+02  0.00000000000E+00 0. -1.
         13    1    4    4    0    0 -0.23014285534E+03 -0.12935785449E+03 -0.66922162627E+02  0.27235595135E+03  0.00000000000E+00 0.  1.
          1    1    1    2  501    0  0.20414238257E+03  0.99076441027E+02 -0.14809670304E+03  0.27096657908E+03  0.00000000000E+00 0. -1.
<scales pt_clust_5="13000.00000" pt_clust_6="13000.00000" pt_clust_7="13000.00000" pt_clust_8="13000.00000" pt_clust_9="13000.00000"></scales>
<clustering>
<clus scale="   87.340">  5  6 -1 -1</clus>
<clus scale="   93.851">  7  8 -1 -1</clus>
<clus scale="  147.244">  1  5  2 -1</clus>
<clus scale="  257.500">  7  9 -1 -1</clus>
<clus scale="  585.787">  2  5  1 -1</clus>
</clustering>
</event>
<event>
 9    2  0.3897980E-005  0.3785236E+03  0.7546771E-02  0.1106441E+00
         21   -1    0    0  501  502  0.00000000000E+00  0.00000000000E+00  0.54711883934E+03  0.54711883934E+03  0.00000000000E+00 0.  1.
          4   -1    0    0  502    0 -0.00000000000E+00 -0.00000000000E+00 -0.98674697187E+02  0.98674697187E+02  0.00000000000E+00 0. -1.
         24    2    1    2    0    0  0.19895684577E+02  0.21080153885E+02  0.72834731632E+02  0.11253695959E+03  0.80743160635E+02 0.  0.
         23    2    1    2    0    0  0.16478121089E+03 -0.40876139156E+01  0.23662140599E+03  0.30149815198E+03  0.87988009554E+02 0.  0.
        -13    1    3    3    0    0  0.29525471856E+02  0.48414866087E+02  0.50737995859E+02  0.76092686707E+02  0.00000000000E+00 0.  1.
         14    1    3    3    0    0 -0.96297872786E+01 -0.27334712201E+02  0.22096735773E+02  0.36444272883E+02  0.00000000000E+00 0. -1.
        -11    1    4    4    0    0  0.13994613306E+03 -0.20687920685E+02  0.23133473249E+03  0.27116170208E+03  0.00000000000E+00 0.  1.
         11    1    4    4    0    0  0.24835077834E+02  0.16600306769E+02  0.52866735022E+01  0.30336449901E+02  0.00000000000E+00 0. -1.
          3    1    1    2  501    0 -0.18467689547E+03 -0.16992539969E+02  0.13898800453E+03  0.23175842495E+03  0.00000000000E+00 0. -1.
<scales pt_clust_5="13000.00000" pt_clust_6="13000.00000" pt_clust_7="13000.00000" pt_clust_8="13000.00000" pt_clust_9="13000.00000"></scales>
<clustering>
<clus scale="   80.743">  5  6 -1 -1</clus>
<clus scale="   85.789">  2  5  1 -1</clus>
<clus scale="   87.988">  7  8 -1 -1</clus>
<clus scale="  173.030">  7  9 -1 -1</clus>
<clus scale="  378.524">  1  5  2 -1</clus>
</clustering>
</event>
<event>
 9    2  0.3897980E-005  0.2881260E+03  0.7546771E-02  0.1136662E+00
          2   -1    0    0  502    0 -0.00000000000E+00  0.00000000000E+00  0.94538590318E+03  0.94538590318E+03  0.00000000000E+00 0. -1.
         21   -1    0    0  501  502  0.00000000000E+00 -0.00000000000E+00 -0.38125970534E+02  0.38125970534E+02  0.00000000000E+00 0. -1.
         24    2    1    2    0    0 -0.12048271055E+02  0.41798284394E+02  0.22518815881E+03  0.24308059726E+03  0.80537025525E+02 0.  0.
         23    2    1    2    0    0 -0.65377387876E+02 -0.37062121258E+02  0.10547541437E+03  0.15864048446E+03  0.91618429345E+02 0.  0.
        -11    1    3    3    0    0  0.14556386455E+02 -0.17323060161E+02  0.31167359878E+02  0.38514687092E+02  0.00000000000E+00 0.  1.
         12    1    3    3    0    0 -0.26604657510E+02  0.59121344555E+02  0.19402079893E+03  0.20456591017E+03  0.00000000000E+00 0. -1.
        -13    1    4    4    0    0  0.22192919774E+00  0.26830070091E+02  0.21293629636E+02  0.34253767336E+02  0.00000000000E+00 0.  1.
         13    1    4    4    0    0 -0.65599317074E+02 -0.63892191349E+02  0.84181784731E+02  0.12438671712E+03  0.00000000000E+00 0. -1.
          1    1    1    2  501    0  0.77425658931E+02 -0.47361631359E+01  0.57659635947E+03  0.58179079200E+03  0.00000000000E+00 0. -1.
<scales pt_clust_5="13000.00000" pt_clust_6="13000.00000" pt_clust_7="13000.00000" pt_clust_8="13000.00000" pt_clust_9="13000.00000"></scales>
<clustering>
<clus scale="   80.537">  5  6 -1 -1</clus>
<clus scale="   91.534">  1  5  2 -1</clus>
<clus scale="   91.618">  7  8 -1 -1</clus>
<clus scale="   73.690">  7  9 -1 -1</clus>
<clus scale="  288.126">  2  5  1 -1</clus>
</clustering>
</event>
<event>
 9    2  0.3897980E-005  0.6698876E+03  0.7546771E-02  0.1036543E+00
          2   -1    0    0  502    0 -0.00000000000E+00  0.00000000000E+00  0.10508819110E+04  0.10508819110E+04  0.00000000000E+00 0. -1.
         21   -1    0    0  501  502  0.00000000000E+00 -0.00000000000E+00 -0.16536305791E+03  0.16536305791E+03  0.00000000000E+00 0. -1.
         24    2    1    2    0    0  0.74493440516E+02 -0.21666157665E+01  0.32888765396E+03  0.34527558254E+03  0.74122682542E+02 0.  0.
         23    2    1    2    0    0  0.26522448942E+03 -0.10879592984E+03  0.17643236062E+03  0.34917238057E+03  0.92802959785E+02 0.  0.
        -13    1    3    3    0    0  0.42487250204E+02  0.35407813282E+02  0.15787207532E+03  0.16727962170E+03  0.00000000000E+00 0.  1.
         14    1    3    3    0    0  0.32006190312E+02 -0.37574429049E+02  0.17101557864E+03  0.17799596084E+03  0.00000000000E+00 0. -1.
        -11    1    4    4    0    0  0.67956546228E+02 -0.55119487918E+02  0.15214247348E+02  0.88812856310E+02  0.00000000000E+00 0.  1.
         11    1    4    4    0    0  0.19726794319E+03 -0.53676441920E+02  0.16121811327E+03  0.26035952426E+03  0.00000000000E+00 0. -1.
          1    1    1    2  501    0 -0.33971792993E+03  0.11096254561E+03  0.38019883848E+03  0.52179700576E+03  0.00000000000E+00 0. -1.
<scales pt_clust_5="13000.00000" pt_clust_6="13000.00000" pt_clust_7="13000.00000" pt_clust_8="13000.00000" pt_clust_9="13000.00000"></scales>
<clustering>
<clus scale="   74.123">  5  6 -1 -1</clus>
<clus scale="   92.803">  7  8 -1 -1</clus>
<clus scale="  105.110">  1  5  2 -1</clus>
<clus scale="  312.499">  7  9 -1 -1</clus>
<clus scale="  669.888">  2  5  1 -1</clus>
</clustering>
</event>
<event>
 9    2  0.3897980E-005  0.4199209E+03  0.7546771E-02  0.1092599E+00
         21   -1    0    0  501  502  0.00000000000E+00  0.00000000000E+00  0.16516942332E+03  0.16516942332E+03  0.00000000000E+00 0. -1.
          2   -1    0    0  502    0 -0.00000000000E+00 -0.00000000000E+00 -0.60186387475E+03  0.60186387475E+03  0.00000000000E+00 0. -1.
         24    2    1    2    0    0 -0.47007333576E+02  0.25897418705E+01  0.66296744221E+02  0.11179768197E+03  0.76727226111E+02 0.  0.
         23    2    1    2    0    0 -0.12515084266E+03 -0.48188386885E+02 -0.48948388506E+02  0.16751382573E+03  0.87636082896E+02 0.  0.
        -11    1    3    3    0    0 -0.22031061363E+02 -0.35547798828E+02  0.18450775921E+02  0.45710445178E+02  0.00000000000E+00 0.  1.
         12    1    3    3    0    0 -0.24976272213E+02  0.38137540699E+02  0.47845968300E+02  0.66087236792E+02  0.00000000000E+00 0. -1.
        -13    1    4    4    0    0 -0.22397415435E+02 -0.50279803321E+02 -0.35450228203E+01  0.55156776800E+02  0.00000000000E+00 0. -1.
         13    1    4    4    0    0 -0.10275342723E+03  0.20914164367E+01 -0.45403365686E+02  0.11235704893E+03  0.00000000000E+00 0.  1.
          1    1    1    2  501    0  0.17215817624E+03  0.45598645014E+02 -0.45404280715E+03  0.48772179036E+03  0.00000000000E+00 0. -1.
<scales pt_clust_5="13000.00000" pt_clust_6="13000.00000" pt_clust_7="13000.00000" pt_clust_8="13000.00000" pt_clust_9="13000.00000"></scales>
<clustering>
<clus scale="   76.727">  5  6 -1 -1</clus>
<clus scale="   87.636">  7  8 -1 -1</clus>
<clus scale="   90.019">  2  5  1 -1</clus>
<clus scale="  142.178">  7  9 -1 -1</clus>
<clus scale="  419.921">  1  5  2 -1</clus>
</clustering>
</event>
<event>
 9    2  0.3897980E-005  0.3862741E+03  0.7546771E-02  0.1074316E+00
          2   -1    0    0  502    0 -0.00000000000E+00  0.00000000000E+00  0.40854511140E+03  0.40854511140E+03  0.00000000000E+00 0. -1.
         21   -1    0    0  501  502  0.00000000000E+00 -0.00000000000E+00 -0.20929342326E+03  0.20929342326E+03  0.00000000000E+00 0.  1.
         24    2    1    2    0    0  0.16457438833E+03 -0.19003520078E+02  0.11980800306E+03  0.22347963409E+03  0.90240380028E+02 0.  0.
         23    2    1    2    0    0 -0.38558783133E+01 -0.59588497057E+02 -0.93428447458E+02  0.14557803550E+03  0.94331505058E+02 0.  0.
        -11    1    3    3    0    0  0.63788658798E+02 -0.49881472925E+02  0.35120891720E+02  0.88264553291E+02  0.00000000000E+00 0.  1.
         12    1    3    3    0    0  0.10078572953E+03  0.30877952847E+02  0.84687111336E+02  0.13521508080E+03  0.00000000000E+00 0. -1.
        -13    1    4    4    0    0 -0.25443578545E+02 -0.54086898957E+02 -0.10473829581E+03  0.12059385945E+03  0.00000000000E+00 0.  1.
         13    1    4    4    0    0  0.21587700232E+02 -0.55015981006E+01  0.11309848355E+02  0.24984176047E+02  0.00000000000E+00 0. -1.
          1    1    1    2  501    0 -0.16071851002E+03  0.78592017135E+02  0.17287213253E+03  0.24878086507E+03  0.00000000000E+00 0. -1.
<scales pt_clust_5="13000.00000" pt_clust_6="13000.00000" pt_clust_7="13000.00000" pt_clust_8="13000.00000" pt_clust_9="13000.00000"></scales>
<clustering>
<clus scale="   90.240">  5  6 -1 -1</clus>
<clus scale="   94.332">  7  8 -1 -1</clus>
<clus scale="  178.905">  7  9 -1 -1</clus>
<clus scale="  188.651">  1  5  2 -1</clus>
<clus scale="  386.274">  2  5  1 -1</clus>
</clustering>
</event>
<event>
 9    2  0.3897980E-005  0.9744795E+03  0.7546771E-02  0.9985285E-01
          2   -1    0    0  502    0 -0.00000000000E+00  0.00000000000E+00  0.54497283540E+03  0.54497283540E+03  0.00000000000E+00 0. -1.
         21   -1    0    0  501  502  0.00000000000E+00 -0.00000000000E+00 -0.87004231000E+03  0.87004231000E+03  0.00000000000E+00 0. -1.
         24    2    1    2    0    0  0.22119898292E+01  0.50031137504E+02  0.25765426678E+03  0.27959574325E+03  0.96333020478E+02 0.  0.
         23    2    1    2    0    0  0.37214201294E+03 -0.32984353970E+02  0.62515131092E+02  0.38925272187E+03  0.89620837262E+02 0.  0.
        -11    1    3    3    0    0 -0.41986415735E+02  0.16029182267E+01  0.11953431414E+03  0.12670390960E+03  0.00000000000E+00 0.  1.
         12    1    3    3    0    0  0.44198405565E+02  0.48428219278E+02  0.13811995264E+03  0.15289183364E+03  0.00000000000E+00 0. -1.
        -13    1    4    4    0    0  0.13162455766E+03  0.29788682944E+02  0.33025037285E+02  0.13893539109E+03  0.00000000000E+00 0.  1.
         13    1    4    4    0    0  0.24051745528E+03 -0.62773036914E+02  0.29490093807E+02  0.25031733078E+03  0.00000000000E+00 0. -1.
          1    1    1    2  501    0 -0.37435400277E+03 -0.17046783534E+02 -0.64523887246E+03  0.74616668028E+03  0.00000000000E+00 0. -1.
<scales pt_clust_5="13000.00000" pt_clust_6="13000.00000" pt_clust_7="13000.00000" pt_clust_8="13000.00000" pt_clust_9="13000.00000"></scales>
<clustering>
<clus scale="   89.621">  7  8 -1 -1</clus>
<clus scale="   96.333">  5  6 -1 -1</clus>
<clus scale="  108.573">  1  5  2 -1</clus>
<clus scale="  374.034">  7  9 -1 -1</clus>
<clus scale="  974.479">  2  5  1 -1</clus>
</clustering>
</event>
<event>
 9    2  0.3897980E-005  0.1670292E+03  0.7546771E-02  0.1214923E+00
         21   -1    0    0  501  502  0.00000000000E+00  0.00000000000E+00  0.34873045693E+02  0.34873045693E+02  0.00000000000E+00 0. -1.
          2   -1    0    0  502    0 -0.00000000000E+00 -0.00000000000E+00 -0.45933916114E+03  0.45933916114E+03  0.00000000000E+00 0. -1.
         24    2    1    2    0    0 -0.54820522082E+01 -0.16137123298E+02 -0.19268930897E+03  0.20852142062E+03  0.77855978700E+02 0.  0.
         23    2    1    2    0    0  0.96448051918E+01 -0.34834071835E+02 -0.91496245939E+02  0.13637894171E+03  0.94452198983E+02 0.  0.
        -11    1    3    3    0    0  0.34612886557E+02 -0.17223492843E+02 -0.78748562172E+02  0.87727057774E+02  0.00000000000E+00 0.  1.
         12    1    3    3    0    0 -0.40094938765E+02  0.10863695450E+01 -0.11394074680E+03  0.12079436284E+03  0.00000000000E+00 0. -1.
        -13    1    4    4    0    0 -0.88808284082E+01  0.30609168337E+02 -0.39564162236E+02  0.50804657591E+02  0.00000000000E+00 0.  1.
         13    1    4    4    0    0  0.18525633600E+02 -0.65443240172E+02 -0.51932083703E+02  0.85574284117E+02  0.00000000000E+00 0. -1.
          1    1    1    2  501    0 -0.41627529836E+01  0.50971195133E+02 -0.14028056054E+03  0.14931184451E+03  0.00000000000E+00 0. -1.
<scales pt_clust_5="13000.00000" pt_clust_6="13000.00000" pt_clust_7="13000.00000" pt_clust_8="13000.00000" pt_clust_9="13000.00000"></scales>
<clustering>
<clus scale="   77.856">  5  6 -1 -1</clus>
<clus scale="   79.700">  2  5  1 -1</clus>
<clus scale="   94.452">  7  8 -1 -1</clus>
<clus scale="   42.559">  7  9 -1 -1</clus>
<clus scale="  167.029">  1  5  2 -1</clus>
</clustering>
</event>
<event>
 9    2  0.3897980E-005  0.2871423E+03  0.7546771E-02  0.1106798E+00
         21   -1    0    0  501  502  0.00000000000E+00  0.00000000000E+00  0.76480149745E+02  0.76480149745E+02  0.00000000000E+00 0. -1.
          2   -1    0    0  502    0 -0.00000000000E+00 -0.00000000000E+00 -0.97413884483E+03  0.97413884483E+03  0.00000000000E+00 0. -1.
         24    2    1    2    0    0 -0.16928113894E+03  0.53381123071E+02 -0.62504908640E+03  0.65468126327E+03  0.80097114633E+02 0.  0.
         23    2    1    2    0    0  0.16489416343E+02  0.20936721637E+02 -0.12222184056E+03  0.16903481520E+03  0.11368528170E+03 0.  0.
        -13    1    3    3    0    0 -0.32845366061E+02  0.35563996530E+02 -0.26195574413E+03  0.26639149349E+03  0.00000000000E+00 0.  1.
         14    1    3    3    0    0 -0.13643577288E+03  0.17817126541E+02 -0.36309334227E+03  0.38828976978E+03  0.00000000000E+00 0. -1.
        -13    1    4    4    0    0 -0.81779530812E+01  0.51271058228E+02 -0.13716839123E+02  0.53700577315E+02  0.00000000000E+00 0. -1.
         13    1    4    4    0    0  0.24667369424E+02 -0.30334336591E+02 -0.10850500144E+03  0.11533423788E+03  0.00000000000E+00 0.  1.
          1    1    1    2  501    0  0.15279172259E+03 -0.74317844708E+02 -0.15038776813E+03  0.22690291611E+03  0.00000000000E+00 0. -1.
<scales pt_clust_5="13000.00000" pt_clust_6="13000.00000" pt_clust_7="13000.00000" pt_clust_8="13000.00000" pt_clust_9="13000.00000"></scales>
<clustering>
<clus scale="   80.097">  5  6 -1 -1</clus>
<clus scale="  113.685">  7  8 -1 -1</clus>
<clus scale="  169.907">  7  9 -1 -1</clus>
<clus scale="  194.734">  2  5  1 -1</clus>
<clus scale="  287.142">  1  5  2 -1</clus>
</clustering>
</event>
<event>
 9    2  0.3897980E-005  0.7348993E+03  0.7546771E-02  0.1026760E+00
         21   -1    0    0  501  502  0.00000000000E+00  0.00000000000E+00  0.40650299174E+03  0.40650299174E+03  0.00000000000E+00 0. -1.
          2   -1    0    0  502    0 -0.00000000000E+00 -0.00000000000E+00 -0.44483158708E+03  0.44483158708E+03  0.00000000000E+00 0. -1.
         24    2    1    2    0    0 -0.61511993145E+02  0.30591091516E+02  0.37016169120E+02  0.11258309463E+03  0.81149345282E+02 0.  0.
         23    2    1    2    0    0  0.27647911853E+03  0.18798464852E+03  0.12883480360E+03  0.37040991018E+03  0.93947665649E+02 0.  0.
        -11    1    3    3    0    0 -0.48144083265E+02  0.16061452481E+02 -0.18220336445E+02  0.53924054646E+02  0.00000000000E+00 0.  1.
         12    1    3    3    0    0 -0.13367909880E+02  0.14529639034E+02  0.55236505565E+02  0.58659039986E+02  0.00000000000E+00 0. -1.
        -11    1    4    4    0    0  0.26647777413E+03  0.15757167459E+03  0.13512268115E+03  0.33778303051E+03  0.00000000000E+00 0. -1.
         11    1    4    4    0    0  0.10001344398E+02  0.30412973932E+02 -0.62878775510E+01  0.32626879674E+02  0.00000000000E+00 0.  1.
          1    1    1    2  501    0 -0.21496712538E+03 -0.21857574004E+03 -0.20417956806E+03  0.36834157400E+03  0.00000000000E+00 0. -1.
<scales pt_clust_5="13000.00000" pt_clust_6="13000.00000" pt_clust_7="13000.00000" pt_clust_8="13000.00000" pt_clust_9="13000.00000"></scales>
<clustering>
<clus scale="   81.149">  5  6 -1 -1</clus>
<clus scale="   93.948">  7  8 -1 -1</clus>
<clus scale="  106.324">  2  5  1 -1</clus>
<clus scale="  324.830">  7  9 -1 -1</clus>
<clus scale="  734.899">  1  5  2 -1</clus>
</clustering>
</event>
<event>
 9    2  0.3897980E-005  0.5906858E+03  0.7546771E-02  0.1041738E+00
          2   -1    0    0  502    0 -0.00000000000E+00  0.00000000000E+00  0.57848274101E+03  0.57848274101E+03  0.00000000000E+00 0. -1.
         21   -1    0    0  501  502  0.00000000000E+00 -0.00000000000E+00 -0.23854863538E+03  0.23854863538E+03  0.00000000000E+00 0. -1.
         24    2    1    2    0    0  0.69939524666E+01 -0.10468591868E+03 -0.70680719045E+01  0.13196190429E+03  0.79724084207E+02 0.  0.
         23    2    1    2    0    0 -0.23942761460E+03 -0.75774061941E+02  0.27184753770E+03  0.38136001919E+03  0.92016788613E+02 0.  0.
        -13    1    3    3    0    0 -0.14172608396E+02 -0.64188463155E+02  0.30821211757E+02  0.72601437486E+02  0.00000000000E+00 0.  1.
         14    1    3    3    0    0  0.21166560862E+02 -0.40497455523E+02 -0.37889283662E+02  0.59360466802E+02  0.00000000000E+00 0. -1.
        -13    1    4    4    0    0 -0.15437977743E+03 -0.75994569537E+02  0.12878866398E+03  0.21492977981E+03  0.00000000000E+00 0. -1.
         13    1    4    4    0    0 -0.85047837175E+02  0.22050759566E+00  0.14305887372E+03  0.16643023939E+03  0.00000000000E+00 0.  1.
          1    1    1    2  501    0  0.23243366213E+03  0.18045998062E+03  0.75154639834E+02  0.30370945291E+03  0.00000000000E+00 0. -1.
<scales pt_clust_5="13000.00000" pt_clust_6="13000.00000" pt_clust_7="13000.00000" pt_clust_8="13000.00000" pt_clust_9="13000.00000"></scales>
<clustering>
<clus scale="   79.724">  5  6 -1 -1</clus>
<clus scale="   92.017">  7  8 -1 -1</clus>
<clus scale="  131.773">  1  5  2 -1</clus>
<clus scale="  274.588">  7  9 -1 -1</clus>
<clus scale="  590.686">  2  5  1 -1</clus>
</clustering>
</event>
<event>
 9    2  0.3897980E-005  0.1825161E+03  0.7546771E-02  0.1202323E+00
         21   -1    0    0  501  502  0.00000000000E+00  0.00000000000E+00  0.29737054083E+02  0.29737054083E+02  0.00000000000E+00 0.  1.
          2   -1    0    0  502    0 -0.00000000000E+00 -0.00000000000E+00 -0.10831943129E+04  0.10831943129E+04  0.00000000000E+00 0. -1.
         24    2    1    2    0    0 -0.84814750079E+01  0.21576389420E+02 -0.78041808449E+03  0.78450706973E+03  0.76560302176E+02 0.  0.
         23    2    1    2    0    0 -0.36873131159E+02  0.39129966006E+02 -0.12426157316E+03  0.16146000017E+03  0.87963691661E+02 0.  0.
        -13    1    3    3    0    0 -0.55601143160E+01 -0.23935115029E+02 -0.11855980693E+03  0.12107944673E+03  0.00000000000E+00 0.  1.
         14    1    3    3    0    0 -0.29213606918E+01  0.45511504449E+02 -0.66185827756E+03  0.66342762300E+03  0.00000000000E+00 0. -1.
        -13    1    4    4    0    0 -0.43809569714E+02  0.13873223445E+02 -0.13866344058E+02  0.48000210675E+02  0.00000000000E+00 0.  1.
         13    1    4    4    0    0  0.69364385545E+01  0.25256742560E+02 -0.11039522910E+03  0.11345978950E+03  0.00000000000E+00 0. -1.
          1    1    1    2  501    0  0.45354606167E+02 -0.60706355425E+02 -0.14877760121E+03  0.16696429711E+03  0.00000000000E+00 0. -1.
<scales pt_clust_5="13000.00000" pt_clust_6="13000.00000" pt_clust_7="13000.00000" pt_clust_8="13000.00000" pt_clust_9="13000.00000"></scales>
<clustering>
<clus scale="   76.560">  5  6 -1 -1</clus>
<clus scale="   79.993">  2  5  1 -1</clus>
<clus scale="   87.964">  7  8 -1 -1</clus>
<clus scale="   64.120">  7  9 -1 -1</clus>
<clus scale="  182.516">  1  5  2 -1</clus>
</clustering>
</event>
<event>
 9    2  0.3897980E-005  0.3279549E+03  0.7546771E-02  0.1110094E+00
         21   -1    0    0  501  502  0.00000000000E+00  0.00000000000E+00  0.62578855612E+03  0.62578855612E+03  0.00000000000E+00 0.  1.
         -3   -1    0    0    0  501 -0.00000000000E+00 -0.00000000000E+00 -0.86596498101E+02  0.86596498101E+02  0.00000000000E+00 0.  1.
         24    2    1    2    0    0 -0.41288665669E+02  0.79775883458E+02  0.24028786549E+03  0.26865302713E+03  0.79795019829E+02 0.  0.
         23    2    1    2    0    0  0.19682175273E+02  0.10560827912E+02 -0.33341486690E+02  0.98746877835E+02  0.90224010318E+02 0.  0.
        -11    1    3    3    0    0 -0.21664150388E+02  0.92108521852E+02  0.21144548611E+03  0.23165169718E+03  0.00000000000E+00 0.  1.
         12    1    3    3    0    0 -0.19624515281E+02 -0.12332638394E+02  0.28842379383E+02  0.37001329952E+02  0.00000000000E+00 0. -1.
        -13    1    4    4    0    0  0.24634650041E+02 -0.17458802949E+02  0.21429618443E+02  0.37025725242E+02  0.00000000000E+00 0. -1.
         13    1    4    4    0    0 -0.49524747679E+01  0.28019630861E+02 -0.54771105133E+02  0.61721152593E+02  0.00000000000E+00 0.  1.
         -4    1    1    2    0  502  0.21606490396E+02 -0.90336711370E+02  0.33224567922E+03  0.34498514926E+03  0.00000000000E+00 0.  1.
<scales pt_clust_5="13000.00000" pt_clust_6="13000.00000" pt_clust_7="13000.00000" pt_clust_8="13000.00000" pt_clust_9="13000.00000"></scales>
<clustering>
<clus scale="   79.795">  5  6 -1 -1</clus>
<clus scale="   90.224">  7  8 -1 -1</clus>
<clus scale="   92.885">  7  9 -1 -1</clus>
<clus scale="  120.151">  2  5  1 -1</clus>
<clus scale="  327.955">  1  5  2 -1</clus>
</clustering>
</event>
<event>
 9    2  0.3897980E-005  0.1030750E+04  0.7546771E-02  0.1002337E+00
         21   -1    0    0  501  502  0.00000000000E+00  0.00000000000E+00  0.72976561318E+03  0.72976561318E+03  0.00000000000E+00 0. -1.
          2   -1    0    0  502    0 -0.00000000000E+00 -0.00000000000E+00 -0.43744757407E+03  0.43744757407E+03  0.00000000000E+00 0. -1.
         24    2    1    2    0    0 -0.82617374272E+01 -0.66543636480E+01  0.81407790033E+02  0.11510621418E+03  0.80682559474E+02 0.  0.
         23    2    1    2    0    0 -0.21710927232E+03 -0.39969691699E+03 -0.12275100621E+03  0.48005514973E+03  0.92147032929E+02 0.  0.
        -11    1    3    3    0    0  0.24218139752E+02 -0.31926214162E+02  0.36659522162E+02  0.54311343280E+02  0.00000000000E+00 0.  1.
         12    1    3    3    0    0 -0.32479877179E+02  0.25271850514E+02  0.44748267871E+02  0.60794870897E+02  0.00000000000E+00 0. -1.
        -11    1    4    4    0    0 -0.17708059030E+03 -0.27782121954E+03 -0.12329704943E+03  0.35177311990E+03  0.00000000000E+00 0. -1.
         11    1    4    4    0    0 -0.40028682020E+02 -0.12187569745E+03  0.54604322290E+00  0.12828202983E+03  0.00000000000E+00 0.  1.
          1    1    1    2  501    0  0.22537100975E+03  0.40635128064E+03  0.33366125528E+03  0.57205182334E+03  0.00000000000E+00 0. -1.
<scales pt_clust_5="13000.00000" pt_clust_6="13000.00000" pt_clust_7="13000.00000" pt_clust_8="13000.00000" pt_clust_9="13000.00000"></scales>
<clustering>
<clus scale="   80.683">  5  6 -1 -1</clus>
<clus scale="   81.377">  2  5  1 -1</clus>
<clus scale="   92.147">  7  8 -1 -1</clus>
<clus scale="  461.882">  7  9 -1 -1</clus>
<clus scale=" 1030.750">  1  5  2 -1</clus>
</clustering>
</event>
<event>
 9    2  0.3897980E-005  0.8230790E+03  0.7546771E-02  0.9705886E-01
         21   -1    0    0  501  502  0.00000000000E+00  0.00000000000E+00  0.61741100844E+03  0.61741100844E+03  0.00000000000E+00 0. -1.
          2   -1    0    0  502    0 -0.00000000000E+00 -0.00000000000E+00 -0.11125564367E+04  0.11125564367E+04  0.00000000000E+00 0. -1.
         24    2    1    2    0    0  0.38397591929E+03  0.21469040289E+03 -0.74574839776E+03  0.86958331577E+03  0.80653546863E+02 0.  0.
         23    2    1    2    0    0 -0.10313365186E+02  0.11761782096E+03 -0.15635032836E+03  0.21566446426E+03  0.90141104156E+02 0.  0.
        -11    1    3    3    0    0  0.78296300005E+02  0.75762135179E+02 -0.22466525396E+03  0.24968918290E+03  0.00000000000E+00 0.  1.
         12    1    3    3    0    0  0.30567961929E+03  0.13892826771E+03 -0.52108314380E+03  0.61989413288E+03  0.00000000000E+00 0. -1.
        -11    1    4    4    0    0  0.34744267922E+02  0.73517257316E+02 -0.62298960468E+02  0.10243589094E+03  0.00000000000E+00 0. -1.
         11    1    4    4    0    0 -0.45057633108E+02  0.44100563646E+02 -0.94051367891E+02  0.11322857333E+03  0.00000000000E+00 0.  1.
          1    1    1    2  501    0 -0.37366255411E+03 -0.33230822385E+03  0.40695329784E+03  0.64471966513E+03  0.00000000000E+00 0. -1.
<scales pt_clust_5="13000.00000" pt_clust_6="13000.00000" pt_clust_7="13000.00000" pt_clust_8="13000.00000" pt_clust_9="13000.00000"></scales>
<clustering>
<clus scale="   80.654">  5  6 -1 -1</clus>
<clus scale="   90.141">  7  8 -1 -1</clus>
<clus scale="  447.252">  2  5  1 -1</clus>
<clus scale="  334.590">  7  9 -1 -1</clus>
<clus scale="  823.079">  1  5  2 -1</clus>
</clustering>
</event>
<event>
 9    2  0.3897980E-005  0.3088245E+03  0.7546771E-02  0.1128918E+00
         21   -1    0    0  501  502  0.00000000000E+00  0.00000000000E+00  0.37732376223E+03  0.37732376223E+03  0.00000000000E+00 0.  1.
         -1   -1    0    0    0  501 -0.00000000000E+00 -0.00000000000E+00 -0.12296300287E+03  0.12296300287E+03  0.00000000000E+00 0.  1.
         24    2    1    2    0    0 -0.28772984965E+01  0.41025418337E+02 -0.14306369920E+02  0.90952460149E+02  0.79851825217E+02 0.  0.
         23    2    1    2    0    0 -0.40485505353E+02  0.10575578221E+03  0.81328309151E+02  0.16742339756E+03  0.92698104439E+02 0.  0.
        -13    1    3    3    0    0  0.37128553075E+02  0.31461136673E+02 -0.67616144349E+01  0.49133003205E+02  0.00000000000E+00 0.  1.
         14    1    3    3    0    0 -0.40005851572E+02  0.95642816640E+01 -0.75447554848E+01  0.41819456943E+02  0.00000000000E+00 0. -1.
        -13    1    4    4    0    0 -0.52948496188E+02  0.51356951338E+02  0.83699621358E+02  0.11156480769E+03  0.00000000000E+00 0.  1.
         13    1    4    4    0    0  0.12462990834E+02  0.54398830871E+02 -0.23713122073E+01  0.55858589870E+02  0.00000000000E+00 0. -1.
         -2    1    1    2    0  502  0.43362803850E+02 -0.14678120055E+03  0.18733882013E+03  0.24191090740E+03  0.00000000000E+00 0.  1.
<scales pt_clust_5="13000.00000" pt_clust_6="13000.00000" pt_clust_7="13000.00000" pt_clust_8="13000.00000" pt_clust_9="13000.00000"></scales>
<clustering>
<clus scale="   79.852">  5  6 -1 -1</clus>
<clus scale="   89.820">  2  5  1 -1</clus>
<clus scale="   92.698">  7  8 -1 -1</clus>
<clus scale="  137.516">  7  9 -1 -1</clus>
<clus scale="  308.824">  1  5  2 -1</clus>
</clustering>
</event>
<event>
 9    2  0.3897980E-005  0.2396268E+03  0.7546771E-02  0.1152047E+00
         21   -1    0    0  501  502  0.00000000000E+00  0.00000000000E+00  0.12077904939E+03  0.12077904939E+03  0.00000000000E+00 0. -1.
          2   -1    0    0  502    0 -0.00000000000E+00 -0.00000000000E+00 -0.33950952200E+03  0.33950952200E+03  0.00000000000E+00 0. -1.
         24    2    1    2    0    0  0.71316072429E+02  0.26169679607E+02 -0.18912355430E+03  0.21883966135E+03  0.79700967824E+02 0.  0.
         23    2    1    2    0    0  0.57356983374E+02 -0.72438785868E+01 -0.44362655635E+02  0.11055707295E+03  0.83141589141E+02 0.  0.
        -11    1    3    3    0    0  0.17200504861E+02 -0.15878556345E+02 -0.11711853829E+03  0.11943507830E+03  0.00000000000E+00 0.  1.
         12    1    3    3    0    0  0.54115567568E+02  0.42048235952E+02 -0.72005016015E+02  0.99404583049E+02  0.00000000000E+00 0. -1.
        -13    1    4    4    0    0  0.29205509663E+02  0.33488469937E+02 -0.54367131515E+00  0.44437990413E+02  0.00000000000E+00 0.  1.
         13    1    4    4    0    0  0.28151473711E+02 -0.40732348524E+02 -0.43818984320E+02  0.66119082534E+02  0.00000000000E+00 0. -1.
          1    1    1    2  501    0 -0.12867305580E+03 -0.18925801020E+02  0.14755737328E+02  0.13089183709E+03  0.00000000000E+00 0. -1.
<scales pt_clust_5="13000.00000" pt_clust_6="13000.00000" pt_clust_7="13000.00000" pt_clust_8="13000.00000" pt_clust_9="13000.00000"></scales>
<clustering>
<clus scale="   79.701">  5  6 -1 -1</clus>
<clus scale="   83.142">  7  8 -1 -1</clus>
<clus scale="  110.105">  2  5  1 -1</clus>
<clus scale="   98.420">  7  9 -1 -1</clus>
<clus scale="  239.627">  1  5  2 -1</clus>
</clustering>
</event>
<event>
 9    2  0.3897980E-005  0.8447486E+03  0.7546771E-02  0.9606689E-01
         21   -1    0    0  501  502  0.00000000000E+00  0.00000000000E+00  0.21513955074E+03  0.21513955074E+03  0.00000000000E+00 0. -1.
          2   -1    0    0  502    0 -0.00000000000E+00 -0.00000000000E+00 -0.23688364007E+04  0.23688364007E+04  0.00000000000E+00 0. -1.
         24    2    1    2    0    0  0.48548635461E+03 -0.30494213671E+03 -0.97468735908E+03  0.11335747494E+04  0.79306728849E+02 0.  0.
         23    2    1    2    0    0  0.13229269314E+03  0.92635666184E+02 -0.18651041818E+03  0.26221796761E+03  0.88822312180E+02 0.  0.
        -13    1    3    3    0    0  0.15453408414E+02 -0.30847891858E+02 -0.52104508596E+02  0.62492240156E+02  0.00000000000E+00 0.  1.
         14    1    3    3    0    0  0.47003294620E+03 -0.27409424486E+03 -0.92258285048E+03  0.10710825092E+04  0.00000000000E+00 0. -1.
        -13    1    4    4    0    0  0.88726420729E+02  0.77787882249E+02 -0.18071604461E+03  0.21582775804E+03  0.00000000000E+00 0.  1.
         13    1    4    4    0    0  0.43566272407E+02  0.14847783935E+02 -0.57943735727E+01  0.46390209574E+02  0.00000000000E+00 0. -1.
          1    1    1    2  501    0 -0.61777904775E+03  0.21230647053E+03 -0.99249907268E+03  0.11881832344E+04  0.00000000000E+00 0. -1.
<scales pt_clust_5="13000.00000" pt_clust_6="13000.00000" pt_clust_7="13000.00000" pt_clust_8="13000.00000" pt_clust_9="13000.00000"></scales>
<clustering>
<clus scale="   79.307">  5  6 -1 -1</clus>
<clus scale="   88.822">  7  8 -1 -1</clus>
<clus scale="  578.771">  2  5  1 -1</clus>
<clus scale="  218.941">  7  9 -1 -1</clus>
<clus scale="  844.749">  1  5  2 -1</clus>
</clustering>
</event>
<event>
 9    2  0.3897980E-005  0.2697988E+03  0.7546771E-02  0.1145246E+00
          2   -1    0    0  502    0 -0.00000000000E+00  0.00000000000E+00  0.65053954627E+03  0.65053954627E+03  0.00000000000E+00 0. -1.
         21   -1    0    0  501  502  0.00000000000E+00 -0.00000000000E+00 -0.50403774363E+02  0.50403774363E+02  0.00000000000E+00 0.  1.
         24    2    1    2    0    0  0.32816026335E+02 -0.17404124754E+02  0.18177084927E+03  0.20312749864E+03  0.82706371665E+02 0.  0.
         23    2    1    2    0    0 -0.47213415846E+02 -0.29922868054E+02  0.36101673093E+02  0.11236501966E+03  0.90543261342E+02 0.  0.
        -11    1    3    3    0    0 -0.19371009049E+02  0.90767899842E+01  0.10184594229E+03  0.10406834326E+03  0.00000000000E+00 0.  1.
         12    1    3    3    0    0  0.52187035384E+02 -0.26480914738E+02  0.79924906984E+02  0.99059155377E+02  0.00000000000E+00 0. -1.
        -13    1    4    4    0    0 -0.45740645126E+02  0.24541987595E+02  0.16700848872E+02  0.54529204329E+02  0.00000000000E+00 0. -1.
         13    1    4    4    0    0 -0.14727707197E+01 -0.54464855649E+02  0.19400824221E+02  0.57835815331E+02  0.00000000000E+00 0.  1.
          1    1    1    2  501    0  0.14397389511E+02  0.47326992808E+02  0.38226324954E+03  0.38545080234E+03  0.00000000000E+00 0. -1.
<scales pt_clust_5="13000.00000" pt_clust_6="13000.00000" pt_clust_7="13000.00000" pt_clust_8="13000.00000" pt_clust_9="13000.00000"></scales>
<clustering>
<clus scale="   82.706">  5  6 -1 -1</clus>
<clus scale="   90.543">  7  8 -1 -1</clus>
<clus scale="   49.468">  7  9 -1 -1</clus>
<clus scale="   90.665">  1  5  2 -1</clus>
<clus scale="  269.799">  2  5  1 -1</clus>
</clustering>
</event>
<event>
 9    2  0.3897980E-005  0.7394894E+03  0.7546771E-02  0.1035394E+00
         21   -1    0    0  501  502  0.00000000000E+00  0.00000000000E+00  0.97826478255E+02  0.97826478255E+02  0.00000000000E+00 0.  1.
          2   -1    0    0  502    0 -0.00000000000E+00 -0.00000000000E+00 -0.21430212650E+04  0.21430212650E+04  0.00000000000E+00 0. -1.
         24    2    1    2    0    0  0.16425836030E+01 -0.24116382795E+02 -0.17734347599E+02  0.82737364644E+02  0.77114631708E+02 0.  0.
         23    2    1    2    0    0  0.23284567747E+03  0.22982229416E+03 -0.15574900659E+04  0.15940431678E+04  0.90348874555E+02 0.  0.
        -11    1    3    3    0    0  0.31480626815E+02 -0.35400564697E+02 -0.18422869977E+02  0.50829440127E+02  0.00000000000E+00 0.  1.
         12    1    3    3    0    0 -0.29838043212E+02  0.11284181901E+02  0.68852237805E+00  0.31907924516E+02  0.00000000000E+00 0. -1.
        -13    1    4    4    0    0  0.92845530710E+02  0.15325194441E+03 -0.87304712222E+03  0.89124504411E+03  0.00000000000E+00 0.  1.
         13    1    4    4    0    0  0.14000014676E+03  0.76570349747E+02 -0.68444294364E+03  0.70279812368E+03  0.00000000000E+00 0. -1.
          1    1    1    2  501    0 -0.23448826107E+03 -0.20570591136E+03 -0.46997037328E+03  0.56406721081E+03  0.00000000000E+00 0. -1.
<scales pt_clust_5="13000.00000" pt_clust_6="13000.00000" pt_clust_7="13000.00000" pt_clust_8="13000.00000" pt_clust_9="13000.00000"></scales>
<clustering>
<clus scale="   77.115">  5  6 -1 -1</clus>
<clus scale="   80.814">  2  5  1 -1</clus>
<clus scale="   90.349">  7  8 -1 -1</clus>
<clus scale="  315.589">  7  9 -1 -1</clus>
<clus scale="  739.489">  1  5  2 -1</clus>
</clustering>
</event>
<event>
 9    2  0.3897980E-005  0.1727719E+03  0.7546771E-02  0.1206374E+00
         21   -1    0    0  501  502  0.00000000000E+00  0.00000000000E+00  0.44348963138E+02  0.44348963138E+02  0.00000000000E+00 0. -1.
          2   -1    0    0  502    0 -0.00000000000E+00 -0.00000000000E+00 -0.37873093815E+03  0.37873093815E+03  0.00000000000E+00 0. -1.
         24    2    1    2    0    0  0.26881985887E+02  0.18055688459E+02 -0.10968267962E+03  0.13963694532E+03  0.80122014697E+02 0.  0.
         23    2    1    2    0    0  0.41020744645E+02 -0.15367565390E+02 -0.16050712843E+03  0.18996225679E+03  0.91674735731E+02 0.  0.
        -11    1    3    3    0    0  0.23638152387E+02  0.10062875544E+02 -0.12195763065E+03  0.12463421435E+03  0.00000000000E+00 0.  1.
         12    1    3    3    0    0  0.32438334993E+01  0.79928129146E+01  0.12274951026E+02  0.15002730976E+02  0.00000000000E+00 0. -1.
        -13    1    4    4    0    0  0.19193798678E+02 -0.51750389640E+02 -0.63829024232E+02  0.84383938459E+02  0.00000000000E+00 0.  1.
         13    1    4    4    0    0  0.21826945967E+02  0.36382824250E+02 -0.96678104194E+02  0.10557831833E+03  0.00000000000E+00 0. -1.
          1    1    1    2  501    0 -0.67902730532E+02 -0.26881230689E+01 -0.64192166966E+02  0.93480699179E+02  0.00000000000E+00 0. -1.
<scales pt_clust_5="13000.00000" pt_clust_6="13000.00000" pt_clust_7="13000.00000" pt_clust_8="13000.00000" pt_clust_9="13000.00000"></scales>
<clustering>
<clus scale="   80.122">  5  6 -1 -1</clus>
<clus scale="   86.419">  2  5  1 -1</clus>
<clus scale="   91.675">  7  8 -1 -1</clus>
<clus scale="   59.633">  7  9 -1 -1</clus>
<clus scale="  172.772">  1  5  2 -1</clus>
</clustering>
</event>
<event>
 9    2  0.3897980E-005  0.3013332E+03  0.7546771E-02  0.1136073E+00
          2   -1    0    0  502    0 -0.00000000000E+00  0.00000000000E+00  0.59425460556E+03  0.59425460556E+03  0.00000000000E+00 0. -1.
         21   -1    0    0  501  502  0.00000000000E+00 -0.00000000000E+00 -0.68851839146E+02  0.68851839146E+02  0.00000000000E+00 0. -1.
         24    2    1    2    0    0  0.38139984897E+01  0.10460899355E+02  0.21809966323E+03  0.23271490594E+03  0.80403901314E+02 0.  0.
         23    2    1    2    0    0  0.97374898675E+02 -0.78645910655E+02  0.87008977891E+02  0.17856244927E+03  0.92988902035E+02 0.  0.
        -13    1    3    3    0    0  0.39383959022E+02  0.75342586486E+01  0.15618475689E+03  0.16124992889E+03  0.00000000000E+00 0.  1.
         14    1    3    3    0    0 -0.35569960532E+02  0.29266407062E+01  0.61914906334E+02  0.71464977048E+02  0.00000000000E+00 0. -1.
        -11    1    4    4    0    0  0.69156512236E+02 -0.69343257374E+02  0.10519552360E+03  0.14372615877E+03  0.00000000000E+00 0. -1.
         11    1    4    4    0    0  0.28218386439E+02 -0.93026532812E+01 -0.18186545711E+02  0.34836290506E+02  0.00000000000E+00 0.  1.
          1    1    1    2  501    0 -0.10118889716E+03  0.68185011301E+02  0.22029412530E+03  0.25182908949E+03  0.00000000000E+00 0. -1.
<scales pt_clust_5="13000.00000" pt_clust_6="13000.00000" pt_clust_7="13000.00000" pt_clust_8="13000.00000" pt_clust_9="13000.00000"></scales>
<clustering>
<clus scale="   80.404">  5  6 -1 -1</clus>
<clus scale="   81.171">  1  5  2 -1</clus>
<clus scale="   92.989">  7  8 -1 -1</clus>
<clus scale="  123.928">  7  9 -1 -1</clus>
<clus scale="  301.333">  2  5  1 -1</clus>
</clustering>
</event>
<event>
 9    2  0.3897980E-005  0.3472092E+03  0.7546771E-02  0.1110850E+00
          2   -1    0    0  502    0 -0.00000000000E+00  0.00000000000E+00  0.82537447682E+03  0.82537447682E+03  0.00000000000E+00 0. -1.
         21   -1    0    0  501  502  0.00000000000E+00 -0.00000000000E+00 -0.61297214396E+02  0.61297214396E+02  0.00000000000E+00 0. -1.
         24    2    1    2    0    0  0.32555529411E+02 -0.51332792024E+02  0.21800718374E+03  0.23956522032E+03  0.78545812082E+02 0.  0.
         23    2    1    2    0    0  0.63333513335E+02  0.42387073370E+02  0.53772174844E+03  0.55043988401E+03  0.89619134482E+02 0.  0.
        -11    1    3    3    0    0 -0.13193927920E+02 -0.42578436580E+02  0.59435820123E+02  0.74294143170E+02  0.00000000000E+00 0.  1.
         12    1    3    3    0    0  0.45749457331E+02 -0.87543554438E+01  0.15857136361E+03  0.16527107715E+03  0.00000000000E+00 0. -1.
        -13    1    4    4    0    0  0.39028996240E+02  0.70428294998E+02  0.37188123572E+03  0.38049843727E+03  0.00000000000E+00 0. -1.
         13    1    4    4    0    0  0.24304517094E+02 -0.28041221629E+02  0.16584051272E+03  0.16994144674E+03  0.00000000000E+00 0.  1.
          1    1    1    2  501    0 -0.95889042746E+02  0.89457186543E+01  0.83483302462E+01  0.96666586879E+02  0.00000000000E+00 0. -1.
<scales pt_clust_5="13000.00000" pt_clust_6="13000.00000" pt_clust_7="13000.00000" pt_clust_8="13000.00000" pt_clust_9="13000.00000"></scales>
<clustering>
<clus scale="   78.546">  5  6 -1 -1</clus>
<clus scale="   89.619">  7  8 -1 -1</clus>
<clus scale="   96.305">  7  9 -1 -1</clus>
<clus scale="   99.319">  1  5  2 -1</clus>
<clus scale="  347.209">  2  5  1 -1</clus>
</clustering>
</event>
<event>
 9    2  0.3897980E-005  0.2532764E+03  0.7546771E-02  0.1147502E+00
         21   -1    0    0  501  502  0.00000000000E+00  0.00000000000E+00  0.64733216489E+03  0.64733216489E+03  0.00000000000E+00 0. -1.
          2   -1    0    0  502    0 -0.00000000000E+00 -0.00000000000E+00 -0.83243924879E+02  0.83243924879E+02  0.00000000000E+00 0. -1.
         24    2    1    2    0    0 -0.26869260832E+02 -0.60530769981E+02 -0.87753484425E+01  0.10422026523E+03  0.79993285042E+02 0.  0.
         23    2    1    2    0    0  0.90043149050E+01 -0.66926633799E+02  0.35663462032E+03  0.37472213695E+03  0.93103037061E+02 0.  0.
        -11    1    3    3    0    0  0.12769073978E+02 -0.54637552153E+02  0.14399061765E+02  0.57927923623E+02  0.00000000000E+00 0.  1.
         12    1    3    3    0    0 -0.39638334810E+02 -0.58932178282E+01 -0.23174410208E+02  0.46292341606E+02  0.00000000000E+00 0. -1.
        -11    1    4    4    0    0 -0.41139356271E+02 -0.27572505421E+02  0.12432152120E+03  0.13382275712E+03  0.00000000000E+00 0. -1.
         11    1    4    4    0    0  0.50143671176E+02 -0.39354128378E+02  0.23231309912E+03  0.24089937983E+03  0.00000000000E+00 0.  1.
          1    1    1    2  501    0  0.17864945927E+02  0.12745740378E+03  0.21622896813E+03  0.25163368759E+03  0.00000000000E+00 0. -1.
<scales pt_clust_5="13000.00000" pt_clust_6="13000.00000" pt_clust_7="13000.00000" pt_clust_8="13000.00000" pt_clust_9="13000.00000"></scales>
<clustering>
<clus scale="   79.993">  5  6 -1 -1</clus>
<clus scale="   93.103">  7  8 -1 -1</clus>
<clus scale="  103.850">  2  5  1 -1</clus>
<clus scale="   87.394">  7  9 -1 -1</clus>
<clus scale="  253.276">  1  5  2 -1</clus>
</clustering>
</event>
<event>
 9    2  0.3897980E-005  0.2692918E+03  0.7546771E-02  0.1116553E+00
          2   -1    0    0  502    0 -0.00000000000E+00  0.00000000000E+00  0.12330692184E+04  0.12330692184E+04  0.00000000000E+00 0. -1.
         21   -1    0    0  501  502  0.00000000000E+00 -0.00000000000E+00 -0.44850485029E+02  0.44850485029E+02  0.00000000000E+00 0.  1.
         24    2    1    2    0    0 -0.16554004237E+03  0.17056079137E+02  0.65683550610E+03  0.68219643969E+03  0.79149761783E+02 0.  0.
         23    2    1    2    0    0  0.13330467313E+03 -0.77196874234E+02  0.27531675147E+03  0.33072123677E+03  0.99235727155E+02 0.  0.
        -13    1    3    3    0    0 -0.47677325664E+02  0.40496118958E+02  0.26859690781E+03  0.27578499219E+03  0.00000000000E+00 0.  1.
         14    1    3    3    0    0 -0.11786271671E+03 -0.23440039821E+02  0.38823859829E+03  0.40641144750E+03  0.00000000000E+00 0. -1.
        -13    1    4    4    0    0  0.11778404589E+03 -0.49633369573E+02  0.13117262297E+03  0.18314696246E+03  0.00000000000E+00 0.  1.
         13    1    4    4    0    0  0.15520627243E+02 -0.27563504661E+02  0.14414412850E+03  0.14757427431E+03  0.00000000000E+00 0. -1.
          1    1    1    2  501    0  0.32235369242E+02  0.60140795097E+02  0.25606647584E+03  0.26500202700E+03  0.00000000000E+00 0. -1.
<scales pt_clust_5="13000.00000" pt_clust_6="13000.00000" pt_clust_7="13000.00000" pt_clust_8="13000.00000" pt_clust_9="13000.00000"></scales>
<clustering>
<clus scale="   79.150">  5  6 -1 -1</clus>
<clus scale="   99.236">  7  8 -1 -1</clus>
<clus scale="   68.235">  7  9 -1 -1</clus>
<clus scale="  184.280">  1  5  2 -1</clus>
<clus scale="  269.292">  2  5  1 -1</clus>
</clustering>
</event>
<event>
 9    2  0.3897980E-005  0.5769700E+03  0.7546771E-02  0.1041508E+00
         -1   -1    0    0    0  501 -0.00000000000E+00  0.00000000000E+00  0.24618326705E+03  0.24618326705E+03  0.00000000000E+00 0.  1.
         21   -1    0    0  501  502  0.00000000000E+00 -0.00000000000E+00 -0.55408810777E+03  0.55408810777E+03  0.00000000000E+00 0. -1.
         24    2    1    2    0    0 -0.11285219203E+03 -0.15791295396E+02  0.78318630053E+01  0.14256013787E+03  0.85305759334E+02 0.  0.
         23    2    1    2    0    0  0.15064888960E+03  0.16345056364E+03 -0.41242513768E+03  0.47721053583E+03  0.90687521870E+02 0.  0.
        -11    1    3    3    0    0 -0.46531974488E+01 -0.31018206978E+02  0.11029899090E+02  0.33248159115E+02  0.00000000000E+00 0.  1.
         12    1    3    3    0    0 -0.10819899459E+03  0.15226911582E+02 -0.31980360849E+01  0.10931197876E+03  0.00000000000E+00 0. -1.
        -13    1    4    4    0    0  0.86939239393E+02  0.38361841929E+02 -0.21399888951E+03  0.23414864291E+03  0.00000000000E+00 0.  1.
         13    1    4    4    0    0  0.63709650206E+02  0.12508872171E+03 -0.19842624817E+03  0.24306189292E+03  0.00000000000E+00 0. -1.
         -2    1    1    2    0  502 -0.37796697565E+02 -0.14765926825E+03  0.96688433957E+02  0.18050070112E+03  0.00000000000E+00 0.  1.
<scales pt_clust_5="13000.00000" pt_clust_6="13000.00000" pt_clust_7="13000.00000" pt_clust_8="13000.00000" pt_clust_9="13000.00000"></scales>
<clustering>
<clus scale="   85.306">  5  6 -1 -1</clus>
<clus scale="   90.688">  7  8 -1 -1</clus>
<clus scale="  142.345">  1  5  2 -1</clus>
<clus scale="  206.053">  7  9 -1 -1</clus>
<clus scale="  576.970">  2  5  1 -1</clus>
</clustering>
</event>
<event>
 9    2  0.3897980E-005  0.1592476E+03  0.7546771E-02  0.1214323E+00
          2   -1    0    0  502    0 -0.00000000000E+00  0.00000000000E+00  0.78701195105E+03  0.78701195105E+03  0.00000000000E+00 0. -1.
         21   -1    0    0  501  502  0.00000000000E+00 -0.00000000000E+00 -0.24533604393E+02  0.24533604393E+02  0.00000000000E+00 0. -1.
         24    2    1    2    0    0 -0.14428770728E+02  0.44292858784E+02  0.46386388940E+03  0.47312217506E+03  0.80652575161E+02 0.  0.
         23    2    1    2    0    0 -0.87844139920E+01 -0.17685605332E+02  0.10156876683E+03  0.13823896042E+03  0.91672510694E+02 0.  0.
        -13    1    3    3    0    0  0.20889381479E+02  0.72467186436E+01  0.36287164777E+02  0.42492817242E+02  0.00000000000E+00 0.  1.
         14    1    3    3    0    0 -0.35318152206E+02  0.37046140140E+02  0.42757672463E+03  0.43062935782E+03  0.00000000000E+00 0. -1.
        -11    1    4    4    0    0  0.58105747642E+01 -0.53255105158E+02  0.71962972114E+02  0.89713646454E+02  0.00000000000E+00 0.  1.
         11    1    4    4    0    0 -0.14594988756E+02  0.35569499825E+02  0.29605794716E+02  0.48525313965E+02  0.00000000000E+00 0. -1.
          1    1    1    2  501    0  0.23213184720E+02 -0.26607253451E+02  0.19704569042E+03  0.20018441996E+03  0.00000000000E+00 0. -1.
<scales pt_clust_5="13000.00000" pt_clust_6="13000.00000" pt_clust_7="13000.00000" pt_clust_8="13000.00000" pt_clust_9="13000.00000"></scales>
<clustering>
<clus scale="   80.653">  5  6 -1 -1</clus>
<clus scale="   91.673">  7  8 -1 -1</clus>
<clus scale="   35.310">  7  9 -1 -1</clus>
<clus scale="   93.139">  1  5  2 -1</clus>
<clus scale="  159.248">  2  5  1 -1</clus>
</clustering>
</event>
<event>
 9    2  0.3897980E-005  0.2039123E+03  0.7546771E-02  0.1188357E+00
         21   -1    0    0  501  502  0.00000000000E+00  0.00000000000E+00  0.24665358899E+03  0.24665358899E+03  0.00000000000E+00 0. -1.
          4   -1    0    0  502    0 -0.00000000000E+00 -0.00000000000E+00 -0.14086098503E+03  0.14086098503E+03  0.00000000000E+00 0. -1.
         24    2    1    2    0    0 -0.28744806485E+02 -0.32988982534E+02  0.15876218139E+03  0.17683474531E+03  0.64424840234E+02 0.  0.
         23    2    1    2    0    0 -0.92955089811E+01  0.28490398331E+01 -0.10503519948E+03  0.13950180719E+03  0.91289854669E+02 0.  0.
        -11    1    3    3    0    0  0.33705395257E+01 -0.43779761837E+02  0.93799048231E+02  0.10356780162E+03  0.00000000000E+00 0.  1.
         12    1    3    3    0    0 -0.32115346011E+02  0.10790779303E+02  0.64963133163E+02  0.73266943691E+02  0.00000000000E+00 0. -1.
        -13    1    4    4    0    0 -0.20494591508E+02 -0.35165869504E+02 -0.19291255932E+02  0.45042415727E+02  0.00000000000E+00 0.  1.
         13    1    4    4    0    0  0.11199082526E+02  0.38014909337E+02 -0.85743943548E+02  0.94459391468E+02  0.00000000000E+00 0. -1.
          3    1    1    2  501    0  0.38040315466E+02  0.30139942701E+02  0.52065622053E+02  0.71178021513E+02  0.00000000000E+00 0. -1.
<scales pt_clust_5="13000.00000" pt_clust_6="13000.00000" pt_clust_7="13000.00000" pt_clust_8="13000.00000" pt_clust_9="13000.00000"></scales>
<clustering>
<clus scale="   64.425">  5  6 -1 -1</clus>
<clus scale="   77.879">  2  5  1 -1</clus>
<clus scale="   91.290">  7  8 -1 -1</clus>
<clus scale="   45.419">  7  9 -1 -1</clus>
<clus scale="  203.912">  1  5  2 -1</clus>
</clustering>
</event>
<event>
 9    2  0.3897980E-005  0.3135627E+03  0.7546771E-02  0.1122658E+00
         21   -1    0    0  501  502  0.00000000000E+00  0.00000000000E+00  0.28411141196E+03  0.28411141196E+03  0.00000000000E+00 0. -1.
          2   -1    0    0  502    0 -0.00000000000E+00 -0.00000000000E+00 -0.15604511104E+03  0.15604511104E+03  0.00000000000E+00 0. -1.
         24    2    1    2    0    0  0.16128386612E+02 -0.58095501094E+02 -0.31675337453E+01  0.10023905944E+03  0.80016396231E+02 0.  0.
         23    2    1    2    0    0  0.56971974105E+00 -0.10965686125E+03  0.78077730117E+02  0.16315419453E+03  0.92185722604E+02 0.  0.
        -13    1    3    3    0    0  0.25852629232E+02 -0.45635297230E+02  0.32169019866E+02  0.61528730124E+02  0.00000000000E+00 0.  1.
         14    1    3    3    0    0 -0.97242426203E+01 -0.12460203863E+02 -0.35336553611E+02  0.38710329319E+02  0.00000000000E+00 0. -1.
        -13    1    4    4    0    0 -0.35439475437E+02 -0.42866218258E+02  0.66015628359E+02  0.86322258280E+02  0.00000000000E+00 0. -1.
         13    1    4    4    0    0  0.36009195179E+02 -0.66790642993E+02  0.12062101759E+02  0.76831936249E+02  0.00000000000E+00 0.  1.
          1    1    1    2  501    0 -0.16698106353E+02  0.16775236234E+03  0.53156104540E+02  0.17676326903E+03  0.00000000000E+00 0. -1.
<scales pt_clust_5="13000.00000" pt_clust_6="13000.00000" pt_clust_7="13000.00000" pt_clust_8="13000.00000" pt_clust_9="13000.00000"></scales>
<clustering>
<clus scale="   80.016">  5  6 -1 -1</clus>
<clus scale="   92.186">  7  8 -1 -1</clus>
<clus scale="  100.189">  2  5  1 -1</clus>
<clus scale="  133.533">  7  9 -1 -1</clus>
<clus scale="  313.563">  1  5  2 -1</clus>
</clustering>
</event>
<event>
 9    2  0.3897980E-005  0.2205143E+03  0.7546771E-02  0.1170641E+00
         21   -1    0    0  501  502  0.00000000000E+00  0.00000000000E+00  0.27185958804E+03  0.27185958804E+03  0.00000000000E+00 0.  1.
         -1   -1    0    0    0  501 -0.00000000000E+00 -0.00000000000E+00 -0.12165617335E+03  0.12165617335E+03  0.00000000000E+00 0.  1.
         24    2    1    2    0    0  0.85735459415E+01 -0.43908849221E+02  0.14664164138E+03  0.17297268477E+03  0.80089237489E+02 0.  0.
         23    2    1    2    0    0 -0.33061013828E+02 -0.41875453689E+02  0.53976839176E+02  0.11807229262E+03  0.90448785839E+02 0.  0.
        -11    1    3    3    0    0  0.29472841831E+02 -0.58615317988E+02  0.96437927241E+02  0.11663909173E+03  0.00000000000E+00 0.  1.
         12    1    3    3    0    0 -0.20899295890E+02  0.14706468767E+02  0.50203714134E+02  0.56333593043E+02  0.00000000000E+00 0. -1.
        -11    1    4    4    0    0 -0.55374615910E+02 -0.28420081223E+02  0.64806289279E+02  0.89854906566E+02  0.00000000000E+00 0.  1.
         11    1    4    4    0    0  0.22313602082E+02 -0.13455372466E+02 -0.10829450103E+02  0.28217386052E+02  0.00000000000E+00 0. -1.
         -2    1    1    2    0  502  0.24487467887E+02  0.85784302909E+02 -0.50415065856E+02  0.10247078400E+03  0.00000000000E+00 0.  1.
<scales pt_clust_5="13000.00000" pt_clust_6="13000.00000" pt_clust_7="13000.00000" pt_clust_8="13000.00000" pt_clust_9="13000.00000"></scales>
<clustering>
<clus scale="   80.089">  5  6 -1 -1</clus>
<clus scale="   90.449">  7  8 -1 -1</clus>
<clus scale="   89.211">  7  9 -1 -1</clus>
<clus scale="   91.738">  2  5  1 -1</clus>
<clus scale="  220.514">  1  5  2 -1</clus>
</clustering>
</event>
<event>
 9    2  0.3897980E-005  0.3685731E+03  0.7546771E-02  0.1109588E+00
          2   -1    0    0  502    0 -0.00000000000E+00  0.00000000000E+00  0.23186477911E+03  0.23186477911E+03  0.00000000000E+00 0. -1.
         21   -1    0    0  501  502  0.00000000000E+00 -0.00000000000E+00 -0.26595585303E+03  0.26595585303E+03  0.00000000000E+00 0. -1.
         24    2    1    2    0    0 -0.74522379286E+01  0.23541410993E+02  0.74496625103E+02  0.11358451253E+03  0.82109441920E+02 0.  0.
         23    2    1    2    0    0  0.13912347140E+03  0.93945938854E+02 -0.40962596624E+02  0.19525531219E+03  0.90914921190E+02 0.  0.
        -11    1    3    3    0    0 -0.19748100606E+02 -0.25681708218E+02  0.43107495867E+02  0.53923963267E+02  0.00000000000E+00 0.  1.
         12    1    3    3    0    0  0.12295862677E+02  0.49223119210E+02  0.31389129237E+02  0.59660549260E+02  0.00000000000E+00 0. -1.
        -11    1    4    4    0    0  0.55195151030E+01  0.40968474749E+02 -0.30071257882E+02  0.51119091549E+02  0.00000000000E+00 0.  1.
         11    1    4    4    0    0  0.13360395630E+03  0.52977464106E+02 -0.10891338742E+02  0.14413622064E+03  0.00000000000E+00 0. -1.
          1    1    1    2  501    0 -0.13167123347E+03 -0.11748734985E+03 -0.67625102396E+02  0.18898080742E+03  0.00000000000E+00 0. -1.
<scales pt_clust_5="13000.00000" pt_clust_6="13000.00000" pt_clust_7="13000.00000" pt_clust_8="13000.00000" pt_clust_9="13000.00000"></scales>
<clustering>
<clus scale="   82.109">  5  6 -1 -1</clus>
<clus scale="   85.742">  1  5  2 -1</clus>
<clus scale="   90.915">  7  8 -1 -1</clus>
<clus scale="  172.301">  7  9 -1 -1</clus>
<clus scale="  368.573">  2  5  1 -1</clus>
</clustering>
</event>
<event>
 9    2  0.3897980E-005  0.1618659E+03  0.7546771E-02  0.1217690E+00
          2   -1    0    0  502    0 -0.00000000000E+00  0.00000000000E+00  0.37542843926E+03  0.37542843926E+03  0.00000000000E+00 0. -1.
         21   -1    0    0  501  502  0.00000000000E+00 -0.00000000000E+00 -0.40434283685E+02  0.40434283685E+02  0.00000000000E+00 0. -1.
         24    2    1    2    0    0 -0.40433145069E+01 -0.14517253267E+02  0.13876542360E+03  0.16148844889E+03  0.81213159671E+02 0.  0.
         23    2    1    2    0    0 -0.48206129459E+02 -0.44554054287E+01  0.11937814565E+03  0.15952714025E+03  0.94096149029E+02 0.  0.
        -11    1    3    3    0    0 -0.37709961989E+02  0.27086371676E+01  0.10184850408E+03  0.10863929184E+03  0.00000000000E+00 0.  1.
         12    1    3    3    0    0  0.33666647483E+02 -0.17225890435E+02  0.36916919521E+02  0.52849157050E+02  0.00000000000E+00 0. -1.
        -13    1    4    4    0    0 -0.32544743529E+02 -0.47212862041E+02  0.47606188130E+02  0.74528946200E+02  0.00000000000E+00 0. -1.
         13    1    4    4    0    0 -0.15661385930E+02  0.42757456612E+02  0.71771957521E+02  0.84998194049E+02  0.00000000000E+00 0.  1.
          1    1    1    2  501    0  0.52249443966E+02  0.18972658696E+02  0.76850586319E+02  0.94847133801E+02  0.00000000000E+00 0. -1.
<scales pt_clust_5="13000.00000" pt_clust_6="13000.00000" pt_clust_7="13000.00000" pt_clust_8="13000.00000" pt_clust_9="13000.00000"></scales>
<clustering>
<clus scale="   81.213">  5  6 -1 -1</clus>
<clus scale="   82.599">  1  5  2 -1</clus>
<clus scale="   94.096">  7  8 -1 -1</clus>
<clus scale="   52.460">  7  9 -1 -1</clus>
<clus scale="  161.866">  2  5  1 -1</clus>
</clustering>
</event>
<event>
 9    2  0.3897980E-005  0.5792718E+03  0.7546771E-02  0.1043711E+00
         21   -1    0    0  501  502  0.00000000000E+00  0.00000000000E+00  0.41556396202E+03  0.41556396202E+03  0.00000000000E+00 0. -1.
          2   -1    0    0  502    0 -0.00000000000E+00 -0.00000000000E+00 -0.31056304985E+03  0.31056304985E+03  0.00000000000E+00 0. -1.
         24    2    1    2    0    0 -0.93512792909E+02 -0.45471208147E+02  0.60435057136E+02  0.14514346739E+03  0.81252426336E+02 0.  0.
         23    2    1    2    0    0  0.67838660387E+02  0.18081920301E+03  0.25294088685E+03  0.33118683778E+03  0.91694935827E+02 0.  0.
        -11    1    3    3    0    0 -0.23773708743E+02 -0.11103241380E+02 -0.20213354253E+02  0.33121758509E+02  0.00000000000E+00 0.  1.
         12    1    3    3    0    0 -0.69739084166E+02 -0.34367966767E+02  0.80648411389E+02  0.11202170888E+03  0.00000000000E+00 0. -1.
        -13    1    4    4    0    0  0.87686281657E+02  0.15096516000E+03  0.22948823576E+03  0.28834738403E+03  0.00000000000E+00 0. -1.
         13    1    4    4    0    0 -0.19847621270E+02  0.29854043014E+02  0.23452651086E+02  0.42839453746E+02  0.00000000000E+00 0.  1.
          1    1    1    2  501    0  0.25674132522E+02 -0.13534799486E+03 -0.20837503182E+03  0.24979670670E+03  0.00000000000E+00 0. -1.
<scales pt_clust_5="13000.00000" pt_clust_6="13000.00000" pt_clust_7="13000.00000" pt_clust_8="13000.00000" pt_clust_9="13000.00000"></scales>
<clustering>
<clus scale="   81.252">  5  6 -1 -1</clus>
<clus scale="   91.695">  7  8 -1 -1</clus>
<clus scale="  131.963">  2  5  1 -1</clus>
<clus scale="  182.424">  7  9 -1 -1</clus>
<clus scale="  579.272">  1  5  2 -1</clus>
</clustering>
</event>
<event>
 9    2  0.3897980E-005  0.1156043E+03  0.7546771E-02  0.1264841E+00
         21   -1    0    0  501  502  0.00000000000E+00  0.00000000000E+00  0.49224332012E+02  0.49224332012E+02  0.00000000000E+00 0.  1.
          2   -1    0    0  502    0 -0.00000000000E+00 -0.00000000000E+00 -0.33021713937E+03  0.33021713937E+03  0.00000000000E+00 0. -1.
         24    2    1    2    0    0 -0.50831159921E+01  0.22175355032E+02 -0.24235076229E+03  0.25754988243E+03  0.84145502062E+02 0.  0.
         23    2    1    2    0    0  0.60443728170E+01 -0.11034044653E+01 -0.42159598604E+02  0.10050644696E+03  0.91029457770E+02 0.  0.
        -13    1    3    3    0    0 -0.17680828343E+02  0.12231182841E+02 -0.84515840350E+01  0.23100709887E+02  0.00000000000E+00 0.  1.
         14    1    3    3    0    0  0.12597712351E+02  0.99441721909E+01 -0.23389917825E+03  0.23444917254E+03  0.00000000000E+00 0. -1.
        -13    1    4    4    0    0 -0.19254557401E+02 -0.26519459787E+02 -0.53634377444E+02  0.62854325006E+02  0.00000000000E+00 0.  1.
         13    1    4    4    0    0  0.25298930218E+02  0.25416055322E+02  0.11474778839E+02  0.37652121955E+02  0.00000000000E+00 0. -1.
          1    1    1    2  501    0 -0.96125682487E+00 -0.21071950566E+02  0.35175535334E+01  0.21385141997E+02  0.00000000000E+00 0. -1.
<scales pt_clust_5="13000.00000" pt_clust_6="13000.00000" pt_clust_7="13000.00000" pt_clust_8="13000.00000" pt_clust_9="13000.00000"></scales>
<clustering>
<clus scale="   84.146">  5  6 -1 -1</clus>
<clus scale="   87.167">  2  5  1 -1</clus>
<clus scale="   91.029">  7  8 -1 -1</clus>
<clus scale="   18.666">  7  9 -1 -1</clus>
<clus scale="  115.604">  1  5  2 -1</clus>
</clustering>
</event>
<event>
 9    2  0.3897980E-005  0.4749841E+03  0.7546771E-02  0.1037018E+00
         21   -1    0    0  501  502  0.00000000000E+00  0.00000000000E+00  0.24880858687E+03  0.24880858687E+03  0.00000000000E+00 0.  1.
          2   -1    0    0  502    0 -0.00000000000E+00 -0.00000000000E+00 -0.67121044515E+03  0.67121044515E+03  0.00000000000E+00 0. -1.
         24    2    1    2    0    0 -0.25527186016E+03  0.11371441474E+03 -0.99568413671E+01  0.29095558232E+03  0.80382345595E+02 0.  0.
         23    2    1    2    0    0 -0.54728096024E+02  0.58139379626E+02 -0.88245940776E+02  0.14871072468E+03  0.89175005537E+02 0.  0.
        -13    1    3    3    0    0 -0.23018674368E+03  0.12334879583E+03 -0.20797257102E+02  0.26197974788E+03  0.00000000000E+00 0.  1.
         14    1    3    3    0    0 -0.25085116489E+02 -0.96343810914E+01  0.10840415735E+02  0.28975834442E+02  0.00000000000E+00 0. -1.
        -13    1    4    4    0    0 -0.30568578721E+02  0.68735667056E+02 -0.23524190854E+02  0.78818890413E+02  0.00000000000E+00 0.  1.
         13    1    4    4    0    0 -0.24159517303E+02 -0.10596287430E+02 -0.64721749922E+02  0.69891834263E+02  0.00000000000E+00 0. -1.
          1    1    1    2  501    0  0.30999995619E+03 -0.17185379436E+03 -0.32419907613E+03  0.48035272502E+03  0.00000000000E+00 0. -1.
<scales pt_clust_5="13000.00000" pt_clust_6="13000.00000" pt_clust_7="13000.00000" pt_clust_8="13000.00000" pt_clust_9="13000.00000"></scales>
<clustering>
<clus scale="   80.382">  5  6 -1 -1</clus>
<clus scale="   89.175">  7  8 -1 -1</clus>
<clus scale="  290.785">  2  5  1 -1</clus>
<clus scale="  140.652">  7  9 -1 -1</clus>
<clus scale="  474.984">  1  5  2 -1</clus>
</clustering>
</event>
<event>
 9    2  0.3897980E-005  0.2981059E+03  0.7546771E-02  0.1133420E+00
          2   -1    0    0  502    0 -0.00000000000E+00  0.00000000000E+00  0.10825525327E+03  0.10825525327E+03  0.00000000000E+00 0. -1.
         21   -1    0    0  501  502  0.00000000000E+00 -0.00000000000E+00 -0.37224663227E+03  0.37224663227E+03  0.00000000000E+00 0. -1.
         24    2    1    2    0    0 -0.16937700674E+02  0.35676001574E+02 -0.11940696197E+03  0.14918364295E+03  0.80237609408E+02 0.  0.
         23    2    1    2    0    0 -0.88014287469E+02 -0.16979236330E+02 -0.17939219052E+03  0.21917516459E+03  0.88438597267E+02 0.  0.
        -11    1    3    3    0    0  0.28189786157E+02  0.30824203942E+02 -0.74042484360E+02  0.85012264306E+02  0.00000000000E+00 0.  1.
         12    1    3    3    0    0 -0.45127486831E+02  0.48517976318E+01 -0.45364477615E+02  0.64171378645E+02  0.00000000000E+00 0. -1.
        -11    1    4    4    0    0 -0.57613738071E+02  0.90346264794E+01 -0.32148460420E+02  0.66591972471E+02  0.00000000000E+00 0.  1.
         11    1    4    4    0    0 -0.30400549398E+02 -0.26013862810E+02 -0.14724373011E+03  0.15258319212E+03  0.00000000000E+00 0. -1.
          1    1    1    2  501    0  0.10495198814E+03 -0.18696765244E+02  0.34807773502E+02  0.11214307799E+03  0.00000000000E+00 0. -1.
<scales pt_clust_5="13000.00000" pt_clust_6="13000.00000" pt_clust_7="13000.00000" pt_clust_8="13000.00000" pt_clust_9="13000.00000"></scales>
<clustering>
<clus scale="   80.238">  5  6 -1 -1</clus>
<clus scale="   88.439">  7  8 -1 -1</clus>
<clus scale="   89.430">  1  5  2 -1</clus>
<clus scale="   92.102">  7  9 -1 -1</clus>
<clus scale="  298.106">  2  5  1 -1</clus>
</clustering>
</event>
<event>
 9    2  0.3897980E-005  0.1643111E+03  0.7546771E-02  0.1208135E+00
          2   -1    0    0  502    0 -0.00000000000E+00  0.00000000000E+00  0.46489628171E+03  0.46489628171E+03  0.00000000000E+00 0. -1.
         21   -1    0    0  501  502  0.00000000000E+00 -0.00000000000E+00 -0.36692760393E+02  0.36692760393E+02  0.00000000000E+00 0. -1.
         24    2    1    2    0    0 -0.34563009483E+02 -0.40090826808E+02  0.16727022494E+03  0.19323159596E+03  0.80976820798E+02 0.  0.
         23    2    1    2    0    0  0.67429340596E+02  0.54621071978E+02  0.19806545739E+03  0.23594412607E+03  0.94390294723E+02 0.  0.
        -13    1    3    3    0    0 -0.42586956708E+02 -0.57871745914E+02  0.15309422396E+03  0.16911720571E+03  0.00000000000E+00 0.  1.
         14    1    3    3    0    0  0.80239472255E+01  0.17780919106E+02  0.14176000979E+02  0.24114390249E+02  0.00000000000E+00 0. -1.
        -13    1    4    4    0    0  0.53290272083E+02 -0.41393519295E+01  0.14835185458E+03  0.15768722234E+03  0.00000000000E+00 0.  1.
         13    1    4    4    0    0  0.14139068513E+02  0.58760423908E+02  0.49713602809E+02  0.78256903724E+02  0.00000000000E+00 0. -1.
          1    1    1    2  501    0 -0.32866331113E+02 -0.14530245170E+02  0.62867838981E+02  0.72413320070E+02  0.00000000000E+00 0. -1.
<scales pt_clust_5="13000.00000" pt_clust_6="13000.00000" pt_clust_7="13000.00000" pt_clust_8="13000.00000" pt_clust_9="13000.00000"></scales>
<clustering>
<clus scale="   80.977">  5  6 -1 -1</clus>
<clus scale="   94.390">  7  8 -1 -1</clus>
<clus scale="   35.935">  7  9 -1 -1</clus>
<clus scale="   96.743">  1  5  2 -1</clus>
<clus scale="  164.311">  2  5  1 -1</clus>
</clustering>
</event>
<event>
 9    2  0.3897980E-005  0.3430499E+03  0.7546771E-02  0.1114200E+00
          2   -1    0    0  502    0 -0.00000000000E+00  0.00000000000E+00  0.22876849267E+03  0.22876849267E+03  0.00000000000E+00 0. -1.
         21   -1    0    0  501  502  0.00000000000E+00 -0.00000000000E+00 -0.57385989112E+03  0.57385989112E+03  0.00000000000E+00 0. -1.
         24    2    1    2    0    0 -0.17053327687E+02 -0.45218590020E+02  0.16365648434E+03  0.18902618514E+03  0.81313694611E+02 0.  0.
         23    2    1    2    0    0 -0.62020120695E+02 -0.11775509699E+03 -0.22654420199E+03  0.27826363785E+03  0.91627607489E+02 0.  0.
        -11    1    3    3    0    0 -0.44532389182E+02 -0.80906581761E+01  0.10519534769E+03  0.11451922813E+03  0.00000000000E+00 0.  1.
         12    1    3    3    0    0  0.27479061495E+02 -0.37127931844E+02  0.58461136658E+02  0.74506957011E+02  0.00000000000E+00 0. -1.
        -13    1    4    4    0    0 -0.59045582455E+02 -0.67052856520E+02 -0.69448145360E+02  0.11316143897E+03  0.00000000000E+00 0.  1.
         13    1    4    4    0    0 -0.29745382403E+01 -0.50702240473E+02 -0.15709605663E+03  0.16510219889E+03  0.00000000000E+00 0. -1.
          1    1    1    2  501    0  0.79073448382E+02  0.16297368701E+03 -0.28220368081E+03  0.33533856080E+03  0.00000000000E+00 0. -1.
<scales pt_clust_5="13000.00000" pt_clust_6="13000.00000" pt_clust_7="13000.00000" pt_clust_8="13000.00000" pt_clust_9="13000.00000"></scales>
<clustering>
<clus scale="   81.314">  5  6 -1 -1</clus>
<clus scale="   91.628">  7  8 -1 -1</clus>
<clus scale="   94.591">  1  5  2 -1</clus>
<clus scale="  156.771">  7  9 -1 -1</clus>
<clus scale="  343.050">  2  5  1 -1</clus>
</clustering>
</event>
<event>
 9    2  0.3897980E-005  0.1059564E+04  0.7546771E-02  0.9510037E-01
         21   -1    0    0  501  502  0.00000000000E+00  0.00000000000E+00  0.39418192044E+03  0.39418192044E+03  0.00000000000E+00 0. -1.
          2   -1    0    0  502    0 -0.00000000000E+00 -0.00000000000E+00 -0.15186012375E+04  0.15186012375E+04  0.00000000000E+00 0. -1.
         24    2    1    2    0    0 -0.36667446941E+03  0.16306399222E+03 -0.65526304866E+02  0.41480744396E+03  0.82045638877E+02 0.  0.
         23    2    1    2    0    0 -0.29832441505E+03 -0.17126997786E+03 -0.18919811310E+03  0.40314236043E+03  0.91635008813E+02 0.  0.
        -11    1    3    3    0    0 -0.10693273449E+03  0.83302425457E+02 -0.42796680748E+02  0.14214590981E+03  0.00000000000E+00 0.  1.
         12    1    3    3    0    0 -0.25974173493E+03  0.79761566764E+02 -0.22729624117E+02  0.27266153415E+03  0.00000000000E+00 0. -1.
        -13    1    4    4    0    0 -0.18272771972E+02 -0.40370285470E+02 -0.40797520037E+02  0.60233643304E+02  0.00000000000E+00 0.  1.
         13    1    4    4    0    0 -0.28005164308E+03 -0.13089969239E+03 -0.14840059306E+03  0.34290871713E+03  0.00000000000E+00 0. -1.
          1    1    1    2  501    0  0.66499888446E+03  0.82059856425E+01 -0.86969489911E+03  0.10948333536E+04  0.00000000000E+00 0. -1.
<scales pt_clust_5="13000.00000" pt_clust_6="13000.00000" pt_clust_7="13000.00000" pt_clust_8="13000.00000" pt_clust_9="13000.00000"></scales>
<clustering>
<clus scale="   82.046">  5  6 -1 -1</clus>
<clus scale="   91.635">  7  8 -1 -1</clus>
<clus scale="  409.599">  2  5  1 -1</clus>
<clus scale="  405.853">  7  9 -1 -1</clus>
<clus scale=" 1059.564">  1  5  2 -1</clus>
</clustering>
</event>
<event>
 9    2  0.3897980E-005  0.5655820E+03  0.7546771E-02  0.1046105E+00
         21   -1    0    0  501  502  0.00000000000E+00  0.00000000000E+00  0.98337109134E+02  0.98337109134E+02  0.00000000000E+00 0. -1.
          2   -1    0    0  502    0 -0.00000000000E+00 -0.00000000000E+00 -0.12588996524E+04  0.12588996524E+04  0.00000000000E+00 0. -1.
         24    2    1    2    0    0 -0.10017721188E+03 -0.28556020992E+02 -0.15753218359E+03  0.20573649964E+03  0.81610038002E+02 0.  0.
         23    2    1    2    0    0 -0.14124917308E+03  0.11350611490E+03 -0.12604969115E+03  0.23793673877E+03  0.88827923549E+02 0.  0.
        -13    1    3    3    0    0 -0.82498852160E+02  0.65335496030E+01 -0.14017672914E+03  0.16278287155E+03  0.00000000000E+00 0.  1.
         14    1    3    3    0    0 -0.17678359723E+02 -0.35089570595E+02 -0.17355454453E+02  0.42953628092E+02  0.00000000000E+00 0. -1.
        -13    1    4    4    0    0 -0.89116048961E+02  0.75789529267E+02 -0.12820120847E+03  0.17355481204E+03  0.00000000000E+00 0. -1.
         13    1    4    4    0    0 -0.52133124118E+02  0.37716585638E+02  0.21515173247E+01  0.64381926729E+02  0.00000000000E+00 0.  1.
          1    1    1    2  501    0  0.24142638496E+03 -0.84950093912E+02 -0.87698066856E+03  0.91356352316E+03  0.00000000000E+00 0. -1.
<scales pt_clust_5="13000.00000" pt_clust_6="13000.00000" pt_clust_7="13000.00000" pt_clust_8="13000.00000" pt_clust_9="13000.00000"></scales>
<clustering>
<clus scale="   81.610">  5  6 -1 -1</clus>
<clus scale="   88.828">  7  8 -1 -1</clus>
<clus scale="  132.330">  2  5  1 -1</clus>
<clus scale="  191.913">  7  9 -1 -1</clus>
<clus scale="  565.582">  1  5  2 -1</clus>
</clustering>
</event>
<event>
 9    2  0.3897980E-005  0.2357946E+03  0.7546771E-02  0.1164733E+00
          2   -1    0    0  502    0 -0.00000000000E+00  0.00000000000E+00  0.11592736474E+03  0.11592736474E+03  0.00000000000E+00 0. -1.
         21   -1    0    0  501  502  0.00000000000E+00 -0.00000000000E+00 -0.28304684703E+03  0.28304684703E+03  0.00000000000E+00 0. -1.
         24    2    1    2    0    0  0.13133043466E+02 -0.28450587217E+02  0.30631110496E+02  0.91233434024E+02  0.80021008554E+02 0.  0.
         23    2    1    2    0    0 -0.29338843252E+02 -0.40411681701E+02 -0.21163073699E+03  0.23564848669E+03  0.90822732278E+02 0.  0.
        -11    1    3    3    0    0  0.35206514898E+02 -0.27752261179E+02  0.46074504280E+02  0.64284886532E+02  0.00000000000E+00 0.  1.
         12    1    3    3    0    0 -0.22073471432E+02 -0.69832603774E+00 -0.15443393784E+02  0.26948547492E+02  0.00000000000E+00 0. -1.
        -13    1    4    4    0    0 -0.43111100439E+02  0.15269014727E+02 -0.10608862380E+03  0.11552707861E+03  0.00000000000E+00 0. -1.
         13    1    4    4    0    0  0.13772257187E+02 -0.55680696428E+02 -0.10554211318E+03  0.12012140808E+03  0.00000000000E+00 0.  1.
          1    1    1    2  501    0  0.16205799786E+02  0.68862268918E+02  0.13880144197E+02  0.72092291059E+02  0.00000000000E+00 0. -1.
<scales pt_clust_5="13000.00000" pt_clust_6="13000.00000" pt_clust_7="13000.00000" pt_clust_8="13000.00000" pt_clust_9="13000.00000"></scales>
<clustering>
<clus scale="   80.021">  5  6 -1 -1</clus>
<clus scale="   85.938">  1  5  2 -1</clus>
<clus scale="   90.823">  7  8 -1 -1</clus>
<clus scale="   53.615">  7  9 -1 -1</clus>
<clus scale="  235.795">  2  5  1 -1</clus>
</clustering>
</event>
<event>
 9    2  0.3897980E-005  0.3204991E+03  0.7546771E-02  0.1106377E+00
          2   -1    0    0  502    0 -0.00000000000E+00  0.00000000000E+00  0.83284035749E+03  0.83284035749E+03  0.00000000000E+00 0. -1.
         21   -1    0    0  501  502  0.00000000000E+00 -0.00000000000E+00 -0.65447785059E+02  0.65447785059E+02  0.00000000000E+00 0. -1.
         24    2    1    2    0    0  0.63588617298E+02 -0.97355519312E+02  0.17838758136E+03  0.22773122940E+03  0.80732733577E+02 0.  0.
         23    2    1    2    0    0  0.68788038332E+02 -0.47058303190E+02  0.18179054514E+03  0.21866916596E+03  0.88442770885E+02 0.  0.
        -13    1    3    3    0    0  0.33985671313E+02 -0.29965131938E+02  0.13687046531E+02  0.47331492998E+02  0.00000000000E+00 0.  1.
         14    1    3    3    0    0  0.29602945985E+02 -0.67390387374E+02  0.16470053483E+03  0.18039973641E+03  0.00000000000E+00 0. -1.
        -13    1    4    4    0    0  0.19143008031E+02  0.11960228452E+02  0.15538188103E+01  0.22625564612E+02  0.00000000000E+00 0. -1.
         13    1    4    4    0    0  0.49645030301E+02 -0.59018531642E+02  0.18023672633E+03  0.19604360134E+03  0.00000000000E+00 0.  1.
          1    1    1    2  501    0 -0.13237665563E+03  0.14441382250E+03  0.40721444593E+03  0.45188774719E+03  0.00000000000E+00 0. -1.
<scales pt_clust_5="13000.00000" pt_clust_6="13000.00000" pt_clust_7="13000.00000" pt_clust_8="13000.00000" pt_clust_9="13000.00000"></scales>
<clustering>
<clus scale="   80.733">  5  6 -1 -1</clus>
<clus scale="   88.443">  7  8 -1 -1</clus>
<clus scale="  141.561">  1  5  2 -1</clus>
<clus scale="  118.354">  7  9 -1 -1</clus>
<clus scale="  320.499">  2  5  1 -1</clus>
</clustering>
</event>
<event>
 9    2  0.3897980E-005  0.3463563E+03  0.7546771E-02  0.1120004E+00
         -3   -1    0    0    0  501 -0.00000000000E+00  0.00000000000E+00  0.22950309072E+03  0.22950309072E+03  0.00000000000E+00 0.  1.
         21   -1    0    0  501  502  0.00000000000E+00 -0.00000000000E+00 -0.20305884282E+03  0.20305884282E+03  0.00000000000E+00 0. -1.
         24    2    1    2    0    0 -0.85433827791E+00 -0.90796611270E+01  0.33327529765E+02  0.86137259219E+02  0.78903314540E+02 0.  0.
         23    2    1    2    0    0 -0.14460129553E+03  0.60909602626E+02 -0.46011207998E+02  0.18713035915E+03  0.91001240055E+02 0.  0.
        -13    1    3    3    0    0  0.35797663924E+02  0.64133483774E+01  0.28192220649E+02  0.46015270128E+02  0.00000000000E+00 0.  1.
         14    1    3    3    0    0 -0.36652002202E+02 -0.15493009504E+02  0.51353091161E+01  0.40121989091E+02  0.00000000000E+00 0. -1.
        -13    1    4    4    0    0 -0.53783615190E+02 -0.20992965309E+02 -0.25549995442E+02  0.63136234623E+02  0.00000000000E+00 0.  1.
         13    1    4    4    0    0 -0.90817680345E+02  0.81902567936E+02 -0.20461212556E+02  0.12399412453E+03  0.00000000000E+00 0. -1.
         -4    1    1    2    0  502  0.14545563381E+03 -0.51829941499E+02  0.39127926135E+02  0.15929431518E+03  0.00000000000E+00 0.  1.
<scales pt_clust_5="13000.00000" pt_clust_6="13000.00000" pt_clust_7="13000.00000" pt_clust_8="13000.00000" pt_clust_9="13000.00000"></scales>
<clustering>
<clus scale="   78.903">  5  6 -1 -1</clus>
<clus scale="   79.429">  1  5  2 -1</clus>
<clus scale="   91.001">  7  8 -1 -1</clus>
<clus scale="  155.810">  7  9 -1 -1</clus>
<clus scale="  346.356">  2  5  1 -1</clus>
</clustering>
</event>
<event>
 9    2  0.3897980E-005  0.2231096E+03  0.7546771E-02  0.1142584E+00
          2   -1    0    0  502    0 -0.00000000000E+00  0.00000000000E+00  0.10564603356E+04  0.10564603356E+04  0.00000000000E+00 0. -1.
         21   -1    0    0  501  502  0.00000000000E+00 -0.00000000000E+00 -0.42226916114E+02  0.42226916114E+02  0.00000000000E+00 0.  1.
         24    2    1    2    0    0  0.10717821822E+02  0.15028764898E+03  0.25201964487E+03  0.30449097185E+03  0.80620105426E+02 0.  0.
         23    2    1    2    0    0 -0.62496466288E+01 -0.51383359571E+02  0.23828991240E+03  0.26100003414E+03  0.93057120870E+02 0.  0.
        -11    1    3    3    0    0  0.21215953733E+02  0.14938135038E+03  0.19526130538E+03  0.24676280497E+03  0.00000000000E+00 0.  1.
         12    1    3    3    0    0 -0.10498131911E+02  0.90629859839E+00  0.56758339488E+02  0.57728166888E+02  0.00000000000E+00 0. -1.
        -11    1    4    4    0    0 -0.46196510956E+02 -0.36585923178E+02  0.97682977147E+02  0.11408159985E+03  0.00000000000E+00 0. -1.
         11    1    4    4    0    0  0.39946864327E+02 -0.14797436393E+02  0.14060693526E+03  0.14691843429E+03  0.00000000000E+00 0.  1.
          1    1    1    2  501    0 -0.44681751928E+01 -0.98904289412E+02  0.52392386221E+03  0.53319624572E+03  0.00000000000E+00 0. -1.
<scales pt_clust_5="13000.00000" pt_clust_6="13000.00000" pt_clust_7="13000.00000" pt_clust_8="13000.00000" pt_clust_9="13000.00000"></scales>
<clustering>
<clus scale="   80.620">  5  6 -1 -1</clus>
<clus scale="   93.057">  7  8 -1 -1</clus>
<clus scale="   99.005">  7  9 -1 -1</clus>
<clus scale="  170.883">  1  5  2 -1</clus>
<clus scale="  223.110">  2  5  1 -1</clus>
</clustering>
</event>
<event>
 9    2  0.3897980E-005  0.3001930E+03  0.7546771E-02  0.1124118E+00
         21   -1    0    0  501  502  0.00000000000E+00  0.00000000000E+00  0.99060209125E+02  0.99060209125E+02  0.00000000000E+00 0.  1.
          2   -1    0    0  502    0 -0.00000000000E+00 -0.00000000000E+00 -0.44217652331E+03  0.44217652331E+03  0.00000000000E+00 0. -1.
         24    2    1    2    0    0 -0.65099145980E+02 -0.34997864217E+02 -0.47491222409E+02  0.11991730436E+03  0.81621041226E+02 0.  0.
         23    2    1    2    0    0  0.12186017547E+03  0.82245357269E+01 -0.36600660089E+02  0.15480060736E+03  0.87784248968E+02 0.  0.
        -11    1    3    3    0    0  0.13303664592E+02 -0.25201657945E+02 -0.24624027146E+02  0.37662365402E+02  0.00000000000E+00 0.  1.
         12    1    3    3    0    0 -0.78402810573E+02 -0.97962062725E+01 -0.22867195263E+02  0.82254938953E+02  0.00000000000E+00 0. -1.
        -11    1    4    4    0    0  0.10876858126E+03  0.38854446033E+02 -0.37626660020E+02  0.12147443266E+03  0.00000000000E+00 0.  1.
         11    1    4    4    0    0  0.13091594208E+02 -0.30629910306E+02  0.10259999312E+01  0.33326174700E+02  0.00000000000E+00 0. -1.
          1    1    1    2  501    0 -0.56761029488E+02  0.26773328490E+02 -0.25902443168E+03  0.26651882071E+03  0.00000000000E+00 0. -1.
<scales pt_clust_5="13000.00000" pt_clust_6="13000.00000" pt_clust_7="13000.00000" pt_clust_8="13000.00000" pt_clust_9="13000.00000"></scales>
<clustering>
<clus scale="   81.621">  5  6 -1 -1</clus>
<clus scale="   87.784">  7  8 -1 -1</clus>
<clus scale="   62.759">  7  9 -1 -1</clus>
<clus scale="  110.112">  2  5  1 -1</clus>
<clus scale="  300.193">  1  5  2 -1</clus>
</clustering>
</event>
<event>
 9    2  0.3897980E-005  0.1888275E+03  0.7546771E-02  0.1196025E+00
          2   -1    0    0  502    0 -0.00000000000E+00  0.00000000000E+00  0.68564188592E+02  0.68564188592E+02  0.00000000000E+00 0. -1.
         21   -1    0    0  501  502  0.00000000000E+00 -0.00000000000E+00 -0.56141204023E+03  0.56141204023E+03  0.00000000000E+00 0.  1.
         24    2    1    2    0    0 -0.13757161206E+02  0.83339458621E+00  0.18495681613E+02  0.84881712446E+02  0.81687580687E+02 0.  0.
         23    2    1    2    0    0  0.79829302839E+02  0.30469285722E+01 -0.34655465630E+03  0.36751084940E+03  0.92639587986E+02 0.  0.
        -11    1    3    3    0    0 -0.19245132720E+02  0.18548942285E+02 -0.25620965109E+02  0.37025291983E+02  0.00000000000E+00 0.  1.
         12    1    3    3    0    0  0.54879715136E+01 -0.17715547699E+02  0.44116646722E+02  0.47856420463E+02  0.00000000000E+00 0. -1.
        -13    1    4    4    0    0  0.64477534744E+02 -0.40500832644E+02 -0.21334639471E+03  0.22652671822E+03  0.00000000000E+00 0. -1.
         13    1    4    4    0    0  0.15351768096E+02  0.43547761216E+02 -0.13320826158E+03  0.14098413118E+03  0.00000000000E+00 0.  1.
          1    1    1    2  501    0 -0.66072141633E+02 -0.38803231584E+01 -0.16478887696E+03  0.17758366698E+03  0.00000000000E+00 0. -1.
<scales pt_clust_5="13000.00000" pt_clust_6="13000.00000" pt_clust_7="13000.00000" pt_clust_8="13000.00000" pt_clust_9="13000.00000"></scales>
<clustering>
<clus scale="   81.688">  5  6 -1 -1</clus>
<clus scale="   82.842">  1  5  2 -1</clus>
<clus scale="   92.640">  7  8 -1 -1</clus>
<clus scale="   71.376">  7  9 -1 -1</clus>
<clus scale="  188.827">  2  5  1 -1</clus>
</clustering>
</event>
<event>
 9    2  0.3897980E-005  0.1893447E+03  0.7546771E-02  0.1192030E+00
         21   -1    0    0  501  502  0.00000000000E+00  0.00000000000E+00  0.38104388873E+02  0.38104388873E+02  0.00000000000E+00 0. -1.
          2   -1    0    0  502    0 -0.00000000000E+00 -0.00000000000E+00 -0.54569248660E+03  0.54569248660E+03  0.00000000000E+00 0. -1.
         24    2    1    2    0    0  0.38012861757E+02  0.13629377468E+02 -0.23816537077E+03  0.25449452698E+03  0.80087345081E+02 0.  0.
         23    2    1    2    0    0 -0.24201583731E+02 -0.77472842701E+02 -0.19429259687E+03  0.22974695737E+03  0.91903717069E+02 0.  0.
        -13    1    3    3    0    0  0.12294679153E+02  0.34611732022E+02 -0.43111899618E+02  0.56637152274E+02  0.00000000000E+00 0.  1.
         14    1    3    3    0    0  0.25718182604E+02 -0.20982354554E+02 -0.19505347115E+03  0.19785737471E+03  0.00000000000E+00 0. -1.
        -11    1    4    4    0    0 -0.30348122112E+02  0.99868797632E+01 -0.76525729396E+02  0.82927278640E+02  0.00000000000E+00 0.  1.
         11    1    4    4    0    0  0.61465383809E+01 -0.87459722464E+02 -0.11776686747E+03  0.14681967873E+03  0.00000000000E+00 0. -1.
          1    1    1    2  501    0 -0.13811278026E+02  0.63843465234E+02 -0.75130130092E+02  0.99555391122E+02  0.00000000000E+00 0. -1.
<scales pt_clust_5="13000.00000" pt_clust_6="13000.00000" pt_clust_7="13000.00000" pt_clust_8="13000.00000" pt_clust_9="13000.00000"></scales>
<clustering>
<clus scale="   80.087">  5  6 -1 -1</clus>
<clus scale="   89.692">  2  5  1 -1</clus>
<clus scale="   91.904">  7  8 -1 -1</clus>
<clus scale="   67.875">  7  9 -1 -1</clus>
<clus scale="  189.345">  1  5  2 -1</clus>
</clustering>
</event>
<event>
 9    2  0.3897980E-005  0.3557990E+03  0.7546771E-02  0.1092548E+00
         21   -1    0    0  501  502  0.00000000000E+00  0.00000000000E+00  0.78347561465E+02  0.78347561465E+02  0.00000000000E+00 0.  1.
         -1   -1    0    0    0  501 -0.00000000000E+00 -0.00000000000E+00 -0.92727043025E+03  0.92727043025E+03  0.00000000000E+00 0.  1.
         24    2    1    2    0    0  0.10952892350E+03 -0.11247269078E+02 -0.43629892683E+03  0.46077725467E+03  0.99175797049E+02 0.  0.
         23    2    1    2    0    0  0.61438061804E+02  0.72399392505E+02 -0.31105469263E+03  0.33678880922E+03  0.87494986936E+02 0.  0.
        -11    1    3    3    0    0  0.80112361964E+02 -0.53764950393E+02 -0.28289173008E+03  0.29889193930E+03  0.00000000000E+00 0.  1.
         12    1    3    3    0    0  0.29416561536E+02  0.42517681315E+02 -0.15340719675E+03  0.16188531537E+03  0.00000000000E+00 0. -1.
        -11    1    4    4    0    0  0.87533899943E+01  0.22796836947E+02 -0.87428891434E+01  0.25937534998E+02  0.00000000000E+00 0.  1.
         11    1    4    4    0    0  0.52684671810E+02  0.49602555558E+02 -0.30231180348E+03  0.31085127423E+03  0.00000000000E+00 0. -1.
         -2    1    1    2    0  502 -0.17096698530E+03 -0.61152123427E+02 -0.10156924933E+03  0.20805192783E+03  0.00000000000E+00 0.  1.
<scales pt_clust_5="13000.00000" pt_clust_6="13000.00000" pt_clust_7="13000.00000" pt_clust_8="13000.00000" pt_clust_9="13000.00000"></scales>
<clustering>
<clus scale="   87.495">  7  8 -1 -1</clus>
<clus scale="   99.176">  5  6 -1 -1</clus>
<clus scale="  148.185">  2  5  1 -1</clus>
<clus scale="  150.236">  7  9 -1 -1</clus>
<clus scale="  355.799">  1  5  2 -1</clus>
</clustering>
</event>
<event>
 9    2  0.3897980E-005  0.3415726E+03  0.7546771E-02  0.1114891E+00
          2   -1    0    0  502    0 -0.00000000000E+00  0.00000000000E+00  0.78187916060E+03  0.78187916060E+03  0.00000000000E+00 0. -1.
         21   -1    0    0  501  502  0.00000000000E+00 -0.00000000000E+00 -0.10580598455E+03  0.10580598455E+03  0.00000000000E+00 0.  1.
         24    2    1    2    0    0 -0.95026491005E+01  0.48472446275E+02  0.48950784624E+03  0.49848284343E+03  0.80170663435E+02 0.  0.
         23    2    1    2    0    0 -0.44757742089E+02  0.21326057716E+01 -0.69490282806E+02  0.12261359585E+03  0.90539444435E+02 0.  0.
        -13    1    3    3    0    0  0.21487296841E+02 -0.12012138116E+02  0.93535823713E+02  0.96720968282E+02  0.00000000000E+00 0.  1.
         14    1    3    3    0    0 -0.30989945942E+02  0.60484584392E+02  0.39597202253E+03  0.40176187515E+03  0.00000000000E+00 0. -1.
        -11    1    4    4    0    0  0.44338819848E+01  0.38366917385E+02 -0.17548618596E+02  0.42422089454E+02  0.00000000000E+00 0. -1.
         11    1    4    4    0    0 -0.49191624074E+02 -0.36234311613E+02 -0.51941664210E+02  0.80191506396E+02  0.00000000000E+00 0.  1.
          1    1    1    2  501    0  0.54260391190E+02 -0.50605052047E+02  0.25605561262E+03  0.26658870587E+03  0.00000000000E+00 0. -1.
<scales pt_clust_5="13000.00000" pt_clust_6="13000.00000" pt_clust_7="13000.00000" pt_clust_8="13000.00000" pt_clust_9="13000.00000"></scales>
<clustering>
<clus scale="   80.171">  5  6 -1 -1</clus>
<clus scale="   90.539">  7  8 -1 -1</clus>
<clus scale="   74.196">  7  9 -1 -1</clus>
<clus scale="   94.166">  1  5  2 -1</clus>
<clus scale="  341.573">  2  5  1 -1</clus>
</clustering>
</event>
<event>
 9    2  0.3897980E-005  0.4112684E+03  0.7546771E-02  0.1069315E+00
         21   -1    0    0  501  502  0.00000000000E+00  0.00000000000E+00  0.46410793190E+02  0.46410793190E+02  0.00000000000E+00 0. -1.
          2   -1    0    0  502    0 -0.00000000000E+00 -0.00000000000E+00 -0.19734804886E+04  0.19734804886E+04  0.00000000000E+00 0. -1.
         24    2    1    2    0    0  0.55809079685E+02 -0.15029039670E+03 -0.80809852304E+03  0.82773433634E+03  0.80118985948E+02 0.  0.
         23    2    1    2    0    0  0.41346175163E+02 -0.97675168783E+02 -0.32212646122E+03  0.35198579687E+03  0.94226320026E+02 0.  0.
        -13    1    3    3    0    0 -0.18273346710E+02 -0.37445303752E+02 -0.13707978614E+03  0.14327223646E+03  0.00000000000E+00 0.  1.
         14    1    3    3    0    0  0.74082426396E+02 -0.11284509294E+03 -0.67101873690E+03  0.68446209988E+03  0.00000000000E+00 0. -1.
        -13    1    4    4    0    0  0.15888060967E+01 -0.88464908499E+02 -0.27863323007E+03  0.29234404602E+03  0.00000000000E+00 0.  1.
         13    1    4    4    0    0  0.39757369066E+02 -0.92102602834E+01 -0.43493231140E+02  0.59641750851E+02  0.00000000000E+00 0. -1.
          1    1    1    2  501    0 -0.97155254848E+02  0.24796556548E+03 -0.79684471118E+03  0.84017114860E+03  0.00000000000E+00 0. -1.
<scales pt_clust_5="13000.00000" pt_clust_6="13000.00000" pt_clust_7="13000.00000" pt_clust_8="13000.00000" pt_clust_9="13000.00000"></scales>
<clustering>
<clus scale="   80.119">  5  6 -1 -1</clus>
<clus scale="   94.226">  7  8 -1 -1</clus>
<clus scale="  179.223">  2  5  1 -1</clus>
<clus scale="  152.795">  7  9 -1 -1</clus>
<clus scale="  411.268">  1  5  2 -1</clus>
</clustering>
</event>
<event>
 9    2  0.3897980E-005  0.1507525E+03  0.7546771E-02  0.1208682E+00
          2   -1    0    0  502    0 -0.00000000000E+00  0.00000000000E+00  0.56026527542E+03  0.56026527542E+03  0.00000000000E+00 0. -1.
         21   -1    0    0  501  502  0.00000000000E+00 -0.00000000000E+00 -0.54818310613E+02  0.54818310613E+02  0.00000000000E+00 0.  1.
         24    2    1    2    0    0 -0.92561518021E+02  0.18269505044E+02  0.42810762983E+03  0.44565019413E+03  0.80165724465E+02 0.  0.
         23    2    1    2    0    0  0.63608918474E+02 -0.14115631074E+02  0.83965582686E+02  0.13944314602E+03  0.90270849919E+02 0.  0.
        -11    1    3    3    0    0 -0.56004635119E+02  0.39661671058E+02  0.15826063888E+03  0.17249926703E+03  0.00000000000E+00 0.  1.
         12    1    3    3    0    0 -0.36556882902E+02 -0.21392166014E+02  0.26984699095E+03  0.27315092710E+03  0.00000000000E+00 0. -1.
        -11    1    4    4    0    0 -0.20833809288E+02  0.97404142012E+01  0.11896835016E+02  0.25893203001E+02  0.00000000000E+00 0. -1.
         11    1    4    4    0    0  0.84442727762E+02 -0.23856045275E+02  0.72068747670E+02  0.11354994302E+03  0.00000000000E+00 0.  1.
          1    1    1    2  501    0  0.28952599547E+02 -0.41538739702E+01 -0.66262477082E+01  0.29990245884E+02  0.00000000000E+00 0. -1.
<scales pt_clust_5="13000.00000" pt_clust_6="13000.00000" pt_clust_7="13000.00000" pt_clust_8="13000.00000" pt_clust_9="13000.00000"></scales>
<clustering>
<clus scale="   80.166">  5  6 -1 -1</clus>
<clus scale="   90.271">  7  8 -1 -1</clus>
<clus scale="   29.249">  7  9 -1 -1</clus>
<clus scale="  123.806">  1  5  2 -1</clus>
<clus scale="  150.752">  2  5  1 -1</clus>
</clustering>
</event>
<event>
 9    2  0.3897980E-005  0.1714751E+03  0.7546771E-02  0.1210222E+00
          4   -1    0    0  502    0 -0.00000000000E+00  0.00000000000E+00  0.19805240988E+03  0.19805240988E+03  0.00000000000E+00 0. -1.
         21   -1    0    0  501  502  0.00000000000E+00 -0.00000000000E+00 -0.12168373264E+03  0.12168373264E+03  0.00000000000E+00 0. -1.
         24    2    1    2    0    0  0.15582499733E+02  0.51154972543E+01  0.11792997663E+03  0.14329623078E+03  0.79732977854E+02 0.  0.
         23    2    1    2    0    0 -0.52064419557E+02  0.30838405236E+02  0.45570592074E+01  0.10751592042E+03  0.88753565192E+02 0.  0.
        -13    1    3    3    0    0  0.25200192340E+01 -0.33691683348E+02  0.82496621583E+02  0.89146915798E+02  0.00000000000E+00 0.  1.
         14    1    3    3    0    0  0.13062480499E+02  0.38807180602E+02  0.35433355051E+02  0.54149314984E+02  0.00000000000E+00 0. -1.
        -11    1    4    4    0    0  0.11663997854E+02  0.25143472704E+02  0.27976793879E+02  0.39382027136E+02  0.00000000000E+00 0.  1.
         11    1    4    4    0    0 -0.63728417411E+02  0.56949325324E+01 -0.23419734672E+02  0.68133893287E+02  0.00000000000E+00 0. -1.
          3    1    1    2  501    0  0.36481919825E+02 -0.35953902490E+02 -0.46118358608E+02  0.68923991317E+02  0.00000000000E+00 0. -1.
<scales pt_clust_5="13000.00000" pt_clust_6="13000.00000" pt_clust_7="13000.00000" pt_clust_8="13000.00000" pt_clust_9="13000.00000"></scales>
<clustering>
<clus scale="   79.733">  5  6 -1 -1</clus>
<clus scale="   81.402">  1  5  2 -1</clus>
<clus scale="   88.754">  7  8 -1 -1</clus>
<clus scale="   52.549">  7  9 -1 -1</clus>
<clus scale="  171.475">  2  5  1 -1</clus>
</clustering>
</event>
<event>
 9    2  0.3897980E-005  0.4274999E+03  0.7546771E-02  0.1087816E+00
          2   -1    0    0  502    0 -0.00000000000E+00  0.00000000000E+00  0.21651873625E+03  0.21651873625E+03  0.00000000000E+00 0. -1.
         21   -1    0    0  501  502  0.00000000000E+00 -0.00000000000E+00 -0.31988092024E+03  0.31988092024E+03  0.00000000000E+00 0. -1.
         24    2    1    2    0    0  0.18695837842E+02 -0.50839836554E+02 -0.37675292641E+02  0.10388272814E+03  0.80236962784E+02 0.  0.
         23    2    1    2    0    0  0.85940814449E+01  0.22177406409E+03 -0.90000027277E+02  0.25771882077E+03  0.95191343782E+02 0.  0.
        -13    1    3    3    0    0  0.25567300784E+02 -0.54856594520E+02  0.47584709478E+01  0.60708943966E+02  0.00000000000E+00 0.  1.
         14    1    3    3    0    0 -0.68714629424E+01  0.40167579665E+01 -0.42433763589E+02  0.43173784174E+02  0.00000000000E+00 0. -1.
        -13    1    4    4    0    0 -0.30160212035E+02  0.11555312404E+03 -0.11302699314E+02  0.11995796713E+03  0.00000000000E+00 0. -1.
         13    1    4    4    0    0  0.38754293480E+02  0.10622094005E+03 -0.78697327964E+02  0.13776085364E+03  0.00000000000E+00 0.  1.
          1    1    1    2  501    0 -0.27289919287E+02 -0.17093422753E+03  0.24313135926E+02  0.17479810759E+03  0.00000000000E+00 0. -1.
<scales pt_clust_5="13000.00000" pt_clust_6="13000.00000" pt_clust_7="13000.00000" pt_clust_8="13000.00000" pt_clust_9="13000.00000"></scales>
<clustering>
<clus scale="   80.237">  5  6 -1 -1</clus>
<clus scale="   95.191">  7  8 -1 -1</clus>
<clus scale="   96.810">  1  5  2 -1</clus>
<clus scale="  199.268">  7  9 -1 -1</clus>
<clus scale="  427.500">  2  5  1 -1</clus>
</clustering>
</event>
<event>
 9    2  0.3897980E-005  0.2223220E+03  0.7546771E-02  0.1138249E+00
         21   -1    0    0  501  502  0.00000000000E+00  0.00000000000E+00  0.66528471995E+03  0.66528471995E+03  0.00000000000E+00 0.  1.
         -3   -1    0    0    0  501 -0.00000000000E+00 -0.00000000000E+00 -0.85763091018E+02  0.85763091018E+02  0.00000000000E+00 0.  1.
         24    2    1    2    0    0  0.17388327427E+03  0.99202713114E+01  0.46061547257E+03  0.49892534531E+03  0.80162845263E+02 0.  0.
         23    2    1    2    0    0 -0.69718312766E+02 -0.16180342313E+02  0.39964379766E+02  0.12127395865E+03  0.89374351938E+02 0.  0.
        -11    1    3    3    0    0  0.14688352645E+03 -0.14781997943E+02  0.30209965172E+03  0.33624020785E+03  0.00000000000E+00 0.  1.
         12    1    3    3    0    0  0.26999747825E+02  0.24702269254E+02  0.15851582085E+03  0.16268513745E+03  0.00000000000E+00 0. -1.
        -13    1    4    4    0    0 -0.28907935444E+02  0.37299256390E+02  0.14949740970E+02  0.49501495068E+02  0.00000000000E+00 0.  1.
         13    1    4    4    0    0 -0.40810377322E+02 -0.53479598703E+02  0.25014638796E+02  0.71772463583E+02  0.00000000000E+00 0. -1.
         -4    1    1    2    0  502 -0.10416496151E+03  0.62600710019E+01  0.78941776589E+02  0.13084850701E+03  0.00000000000E+00 0.  1.
<scales pt_clust_5="13000.00000" pt_clust_6="13000.00000" pt_clust_7="13000.00000" pt_clust_8="13000.00000" pt_clust_9="13000.00000"></scales>
<clustering>
<clus scale="   80.163">  5  6 -1 -1</clus>
<clus scale="   89.374">  7  8 -1 -1</clus>
<clus scale="  104.353">  7  9 -1 -1</clus>
<clus scale="  191.729">  2  5  1 -1</clus>
<clus scale="  222.322">  1  5  2 -1</clus>
</clustering>
</event>
<event>
 9    2  0.3897980E-005  0.1604436E+03  0.7546771E-02  0.1214680E+00
          2   -1    0    0  502    0 -0.00000000000E+00  0.00000000000E+00  0.52399697109E+03  0.52399697109E+03  0.00000000000E+00 0. -1.
         21   -1    0    0  501  502  0.00000000000E+00 -0.00000000000E+00 -0.58355676734E+02  0.58355676734E+02  0.00000000000E+00 0. -1.
         24    2    1    2    0    0  0.30757264746E+02 -0.21699867185E+02  0.39816853523E+03  0.40829884247E+03  0.82175840404E+02 0.  0.
         23    2    1    2    0    0  0.16835282969E+02 -0.95718273859E+01  0.82128571749E+01  0.91866790204E+02  0.89426000063E+02 0.  0.
        -11    1    3    3    0    0 -0.24737560392E+02  0.51057904306E+01  0.70584825242E+02  0.74968216896E+02  0.00000000000E+00 0.  1.
         12    1    3    3    0    0  0.55494825139E+02 -0.26805657615E+02  0.32758370999E+03  0.33333062558E+03  0.00000000000E+00 0. -1.
        -13    1    4    4    0    0 -0.34649044565E+02 -0.14932042479E+02  0.12944490134E+02  0.39888369317E+02  0.00000000000E+00 0. -1.
         13    1    4    4    0    0  0.51484327535E+02  0.53602150933E+01 -0.47316329593E+01  0.51978420888E+02  0.00000000000E+00 0.  1.
          1    1    1    2  501    0 -0.47592547715E+02  0.31271694571E+02  0.59259901948E+02  0.82187015144E+02  0.00000000000E+00 0. -1.
<scales pt_clust_5="13000.00000" pt_clust_6="13000.00000" pt_clust_7="13000.00000" pt_clust_8="13000.00000" pt_clust_9="13000.00000"></scales>
<clustering>
<clus scale="   82.176">  5  6 -1 -1</clus>
<clus scale="   89.426">  7  8 -1 -1</clus>
<clus scale="   56.947">  7  9 -1 -1</clus>
<clus scale="   90.387">  1  5  2 -1</clus>
<clus scale="  160.444">  2  5  1 -1</clus>
</clustering>
</event>
<event>
 9    2  0.3897980E-005  0.2676701E+03  0.7546771E-02  0.1148764E+00
         21   -1    0    0  501  502  0.00000000000E+00  0.00000000000E+00  0.32433161096E+03  0.32433161096E+03  0.00000000000E+00 0. -1.
          4   -1    0    0  502    0 -0.00000000000E+00 -0.00000000000E+00 -0.18785949625E+03  0.18785949625E+03  0.00000000000E+00 0. -1.
         24    2    1    2    0    0 -0.15928863484E+02 -0.30324620990E+02 -0.11613570785E+03  0.14414490106E+03  0.78210859429E+02 0.  0.
         23    2    1    2    0    0  0.84716634858E+02 -0.15728032868E+02  0.25574927048E+03  0.28520616081E+03  0.92252835050E+02 0.  0.
        -13    1    3    3    0    0 -0.22028231912E+02  0.61935118192E+01 -0.67393837965E+00  0.22892286534E+02  0.00000000000E+00 0.  1.
         14    1    3    3    0    0  0.60993684277E+01 -0.36518132809E+02 -0.11546176947E+03  0.12125261453E+03  0.00000000000E+00 0. -1.
        -13    1    4    4    0    0  0.19599848454E+02 -0.68222814958E+01 -0.40257179224E+00  0.20757158964E+02  0.00000000000E+00 0.  1.
         13    1    4    4    0    0  0.65116786404E+02 -0.89057513719E+01  0.25615184227E+03  0.26444900185E+03  0.00000000000E+00 0. -1.
          3    1    1    2  501    0 -0.68787771373E+02  0.46052653857E+02 -0.31414479103E+01  0.82840045345E+02  0.00000000000E+00 0. -1.
<scales pt_clust_5="13000.00000" pt_clust_6="13000.00000" pt_clust_7="13000.00000" pt_clust_8="13000.00000" pt_clust_9="13000.00000"></scales>
<clustering>
<clus scale="   78.211">  5  6 -1 -1</clus>
<clus scale="   85.383">  2  5  1 -1</clus>
<clus scale="   92.253">  7  8 -1 -1</clus>
<clus scale="   83.996">  7  9 -1 -1</clus>
<clus scale="  267.670">  1  5  2 -1</clus>
</clustering>
</event>
<event>
 9    2  0.3897980E-005  0.1358825E+03  0.7546771E-02  0.1243908E+00
         -1   -1    0    0    0  501 -0.00000000000E+00  0.00000000000E+00  0.60252178990E+03  0.60252178990E+03  0.00000000000E+00 0.  1.
         21   -1    0    0  501  502  0.00000000000E+00 -0.00000000000E+00 -0.32176495050E+02  0.32176495050E+02  0.00000000000E+00 0. -1.
         24    2    1    2    0    0  0.16226103157E+02 -0.83367728040E+01  0.43635288395E+03  0.44386319650E+03  0.79233261140E+02 0.  0.
         23    2    1    2    0    0  0.22871914370E+02  0.17772073479E+02  0.90426615042E+02  0.13154210031E+03  0.91035050306E+02 0.  0.
        -13    1    3    3    0    0 -0.18737279830E+02  0.15822859830E+02  0.55888077036E+02  0.61032169414E+02  0.00000000000E+00 0.  1.
         14    1    3    3    0    0  0.34963382987E+02 -0.24159632634E+02  0.38046480691E+03  0.38283102708E+03  0.00000000000E+00 0. -1.
        -11    1    4    4    0    0 -0.29870298599E+01  0.21876408932E+02 -0.12476236769E+02  0.25360522453E+02  0.00000000000E+00 0. -1.
         11    1    4    4    0    0  0.25858944230E+02 -0.41043354531E+01  0.10290285181E+03  0.10618157786E+03  0.00000000000E+00 0.  1.
         -2    1    1    2    0  502 -0.39098017527E+02 -0.94353006752E+01  0.43565795860E+02  0.59292988138E+02  0.00000000000E+00 0.  1.
<scales pt_clust_5="13000.00000" pt_clust_6="13000.00000" pt_clust_7="13000.00000" pt_clust_8="13000.00000" pt_clust_9="13000.00000"></scales>
<clustering>
<clus scale="   79.233">  5  6 -1 -1</clus>
<clus scale="   81.306">  1  5  2 -1</clus>
<clus scale="   91.035">  7  8 -1 -1</clus>
<clus scale="   36.043">  7  9 -1 -1</clus>
<clus scale="  135.883">  2  5  1 -1</clus>
</clustering>
</event>
<event>
 9    2  0.3897980E-005  0.1530658E+03  0.7546771E-02  0.1226187E+00
         21   -1    0    0  501  502  0.00000000000E+00  0.00000000000E+00  0.57942796499E+03  0.57942796499E+03  0.00000000000E+00 0.  1.
          4   -1    0    0  502    0 -0.00000000000E+00 -0.00000000000E+00 -0.39506863565E+02  0.39506863565E+02  0.00000000000E+00 0. -1.
         24    2    1    2    0    0 -0.14310677285E+02  0.21695276309E+01  0.30922656276E+02  0.87419502297E+02  0.80476433669E+02 0.  0.
         23    2    1    2    0    0 -0.25637621013E+02 -0.29841324346E+02  0.39572069902E+03  0.40825364268E+03  0.92349189919E+02 0.  0.
        -11    1    3    3    0    0  0.15859328118E+02  0.34090651995E+02  0.10890594824E+02  0.39144551311E+02  0.00000000000E+00 0.  1.
         12    1    3    3    0    0 -0.30170005402E+02 -0.31921124364E+02  0.20032061452E+02  0.48274950985E+02  0.00000000000E+00 0. -1.
        -11    1    4    4    0    0  0.31377610322E+02 -0.28362298093E+02  0.19823385614E+03  0.20269592029E+03  0.00000000000E+00 0. -1.
         11    1    4    4    0    0 -0.57015231335E+02 -0.14790262527E+01  0.19748684288E+03  0.20555772239E+03  0.00000000000E+00 0.  1.
          3    1    1    2  501    0  0.39948298298E+02  0.27671796715E+02  0.11327774612E+03  0.12326168357E+03  0.00000000000E+00 0. -1.
<scales pt_clust_5="13000.00000" pt_clust_6="13000.00000" pt_clust_7="13000.00000" pt_clust_8="13000.00000" pt_clust_9="13000.00000"></scales>
<clustering>
<clus scale="   80.476">  5  6 -1 -1</clus>
<clus scale="   81.768">  2  5  1 -1</clus>
<clus scale="   92.349">  7  8 -1 -1</clus>
<clus scale="   44.148">  7  9 -1 -1</clus>
<clus scale="  153.066">  1  5  2 -1</clus>
</clustering>
</event>
<event>
 9    2  0.3898408E-005  0.1639151E+03  0.7546771E-02  0.1215947E+00
         21   -1    0    0  501  502  0.00000000000E+00  0.00000000000E+00  0.13581498320E+03  0.13581498320E+03  0.00000000000E+00 0. -1.
          2   -1    0    0  502    0 -0.00000000000E+00 -0.00000000000E+00 -0.89456663128E+03  0.89456663128E+03  0.00000000000E+00 0. -1.
         24    2    1    2    0    0  0.20489353745E+02  0.87323116964E+01 -0.84234785335E+03  0.84638026584E+03  0.79458048447E+02 0.  0.
         23    2    1    2    0    0  0.13792218616E+01 -0.77576453354E+01 -0.60205256172E+01  0.91749828177E+02  0.91212394594E+02 0.  0.
        -13    1    3    3    0    0  0.37849796098E+01  0.32134207486E+02 -0.15067115595E+03  0.15410623153E+03  0.00000000000E+00 0.  1.
         14    1    3    3    0    0  0.16704374135E+02 -0.23401895790E+02 -0.69167669741E+03  0.69227403431E+03  0.00000000000E+00 0. -1.
        -11    1    4    4    0    0  0.12852600327E+02  0.38085215089E+02 -0.16322490476E+02  0.43383137725E+02  0.00000000000E+00 0. -1.
         11    1    4    4    0    0 -0.11473378466E+02 -0.45842860424E+02  0.10301964859E+02  0.48366690451E+02  0.00000000000E+00 0.  1.
          1    1    1    2  501    0 -0.21868575607E+02 -0.97466636105E+00  0.89616730885E+02  0.92251520465E+02  0.00000000000E+00 0. -1.
<scales pt_clust_5="13000.00000" pt_clust_6="13000.00000" pt_clust_7="13000.00000" pt_clust_8="13000.00000" pt_clust_9="13000.00000"></scales>
<clustering>
<clus scale="   79.458">  5  6 -1 -1</clus>
<clus scale="   82.521">  2  5  1 -1</clus>
<clus scale="   91.212">  7  8 -1 -1</clus>
<clus scale="   21.344">  7  9 -1 -1</clus>
<clus scale="  163.915">  1  5  2 -1</clus>
</clustering>
</event>
<event>
 9    2  0.3897980E-005  0.1542143E+03  0.7546771E-02  0.1224534E+00
         21   -1    0    0  501  502  0.00000000000E+00  0.00000000000E+00  0.38875920619E+02  0.38875920619E+02  0.00000000000E+00 0. -1.
          2   -1    0    0  502    0 -0.00000000000E+00 -0.00000000000E+00 -0.62757469256E+03  0.62757469256E+03  0.00000000000E+00 0. -1.
         24    2    1    2    0    0 -0.15217516131E+02  0.20394775876E+02 -0.45465079836E+03  0.46212022990E+03  0.78741594793E+02 0.  0.
         23    2    1    2    0    0 -0.26567263975E+02 -0.92958544342E+01 -0.13308087951E+03  0.16108585558E+03  0.86289628299E+02 0.  0.
        -11    1    3    3    0    0  0.50083650834E+01 -0.28651663526E+02 -0.13512734416E+03  0.13822228722E+03  0.00000000000E+00 0.  1.
         12    1    3    3    0    0 -0.20225881214E+02  0.49046439401E+02 -0.31952345420E+03  0.32389794268E+03  0.00000000000E+00 0. -1.
        -11    1    4    4    0    0  0.31191947187E+02 -0.10094897276E+02 -0.53592166867E+02  0.62824874611E+02  0.00000000000E+00 0.  1.
         11    1    4    4    0    0 -0.57759211161E+02  0.79904284140E+00 -0.79488712643E+02  0.98260980969E+02  0.00000000000E+00 0. -1.
          1    1    1    2  501    0  0.41784780105E+02 -0.11098921441E+02 -0.96709407585E+00  0.43244527707E+02  0.00000000000E+00 0. -1.
<scales pt_clust_5="13000.00000" pt_clust_6="13000.00000" pt_clust_7="13000.00000" pt_clust_8="13000.00000" pt_clust_9="13000.00000"></scales>
<clustering>
<clus scale="   78.742">  5  6 -1 -1</clus>
<clus scale="   82.751">  2  5  1 -1</clus>
<clus scale="   86.290">  7  8 -1 -1</clus>
<clus scale="   40.680">  7  9 -1 -1</clus>
<clus scale="  154.214">  1  5  2 -1</clus>
</clustering>
</event>
<event>
 9    2  0.3897980E-005  0.1401740E+03  0.7546771E-02  0.1238185E+00
          2   -1    0    0  502    0 -0.00000000000E+00  0.00000000000E+00  0.50445748857E+03  0.50445748857E+03  0.00000000000E+00 0. -1.
         21   -1    0    0  501  502  0.00000000000E+00 -0.00000000000E+00 -0.25569552999E+02  0.25569552999E+02  0.00000000000E+00 0. -1.
         24    2    1    2    0    0  0.15519472745E+02 -0.63123992736E+00  0.22705455221E+03  0.24181046066E+03  0.81714605217E+02 0.  0.
         23    2    1    2    0    0 -0.31531778410E+02  0.20735118752E+02  0.14581646317E+03  0.17912878488E+03  0.96956085118E+02 0.  0.
        -13    1    3    3    0    0  0.39475433155E+02 -0.15894524439E+02  0.19216247611E+03  0.19681809611E+03  0.00000000000E+00 0.  1.
         14    1    3    3    0    0 -0.23955960410E+02  0.15263284512E+02  0.34892076095E+02  0.44992364547E+02  0.00000000000E+00 0. -1.
        -13    1    4    4    0    0 -0.49952016621E+02 -0.11846750719E+01  0.14163884084E+03  0.15019377036E+03  0.00000000000E+00 0. -1.
         13    1    4    4    0    0  0.18420238211E+02  0.21919793824E+02  0.41776223292E+01  0.28935014521E+02  0.00000000000E+00 0.  1.
          1    1    1    2  501    0  0.16012305665E+02 -0.20103878825E+02  0.10601692019E+03  0.10908779603E+03  0.00000000000E+00 0. -1.
<scales pt_clust_5="13000.00000" pt_clust_6="13000.00000" pt_clust_7="13000.00000" pt_clust_8="13000.00000" pt_clust_9="13000.00000"></scales>
<clustering>
<clus scale="   81.715">  5  6 -1 -1</clus>
<clus scale="   83.178">  1  5  2 -1</clus>
<clus scale="   96.956">  7  8 -1 -1</clus>
<clus scale="   30.115">  7  9 -1 -1</clus>
<clus scale="  140.174">  2  5  1 -1</clus>
</clustering>
</event>
<event>
 9    2  0.3897980E-005  0.2063238E+03  0.7546771E-02  0.1156263E+00
         -3   -1    0    0    0  501 -0.00000000000E+00  0.00000000000E+00  0.11864374326E+03  0.11864374326E+03  0.00000000000E+00 0.  1.
         21   -1    0    0  501  502  0.00000000000E+00 -0.00000000000E+00 -0.35784046490E+03  0.35784046490E+03  0.00000000000E+00 0.  1.
         24    2    1    2    0    0 -0.78351100220E+01 -0.13267216696E+03  0.56378139134E+01  0.15630697212E+03  0.82077961436E+02 0.  0.
         23    2    1    2    0    0 -0.15915848408E+02  0.89065040577E+01 -0.82171729954E+02  0.11440737512E+03  0.77486864909E+02 0.  0.
        -13    1    3    3    0    0 -0.35139794297E+02 -0.11448607712E+03  0.18287926842E+02  0.12114584296E+03  0.00000000000E+00 0.  1.
         14    1    3    3    0    0  0.27304684275E+02 -0.18186089837E+02 -0.12650112928E+02  0.35161129164E+02  0.00000000000E+00 0. -1.
        -11    1    4    4    0    0 -0.43372644376E+02  0.22414419665E+02 -0.54239325810E+02  0.72976002586E+02  0.00000000000E+00 0.  1.
         11    1    4    4    0    0  0.27456795968E+02 -0.13507915607E+02 -0.27932404145E+02  0.41431372536E+02  0.00000000000E+00 0. -1.
         -4    1    1    2    0  502  0.23750958430E+02  0.12376566290E+03 -0.16266280559E+03  0.20576986092E+03  0.00000000000E+00 0.  1.
<scales pt_clust_5="13000.00000" pt_clust_6="13000.00000" pt_clust_7="13000.00000" pt_clust_8="13000.00000" pt_clust_9="13000.00000"></scales>
<clustering>
<clus scale="   77.487">  7  8 -1 -1</clus>
<clus scale="   82.078">  5  6 -1 -1</clus>
<clus scale="  126.024">  7  9 -1 -1</clus>
<clus scale="  156.205">  1  5  2 -1</clus>
<clus scale="  206.324">  2  5  1 -1</clus>
</clustering>
</event>
<event>
 9    2  0.3897980E-005  0.1990893E+03  0.7546771E-02  0.1186705E+00
         21   -1    0    0  501  502  0.00000000000E+00  0.00000000000E+00  0.51040030103E+03  0.51040030103E+03  0.00000000000E+00 0. -1.
          2   -1    0    0  502    0 -0.00000000000E+00 -0.00000000000E+00 -0.60508814730E+02  0.60508814730E+02  0.00000000000E+00 0. -1.
         24    2    1    2    0    0 -0.22628216048E+02  0.12022250291E+02  0.91427907423E+01  0.87281183831E+02  0.82932766533E+02 0.  0.
         23    2    1    2    0    0 -0.40329894671E+00  0.43331186031E+02  0.15219355933E+03  0.18891023609E+03  0.10318160430E+03 0.  0.
        -11    1    3    3    0    0 -0.87944484254E+00 -0.22081060035E+02  0.33450583229E+02  0.40090998414E+02  0.00000000000E+00 0.  1.
         12    1    3    3    0    0 -0.21748771205E+02  0.34103310326E+02 -0.24307792486E+02  0.47190185417E+02  0.00000000000E+00 0. -1.
        -13    1    4    4    0    0  0.39153362270E+02 -0.92011316260E+01  0.89192927453E+02  0.97841836184E+02  0.00000000000E+00 0.  1.
         13    1    4    4    0    0 -0.39556661217E+02  0.52532317657E+02  0.63000631877E+02  0.91068399909E+02  0.00000000000E+00 0. -1.
          1    1    1    2  501    0  0.23031514995E+02 -0.55353436322E+02  0.28855513623E+03  0.29471769584E+03  0.00000000000E+00 0. -1.
<scales pt_clust_5="13000.00000" pt_clust_6="13000.00000" pt_clust_7="13000.00000" pt_clust_8="13000.00000" pt_clust_9="13000.00000"></scales>
<clustering>
<clus scale="   82.933">  5  6 -1 -1</clus>
<clus scale="   86.801">  2  5  1 -1</clus>
<clus scale="  103.182">  7  8 -1 -1</clus>
<clus scale="   57.157">  7  9 -1 -1</clus>
<clus scale="  199.089">  1  5  2 -1</clus>
</clustering>
</event>
<event>
 9    2  0.3897980E-005  0.2697667E+03  0.7546771E-02  0.1127906E+00
         21   -1    0    0  501  502  0.00000000000E+00  0.00000000000E+00  0.22566973062E+03  0.22566973062E+03  0.00000000000E+00 0. -1.
          2   -1    0    0  502    0 -0.00000000000E+00 -0.00000000000E+00 -0.18500273563E+03  0.18500273563E+03  0.00000000000E+00 0. -1.
         24    2    1    2    0    0 -0.11056359451E+03 -0.19651132027E+02  0.21784082539E+01  0.13817394291E+03  0.80478678012E+02 0.  0.
         23    2    1    2    0    0 -0.12463290212E+02  0.88752630601E+02  0.55873774423E+01  0.12760849248E+03  0.90666121153E+02 0.  0.
        -11    1    3    3    0    0 -0.35308682798E+02 -0.27457009887E+02  0.33911383227E+02  0.56129959783E+02  0.00000000000E+00 0.  1.
         12    1    3    3    0    0 -0.75254911712E+02  0.78058778596E+01 -0.31732974974E+02  0.82043983123E+02  0.00000000000E+00 0. -1.
        -11    1    4    4    0    0  0.35179236300E+01  0.48883923652E+02  0.47028125978E+02  0.67923916342E+02  0.00000000000E+00 0. -1.
         11    1    4    4    0    0 -0.15981213842E+02  0.39868706949E+02 -0.41440748535E+02  0.59684576139E+02  0.00000000000E+00 0.  1.
          1    1    1    2  501    0  0.12302688472E+03 -0.69101498574E+02  0.32901209291E+02  0.14489003086E+03  0.00000000000E+00 0. -1.
<scales pt_clust_5="13000.00000" pt_clust_6="13000.00000" pt_clust_7="13000.00000" pt_clust_8="13000.00000" pt_clust_9="13000.00000"></scales>
<clustering>
<clus scale="   80.479">  5  6 -1 -1</clus>
<clus scale="   90.666">  7  8 -1 -1</clus>
<clus scale="  138.157">  2  5  1 -1</clus>
<clus scale="  105.258">  7  9 -1 -1</clus>
<clus scale="  269.767">  1  5  2 -1</clus>
</clustering>
</event>
<event>
 9    2  0.3897980E-005  0.2472422E+03  0.7546771E-02  0.1152522E+00
          2   -1    0    0  502    0 -0.00000000000E+00  0.00000000000E+00  0.43591212196E+03  0.43591212196E+03  0.00000000000E+00 0. -1.
         21   -1    0    0  501  502  0.00000000000E+00 -0.00000000000E+00 -0.91332009235E+02  0.91332009235E+02  0.00000000000E+00 0. -1.
         24    2    1    2    0    0 -0.44061477668E+02 -0.35342391038E+02  0.23836323770E+03  0.25815172411E+03  0.81454165964E+02 0.  0.
         23    2    1    2    0    0  0.95369130263E+02  0.25945321733E+02  0.14871380002E+03  0.20181114104E+03  0.94039946861E+02 0.  0.
        -11    1    3    3    0    0 -0.34365825386E+02 -0.44117545135E+02  0.23860662702E+03  0.24507241828E+03  0.00000000000E+00 0.  1.
         12    1    3    3    0    0 -0.96956522816E+01  0.87751540972E+01 -0.24338931701E+00  0.13079305828E+02  0.00000000000E+00 0. -1.
        -13    1    4    4    0    0  0.88045683411E+02 -0.18501928772E+02  0.84923214728E+02  0.12371869760E+03  0.00000000000E+00 0. -1.
         13    1    4    4    0    0  0.73234468519E+01  0.44447250505E+02  0.63790585291E+02  0.78092443444E+02  0.00000000000E+00 0.  1.
          1    1    1    2  501    0 -0.51307652595E+02  0.93970693052E+01 -0.42496924998E+02  0.67281266045E+02  0.00000000000E+00 0. -1.
<scales pt_clust_5="13000.00000" pt_clust_6="13000.00000" pt_clust_7="13000.00000" pt_clust_8="13000.00000" pt_clust_9="13000.00000"></scales>
<clustering>
<clus scale="   81.454">  5  6 -1 -1</clus>
<clus scale="   94.040">  7  8 -1 -1</clus>
<clus scale="   52.161">  7  9 -1 -1</clus>
<clus scale="   99.123">  1  5  2 -1</clus>
<clus scale="  247.242">  2  5  1 -1</clus>
</clustering>
</event>
<event>
 9    2  0.3897980E-005  0.3697001E+03  0.7546771E-02  0.1070765E+00
         21   -1    0    0  501  502  0.00000000000E+00  0.00000000000E+00  0.77931353021E+02  0.77931353021E+02  0.00000000000E+00 0. -1.
          2   -1    0    0  502    0 -0.00000000000E+00 -0.00000000000E+00 -0.12091006658E+04  0.12091006658E+04  0.00000000000E+00 0. -1.
         24    2    1    2    0    0  0.67856567281E+01 -0.22350780870E+03 -0.54031814734E+03  0.59005048879E+03  0.78829520438E+02 0.  0.
         23    2    1    2    0    0  0.62724877287E+01 -0.31633375142E+02 -0.26933560847E+03  0.28632377447E+03  0.91649437040E+02 0.  0.
        -11    1    3    3    0    0 -0.40962707707E+01 -0.78558347646E+02 -0.10563640145E+03  0.13170893185E+03  0.00000000000E+00 0.  1.
         12    1    3    3    0    0  0.10881927499E+02 -0.14494946106E+03 -0.43468174589E+03  0.45834155694E+03  0.00000000000E+00 0. -1.
        -11    1    4    4    0    0 -0.40175542838E+02 -0.30817314325E+02 -0.14583665418E+03  0.15437652285E+03  0.00000000000E+00 0.  1.
         11    1    4    4    0    0  0.46448030566E+02 -0.81606081708E+00 -0.12349895429E+03  0.13194725162E+03  0.00000000000E+00 0. -1.
          1    1    1    2  501    0 -0.13058144457E+02  0.25514118385E+03 -0.32151555698E+03  0.41065775557E+03  0.00000000000E+00 0. -1.
<scales pt_clust_5="13000.00000" pt_clust_6="13000.00000" pt_clust_7="13000.00000" pt_clust_8="13000.00000" pt_clust_9="13000.00000"></scales>
<clustering>
<clus scale="   78.830">  5  6 -1 -1</clus>
<clus scale="   91.649">  7  8 -1 -1</clus>
<clus scale="  237.099">  2  5  1 -1</clus>
<clus scale="  128.400">  7  9 -1 -1</clus>
<clus scale="  369.700">  1  5  2 -1</clus>
</clustering>
</event>
<event>
 9    2  0.3897980E-005  0.1317872E+03  0.7546771E-02  0.1243321E+00
         21   -1    0    0  501  502  0.00000000000E+00  0.00000000000E+00  0.18559926685E+02  0.18559926685E+02  0.00000000000E+00 0.  1.
          2   -1    0    0  502    0 -0.00000000000E+00 -0.00000000000E+00 -0.11159666532E+04  0.11159666532E+04  0.00000000000E+00 0. -1.
         24    2    1    2    0    0  0.12234061115E+02 -0.32127221569E+02 -0.84488142968E+03  0.84968119617E+03  0.83376701174E+02 0.  0.
         23    2    1    2    0    0 -0.10436450086E+02  0.69031178915E+01 -0.23901236009E+03  0.25617333683E+03  0.91330705142E+02 0.  0.
        -13    1    3    3    0    0  0.42250163235E+02 -0.16242169148E+02 -0.26756245345E+03  0.27136424018E+03  0.00000000000E+00 0.  1.
         14    1    3    3    0    0 -0.30016102121E+02 -0.15885052421E+02 -0.57731897622E+03  0.57831695599E+03  0.00000000000E+00 0. -1.
        -13    1    4    4    0    0  0.28779648217E+02 -0.15965183511E+02 -0.38797407503E+02  0.50876262294E+02  0.00000000000E+00 0.  1.
         13    1    4    4    0    0 -0.39216098304E+02  0.22868301402E+02 -0.20021495259E+03  0.20529707454E+03  0.00000000000E+00 0. -1.
          1    1    1    2  501    0 -0.17976110283E+01  0.25224103678E+02 -0.13512936720E+02  0.28672046849E+02  0.00000000000E+00 0. -1.
<scales pt_clust_5="13000.00000" pt_clust_6="13000.00000" pt_clust_7="13000.00000" pt_clust_8="13000.00000" pt_clust_9="13000.00000"></scales>
<clustering>
<clus scale="   83.377">  5  6 -1 -1</clus>
<clus scale="   90.186">  2  5  1 -1</clus>
<clus scale="   91.331">  7  8 -1 -1</clus>
<clus scale="   22.717">  7  9 -1 -1</clus>
<clus scale="  131.787">  1  5  2 -1</clus>
</clustering>
</event>
<event>
 9    2  0.3897980E-005  0.8817853E+03  0.7546771E-02  0.9672586E-01
          2   -1    0    0  502    0 -0.00000000000E+00  0.00000000000E+00  0.12053370622E+04  0.12053370622E+04  0.00000000000E+00 0. -1.
         21   -1    0    0  501  502  0.00000000000E+00 -0.00000000000E+00 -0.41227804499E+03  0.41227804499E+03  0.00000000000E+00 0. -1.
         24    2    1    2    0    0 -0.62720292130E+02 -0.39381597782E+03  0.58342274519E+03  0.71125273942E+03  0.80458065478E+02 0.  0.
         23    2    1    2    0    0  0.65117217273E+02 -0.12349792023E+03  0.33497259071E+03  0.37407615989E+03  0.90743311538E+02 0.  0.
        -11    1    3    3    0    0 -0.80077320643E+02 -0.32400153317E+03  0.45870049856E+03  0.56727023380E+03  0.00000000000E+00 0.  1.
         12    1    3    3    0    0  0.17357028513E+02 -0.69814444648E+02  0.12472224663E+03  0.14398250562E+03  0.00000000000E+00 0. -1.
        -11    1    4    4    0    0  0.40373490005E+02 -0.50297714352E+02  0.25436851033E+03  0.26241802113E+03  0.00000000000E+00 0.  1.
         11    1    4    4    0    0  0.24743727268E+02 -0.73200205874E+02  0.80604080375E+02  0.11165813876E+03  0.00000000000E+00 0. -1.
          1    1    1    2  501    0 -0.23969251423E+01  0.51731389804E+03 -0.12533631864E+03  0.53228620791E+03  0.00000000000E+00 0. -1.
<scales pt_clust_5="13000.00000" pt_clust_6="13000.00000" pt_clust_7="13000.00000" pt_clust_8="13000.00000" pt_clust_9="13000.00000"></scales>
<clustering>
<clus scale="   80.458">  5  6 -1 -1</clus>
<clus scale="   90.743">  7  8 -1 -1</clus>
<clus scale="  406.815">  1  5  2 -1</clus>
<clus scale="  374.562">  7  9 -1 -1</clus>
<clus scale="  881.785">  2  5  1 -1</clus>
</clustering>
</event>
<event>
 9    2  0.3897980E-005  0.3517662E+03  0.7546771E-02  0.1104220E+00
          2   -1    0    0  502    0 -0.00000000000E+00  0.00000000000E+00  0.25196623977E+03  0.25196623977E+03  0.00000000000E+00 0. -1.
         21   -1    0    0  501  502  0.00000000000E+00 -0.00000000000E+00 -0.31146057468E+03  0.31146057468E+03  0.00000000000E+00 0. -1.
         24    2    1    2    0    0  0.31389651734E+02 -0.71855455817E+02  0.12299910611E+03  0.16713986880E+03  0.81599257805E+02 0.  0.
         23    2    1    2    0    0 -0.11486971773E+03 -0.46522470537E+02  0.11138452574E+02  0.15446973146E+03  0.91528358963E+02 0.  0.
        -13    1    3    3    0    0 -0.19354413577E+02 -0.16572824152E+02  0.30646423458E+01  0.25664057707E+02  0.00000000000E+00 0.  1.
         14    1    3    3    0    0  0.50744065312E+02 -0.55282631665E+02  0.11993446376E+03  0.14147581110E+03  0.00000000000E+00 0. -1.
        -11    1    4    4    0    0 -0.80822094947E+01 -0.46361118922E+02  0.72136478970E+01  0.47610000777E+02  0.00000000000E+00 0.  1.
         11    1    4    4    0    0 -0.10678750823E+03 -0.16135161495E+00  0.39248046766E+01  0.10685973068E+03  0.00000000000E+00 0. -1.
          1    1    1    2  501    0  0.83480065993E+02  0.11837792635E+03 -0.19363189359E+03  0.24181721419E+03  0.00000000000E+00 0. -1.
<scales pt_clust_5="13000.00000" pt_clust_6="13000.00000" pt_clust_7="13000.00000" pt_clust_8="13000.00000" pt_clust_9="13000.00000"></scales>
<clustering>
<clus scale="   81.599">  5  6 -1 -1</clus>
<clus scale="   91.528">  7  8 -1 -1</clus>
<clus scale="  113.168">  1  5  2 -1</clus>
<clus scale="  136.534">  7  9 -1 -1</clus>
<clus scale="  351.766">  2  5  1 -1</clus>
</clustering>
</event>
<event>
 9    2  0.3897980E-005  0.2989003E+03  0.7546771E-02  0.1129250E+00
         21   -1    0    0  501  502  0.00000000000E+00  0.00000000000E+00  0.45832082211E+02  0.45832082211E+02  0.00000000000E+00 0.  1.
         -1   -1    0    0    0  501 -0.00000000000E+00 -0.00000000000E+00 -0.86121692191E+03  0.86121692191E+03  0.00000000000E+00 0.  1.
         24    2    1    2    0    0  0.36053363773E+02 -0.42836479061E+02 -0.21384699660E+03  0.23534285593E+03  0.80752169674E+02 0.  0.
         23    2    1    2    0    0 -0.61531177596E+01 -0.11030295711E+03 -0.29064005514E+03  0.32385108328E+03  0.90571956390E+02 0.  0.
        -13    1    3    3    0    0  0.39455220211E+02  0.52068489200E+01 -0.46511782683E+02  0.61214145473E+02  0.00000000000E+00 0.  1.
         14    1    3    3    0    0 -0.34018564382E+01 -0.48043327981E+02 -0.16733521391E+03  0.17412871046E+03  0.00000000000E+00 0. -1.
        -13    1    4    4    0    0  0.22146101427E+02  0.61117041981E+01 -0.42956855492E+02  0.48714414400E+02  0.00000000000E+00 0. -1.
         13    1    4    4    0    0 -0.28299219187E+02 -0.11641466131E+03 -0.24768319965E+03  0.27513666888E+03  0.00000000000E+00 0.  1.
         -2    1    1    2    0  502 -0.29900246013E+02  0.15313943617E+03 -0.31089778796E+03  0.34785506491E+03  0.00000000000E+00 0.  1.
<scales pt_clust_5="13000.00000" pt_clust_6="13000.00000" pt_clust_7="13000.00000" pt_clust_8="13000.00000" pt_clust_9="13000.00000"></scales>
<clustering>
<clus scale="   80.752">  5  6 -1 -1</clus>
<clus scale="   90.572">  7  8 -1 -1</clus>
<clus scale="   98.264">  2  5  1 -1</clus>
<clus scale="  131.459">  7  9 -1 -1</clus>
<clus scale="  298.900">  1  5  2 -1</clus>
</clustering>
</event>
<event>
 9    2  0.3897980E-005  0.2144329E+03  0.7546771E-02  0.1176985E+00
         21   -1    0    0  501  502  0.00000000000E+00  0.00000000000E+00  0.36863136012E+02  0.36863136012E+02  0.00000000000E+00 0.  1.
          2   -1    0    0  502    0 -0.00000000000E+00 -0.00000000000E+00 -0.61606533736E+03  0.61606533736E+03  0.00000000000E+00 0. -1.
         24    2    1    2    0    0  0.13221864472E+02 -0.14785180707E+02 -0.18529710857E+03  0.20443914548E+03  0.84065013484E+02 0.  0.
         23    2    1    2    0    0  0.66388820724E+02 -0.41677353494E+02 -0.21846230543E+03  0.24772565937E+03  0.86589526532E+02 0.  0.
        -11    1    3    3    0    0 -0.40902249450E+01  0.26437887736E+02 -0.20553881112E+02  0.33736536230E+02  0.00000000000E+00 0.  1.
         12    1    3    3    0    0  0.17312089417E+02 -0.41223068443E+02 -0.16474322746E+03  0.17070260925E+03  0.00000000000E+00 0. -1.
        -13    1    4    4    0    0  0.52922157686E+02 -0.68597271674E+02 -0.16556414716E+03  0.18686312445E+03  0.00000000000E+00 0.  1.
         13    1    4    4    0    0  0.13466663038E+02  0.26919918180E+02 -0.52898158266E+02  0.60862534914E+02  0.00000000000E+00 0. -1.
          1    1    1    2  501    0 -0.79610685196E+02  0.56462534201E+02 -0.17544278735E+03  0.20076366852E+03  0.00000000000E+00 0. -1.
<scales pt_clust_5="13000.00000" pt_clust_6="13000.00000" pt_clust_7="13000.00000" pt_clust_8="13000.00000" pt_clust_9="13000.00000"></scales>
<clustering>
<clus scale="   84.065">  5  6 -1 -1</clus>
<clus scale="   86.373">  2  5  1 -1</clus>
<clus scale="   86.590">  7  8 -1 -1</clus>
<clus scale="   88.986">  7  9 -1 -1</clus>
<clus scale="  214.433">  1  5  2 -1</clus>
</clustering>
</event>
<event>
 9    2  0.3897980E-005  0.7492529E+03  0.7546771E-02  0.9655712E-01
         21   -1    0    0  501  502  0.00000000000E+00  0.00000000000E+00  0.16135888097E+04  0.16135888097E+04  0.00000000000E+00 0. -1.
          2   -1    0    0  502    0 -0.00000000000E+00 -0.00000000000E+00 -0.32943353274E+03  0.32943353274E+03  0.00000000000E+00 0. -1.
         24    2    1    2    0    0 -0.64359494857E+03  0.26914621028E+03  0.71562023994E+03  0.10024841942E+04  0.78791442361E+02 0.  0.
         23    2    1    2    0    0  0.27351390923E+03 -0.15773165800E+03  0.40346680162E+03  0.52027549178E+03  0.90620046628E+02 0.  0.
        -11    1    3    3    0    0 -0.41235053693E+03  0.14973321734E+03  0.40291822567E+03  0.59564762928E+03  0.00000000000E+00 0.  1.
         12    1    3    3    0    0 -0.23124441164E+03  0.11941299295E+03  0.31270201426E+03  0.40683656488E+03  0.00000000000E+00 0. -1.
        -13    1    4    4    0    0  0.85590789798E+02 -0.82289648362E+02  0.98868370461E+02  0.15450671249E+03  0.00000000000E+00 0.  1.
         13    1    4    4    0    0  0.18792311944E+03 -0.75442009641E+02  0.30459843116E+03  0.36576877929E+03  0.00000000000E+00 0. -1.
          1    1    1    2  501    0  0.37008103934E+03 -0.11141455228E+03  0.16506823543E+03  0.42026265654E+03  0.00000000000E+00 0. -1.
<scales pt_clust_5="13000.00000" pt_clust_6="13000.00000" pt_clust_7="13000.00000" pt_clust_8="13000.00000" pt_clust_9="13000.00000"></scales>
<clustering>
<clus scale="   78.791">  5  6 -1 -1</clus>
<clus scale="   90.620">  7  8 -1 -1</clus>
<clus scale="  386.488">  7  9 -1 -1</clus>
<clus scale="  702.042">  2  5  1 -1</clus>
<clus scale="  749.253">  1  5  2 -1</clus>
</clustering>
</event>
<event>
 9    2  0.3897980E-005  0.3791560E+03  0.7546771E-02  0.1069925E+00
         -1   -1    0    0    0  501 -0.00000000000E+00  0.00000000000E+00  0.22049213522E+03  0.22049213522E+03  0.00000000000E+00 0.  1.
         21   -1    0    0  501  502  0.00000000000E+00 -0.00000000000E+00 -0.55553777627E+03  0.55553777627E+03  0.00000000000E+00 0.  1.
         24    2    1    2    0    0  0.10077443670E+03  0.18416259192E+03 -0.32687417135E+03  0.39678586132E+03  0.80752390004E+02 0.  0.
         23    2    1    2    0    0 -0.20249857453E+02  0.62936415318E+02 -0.18741463746E+02  0.11914050922E+03  0.97325070635E+02 0.  0.
        -13    1    3    3    0    0  0.91109325461E+02  0.95170722051E+02 -0.15861271734E+03  0.20619497963E+03  0.00000000000E+00 0.  1.
         14    1    3    3    0    0  0.96651112379E+01  0.88991869870E+02 -0.16826145401E+03  0.19059088169E+03  0.00000000000E+00 0. -1.
        -11    1    4    4    0    0  0.39284022593E+02  0.29505314548E+02 -0.11667163276E+02  0.50496739663E+02  0.00000000000E+00 0. -1.
         11    1    4    4    0    0 -0.59533880046E+02  0.33431100770E+02 -0.70743004705E+01  0.68643769558E+02  0.00000000000E+00 0.  1.
         -2    1    1    2    0  502 -0.80524579246E+02 -0.24709900724E+03  0.10569994050E+02  0.26010354095E+03  0.00000000000E+00 0.  1.
<scales pt_clust_5="13000.00000" pt_clust_6="13000.00000" pt_clust_7="13000.00000" pt_clust_8="13000.00000" pt_clust_9="13000.00000"></scales>
<clustering>
<clus scale="   80.752">  5  6 -1 -1</clus>
<clus scale="   97.325">  7  8 -1 -1</clus>
<clus scale="  224.927">  1  5  2 -1</clus>
<clus scale="  112.982">  7  9 -1 -1</clus>
<clus scale="  379.156">  2  5  1 -1</clus>
</clustering>
</event>
<event>
 9    2  0.3897980E-005  0.2204066E+03  0.7546771E-02  0.1167689E+00
         -3   -1    0    0    0  501 -0.00000000000E+00  0.00000000000E+00  0.23151242993E+03  0.23151242993E+03  0.00000000000E+00 0.  1.
         21   -1    0    0  501  502  0.00000000000E+00 -0.00000000000E+00 -0.11179889498E+03  0.11179889498E+03  0.00000000000E+00 0.  1.
         24    2    1    2    0    0  0.19577505148E+02  0.55698914002E+02  0.59197632484E+02  0.11474789911E+03  0.78594356861E+02 0.  0.
         23    2    1    2    0    0  0.38869214611E+02 -0.98845064106E+02  0.10130655566E+02  0.14015368412E+03  0.90880484415E+02 0.  0.
        -11    1    3    3    0    0  0.44027046671E+02  0.58899696247E+02  0.46599734148E+02  0.87057970797E+02  0.00000000000E+00 0.  1.
         12    1    3    3    0    0 -0.24449541524E+02 -0.32007822450E+01  0.12597898336E+02  0.27689928317E+02  0.00000000000E+00 0. -1.
        -13    1    4    4    0    0  0.33183387701E+02 -0.53470828284E+02 -0.38200533373E+02  0.73617575664E+02  0.00000000000E+00 0.  1.
         13    1    4    4    0    0  0.56858269096E+01 -0.45374235822E+02  0.48331188939E+02  0.66536108455E+02  0.00000000000E+00 0. -1.
         -4    1    1    2    0  502 -0.58446719759E+02  0.43146150104E+02  0.50385246896E+02  0.88409741681E+02  0.00000000000E+00 0.  1.
<scales pt_clust_5="13000.00000" pt_clust_6="13000.00000" pt_clust_7="13000.00000" pt_clust_8="13000.00000" pt_clust_9="13000.00000"></scales>
<clustering>
<clus scale="   78.594">  5  6 -1 -1</clus>
<clus scale="   90.880">  7  8 -1 -1</clus>
<clus scale="   72.647">  7  9 -1 -1</clus>
<clus scale="   98.299">  1  5  2 -1</clus>
<clus scale="  220.407">  2  5  1 -1</clus>
</clustering>
</event>
<event>
 9    2  0.3897980E-005  0.2738154E+03  0.7546771E-02  0.1122634E+00
         21   -1    0    0  501  502  0.00000000000E+00  0.00000000000E+00  0.37021492853E+02  0.37021492853E+02  0.00000000000E+00 0.  1.
          2   -1    0    0  502    0 -0.00000000000E+00 -0.00000000000E+00 -0.14828478361E+04  0.14828478361E+04  0.00000000000E+00 0. -1.
         24    2    1    2    0    0 -0.10935372212E+03 -0.65298854992E+02 -0.23973772370E+03  0.28308938250E+03  0.80269828165E+02 0.  0.
         23    2    1    2    0    0 -0.33019878058E+02 -0.27466968771E+02 -0.50311142929E+03  0.51355614284E+03  0.93669924994E+02 0.  0.
        -13    1    3    3    0    0 -0.87378174799E+02 -0.13654727856E+02 -0.10597700466E+03  0.13803087532E+03  0.00000000000E+00 0.  1.
         14    1    3    3    0    0 -0.21975547322E+02 -0.51644127136E+02 -0.13376071904E+03  0.14505850718E+03  0.00000000000E+00 0. -1.
        -11    1    4    4    0    0 -0.23278157522E+02  0.32186879941E+02 -0.14332206898E+03  0.14872485776E+03  0.00000000000E+00 0.  1.
         11    1    4    4    0    0 -0.97417205362E+01 -0.59653848712E+02 -0.35978936031E+03  0.36483128509E+03  0.00000000000E+00 0. -1.
          1    1    1    2  501    0  0.14237360018E+03  0.92765823762E+02 -0.70297719022E+03  0.72322380357E+03  0.00000000000E+00 0. -1.
<scales pt_clust_5="13000.00000" pt_clust_6="13000.00000" pt_clust_7="13000.00000" pt_clust_8="13000.00000" pt_clust_9="13000.00000"></scales>
<clustering>
<clus scale="   80.270">  5  6 -1 -1</clus>
<clus scale="   93.670">  7  8 -1 -1</clus>
<clus scale="  150.550">  2  5  1 -1</clus>
<clus scale="   95.671">  7  9 -1 -1</clus>
<clus scale="  273.815">  1  5  2 -1</clus>
</clustering>
</event>
<event>
 9    2  0.3897980E-005  0.4240622E+03  0.7546771E-02  0.1081679E+00
          2   -1    0    0  502    0 -0.00000000000E+00  0.00000000000E+00  0.10471454825E+04  0.10471454825E+04  0.00000000000E+00 0. -1.
         21   -1    0    0  501  502  0.00000000000E+00 -0.00000000000E+00 -0.78447342235E+02  0.78447342235E+02  0.00000000000E+00 0. -1.
         24    2    1    2    0    0 -0.83926880326E+02  0.13467855465E+02  0.82105514681E+02  0.14280330626E+03  0.80164607943E+02 0.  0.
         23    2    1    2    0    0  0.33623959019E+02  0.17403786615E+03  0.26590309303E+03  0.33244785799E+03  0.91637186377E+02 0.  0.
        -13    1    3    3    0    0 -0.21448558391E+02  0.40367062965E+02  0.49472670589E+02  0.67357891629E+02  0.00000000000E+00 0.  1.
         14    1    3    3    0    0 -0.62478321935E+02 -0.26899207499E+02  0.32632844092E+02  0.75445414635E+02  0.00000000000E+00 0. -1.
        -11    1    4    4    0    0 -0.25907938792E+02  0.15614616032E+02  0.43126337085E+02  0.52677494973E+02  0.00000000000E+00 0.  1.
         11    1    4    4    0    0  0.59531897811E+02  0.15842325012E+03  0.22277675595E+03  0.27977036302E+03  0.00000000000E+00 0. -1.
          1    1    1    2  501    0  0.50302921307E+02 -0.18750572162E+03  0.62068953254E+03  0.65034166047E+03  0.00000000000E+00 0. -1.
<scales pt_clust_5="13000.00000" pt_clust_6="13000.00000" pt_clust_7="13000.00000" pt_clust_8="13000.00000" pt_clust_9="13000.00000"></scales>
<clustering>
<clus scale="   80.165">  5  6 -1 -1</clus>
<clus scale="   91.637">  7  8 -1 -1</clus>
<clus scale="  116.840">  1  5  2 -1</clus>
<clus scale="  178.477">  7  9 -1 -1</clus>
<clus scale="  424.062">  2  5  1 -1</clus>
</clustering>
</event>
<event>
 9    2  0.3897980E-005  0.1457405E+03  0.7546771E-02  0.1226026E+00
          2   -1    0    0  502    0 -0.00000000000E+00  0.00000000000E+00  0.10948428262E+04  0.10948428262E+04  0.00000000000E+00 0. -1.
         21   -1    0    0  501  502  0.00000000000E+00 -0.00000000000E+00 -0.15087939999E+02  0.15087939999E+02  0.00000000000E+00 0. -1.
         24    2    1    2    0    0 -0.40528090595E+02 -0.39232926312E+02  0.63061201377E+03  0.63773417138E+03  0.76495835251E+02 0.  0.
         23    2    1    2    0    0 -0.27846520148E+01  0.93193511832E+01  0.31465784915E+03  0.32777693847E+03  0.91288305763E+02 0.  0.
        -11    1    3    3    0    0  0.22235186666E+02 -0.89859716076E+01  0.11830151218E+03  0.12070790776E+03  0.00000000000E+00 0.  1.
         12    1    3    3    0    0 -0.62763277262E+02 -0.30246954704E+02  0.51231050159E+03  0.51702626362E+03  0.00000000000E+00 0. -1.
        -11    1    4    4    0    0  0.35149004506E+02 -0.12112067374E+02  0.69902550687E+02  0.79173993751E+02  0.00000000000E+00 0. -1.
         11    1    4    4    0    0 -0.37933656521E+02  0.21431418557E+02  0.24475529846E+03  0.24860294472E+03  0.00000000000E+00 0.  1.
          1    1    1    2  501    0  0.43312742610E+02  0.29913575128E+02  0.13448502325E+03  0.14441965630E+03  0.00000000000E+00 0. -1.
<scales pt_clust_5="13000.00000" pt_clust_6="13000.00000" pt_clust_7="13000.00000" pt_clust_8="13000.00000" pt_clust_9="13000.00000"></scales>
<clustering>
<clus scale="   76.496">  5  6 -1 -1</clus>
<clus scale="   91.288">  7  8 -1 -1</clus>
<clus scale="   52.639">  7  9 -1 -1</clus>
<clus scale="   95.044">  1  5  2 -1</clus>
<clus scale="  145.741">  2  5  1 -1</clus>
</clustering>
</event>
<event>
 9    2  0.3897980E-005  0.1612961E+03  0.7546771E-02  0.1216922E+00
         -3   -1    0    0    0  501 -0.00000000000E+00  0.00000000000E+00  0.64893538601E+03  0.64893538601E+03  0.00000000000E+00 0.  1.
         21   -1    0    0  501  502  0.00000000000E+00 -0.00000000000E+00 -0.24099769165E+02  0.24099769165E+02  0.00000000000E+00 0.  1.
         24    2    1    2    0    0  0.18485019036E+02  0.12572435155E+02  0.27533828565E+03  0.28811332558E+03  0.81843477312E+02 0.  0.
         23    2    1    2    0    0 -0.40008229685E+02  0.15895569887E+02  0.32714475164E+03  0.34281109794E+03  0.92964685549E+02 0.  0.
        -11    1    3    3    0    0 -0.15924674756E+02  0.28622654109E+02  0.51192003295E+02  0.60773948331E+02  0.00000000000E+00 0.  1.
         12    1    3    3    0    0  0.34409693792E+02 -0.16050218954E+02  0.22414628235E+03  0.22733937725E+03  0.00000000000E+00 0. -1.
        -13    1    4    4    0    0 -0.58512976196E+01  0.44944974461E+02  0.24563932145E+03  0.24978583758E+03  0.00000000000E+00 0. -1.
         13    1    4    4    0    0 -0.34156932066E+02 -0.29049404574E+02  0.81505430189E+02  0.93025260357E+02  0.00000000000E+00 0.  1.
         -4    1    1    2    0  502  0.21523210650E+02 -0.28468005042E+02  0.22352579553E+02  0.42110731654E+02  0.00000000000E+00 0.  1.
<scales pt_clust_5="13000.00000" pt_clust_6="13000.00000" pt_clust_7="13000.00000" pt_clust_8="13000.00000" pt_clust_9="13000.00000"></scales>
<clustering>
<clus scale="   81.843">  5  6 -1 -1</clus>
<clus scale="   84.842">  1  5  2 -1</clus>
<clus scale="   92.965">  7  8 -1 -1</clus>
<clus scale="   35.840">  7  9 -1 -1</clus>
<clus scale="  161.296">  2  5  1 -1</clus>
</clustering>
</event>
<event>
 9    2  0.3897980E-005  0.5513217E+03  0.7546771E-02  0.1060304E+00
         21   -1    0    0  501  502  0.00000000000E+00  0.00000000000E+00  0.71725608620E+03  0.71725608620E+03  0.00000000000E+00 0. -1.
          2   -1    0    0  502    0 -0.00000000000E+00 -0.00000000000E+00 -0.14972507435E+03  0.14972507435E+03  0.00000000000E+00 0. -1.
         24    2    1    2    0    0 -0.47708318489E+02  0.16599449208E+02  0.38773228704E+02  0.10308299026E+03  0.81062409592E+02 0.  0.
         23    2    1    2    0    0  0.92912947289E+02  0.98448645583E+02 -0.51018174833E+02  0.17109155425E+03  0.91348312425E+02 0.  0.
        -13    1    3    3    0    0 -0.87510381449E+01 -0.29117541582E+02  0.29396139566E+02  0.42291191965E+02  0.00000000000E+00 0.  1.
         14    1    3    3    0    0 -0.38957280344E+02  0.45716990791E+02  0.93770891378E+01  0.60791798291E+02  0.00000000000E+00 0. -1.
        -13    1    4    4    0    0 -0.30688029203E+01  0.57681252875E+02 -0.28483108527E+02  0.64403664151E+02  0.00000000000E+00 0.  1.
         13    1    4    4    0    0  0.95981750209E+02  0.40767392708E+02 -0.22535066306E+02  0.10668789010E+03  0.00000000000E+00 0. -1.
          1    1    1    2  501    0 -0.45204628800E+02 -0.11504809479E+03  0.57977595797E+03  0.59280661604E+03  0.00000000000E+00 0. -1.
<scales pt_clust_5="13000.00000" pt_clust_6="13000.00000" pt_clust_7="13000.00000" pt_clust_8="13000.00000" pt_clust_9="13000.00000"></scales>
<clustering>
<clus scale="   81.062">  5  6 -1 -1</clus>
<clus scale="   91.348">  7  8 -1 -1</clus>
<clus scale="   95.513">  2  5  1 -1</clus>
<clus scale="  123.753">  7  9 -1 -1</clus>
<clus scale="  551.322">  1  5  2 -1</clus>
</clustering>
</event>
<event>
 9    2  0.3897980E-005  0.1637729E+03  0.7546771E-02  0.1198107E+00
         21   -1    0    0  501  502  0.00000000000E+00  0.00000000000E+00  0.29660253133E+02  0.29660253133E+02  0.00000000000E+00 0. -1.
          2   -1    0    0  502    0 -0.00000000000E+00 -0.00000000000E+00 -0.85389055166E+03  0.85389055166E+03  0.00000000000E+00 0. -1.
         24    2    1    2    0    0 -0.89922774235E+02  0.21412190497E+02 -0.55753019224E+03  0.57058035951E+03  0.78596718590E+02 0.  0.
         23    2    1    2    0    0  0.62297863903E+02  0.13002442323E+02 -0.22930003674E+03  0.25512351084E+03  0.91975059539E+02 0.  0.
        -11    1    3    3    0    0 -0.18862711611E+02  0.34692316195E+02 -0.10249952060E+03  0.10984311729E+03  0.00000000000E+00 0.  1.
         12    1    3    3    0    0 -0.71060062624E+02 -0.13280125698E+02 -0.45503067164E+03  0.46073724222E+03  0.00000000000E+00 0. -1.
        -13    1    4    4    0    0  0.12326040796E+02  0.46725764211E+02 -0.13302722376E+03  0.14153257782E+03  0.00000000000E+00 0. -1.
         13    1    4    4    0    0  0.49971823107E+02 -0.33723321889E+02 -0.96272812987E+02  0.11359093302E+03  0.00000000000E+00 0.  1.
          1    1    1    2  501    0  0.27624910332E+02 -0.34414632820E+02 -0.37400069546E+02  0.57846934448E+02  0.00000000000E+00 0. -1.
<scales pt_clust_5="13000.00000" pt_clust_6="13000.00000" pt_clust_7="13000.00000" pt_clust_8="13000.00000" pt_clust_9="13000.00000"></scales>
<clustering>
<clus scale="   78.597">  5  6 -1 -1</clus>
<clus scale="   91.975">  7  8 -1 -1</clus>
<clus scale="   44.131">  7  9 -1 -1</clus>
<clus scale="  121.334">  2  5  1 -1</clus>
<clus scale="  163.773">  1  5  2 -1</clus>
</clustering>
</event>
<event>
 9    2  0.3897980E-005  0.3175742E+03  0.7546771E-02  0.1108575E+00
         -1   -1    0    0    0  501 -0.00000000000E+00  0.00000000000E+00  0.24896816591E+03  0.24896816591E+03  0.00000000000E+00 0.  1.
         21   -1    0    0  501  502  0.00000000000E+00 -0.00000000000E+00 -0.21075349179E+03  0.21075349179E+03  0.00000000000E+00 0.  1.
         24    2    1    2    0    0 -0.10344544069E+03 -0.26265302251E+02 -0.12533934393E+02  0.13811816389E+03  0.86768095431E+02 0.  0.
         23    2    1    2    0    0 -0.35761126818E+02  0.93711447440E+02 -0.41315310009E+02  0.14159456061E+03  0.91002039431E+02 0.  0.
        -13    1    3    3    0    0 -0.10861667272E+03 -0.39612546699E+02 -0.25959613945E+02  0.11849319392E+03  0.00000000000E+00 0.  1.
         14    1    3    3    0    0  0.51712320327E+01  0.13347244449E+02  0.13425679552E+02  0.19624969975E+02  0.00000000000E+00 0. -1.
        -13    1    4    4    0    0  0.14702284161E+01  0.35944322018E+02 -0.60370404947E+02  0.70276181245E+02  0.00000000000E+00 0.  1.
         13    1    4    4    0    0 -0.37231355234E+02  0.57767125422E+02  0.19055094939E+02  0.71318379364E+02  0.00000000000E+00 0. -1.
         -2    1    1    2    0  502  0.13920656751E+03 -0.67446145190E+02  0.92063918515E+02  0.18000893320E+03  0.00000000000E+00 0.  1.
<scales pt_clust_5="13000.00000" pt_clust_6="13000.00000" pt_clust_7="13000.00000" pt_clust_8="13000.00000" pt_clust_9="13000.00000"></scales>
<clustering>
<clus scale="   86.768">  5  6 -1 -1</clus>
<clus scale="   91.002">  7  8 -1 -1</clus>
<clus scale="  137.548">  1  5  2 -1</clus>
<clus scale="  107.488">  7  9 -1 -1</clus>
<clus scale="  317.574">  2  5  1 -1</clus>
</clustering>
</event>
<event>
 9    2  0.4916791E-005  0.6620597E+03  0.7546771E-02  0.1044056E+00
          2   -1    0    0  502    0 -0.00000000000E+00  0.00000000000E+00  0.38572313843E+03  0.38572313843E+03  0.00000000000E+00 0. -1.
         21   -1    0    0  501  502  0.00000000000E+00 -0.00000000000E+00 -0.41031652476E+03  0.41031652476E+03  0.00000000000E+00 0. -1.
         24    2    1    2    0    0 -0.42953398142E+02 -0.18019528667E+01  0.88415875432E+02  0.12440428880E+03  0.76228725545E+02 0.  0.
         23    2    1    2    0    0 -0.92250522990E+02 -0.19066581747E+03  0.18239434515E+03  0.29402812619E+03  0.91220770124E+02 0.  0.
        -13    1    3    3    0    0  0.13405305986E+02 -0.23330175612E+02  0.31959365355E+02  0.41777988901E+02  0.00000000000E+00 0.  1.
         14    1    3    3    0    0 -0.56358704128E+02  0.21528222746E+02  0.56456510077E+02  0.82626299903E+02  0.00000000000E+00 0. -1.
        -11    1    4    4    0    0 -0.21159097526E+02  0.33522326440E+01  0.31793796807E+02  0.38337845365E+02  0.00000000000E+00 0.  1.
         11    1    4    4    0    0 -0.71091425463E+02 -0.19401805012E+03  0.15060054834E+03  0.25569028082E+03  0.00000000000E+00 0. -1.
          1    1    1    2  501    0  0.13520392113E+03  0.19246777034E+03 -0.29540360691E+03  0.37760724819E+03  0.00000000000E+00 0. -1.
<scales pt_clust_5="13000.00000" pt_clust_6="13000.00000" pt_clust_7="13000.00000" pt_clust_8="13000.00000" pt_clust_9="13000.00000"></scales>
<clustering>
<clus scale="   76.229">  5  6 -1 -1</clus>
<clus scale="   87.516">  1  5  2 -1</clus>
<clus scale="   91.221">  7  8 -1 -1</clus>
<clus scale="  231.415">  7  9 -1 -1</clus>
<clus scale="  662.060">  2  5  1 -1</clus>
</clustering>
</event>
<event>
 9    2  0.5967114E-005  0.5876421E+03  0.7546771E-02  0.9983143E-01
          2   -1    0    0  502    0 -0.00000000000E+00  0.00000000000E+00  0.92366656299E+03  0.92366656299E+03  0.00000000000E+00 0. -1.
         21   -1    0    0  501  502  0.00000000000E+00 -0.00000000000E+00 -0.37531225550E+03  0.37531225550E+03  0.00000000000E+00 0. -1.
         24    2    1    2    0    0 -0.40613824716E+03 -0.28032141663E+03  0.50525297306E+03  0.70975819065E+03  0.70340244422E+02 0.  0.
         23    2    1    2    0    0  0.47074908553E+02 -0.36224167088E+02  0.14675407806E+02  0.10970459995E+03  0.91057643058E+02 0.  0.
        -13    1    3    3    0    0 -0.11858922919E+03 -0.50939371079E+02  0.15674523433E+03  0.20304505237E+03  0.00000000000E+00 0.  1.
         14    1    3    3    0    0 -0.28754901796E+03 -0.22938204555E+03  0.34850773873E+03  0.50671313828E+03  0.00000000000E+00 0. -1.
        -13    1    4    4    0    0  0.29906493183E+02 -0.24863452666E+02 -0.37246279515E+02  0.53850487005E+02  0.00000000000E+00 0.  1.
         13    1    4    4    0    0  0.17168415370E+02 -0.11360714422E+02  0.51921687321E+02  0.55854112944E+02  0.00000000000E+00 0. -1.
          1    1    1    2  501    0  0.35906333860E+03  0.31654558372E+03  0.28425926627E+02  0.47951602789E+03  0.00000000000E+00 0. -1.
<scales pt_clust_5="13000.00000" pt_clust_6="13000.00000" pt_clust_7="13000.00000" pt_clust_8="13000.00000" pt_clust_9="13000.00000"></scales>
<clustering>
<clus scale="   70.340">  5  6 -1 -1</clus>
<clus scale="   91.058">  7  8 -1 -1</clus>
<clus scale="  478.673">  7  9 -1 -1</clus>
<clus scale="  498.474">  1  5  2 -1</clus>
<clus scale="  587.642">  2  5  1 -1</clus>
</clustering>
</event>
<event>
 9    2  0.3897980E-005  0.3300363E+03  0.7546771E-02  0.1116574E+00
         21   -1    0    0  501  502  0.00000000000E+00  0.00000000000E+00  0.15705907181E+04  0.15705907181E+04  0.00000000000E+00 0. -1.
          2   -1    0    0  502    0 -0.00000000000E+00 -0.00000000000E+00 -0.29444076959E+02  0.29444076959E+02  0.00000000000E+00 0. -1.
         24    2    1    2    0    0 -0.21470883375E+02 -0.49348123765E+02  0.36022410984E+03  0.37386109102E+03  0.84347317198E+02 0.  0.
         23    2    1    2    0    0 -0.12973372874E+03 -0.26022204442E+02  0.62788311986E+03  0.64790377424E+03  0.89633102009E+02 0.  0.
        -13    1    3    3    0    0  0.11228431758E+01  0.22968948932E+02  0.60900385134E+02  0.65097544511E+02  0.00000000000E+00 0.  1.
         14    1    3    3    0    0 -0.22593726551E+02 -0.72317072697E+02  0.29932372470E+03  0.30876354651E+03  0.00000000000E+00 0. -1.
        -13    1    4    4    0    0 -0.73895055464E+02 -0.43902897213E+02  0.49849668329E+03  0.50585263354E+03  0.00000000000E+00 0.  1.
         13    1    4    4    0    0 -0.55838673278E+02  0.17880692771E+02  0.12938643657E+03  0.14205114071E+03  0.00000000000E+00 0. -1.
          1    1    1    2  501    0  0.15120461212E+03  0.75370328207E+02  0.55303941148E+03  0.57826992983E+03  0.00000000000E+00 0. -1.
<scales pt_clust_5="13000.00000" pt_clust_6="13000.00000" pt_clust_7="13000.00000" pt_clust_8="13000.00000" pt_clust_9="13000.00000"></scales>
<clustering>
<clus scale="   84.347">  5  6 -1 -1</clus>
<clus scale="   89.633">  7  8 -1 -1</clus>
<clus scale="  100.054">  2  5  1 -1</clus>
<clus scale="  147.228">  7  9 -1 -1</clus>
<clus scale="  330.036">  1  5  2 -1</clus>
</clustering>
</event>
<event>
 9    2  0.3897980E-005  0.1629685E+03  0.7546771E-02  0.1204164E+00
         -1   -1    0    0    0  501 -0.00000000000E+00  0.00000000000E+00  0.51571872611E+02  0.51571872611E+02  0.00000000000E+00 0.  1.
         21   -1    0    0  501  502  0.00000000000E+00 -0.00000000000E+00 -0.39988673790E+03  0.39988673790E+03  0.00000000000E+00 0.  1.
         24    2    1    2    0    0 -0.57471011565E+02 -0.42182413658E+02 -0.21618907797E+03  0.24165884568E+03  0.81111078597E+02 0.  0.
         23    2    1    2    0    0  0.29614349217E+02  0.68358560246E+02 -0.12197260156E+03  0.17024889292E+03  0.92506581234E+02 0.  0.
        -13    1    3    3    0    0 -0.32654140168E+02 -0.51550435787E+02 -0.20311919893E+03  0.21208759812E+03  0.00000000000E+00 0.  1.
         14    1    3    3    0    0 -0.24816871397E+02  0.93680221285E+01 -0.13069879036E+02  0.29571247565E+02  0.00000000000E+00 0. -1.
        -13    1    4    4    0    0  0.33626505171E+02  0.90336900036E+02 -0.97258089116E+02  0.13693295168E+03  0.00000000000E+00 0.  1.
         13    1    4    4    0    0 -0.40121559543E+01 -0.21978339790E+02 -0.24714512440E+02  0.33315941237E+02  0.00000000000E+00 0. -1.
         -2    1    1    2    0  502  0.27856662348E+02 -0.26176146588E+02 -0.10153185762E+02  0.39550871906E+02  0.00000000000E+00 0.  1.
<scales pt_clust_5="13000.00000" pt_clust_6="13000.00000" pt_clust_7="13000.00000" pt_clust_8="13000.00000" pt_clust_9="13000.00000"></scales>
<clustering>
<clus scale="   81.111">  5  6 -1 -1</clus>
<clus scale="   92.507">  7  8 -1 -1</clus>
<clus scale="   38.225">  7  9 -1 -1</clus>
<clus scale="  107.987">  1  5  2 -1</clus>
<clus scale="  162.968">  2  5  1 -1</clus>
</clustering>
</event>
<event>
 9    2  0.3897980E-005  0.3538707E+03  0.7546771E-02  0.1093358E+00
          2   -1    0    0  502    0 -0.00000000000E+00  0.00000000000E+00  0.81053870362E+02  0.81053870362E+02  0.00000000000E+00 0. -1.
         21   -1    0    0  501  502  0.00000000000E+00 -0.00000000000E+00 -0.94368072535E+03  0.94368072535E+03  0.00000000000E+00 0. -1.
         24    2    1    2    0    0  0.11923072322E+03  0.34329843658E+02 -0.84553434393E+02  0.16996986797E+03  0.79661591914E+02 0.  0.
         23    2    1    2    0    0  0.54499620607E+02  0.61168296938E+02 -0.48826351080E+03  0.50363524872E+03  0.92387437316E+02 0.  0.
        -13    1    3    3    0    0  0.22965501602E+02  0.12807776352E+02 -0.64025172506E+02  0.69214710238E+02  0.00000000000E+00 0.  1.
         14    1    3    3    0    0  0.96265221617E+02  0.21522067306E+02 -0.20528261887E+02  0.10075515774E+03  0.00000000000E+00 0. -1.
        -13    1    4    4    0    0  0.47442961931E+02 -0.77549879884E+01 -0.28142650452E+03  0.28550280546E+03  0.00000000000E+00 0.  1.
         13    1    4    4    0    0  0.70566586752E+01  0.68923284926E+02 -0.20683700628E+03  0.21813244326E+03  0.00000000000E+00 0. -1.
          1    1    1    2  501    0 -0.17373034383E+03 -0.95498140595E+02 -0.28980990979E+03  0.35112947902E+03  0.00000000000E+00 0. -1.
<scales pt_clust_5="13000.00000" pt_clust_6="13000.00000" pt_clust_7="13000.00000" pt_clust_8="13000.00000" pt_clust_9="13000.00000"></scales>
<clustering>
<clus scale="   79.662">  5  6 -1 -1</clus>
<clus scale="   92.387">  7  8 -1 -1</clus>
<clus scale="  147.447">  1  5  2 -1</clus>
<clus scale="  103.812">  7  9 -1 -1</clus>
<clus scale="  353.871">  2  5  1 -1</clus>
</clustering>
</event>
<event>
 9    2  0.3897980E-005  0.1412848E+03  0.7546771E-02  0.1225638E+00
         -1   -1    0    0    0  501 -0.00000000000E+00  0.00000000000E+00  0.85984150010E+02  0.85984150010E+02  0.00000000000E+00 0.  1.
         21   -1    0    0  501  502  0.00000000000E+00 -0.00000000000E+00 -0.27369545492E+03  0.27369545492E+03  0.00000000000E+00 0.  1.
         24    2    1    2    0    0 -0.21137494345E+02 -0.64623365955E+02 -0.19135219765E+03  0.21834793217E+03  0.80232056201E+02 0.  0.
         23    2    1    2    0    0 -0.85221098080E+00  0.30518876697E+02 -0.51476244261E+01  0.99811781602E+02  0.94888174242E+02 0.  0.
        -11    1    3    3    0    0 -0.39754610118E+02 -0.43130946942E+02 -0.59831210041E+02  0.83788312459E+02  0.00000000000E+00 0.  1.
         12    1    3    3    0    0  0.18617115773E+02 -0.21492419012E+02 -0.13152098761E+03  0.13455961971E+03  0.00000000000E+00 0. -1.
        -11    1    4    4    0    0  0.39357211875E+02  0.41851025344E+02  0.17177683812E+01  0.57475639858E+02  0.00000000000E+00 0.  1.
         11    1    4    4    0    0 -0.40209422856E+02 -0.11332148646E+02 -0.68653928073E+01  0.42336141744E+02  0.00000000000E+00 0. -1.
         -2    1    1    2    0  502  0.21989705326E+02  0.34104489258E+02  0.87885171667E+01  0.41519891159E+02  0.00000000000E+00 0.  1.
<scales pt_clust_5="13000.00000" pt_clust_6="13000.00000" pt_clust_7="13000.00000" pt_clust_8="13000.00000" pt_clust_9="13000.00000"></scales>
<clustering>
<clus scale="   80.232">  5  6 -1 -1</clus>
<clus scale="   94.888">  7  8 -1 -1</clus>
<clus scale="   40.579">  7  9 -1 -1</clus>
<clus scale="  105.167">  1  5  2 -1</clus>
<clus scale="  141.285">  2  5  1 -1</clus>
</clustering>
</event>
<event>
 9    2  0.4034295E-005  0.1083503E+04  0.7546771E-02  0.9882562E-01
         21   -1    0    0  501  502  0.00000000000E+00  0.00000000000E+00  0.23171931561E+03  0.23171931561E+03  0.00000000000E+00 0.  1.
          2   -1    0    0  502    0 -0.00000000000E+00 -0.00000000000E+00 -0.15774358346E+04  0.15774358346E+04  0.00000000000E+00 0. -1.
         24    2    1    2    0    0 -0.72229576866E+02  0.17076350131E+02 -0.51183471368E+02  0.12102140294E+03  0.80732389536E+02 0.  0.
         23    2    1    2    0    0 -0.35004363544E+02  0.14259156951E+03  0.15140665480E+03  0.22945812002E+03  0.90384692086E+02 0.  0.
        -11    1    3    3    0    0  0.10100872096E+02 -0.17429349610E+02 -0.63185746626E+01  0.21112418873E+02  0.00000000000E+00 0.  1.
         12    1    3    3    0    0 -0.82330448962E+02  0.34505699740E+02 -0.44864896705E+02  0.99908984066E+02  0.00000000000E+00 0. -1.
        -11    1    4    4    0    0 -0.52828424065E+02  0.11053110799E+03  0.72275529125E+02  0.14223825200E+03  0.00000000000E+00 0.  1.
         11    1    4    4    0    0  0.17824060521E+02  0.32060461515E+02  0.79131125672E+02  0.87219868013E+02  0.00000000000E+00 0. -1.
          1    1    1    2  501    0  0.10723394041E+03 -0.15966791964E+03 -0.14459397024E+04  0.14586756273E+04  0.00000000000E+00 0. -1.
<scales pt_clust_5="13000.00000" pt_clust_6="13000.00000" pt_clust_7="13000.00000" pt_clust_8="13000.00000" pt_clust_9="13000.00000"></scales>
<clustering>
<clus scale="   80.732">  5  6 -1 -1</clus>
<clus scale="   90.385">  7  8 -1 -1</clus>
<clus scale="  109.665">  2  5  1 -1</clus>
<clus scale="  147.720">  7  9 -1 -1</clus>
<clus scale=" 1083.503">  1  5  2 -1</clus>
</clustering>
</event>
<event>
 9    2  0.3897980E-005  0.3039567E+03  0.7546771E-02  0.1103805E+00
          2   -1    0    0  502    0 -0.00000000000E+00  0.00000000000E+00  0.91675740332E+03  0.91675740332E+03  0.00000000000E+00 0. -1.
         21   -1    0    0  501  502  0.00000000000E+00 -0.00000000000E+00 -0.11830579382E+03  0.11830579382E+03  0.00000000000E+00 0.  1.
         24    2    1    2    0    0 -0.11770280326E+03  0.10596731643E+03 -0.36147673712E+01  0.17733355480E+03  0.79693795663E+02 0.  0.
         23    2    1    2    0    0 -0.35220979918E+02 -0.33768242354E+02  0.13841278141E+03  0.17286871886E+03  0.91349243471E+02 0.  0.
        -11    1    3    3    0    0 -0.77879308397E+02  0.46313048831E+02 -0.37430494178E+02  0.98036355822E+02  0.00000000000E+00 0.  1.
         12    1    3    3    0    0 -0.39823494862E+02  0.59654267597E+02  0.33815726807E+02  0.79297198973E+02  0.00000000000E+00 0. -1.
        -11    1    4    4    0    0 -0.16746505874E+02 -0.61808643078E+02  0.11598363284E+03  0.13248757264E+03  0.00000000000E+00 0.  1.
         11    1    4    4    0    0 -0.18474474044E+02  0.28040400724E+02  0.22429148577E+02  0.40381146218E+02  0.00000000000E+00 0. -1.
          1    1    1    2  501    0  0.15292378318E+03 -0.72199074075E+02  0.66365359546E+03  0.68486092349E+03  0.00000000000E+00 0. -1.
<scales pt_clust_5="13000.00000" pt_clust_6="13000.00000" pt_clust_7="13000.00000" pt_clust_8="13000.00000" pt_clust_9="13000.00000"></scales>
<clustering>
<clus scale="   79.694">  5  6 -1 -1</clus>
<clus scale="   91.349">  7  8 -1 -1</clus>
<clus scale="  169.111">  7  9 -1 -1</clus>
<clus scale="  177.297">  1  5  2 -1</clus>
<clus scale="  303.957">  2  5  1 -1</clus>
</clustering>
</event>
<event>
 9    2  0.3897980E-005  0.6857874E+03  0.7546771E-02  0.1041103E+00
         21   -1    0    0  501  502  0.00000000000E+00  0.00000000000E+00  0.98638831892E+03  0.98638831892E+03  0.00000000000E+00 0. -1.
          2   -1    0    0  502    0 -0.00000000000E+00 -0.00000000000E+00 -0.16512876946E+03  0.16512876946E+03  0.00000000000E+00 0. -1.
         24    2    1    2    0    0 -0.28419804150E+02  0.58886982839E+01  0.23198520772E+03  0.24733314716E+03  0.80710513868E+02 0.  0.
         23    2    1    2    0    0 -0.25492891302E+03  0.15556051414E+03  0.12391358179E+03  0.33592961382E+03  0.91138934781E+02 0.  0.
        -11    1    3    3    0    0 -0.26223110091E+02  0.45597192131E+01  0.15435950877E+02  0.30768671106E+02  0.00000000000E+00 0.  1.
         12    1    3    3    0    0 -0.21966940588E+01  0.13289790709E+01  0.21654925684E+03  0.21656447606E+03  0.00000000000E+00 0. -1.
        -11    1    4    4    0    0 -0.22153979172E+03  0.14419167236E+03  0.13771426938E+03  0.29805425292E+03  0.00000000000E+00 0. -1.
         11    1    4    4    0    0 -0.33389121301E+02  0.11368841785E+02 -0.13800687596E+02  0.37875360895E+02  0.00000000000E+00 0.  1.
          1    1    1    2  501    0  0.28334871717E+03 -0.16144921242E+03  0.46536075995E+03  0.56825432740E+03  0.00000000000E+00 0. -1.
<scales pt_clust_5="13000.00000" pt_clust_6="13000.00000" pt_clust_7="13000.00000" pt_clust_8="13000.00000" pt_clust_9="13000.00000"></scales>
<clustering>
<clus scale="   80.711">  5  6 -1 -1</clus>
<clus scale="   85.770">  2  5  1 -1</clus>
<clus scale="   91.139">  7  8 -1 -1</clus>
<clus scale="  317.110">  7  9 -1 -1</clus>
<clus scale="  685.787">  1  5  2 -1</clus>
</clustering>
</event>
<event>
 9    2  0.3897980E-005  0.3384535E+03  0.7546771E-02  0.1088167E+00
         21   -1    0    0  501  502  0.00000000000E+00  0.00000000000E+00  0.45448171563E+03  0.45448171563E+03  0.00000000000E+00 0.  1.
         -3   -1    0    0    0  501 -0.00000000000E+00 -0.00000000000E+00 -0.15670304925E+03  0.15670304925E+03  0.00000000000E+00 0.  1.
         24    2    1    2    0    0 -0.17287522311E+03 -0.33353244064E+02  0.13402009418E+03  0.23519585504E+03  0.79733449232E+02 0.  0.
         23    2    1    2    0    0  0.31905016024E+02 -0.98935102778E+02  0.10418936648E+03  0.17369878090E+03  0.92248348436E+02 0.  0.
        -11    1    3    3    0    0 -0.13398672290E+03  0.10434945095E+02  0.99478424138E+02  0.16720432668E+03  0.00000000000E+00 0.  1.
         12    1    3    3    0    0 -0.38888500215E+02 -0.43788189159E+02  0.34541670044E+02  0.67991528357E+02  0.00000000000E+00 0. -1.
        -11    1    4    4    0    0 -0.23981713607E+02 -0.14966591456E+02  0.54189650524E+02  0.61119879509E+02  0.00000000000E+00 0. -1.
         11    1    4    4    0    0  0.55886729631E+02 -0.83968511321E+02  0.49999715955E+02  0.11257890139E+03  0.00000000000E+00 0.  1.
         -4    1    1    2    0  502  0.14097020709E+03  0.13228834684E+03  0.59569205717E+02  0.20229012894E+03  0.00000000000E+00 0.  1.
<scales pt_clust_5="13000.00000" pt_clust_6="13000.00000" pt_clust_7="13000.00000" pt_clust_8="13000.00000" pt_clust_9="13000.00000"></scales>
<clustering>
<clus scale="   79.733">  5  6 -1 -1</clus>
<clus scale="   92.248">  7  8 -1 -1</clus>
<clus scale="  193.276">  2  5  1 -1</clus>
<clus scale="  112.605">  7  9 -1 -1</clus>
<clus scale="  338.454">  1  5  2 -1</clus>
</clustering>
</event>
<event>
 9    2  0.3897980E-005  0.3806768E+03  0.7546771E-02  0.1104037E+00
         21   -1    0    0  501  502  0.00000000000E+00  0.00000000000E+00  0.38436085638E+02  0.38436085638E+02  0.00000000000E+00 0. -1.
          2   -1    0    0  502    0 -0.00000000000E+00 -0.00000000000E+00 -0.14553938565E+04  0.14553938565E+04  0.00000000000E+00 0. -1.
         24    2    1    2    0    0  0.38797213366E+02  0.12949913745E+02 -0.33725010026E+03  0.34897908116E+03  0.79848888131E+02 0.  0.
         23    2    1    2    0    0 -0.65806768879E+02 -0.15825906024E+03 -0.34740211787E+03  0.39777945427E+03  0.90353758984E+02 0.  0.
        -13    1    3    3    0    0  0.36951118448E+02  0.14221440886E+02 -0.61019315998E+02  0.72739201675E+02  0.00000000000E+00 0.  1.
         14    1    3    3    0    0  0.18460949180E+01 -0.12715271419E+01 -0.27623078426E+03  0.27623987949E+03  0.00000000000E+00 0. -1.
        -11    1    4    4    0    0 -0.11869095488E+02 -0.85973441012E+02 -0.89980747387E+02  0.12501537060E+03  0.00000000000E+00 0.  1.
         11    1    4    4    0    0 -0.53937673391E+02 -0.72285619230E+02 -0.25742137048E+03  0.27276408367E+03  0.00000000000E+00 0. -1.
          1    1    1    2  501    0  0.27009555512E+02  0.14530914650E+03 -0.73230555275E+03  0.74707140671E+03  0.00000000000E+00 0. -1.
<scales pt_clust_5="13000.00000" pt_clust_6="13000.00000" pt_clust_7="13000.00000" pt_clust_8="13000.00000" pt_clust_9="13000.00000"></scales>
<clustering>
<clus scale="   79.849">  5  6 -1 -1</clus>
<clus scale="   89.715">  2  5  1 -1</clus>
<clus scale="   90.354">  7  8 -1 -1</clus>
<clus scale="  162.729">  7  9 -1 -1</clus>
<clus scale="  380.677">  1  5  2 -1</clus>
</clustering>
</event>
<event>
 9    2  0.3897980E-005  0.2255226E+03  0.7546771E-02  0.1171706E+00
          2   -1    0    0  502    0 -0.00000000000E+00  0.00000000000E+00  0.37336984697E+03  0.37336984697E+03  0.00000000000E+00 0. -1.
         21   -1    0    0  501  502  0.00000000000E+00 -0.00000000000E+00 -0.74973562235E+02  0.74973562235E+02  0.00000000000E+00 0.  1.
         24    2    1    2    0    0  0.14948803049E+02  0.19666974053E+02  0.13171556579E+02  0.84731552920E+02  0.79973055316E+02 0.  0.
         23    2    1    2    0    0  0.68521075835E+02  0.30263084500E+02  0.20847219808E+03  0.23971196806E+03  0.91597915604E+02 0.  0.
        -13    1    3    3    0    0  0.24122591542E+02  0.32469919846E+02 -0.22106945184E+02  0.46096769332E+02  0.00000000000E+00 0.  1.
         14    1    3    3    0    0 -0.91737884931E+01 -0.12802945793E+02  0.35278501763E+02  0.38634783588E+02  0.00000000000E+00 0. -1.
        -11    1    4    4    0    0  0.26948763827E+02 -0.26028850786E+02  0.29956014901E+02  0.47969779797E+02  0.00000000000E+00 0.  1.
         11    1    4    4    0    0  0.41572312008E+02  0.56291935286E+02  0.17851618318E+03  0.19174218827E+03  0.00000000000E+00 0. -1.
          1    1    1    2  501    0 -0.83469878885E+02 -0.49930058553E+02  0.76752530072E+02  0.12389988822E+03  0.00000000000E+00 0. -1.
<scales pt_clust_5="13000.00000" pt_clust_6="13000.00000" pt_clust_7="13000.00000" pt_clust_8="13000.00000" pt_clust_9="13000.00000"></scales>
<clustering>
<clus scale="   79.973">  5  6 -1 -1</clus>
<clus scale="   83.702">  1  5  2 -1</clus>
<clus scale="   91.598">  7  8 -1 -1</clus>
<clus scale="   90.219">  7  9 -1 -1</clus>
<clus scale="  225.523">  2  5  1 -1</clus>
</clustering>
</event>
<event>
 9    2  0.3897980E-005  0.4518492E+03  0.7546771E-02  0.1085510E+00
         21   -1    0    0  501  502  0.00000000000E+00  0.00000000000E+00  0.93210215905E+03  0.93210215905E+03  0.00000000000E+00 0. -1.
          2   -1    0    0  502    0 -0.00000000000E+00 -0.00000000000E+00 -0.81293677713E+02  0.81293677713E+02  0.00000000000E+00 0. -1.
         24    2    1    2    0    0  0.32379691763E+02 -0.27543778338E+02  0.22675859779E+03  0.24293755665E+03  0.76105785577E+02 0.  0.
         23    2    1    2    0    0  0.28775800819E+02 -0.11783177895E+03  0.29813519693E+02  0.15564863228E+03  0.92872363657E+02 0.  0.
        -11    1    3    3    0    0  0.30610056680E+02  0.21883103830E+02  0.10338512285E+03  0.11001967746E+03  0.00000000000E+00 0.  1.
         12    1    3    3    0    0  0.17696350831E+01 -0.49426882169E+02  0.12337347494E+03  0.13291787919E+03  0.00000000000E+00 0. -1.
        -11    1    4    4    0    0 -0.59894586859E+01 -0.53091139405E+02 -0.29663552710E+02  0.61110302389E+02  0.00000000000E+00 0. -1.
         11    1    4    4    0    0  0.34765259505E+02 -0.64740639548E+02  0.59477072403E+02  0.94538329894E+02  0.00000000000E+00 0.  1.
          1    1    1    2  501    0 -0.61155492583E+02  0.14537555729E+03  0.59423636386E+03  0.61480964783E+03  0.00000000000E+00 0. -1.
<scales pt_clust_5="13000.00000" pt_clust_6="13000.00000" pt_clust_7="13000.00000" pt_clust_8="13000.00000" pt_clust_9="13000.00000"></scales>
<clustering>
<clus scale="   76.106">  5  6 -1 -1</clus>
<clus scale="   87.173">  2  5  1 -1</clus>
<clus scale="   92.872">  7  8 -1 -1</clus>
<clus scale="  152.407">  7  9 -1 -1</clus>
<clus scale="  451.849">  1  5  2 -1</clus>
</clustering>
</event>
<event>
 9    2  0.3897980E-005  0.1323837E+03  0.7546771E-02  0.1244259E+00
         21   -1    0    0  501  502  0.00000000000E+00  0.00000000000E+00  0.21806244141E+02  0.21806244141E+02  0.00000000000E+00 0.  1.
          2   -1    0    0  502    0 -0.00000000000E+00 -0.00000000000E+00 -0.63870630471E+03  0.63870630471E+03  0.00000000000E+00 0. -1.
         24    2    1    2    0    0  0.26824807859E+02 -0.17552929829E+02 -0.37215262993E+03  0.38225593227E+03  0.81205554814E+02 0.  0.
         23    2    1    2    0    0 -0.23588835014E+02  0.45287124084E+02 -0.15547795270E+03  0.18472214837E+03  0.85682679564E+02 0.  0.
        -11    1    3    3    0    0  0.14506352736E+01 -0.46402185311E+02 -0.24750788703E+03  0.25182418726E+03  0.00000000000E+00 0.  1.
         12    1    3    3    0    0  0.25374172585E+02  0.28849255482E+02 -0.12464474290E+03  0.13043174502E+03  0.00000000000E+00 0. -1.
        -11    1    4    4    0    0  0.25640616166E+02 -0.50577598438E+01 -0.23553830516E+02  0.35182453923E+02  0.00000000000E+00 0. -1.
         11    1    4    4    0    0 -0.49229451180E+02  0.50344883928E+02 -0.13192412219E+03  0.14953969445E+03  0.00000000000E+00 0.  1.
          1    1    1    2  501    0 -0.32359728448E+01 -0.27734194255E+02 -0.89269477935E+02  0.93534468203E+02  0.00000000000E+00 0. -1.
<scales pt_clust_5="13000.00000" pt_clust_6="13000.00000" pt_clust_7="13000.00000" pt_clust_8="13000.00000" pt_clust_9="13000.00000"></scales>
<clustering>
<clus scale="   81.206">  5  6 -1 -1</clus>
<clus scale="   85.683">  7  8 -1 -1</clus>
<clus scale="   27.922">  7  9 -1 -1</clus>
<clus scale="   87.304">  2  5  1 -1</clus>
<clus scale="  132.384">  1  5  2 -1</clus>
</clustering>
</event>
<event>
 9    2  0.3897980E-005  0.5566323E+03  0.7546771E-02  0.1006680E+00
          2   -1    0    0  502    0 -0.00000000000E+00  0.00000000000E+00  0.20130177066E+04  0.20130177066E+04  0.00000000000E+00 0. -1.
         21   -1    0    0  501  502  0.00000000000E+00 -0.00000000000E+00 -0.12833059507E+03  0.12833059507E+03  0.00000000000E+00 0. -1.
         24    2    1    2    0    0 -0.40226870383E+03 -0.18916895358E+03  0.98458787960E+03  0.10830392031E+04  0.77172661486E+02 0.  0.
         23    2    1    2    0    0  0.60790848432E+01 -0.13444488455E+02  0.62382741869E+02  0.10973788945E+03  0.89067886216E+02 0.  0.
        -11    1    3    3    0    0 -0.45407411644E+02 -0.16176484269E+02  0.17527608754E+03  0.18178343857E+03  0.00000000000E+00 0.  1.
         12    1    3    3    0    0 -0.35686129219E+03 -0.17299246931E+03  0.80931179206E+03  0.90125576451E+03  0.00000000000E+00 0. -1.
        -11    1    4    4    0    0  0.29452871258E+02 -0.31893537932E+02  0.66766501389E+02  0.79639406671E+02  0.00000000000E+00 0. -1.
         11    1    4    4    0    0 -0.23373786414E+02  0.18449049477E+02 -0.43837595200E+01  0.30098482777E+02  0.00000000000E+00 0.  1.
          1    1    1    2  501    0  0.39618961899E+03  0.20261344203E+03  0.83771649002E+03  0.94857120910E+03  0.00000000000E+00 0. -1.
<scales pt_clust_5="13000.00000" pt_clust_6="13000.00000" pt_clust_7="13000.00000" pt_clust_8="13000.00000" pt_clust_9="13000.00000"></scales>
<clustering>
<clus scale="   77.173">  5  6 -1 -1</clus>
<clus scale="   89.068">  7  8 -1 -1</clus>
<clus scale="  444.993">  7  9 -1 -1</clus>
<clus scale="  451.177">  1  5  2 -1</clus>
<clus scale="  556.632">  2  5  1 -1</clus>
</clustering>
</event>
<event>
 9    2  0.3897980E-005  0.1827798E+03  0.7546771E-02  0.1202888E+00
         21   -1    0    0  501  502  0.00000000000E+00  0.00000000000E+00  0.23812879397E+03  0.23812879397E+03  0.00000000000E+00 0. -1.
          2   -1    0    0  502    0 -0.00000000000E+00 -0.00000000000E+00 -0.75444385043E+02  0.75444385043E+02  0.00000000000E+00 0. -1.
         24    2    1    2    0    0 -0.88081098441E+01 -0.18267997942E+01  0.82420693544E+02  0.11394674395E+03  0.78165016066E+02 0.  0.
         23    2    1    2    0    0  0.20221295749E+02 -0.64940937846E+02  0.52874102342E+02  0.12656219959E+03  0.92715119898E+02 0.  0.
        -11    1    3    3    0    0 -0.25937714712E+02  0.16821660996E+02  0.35585700830E+01  0.31119073639E+02  0.00000000000E+00 0.  1.
         12    1    3    3    0    0  0.17129604868E+02 -0.18648460790E+02  0.78862123461E+02  0.82827670314E+02  0.00000000000E+00 0. -1.
        -13    1    4    4    0    0 -0.33288419046E+02 -0.33418491234E+02  0.42708753666E+02  0.63631376212E+02  0.00000000000E+00 0.  1.
         13    1    4    4    0    0  0.53509714796E+02 -0.31522446611E+02  0.10165348676E+02  0.62930823382E+02  0.00000000000E+00 0. -1.
          1    1    1    2  501    0 -0.11413185905E+02  0.66767737640E+02  0.27389613045E+02  0.73064235470E+02  0.00000000000E+00 0. -1.
<scales pt_clust_5="13000.00000" pt_clust_6="13000.00000" pt_clust_7="13000.00000" pt_clust_8="13000.00000" pt_clust_9="13000.00000"></scales>
<clustering>
<clus scale="   78.165">  5  6 -1 -1</clus>
<clus scale="   78.681">  2  5  1 -1</clus>
<clus scale="   92.715">  7  8 -1 -1</clus>
<clus scale="   67.703">  7  9 -1 -1</clus>
<clus scale="  182.780">  1  5  2 -1</clus>
</clustering>
</event>
<event>
 9    2  0.3897980E-005  0.1483554E+03  0.7546771E-02  0.1227775E+00
          2   -1    0    0  502    0 -0.00000000000E+00  0.00000000000E+00  0.47933510943E+03  0.47933510943E+03  0.00000000000E+00 0. -1.
         21   -1    0    0  501  502  0.00000000000E+00 -0.00000000000E+00 -0.35175218098E+02  0.35175218098E+02  0.00000000000E+00 0. -1.
         24    2    1    2    0    0 -0.31967569261E+02 -0.36612992450E+01  0.28034129079E+03  0.29349933346E+03  0.80717339056E+02 0.  0.
         23    2    1    2    0    0  0.14599125532E+02 -0.24113655261E+02  0.16181849610E+03  0.18819161940E+03  0.91849099591E+02 0.  0.
        -13    1    3    3    0    0  0.20034777748E+02  0.20597386515E+02  0.75873740497E+02  0.81132417366E+02  0.00000000000E+00 0.  1.
         14    1    3    3    0    0 -0.52002347010E+02 -0.24258685760E+02  0.20446755029E+03  0.21236691610E+03  0.00000000000E+00 0. -1.
        -11    1    4    4    0    0  0.70289299833E+01 -0.58746362279E+02  0.84731962772E+02  0.10334431021E+03  0.00000000000E+00 0. -1.
         11    1    4    4    0    0  0.75701955486E+01  0.34632707017E+02  0.77086533329E+02  0.84847309190E+02  0.00000000000E+00 0.  1.
          1    1    1    2  501    0  0.17368443730E+02  0.27774954506E+02  0.20001044363E+01  0.32819374662E+02  0.00000000000E+00 0. -1.
<scales pt_clust_5="13000.00000" pt_clust_6="13000.00000" pt_clust_7="13000.00000" pt_clust_8="13000.00000" pt_clust_9="13000.00000"></scales>
<clustering>
<clus scale="   80.717">  5  6 -1 -1</clus>
<clus scale="   86.894">  1  5  2 -1</clus>
<clus scale="   91.849">  7  8 -1 -1</clus>
<clus scale="   31.028">  7  9 -1 -1</clus>
<clus scale="  148.355">  2  5  1 -1</clus>
</clustering>
</event>
<event>
 9    2  0.3897980E-005  0.1456976E+03  0.7546771E-02  0.1229947E+00
          2   -1    0    0  502    0 -0.00000000000E+00  0.00000000000E+00  0.29565221137E+02  0.29565221137E+02  0.00000000000E+00 0. -1.
         21   -1    0    0  501  502  0.00000000000E+00 -0.00000000000E+00 -0.52141733023E+03  0.52141733023E+03  0.00000000000E+00 0.  1.
         24    2    1    2    0    0  0.22644366735E+02  0.27216803173E+02 -0.10049524861E+03  0.13338468871E+03  0.80241251663E+02 0.  0.
         23    2    1    2    0    0 -0.44280375471E+02 -0.49828212815E+02 -0.27949999777E+03  0.30144558995E+03  0.91135023467E+02 0.  0.
        -13    1    3    3    0    0  0.17475331754E+02 -0.15028324576E+02  0.12644527873E+01  0.23083253677E+02  0.00000000000E+00 0.  1.
         14    1    3    3    0    0  0.51690349816E+01  0.42245127750E+02 -0.10175970140E+03  0.11030143503E+03  0.00000000000E+00 0. -1.
        -13    1    4    4    0    0  0.21409779206E+02 -0.41078401520E+02 -0.10398610268E+03  0.11383726660E+03  0.00000000000E+00 0. -1.
         13    1    4    4    0    0 -0.65690154677E+02 -0.87498112946E+01 -0.17551389509E+03  0.18760832335E+03  0.00000000000E+00 0.  1.
          1    1    1    2  501    0  0.21636008736E+02  0.22611409641E+02 -0.11185686271E+03  0.11615227271E+03  0.00000000000E+00 0. -1.
<scales pt_clust_5="13000.00000" pt_clust_6="13000.00000" pt_clust_7="13000.00000" pt_clust_8="13000.00000" pt_clust_9="13000.00000"></scales>
<clustering>
<clus scale="   80.241">  5  6 -1 -1</clus>
<clus scale="   87.705">  1  5  2 -1</clus>
<clus scale="   91.135">  7  8 -1 -1</clus>
<clus scale="   37.079">  7  9 -1 -1</clus>
<clus scale="  145.698">  2  5  1 -1</clus>
</clustering>
</event>
<event>
 9    2  0.3897980E-005  0.1351168E+03  0.7546771E-02  0.1243266E+00
         21   -1    0    0  501  502  0.00000000000E+00  0.00000000000E+00  0.57191550458E+02  0.57191550458E+02  0.00000000000E+00 0. -1.
          2   -1    0    0  502    0 -0.00000000000E+00 -0.00000000000E+00 -0.21363825149E+03  0.21363825149E+03  0.00000000000E+00 0. -1.
         24    2    1    2    0    0 -0.17122168003E+02  0.14728604940E+02 -0.41780544640E+02  0.93615581198E+02  0.80673184467E+02 0.  0.
         23    2    1    2    0    0 -0.10639449540E+02  0.11696256850E+02 -0.84208540466E+02  0.12825865828E+03  0.95442154338E+02 0.  0.
        -13    1    3    3    0    0 -0.70377012690E+01 -0.27377228580E+02 -0.41628459576E+02  0.50318689674E+02  0.00000000000E+00 0.  1.
         14    1    3    3    0    0 -0.10084466734E+02  0.42105833520E+02 -0.15208506343E+00  0.43296891523E+02  0.00000000000E+00 0. -1.
        -11    1    4    4    0    0 -0.35833088227E+02 -0.30828383107E+02 -0.43146412115E+02  0.64000096057E+02  0.00000000000E+00 0. -1.
         11    1    4    4    0    0  0.25193638687E+02  0.42524639958E+02 -0.41062128351E+02  0.64258562220E+02  0.00000000000E+00 0.  1.
          1    1    1    2  501    0  0.27761617543E+02 -0.26424861790E+02 -0.30457615931E+02  0.48955562477E+02  0.00000000000E+00 0. -1.
<scales pt_clust_5="13000.00000" pt_clust_6="13000.00000" pt_clust_7="13000.00000" pt_clust_8="13000.00000" pt_clust_9="13000.00000"></scales>
<clustering>
<clus scale="   80.673">  5  6 -1 -1</clus>
<clus scale="   83.775">  2  5  1 -1</clus>
<clus scale="   95.442">  7  8 -1 -1</clus>
<clus scale="   32.192">  7  9 -1 -1</clus>
<clus scale="  135.117">  1  5  2 -1</clus>
</clustering>
</event>
<event>
 9    2  0.3897980E-005  0.2692017E+03  0.7546771E-02  0.1145933E+00
         21   -1    0    0  501  502  0.00000000000E+00  0.00000000000E+00  0.24880816238E+03  0.24880816238E+03  0.00000000000E+00 0. -1.
          2   -1    0    0  502    0 -0.00000000000E+00 -0.00000000000E+00 -0.13180252934E+03  0.13180252934E+03  0.00000000000E+00 0. -1.
         24    2    1    2    0    0  0.52891704553E+01  0.40493245674E+02  0.78753498171E+01  0.90130106481E+02  0.79960844732E+02 0.  0.
         23    2    1    2    0    0 -0.32003402603E+02  0.72196179887E+02  0.12595504726E+03  0.17345225740E+03  0.89356060213E+02 0.  0.
        -11    1    3    3    0    0 -0.12585860621E+02 -0.17892399351E+02  0.17882783710E+02  0.28254836671E+02  0.00000000000E+00 0.  1.
         12    1    3    3    0    0  0.17875031077E+02  0.58385645024E+02 -0.10007433893E+02  0.61875269810E+02  0.00000000000E+00 0. -1.
        -13    1    4    4    0    0 -0.60648589975E+02  0.50395397047E+02  0.10655750262E+03  0.13256111373E+03  0.00000000000E+00 0. -1.
         13    1    4    4    0    0  0.28645187372E+02  0.21800782840E+02  0.19397544643E+02  0.40891143665E+02  0.00000000000E+00 0.  1.
          1    1    1    2  501    0  0.26714232148E+02 -0.11268942556E+03 -0.16824764030E+02  0.11702832784E+03  0.00000000000E+00 0. -1.
<scales pt_clust_5="13000.00000" pt_clust_6="13000.00000" pt_clust_7="13000.00000" pt_clust_8="13000.00000" pt_clust_9="13000.00000"></scales>
<clustering>
<clus scale="   79.961">  5  6 -1 -1</clus>
<clus scale="   89.356">  7  8 -1 -1</clus>
<clus scale="   89.785">  2  5  1 -1</clus>
<clus scale="   88.281">  7  9 -1 -1</clus>
<clus scale="  269.202">  1  5  2 -1</clus>
</clustering>
</event>
<event>
 9    2  0.3897980E-005  0.5360810E+03  0.7546771E-02  0.1058944E+00
          2   -1    0    0  502    0 -0.00000000000E+00  0.00000000000E+00  0.14685302251E+04  0.14685302251E+04  0.00000000000E+00 0. -1.
         21   -1    0    0  501  502  0.00000000000E+00 -0.00000000000E+00 -0.70765501963E+02  0.70765501963E+02  0.00000000000E+00 0. -1.
         24    2    1    2    0    0  0.36537635555E+02  0.59456477678E+02  0.20795592799E+03  0.23429465500E+03  0.82330102801E+02 0.  0.
         23    2    1    2    0    0  0.23400569792E+02 -0.26897892639E+03  0.43711185525E+03  0.52139088306E+03  0.88794309693E+02 0.  0.
        -11    1    3    3    0    0 -0.10677872081E+02  0.59420013048E+02  0.10739023519E+03  0.12319666195E+03  0.00000000000E+00 0.  1.
         12    1    3    3    0    0  0.47215507636E+02  0.36464629888E-01  0.10056569280E+03  0.11109799305E+03  0.00000000000E+00 0. -1.
        -13    1    4    4    0    0  0.47899196106E+02 -0.15673940587E+03  0.30554250943E+03  0.34672438536E+03  0.00000000000E+00 0.  1.
         13    1    4    4    0    0 -0.24498626314E+02 -0.11223952052E+03  0.13156934582E+03  0.17466649770E+03  0.00000000000E+00 0. -1.
          1    1    1    2  501    0 -0.59938205347E+02  0.20952244871E+03  0.75269693994E+03  0.78361018904E+03  0.00000000000E+00 0. -1.
<scales pt_clust_5="13000.00000" pt_clust_6="13000.00000" pt_clust_7="13000.00000" pt_clust_8="13000.00000" pt_clust_9="13000.00000"></scales>
<clustering>
<clus scale="   82.330">  5  6 -1 -1</clus>
<clus scale="   88.794">  7  8 -1 -1</clus>
<clus scale="  107.927">  1  5  2 -1</clus>
<clus scale="  248.967">  7  9 -1 -1</clus>
<clus scale="  536.081">  2  5  1 -1</clus>
</clustering>
</event>
<event>
 9    2  0.3897980E-005  0.2573447E+03  0.7546771E-02  0.1136450E+00
         -1   -1    0    0    0  501 -0.00000000000E+00  0.00000000000E+00  0.13709212126E+03  0.13709212126E+03  0.00000000000E+00 0.  1.
         21   -1    0    0  501  502  0.00000000000E+00 -0.00000000000E+00 -0.41462579854E+03  0.41462579854E+03  0.00000000000E+00 0.  1.
         24    2    1    2    0    0 -0.70241634586E+02  0.71763199562E+02  0.47105826690E+02  0.13745094871E+03  0.81178570772E+02 0.  0.
         23    2    1    2    0    0  0.78555701176E+02  0.33278166277E+02 -0.26085394199E+03  0.29109469273E+03  0.97020134736E+02 0.  0.
        -13    1    3    3    0    0 -0.86772243530E+02  0.45540993944E+02  0.38419920590E+02  0.10525917858E+03  0.00000000000E+00 0.  1.
         14    1    3    3    0    0  0.16530608943E+02  0.26222205619E+02  0.86859060994E+01  0.32191770134E+02  0.00000000000E+00 0. -1.
        -11    1    4    4    0    0  0.76142370356E+02  0.59601134437E+02 -0.23501632816E+03  0.25413112814E+03  0.00000000000E+00 0.  1.
         11    1    4    4    0    0  0.24133308195E+01 -0.26322968159E+02 -0.25837613833E+02  0.36963564587E+02  0.00000000000E+00 0. -1.
         -2    1    1    2    0  502 -0.83140665897E+01 -0.10504136584E+03 -0.63785561973E+02  0.12317227836E+03  0.00000000000E+00 0.  1.
<scales pt_clust_5="13000.00000" pt_clust_6="13000.00000" pt_clust_7="13000.00000" pt_clust_8="13000.00000" pt_clust_9="13000.00000"></scales>
<clustering>
<clus scale="   81.179">  5  6 -1 -1</clus>
<clus scale="   97.020">  7  8 -1 -1</clus>
<clus scale="  105.370">  7  9 -1 -1</clus>
<clus scale="  129.127">  1  5  2 -1</clus>
<clus scale="  257.345">  2  5  1 -1</clus>
</clustering>
</event>
<event>
 9    2  0.3897980E-005  0.2981787E+03  0.7546771E-02  0.1104847E+00
         21   -1    0    0  501  502  0.00000000000E+00  0.00000000000E+00  0.10345174226E+04  0.10345174226E+04  0.00000000000E+00 0.  1.
         -3   -1    0    0    0  501 -0.00000000000E+00 -0.00000000000E+00 -0.67543591447E+02  0.67543591447E+02  0.00000000000E+00 0.  1.
         24    2    1    2    0    0  0.14589231246E+03  0.76745356506E+02  0.61065888042E+03  0.63744193219E+03  0.79079277286E+02 0.  0.
         23    2    1    2    0    0 -0.17594344321E+02  0.43447077197E+00  0.28036294691E+03  0.29673280708E+03  0.95588843902E+02 0.  0.
        -13    1    3    3    0    0  0.12901084925E+03  0.61210141562E+02  0.38514502224E+03  0.41076412795E+03  0.00000000000E+00 0.  1.
         14    1    3    3    0    0  0.16881463214E+02  0.15535214944E+02  0.22551385818E+03  0.22667780424E+03  0.00000000000E+00 0. -1.
        -11    1    4    4    0    0 -0.30174670874E+02 -0.42452641781E+02  0.16448984805E+03  0.17253882945E+03  0.00000000000E+00 0.  1.
         11    1    4    4    0    0  0.12580326553E+02  0.42887112553E+02  0.11587309886E+03  0.12419397762E+03  0.00000000000E+00 0. -1.
         -4    1    1    2    0  502 -0.12829796814E+03 -0.77179827278E+02  0.75952003781E+02  0.16788627474E+03  0.00000000000E+00 0.  1.
<scales pt_clust_5="13000.00000" pt_clust_6="13000.00000" pt_clust_7="13000.00000" pt_clust_8="13000.00000" pt_clust_9="13000.00000"></scales>
<clustering>
<clus scale="   79.079">  5  6 -1 -1</clus>
<clus scale="   95.589">  7  8 -1 -1</clus>
<clus scale="  149.723">  7  9 -1 -1</clus>
<clus scale="  182.833">  2  5  1 -1</clus>
<clus scale="  298.179">  1  5  2 -1</clus>
</clustering>
</event>
<event>
 9    2  0.3897980E-005  0.2431739E+03  0.7546771E-02  0.1158916E+00
         -1   -1    0    0    0  501 -0.00000000000E+00  0.00000000000E+00  0.35078186311E+02  0.35078186311E+02  0.00000000000E+00 0.  1.
         21   -1    0    0  501  502  0.00000000000E+00 -0.00000000000E+00 -0.84389746268E+03  0.84389746268E+03  0.00000000000E+00 0.  1.
         24    2    1    2    0    0  0.38716893785E+02 -0.47572473040E+01 -0.32971662495E+03  0.34169278072E+03  0.80742023518E+02 0.  0.
         23    2    1    2    0    0  0.63178524573E+02  0.60041927646E+02 -0.27267510004E+03  0.30053108659E+03  0.91491337181E+02 0.  0.
        -11    1    3    3    0    0  0.43495376803E+01  0.35781169940E+02 -0.11624439437E+03  0.12170443634E+03  0.00000000000E+00 0.  1.
         12    1    3    3    0    0  0.34367356105E+02 -0.40538417244E+02 -0.21347223057E+03  0.21998834438E+03  0.00000000000E+00 0. -1.
        -13    1    4    4    0    0 -0.66569042892E+01  0.40838723752E+02 -0.42864868710E+02  0.59577786984E+02  0.00000000000E+00 0. -1.
         13    1    4    4    0    0  0.69835428862E+02  0.19203203894E+02 -0.22981023133E+03  0.24095329960E+03  0.00000000000E+00 0.  1.
         -2    1    1    2    0  502 -0.10189541836E+03 -0.55284680342E+02 -0.20642755138E+03  0.23675178169E+03  0.00000000000E+00 0.  1.
<scales pt_clust_5="13000.00000" pt_clust_6="13000.00000" pt_clust_7="13000.00000" pt_clust_8="13000.00000" pt_clust_9="13000.00000"></scales>
<clustering>
<clus scale="   80.742">  5  6 -1 -1</clus>
<clus scale="   89.671">  1  5  2 -1</clus>
<clus scale="   91.491">  7  8 -1 -1</clus>
<clus scale="  100.071">  7  9 -1 -1</clus>
<clus scale="  243.174">  2  5  1 -1</clus>
</clustering>
</event>
<event>
 9    2  0.3897980E-005  0.1450315E+03  0.7546771E-02  0.1227734E+00
         -3   -1    0    0    0  501 -0.00000000000E+00  0.00000000000E+00  0.51540742605E+02  0.51540742605E+02  0.00000000000E+00 0.  1.
         21   -1    0    0  501  502  0.00000000000E+00 -0.00000000000E+00 -0.33047426986E+03  0.33047426986E+03  0.00000000000E+00 0. -1.
         24    2    1    2    0    0 -0.42778467034E+02  0.24616799287E+01 -0.19082248229E+03  0.21231618879E+03  0.82637081049E+02 0.  0.
         23    2    1    2    0    0  0.79952406712E+01 -0.29470836975E+02 -0.36702914015E+02  0.10200714525E+03  0.90143772272E+02 0.  0.
        -11    1    3    3    0    0 -0.18895547973E+02  0.19970797637E+02 -0.10265998833E+02  0.29347320551E+02  0.00000000000E+00 0.  1.
         12    1    3    3    0    0 -0.23882919061E+02 -0.17509117709E+02 -0.18055648346E+03  0.18296886824E+03  0.00000000000E+00 0. -1.
        -11    1    4    4    0    0  0.20139140478E+02 -0.51162430162E+02  0.31088596355E+01  0.55071265171E+02  0.00000000000E+00 0.  1.
         11    1    4    4    0    0 -0.12143899807E+02  0.21691593188E+02 -0.39811773651E+02  0.46935880079E+02  0.00000000000E+00 0. -1.
         -4    1    1    2    0  502  0.34783226363E+02  0.27009157046E+02 -0.51408130951E+02  0.67691678428E+02  0.00000000000E+00 0.  1.
<scales pt_clust_5="13000.00000" pt_clust_6="13000.00000" pt_clust_7="13000.00000" pt_clust_8="13000.00000" pt_clust_9="13000.00000"></scales>
<clustering>
<clus scale="   82.637">  5  6 -1 -1</clus>
<clus scale="   90.144">  7  8 -1 -1</clus>
<clus scale="   44.038">  7  9 -1 -1</clus>
<clus scale="   93.086">  1  5  2 -1</clus>
<clus scale="  145.031">  2  5  1 -1</clus>
</clustering>
</event>
<event>
 9    2  0.3897980E-005  0.2278990E+03  0.7546771E-02  0.1170600E+00
         21   -1    0    0  501  502  0.00000000000E+00  0.00000000000E+00  0.43796205272E+02  0.43796205272E+02  0.00000000000E+00 0. -1.
          2   -1    0    0  502    0 -0.00000000000E+00 -0.00000000000E+00 -0.66191474821E+03  0.66191474821E+03  0.00000000000E+00 0. -1.
         24    2    1    2    0    0 -0.15744433467E+02 -0.16904515015E+02 -0.31899256224E+03  0.32966002927E+03  0.79911390426E+02 0.  0.
         23    2    1    2    0    0 -0.46914695916E+02 -0.57440604481E+02 -0.22437203948E+03  0.25340706984E+03  0.91498192384E+02 0.  0.
        -13    1    3    3    0    0  0.19766673459E+02  0.20299109520E+02 -0.72096781608E+02  0.77464321756E+02  0.00000000000E+00 0.  1.
         14    1    3    3    0    0 -0.35511106926E+02 -0.37203624535E+02 -0.24689578063E+03  0.25219570751E+03  0.00000000000E+00 0. -1.
        -13    1    4    4    0    0 -0.46842095012E+01 -0.59843177477E+02 -0.18888541804E+03  0.19819396777E+03  0.00000000000E+00 0. -1.
         13    1    4    4    0    0 -0.42230486415E+02  0.24025729962E+01 -0.35486621432E+02  0.55213102073E+02  0.00000000000E+00 0.  1.
          1    1    1    2  501    0  0.62659129382E+02  0.74345119496E+02 -0.74753941223E+02  0.12264385438E+03  0.00000000000E+00 0. -1.
<scales pt_clust_5="13000.00000" pt_clust_6="13000.00000" pt_clust_7="13000.00000" pt_clust_8="13000.00000" pt_clust_9="13000.00000"></scales>
<clustering>
<clus scale="   79.911">  5  6 -1 -1</clus>
<clus scale="   83.183">  2  5  1 -1</clus>
<clus scale="   91.498">  7  8 -1 -1</clus>
<clus scale="   90.483">  7  9 -1 -1</clus>
<clus scale="  227.899">  1  5  2 -1</clus>
</clustering>
</event>
<event>
 9    2  0.3897980E-005  0.1559516E+03  0.7546771E-02  0.1223750E+00
          2   -1    0    0  502    0 -0.00000000000E+00  0.00000000000E+00  0.80558682733E+03  0.80558682733E+03  0.00000000000E+00 0. -1.
         21   -1    0    0  501  502  0.00000000000E+00 -0.00000000000E+00 -0.17610199792E+02  0.17610199792E+02  0.00000000000E+00 0. -1.
         24    2    1    2    0    0  0.49979391542E+01 -0.12047983758E+02  0.23661017695E+03  0.25019976321E+03  0.80283325576E+02 0.  0.
         23    2    1    2    0    0 -0.36267803429E+02 -0.91871910482E+01  0.33881450159E+03  0.35711056195E+03  0.10645623008E+03 0.  0.
        -11    1    3    3    0    0  0.34235017981E+02 -0.26108031900E+02  0.17878085892E+03  0.18389198270E+03  0.00000000000E+00 0.  1.
         12    1    3    3    0    0 -0.29237078827E+02  0.14060048143E+02  0.57829318034E+02  0.66307780512E+02  0.00000000000E+00 0. -1.
        -11    1    4    4    0    0 -0.37690230825E+02 -0.55134521369E+02  0.19387139306E+03  0.20505239817E+03  0.00000000000E+00 0. -1.
         11    1    4    4    0    0  0.14224273960E+01  0.45947330321E+02  0.14494310853E+03  0.15205816378E+03  0.00000000000E+00 0.  1.
          1    1    1    2  501    0  0.31269864274E+02  0.21235174806E+02  0.21255194899E+03  0.21588670195E+03  0.00000000000E+00 0. -1.
<scales pt_clust_5="13000.00000" pt_clust_6="13000.00000" pt_clust_7="13000.00000" pt_clust_8="13000.00000" pt_clust_9="13000.00000"></scales>
<clustering>
<clus scale="   80.283">  5  6 -1 -1</clus>
<clus scale="   81.336">  1  5  2 -1</clus>
<clus scale="  106.456">  7  8 -1 -1</clus>
<clus scale="   37.116">  7  9 -1 -1</clus>
<clus scale="  155.952">  2  5  1 -1</clus>
</clustering>
</event>
<event>
 9    2  0.3897980E-005  0.8262988E+03  0.7546771E-02  0.9849737E-01
          2   -1    0    0  502    0 -0.00000000000E+00  0.00000000000E+00  0.20305041821E+04  0.20305041821E+04  0.00000000000E+00 0. -1.
         21   -1    0    0  501  502  0.00000000000E+00 -0.00000000000E+00 -0.15085808820E+03  0.15085808820E+03  0.00000000000E+00 0. -1.
         24    2    1    2    0    0  0.72369574858E+02  0.25294309423E+03  0.56933498473E+03  0.63227065250E+03  0.80039295907E+02 0.  0.
         23    2    1    2    0    0  0.26558839936E+03  0.69581440012E+02  0.83158855141E+03  0.88020227358E+03  0.88531061766E+02 0.  0.
        -13    1    3    3    0    0  0.40658426288E+02  0.60344473844E+02  0.97527180262E+02  0.12168037657E+03  0.00000000000E+00 0.  1.
         14    1    3    3    0    0  0.31711148570E+02  0.19259862039E+03  0.47180780447E+03  0.51059027593E+03  0.00000000000E+00 0. -1.
        -13    1    4    4    0    0  0.39021754236E+02 -0.17919523686E+02  0.87308281958E+02  0.97296159899E+02  0.00000000000E+00 0.  1.
         13    1    4    4    0    0  0.22656664513E+03  0.87500963698E+02  0.74428026946E+03  0.78290611368E+03  0.00000000000E+00 0. -1.
          1    1    1    2  501    0 -0.33795797422E+03 -0.32252453424E+03  0.47872255776E+03  0.66888934424E+03  0.00000000000E+00 0. -1.
<scales pt_clust_5="13000.00000" pt_clust_6="13000.00000" pt_clust_7="13000.00000" pt_clust_8="13000.00000" pt_clust_9="13000.00000"></scales>
<clustering>
<clus scale="   80.039">  5  6 -1 -1</clus>
<clus scale="   88.531">  7  8 -1 -1</clus>
<clus scale="  274.998">  1  5  2 -1</clus>
<clus scale="  379.830">  7  9 -1 -1</clus>
<clus scale="  826.299">  2  5  1 -1</clus>
</clustering>
</event>
<event>
 9    2  0.3897980E-005  0.8062596E+03  0.7546771E-02  0.1009594E+00
          2   -1    0    0  502    0 -0.00000000000E+00  0.00000000000E+00  0.17417089970E+04  0.17417089970E+04  0.00000000000E+00 0. -1.
         21   -1    0    0  501  502  0.00000000000E+00 -0.00000000000E+00 -0.13868530997E+03  0.13868530997E+03  0.00000000000E+00 0. -1.
         24    2    1    2    0    0 -0.69401721137E+01  0.11115779146E+03  0.47410165094E+03  0.49312375442E+03  0.77423776419E+02 0.  0.
         23    2    1    2    0    0 -0.26546772335E+03  0.18999830536E+03  0.78206542037E+03  0.85321946134E+03  0.98917436808E+02 0.  0.
        -11    1    3    3    0    0  0.92459841009E+01  0.19023755402E+02  0.18759719813E+02  0.28272222747E+02  0.00000000000E+00 0.  1.
         12    1    3    3    0    0 -0.16186156215E+02  0.92134036056E+02  0.45534193113E+03  0.46485153167E+03  0.00000000000E+00 0. -1.
        -11    1    4    4    0    0 -0.15294231781E+03  0.56509910570E+02  0.43864202399E+03  0.46796532754E+03  0.00000000000E+00 0.  1.
         11    1    4    4    0    0 -0.11252540555E+03  0.13348839479E+03  0.34342339638E+03  0.38525413381E+03  0.00000000000E+00 0. -1.
          1    1    1    2  501    0  0.27240789547E+03 -0.30115609681E+03  0.34685661574E+03  0.53405109123E+03  0.00000000000E+00 0. -1.
<scales pt_clust_5="13000.00000" pt_clust_6="13000.00000" pt_clust_7="13000.00000" pt_clust_8="13000.00000" pt_clust_9="13000.00000"></scales>
<clustering>
<clus scale="   77.424">  5  6 -1 -1</clus>
<clus scale="   98.917">  7  8 -1 -1</clus>
<clus scale="  135.642">  1  5  2 -1</clus>
<clus scale="  376.375">  7  9 -1 -1</clus>
<clus scale="  806.260">  2  5  1 -1</clus>
</clustering>
</event>
<event>
 9    2  0.3897980E-005  0.3189064E+03  0.7546771E-02  0.1085888E+00
         21   -1    0    0  501  502  0.00000000000E+00  0.00000000000E+00  0.28788524689E+03  0.28788524689E+03  0.00000000000E+00 0.  1.
         -1   -1    0    0    0  501 -0.00000000000E+00 -0.00000000000E+00 -0.31253656227E+03  0.31253656227E+03  0.00000000000E+00 0.  1.
         24    2    1    2    0    0 -0.21320783344E+03 -0.92816757945E+02  0.90117077351E+02  0.26149251749E+03  0.78642979820E+02 0.  0.
         23    2    1    2    0    0  0.46561722013E+02 -0.16090214156E+02 -0.91930239152E+02  0.13854656715E+03  0.91198100036E+02 0.  0.
        -11    1    3    3    0    0 -0.12691722462E+03 -0.21526345212E+02  0.73786252938E+02  0.14837714300E+03  0.00000000000E+00 0.  1.
         12    1    3    3    0    0 -0.86290608826E+02 -0.71290412733E+02  0.16330824413E+02  0.11311537449E+03  0.00000000000E+00 0. -1.
        -11    1    4    4    0    0  0.45650950082E+02  0.48554954503E+01 -0.10447353022E+03  0.11411530834E+03  0.00000000000E+00 0.  1.
         11    1    4    4    0    0  0.91077193077E+00 -0.20945709606E+02  0.12543291070E+02  0.24431258815E+02  0.00000000000E+00 0. -1.
         -2    1    1    2    0  502  0.16664611143E+03  0.10890697210E+03 -0.22838153582E+02  0.20038272452E+03  0.00000000000E+00 0.  1.
<scales pt_clust_5="13000.00000" pt_clust_6="13000.00000" pt_clust_7="13000.00000" pt_clust_8="13000.00000" pt_clust_9="13000.00000"></scales>
<clustering>
<clus scale="   78.643">  5  6 -1 -1</clus>
<clus scale="   91.198">  7  8 -1 -1</clus>
<clus scale="  199.077">  7  9 -1 -1</clus>
<clus scale="  245.474">  2  5  1 -1</clus>
<clus scale="  318.906">  1  5  2 -1</clus>
</clustering>
</event>
<event>
 9    2  0.3897980E-005  0.3220553E+03  0.7546771E-02  0.1091201E+00
          2   -1    0    0  502    0 -0.00000000000E+00  0.00000000000E+00  0.62001765373E+03  0.62001765373E+03  0.00000000000E+00 0. -1.
         21   -1    0    0  501  502  0.00000000000E+00 -0.00000000000E+00 -0.12223600058E+03  0.12223600058E+03  0.00000000000E+00 0.  1.
         24    2    1    2    0    0  0.18715506413E+03 -0.35362254252E+02  0.98480316862E+02  0.22926128958E+03  0.81147144355E+02 0.  0.
         23    2    1    2    0    0  0.72864492721E+01  0.65844335297E+02  0.84544201396E+02  0.14176640474E+03  0.92527956257E+02 0.  0.
        -11    1    3    3    0    0  0.17864427269E+03 -0.12362186150E+02  0.99227106913E+02  0.20472571543E+03  0.00000000000E+00 0.  1.
         12    1    3    3    0    0  0.85107914360E+01 -0.23000068102E+02 -0.74679005130E+00  0.24535574152E+02  0.00000000000E+00 0. -1.
        -13    1    4    4    0    0  0.28212445671E+02 -0.58238255526E+01 -0.22223626573E+00  0.28808131209E+02  0.00000000000E+00 0. -1.
         13    1    4    4    0    0 -0.20925996399E+02  0.71668160850E+02  0.84766437662E+02  0.11295827353E+03  0.00000000000E+00 0.  1.
          1    1    1    2  501    0 -0.19444151340E+03 -0.30482081045E+02  0.31475713490E+03  0.37122595999E+03  0.00000000000E+00 0. -1.
<scales pt_clust_5="13000.00000" pt_clust_6="13000.00000" pt_clust_7="13000.00000" pt_clust_8="13000.00000" pt_clust_9="13000.00000"></scales>
<clustering>
<clus scale="   81.147">  5  6 -1 -1</clus>
<clus scale="   92.528">  7  8 -1 -1</clus>
<clus scale="  196.816">  7  9 -1 -1</clus>
<clus scale="  207.032">  1  5  2 -1</clus>
<clus scale="  322.055">  2  5  1 -1</clus>
</clustering>
</event>
<event>
 9    2  0.3897980E-005  0.3348500E+03  0.7546771E-02  0.1111624E+00
          2   -1    0    0  502    0 -0.00000000000E+00  0.00000000000E+00  0.10201031426E+03  0.10201031426E+03  0.00000000000E+00 0. -1.
         21   -1    0    0  501  502  0.00000000000E+00 -0.00000000000E+00 -0.48296443390E+03  0.48296443390E+03  0.00000000000E+00 0. -1.
         24    2    1    2    0    0  0.60898061696E+02  0.39665718917E+02 -0.81540101242E+02  0.13578292809E+03  0.80661467092E+02 0.  0.
         23    2    1    2    0    0  0.94813641563E+02 -0.72626082351E+02 -0.61082275145E+02  0.16260057818E+03  0.91889766689E+02 0.  0.
        -13    1    3    3    0    0  0.64185354737E+02  0.26828369449E+01 -0.26728802814E+02  0.69580070973E+02  0.00000000000E+00 0.  1.
         14    1    3    3    0    0 -0.32872930409E+01  0.36982881972E+02 -0.54811298428E+02  0.66202857113E+02  0.00000000000E+00 0. -1.
        -11    1    4    4    0    0 -0.12347230231E+02 -0.32276780288E+02 -0.24615691861E+02  0.42428491912E+02  0.00000000000E+00 0.  1.
         11    1    4    4    0    0  0.10716087179E+03 -0.40349302064E+02 -0.36466583284E+02  0.12017208626E+03  0.00000000000E+00 0. -1.
          1    1    1    2  501    0 -0.15571170326E+03  0.32960363435E+02 -0.23833174325E+03  0.28659124190E+03  0.00000000000E+00 0. -1.
<scales pt_clust_5="13000.00000" pt_clust_6="13000.00000" pt_clust_7="13000.00000" pt_clust_8="13000.00000" pt_clust_9="13000.00000"></scales>
<clustering>
<clus scale="   80.661">  5  6 -1 -1</clus>
<clus scale="   91.890">  7  8 -1 -1</clus>
<clus scale="  108.574">  1  5  2 -1</clus>
<clus scale="  143.571">  7  9 -1 -1</clus>
<clus scale="  334.850">  2  5  1 -1</clus>
</clustering>
</event>
<event>
 9    2  0.3897980E-005  0.1532031E+03  0.7546771E-02  0.1222383E+00
         21   -1    0    0  501  502  0.00000000000E+00  0.00000000000E+00  0.39686076024E+02  0.39686076024E+02  0.00000000000E+00 0. -1.
          2   -1    0    0  502    0 -0.00000000000E+00 -0.00000000000E+00 -0.38596328213E+03  0.38596328213E+03  0.00000000000E+00 0. -1.
         24    2    1    2    0    0  0.72809789324E+00  0.38351241115E+02 -0.17394723833E+03  0.19506570789E+03  0.79508747008E+02 0.  0.
         23    2    1    2    0    0 -0.25116219061E+02  0.28503591772E+01 -0.15112821303E+03  0.17822081301E+03  0.91016330457E+02 0.  0.
        -13    1    3    3    0    0  0.35719147881E+02  0.60824003582E+01 -0.10664698682E+03  0.11263406642E+03  0.00000000000E+00 0.  1.
         14    1    3    3    0    0 -0.34991049988E+02  0.32268840757E+02 -0.67300251508E+02  0.82431641473E+02  0.00000000000E+00 0. -1.
        -11    1    4    4    0    0 -0.49620162853E+02 -0.14659763438E+02 -0.13384322363E+03  0.14349591540E+03  0.00000000000E+00 0.  1.
         11    1    4    4    0    0  0.24503943792E+02  0.17510122615E+02 -0.17284989398E+02  0.34724897608E+02  0.00000000000E+00 0. -1.
          1    1    1    2  501    0  0.24388121168E+02 -0.41201600292E+02 -0.21201754749E+02  0.52362837253E+02  0.00000000000E+00 0. -1.
<scales pt_clust_5="13000.00000" pt_clust_6="13000.00000" pt_clust_7="13000.00000" pt_clust_8="13000.00000" pt_clust_9="13000.00000"></scales>
<clustering>
<clus scale="   79.509">  5  6 -1 -1</clus>
<clus scale="   88.278">  2  5  1 -1</clus>
<clus scale="   91.016">  7  8 -1 -1</clus>
<clus scale="   42.082">  7  9 -1 -1</clus>
<clus scale="  153.203">  1  5  2 -1</clus>
</clustering>
</event>
<event>
 9    2  0.3897980E-005  0.4785046E+03  0.7546771E-02  0.1067866E+00
         21   -1    0    0  501  502  0.00000000000E+00  0.00000000000E+00  0.76536717863E+02  0.76536717863E+02  0.00000000000E+00 0. -1.
          2   -1    0    0  502    0 -0.00000000000E+00 -0.00000000000E+00 -0.11829596784E+04  0.11829596784E+04  0.00000000000E+00 0. -1.
         24    2    1    2    0    0  0.73248804007E+02  0.46577915916E+02 -0.28894534236E+03  0.31227080440E+03  0.80552807928E+02 0.  0.
         23    2    1    2    0    0  0.16840630512E+02  0.11320772353E+03 -0.45232198711E+02  0.15349355606E+03  0.91731807184E+02 0.  0.
        -11    1    3    3    0    0  0.25412986991E+02  0.61544496290E+02 -0.19047819380E+03  0.20178079008E+03  0.00000000000E+00 0.  1.
         12    1    3    3    0    0  0.47835817016E+02 -0.14966580374E+02 -0.98467148566E+02  0.11049001432E+03  0.00000000000E+00 0. -1.
        -13    1    4    4    0    0 -0.97650373054E+01  0.10313134217E+03 -0.43467504846E+01  0.10368376889E+03  0.00000000000E+00 0. -1.
         13    1    4    4    0    0  0.26605667818E+02  0.10076381359E+02 -0.40885448226E+02  0.49809787170E+02  0.00000000000E+00 0.  1.
          1    1    1    2  501    0 -0.90089434519E+02 -0.15978563945E+03 -0.77224541950E+03  0.79373203584E+03  0.00000000000E+00 0. -1.
<scales pt_clust_5="13000.00000" pt_clust_6="13000.00000" pt_clust_7="13000.00000" pt_clust_8="13000.00000" pt_clust_9="13000.00000"></scales>
<clustering>
<clus scale="   80.553">  5  6 -1 -1</clus>
<clus scale="   91.732">  7  8 -1 -1</clus>
<clus scale="  118.421">  2  5  1 -1</clus>
<clus scale="  121.081">  7  9 -1 -1</clus>
<clus scale="  478.505">  1  5  2 -1</clus>
</clustering>
</event>
<event>
 9    2  0.3897980E-005  0.8435746E+03  0.7546771E-02  0.1006542E+00
         21   -1    0    0  501  502  0.00000000000E+00  0.00000000000E+00  0.17280667732E+03  0.17280667732E+03  0.00000000000E+00 0. -1.
          2   -1    0    0  502    0 -0.00000000000E+00 -0.00000000000E+00 -0.15176596638E+04  0.15176596638E+04  0.00000000000E+00 0. -1.
         24    2    1    2    0    0  0.29823736063E+02  0.98162411245E+02 -0.39105729091E+02  0.13592654679E+03  0.80133974439E+02 0.  0.
         23    2    1    2    0    0  0.12706709521E+03 -0.17031447801E+03 -0.13552743524E+04  0.13748912853E+04  0.91675558745E+02 0.  0.
        -11    1    3    3    0    0  0.42936124514E+02  0.98258123239E+02 -0.50526691929E+02  0.11853740409E+03  0.00000000000E+00 0.  1.
         12    1    3    3    0    0 -0.13112388450E+02 -0.95711993717E-01  0.11420962837E+02  0.17389142699E+02  0.00000000000E+00 0. -1.
        -11    1    4    4    0    0  0.12900669041E+03 -0.10617317630E+03 -0.10026800105E+04  0.10165051269E+04  0.00000000000E+00 0. -1.
         11    1    4    4    0    0 -0.19395952016E+01 -0.64141301712E+02 -0.35259434187E+03  0.35838615840E+03  0.00000000000E+00 0.  1.
          1    1    1    2  501    0 -0.15689083127E+03  0.72152066767E+02  0.49527094957E+02  0.17964850907E+03  0.00000000000E+00 0. -1.
<scales pt_clust_5="13000.00000" pt_clust_6="13000.00000" pt_clust_7="13000.00000" pt_clust_8="13000.00000" pt_clust_9="13000.00000"></scales>
<clustering>
<clus scale="   80.134">  5  6 -1 -1</clus>
<clus scale="   91.676">  7  8 -1 -1</clus>
<clus scale="  130.180">  2  5  1 -1</clus>
<clus scale="  173.382">  7  9 -1 -1</clus>
<clus scale="  843.575">  1  5  2 -1</clus>
</clustering>
</event>
<event>
 9    2  0.3897980E-005  0.2572200E+03  0.7546771E-02  0.1138018E+00
         21   -1    0    0  501  502  0.00000000000E+00  0.00000000000E+00  0.61267097847E+02  0.61267097847E+02  0.00000000000E+00 0.  1.
         -3   -1    0    0    0  501 -0.00000000000E+00 -0.00000000000E+00 -0.63987334274E+03  0.63987334274E+03  0.00000000000E+00 0.  1.
         24    2    1    2    0    0  0.31715322554E+02 -0.89636944731E+02 -0.28373841420E+03  0.30984876944E+03  0.80362483061E+02 0.  0.
         23    2    1    2    0    0  0.69524798149E+02  0.15215912855E+02 -0.71013936192E+02  0.13458440965E+03  0.89469339020E+02 0.  0.
        -13    1    3    3    0    0  0.18020840163E+02 -0.37155585146E+02 -0.22934911209E+03  0.23303712881E+03  0.00000000000E+00 0.  1.
         14    1    3    3    0    0  0.13694482392E+02 -0.52481359585E+02 -0.54389302111E+02  0.76811640628E+02  0.00000000000E+00 0. -1.
        -11    1    4    4    0    0  0.16066140323E+02  0.12545763423E+02  0.20281579654E+02  0.28755165067E+02  0.00000000000E+00 0.  1.
         11    1    4    4    0    0  0.53458657826E+02  0.26701494317E+01 -0.91295515846E+02  0.10582924458E+03  0.00000000000E+00 0. -1.
         -4    1    1    2    0  502 -0.10124012070E+03  0.74421031876E+02 -0.22385389451E+03  0.25670726151E+03  0.00000000000E+00 0.  1.
<scales pt_clust_5="13000.00000" pt_clust_6="13000.00000" pt_clust_7="13000.00000" pt_clust_8="13000.00000" pt_clust_9="13000.00000"></scales>
<clustering>
<clus scale="   80.362">  5  6 -1 -1</clus>
<clus scale="   89.469">  7  8 -1 -1</clus>
<clus scale="  124.494">  2  5  1 -1</clus>
<clus scale="   79.881">  7  9 -1 -1</clus>
<clus scale="  257.220">  1  5  2 -1</clus>
</clustering>
</event>
<event>
 9    2  0.3897980E-005  0.3104169E+03  0.7546771E-02  0.1100320E+00
         21   -1    0    0  501  502  0.00000000000E+00  0.00000000000E+00  0.75146492387E+03  0.75146492387E+03  0.00000000000E+00 0.  1.
          2   -1    0    0  502    0 -0.00000000000E+00 -0.00000000000E+00 -0.86216697486E+02  0.86216697486E+02  0.00000000000E+00 0. -1.
         24    2    1    2    0    0  0.16282034391E+03  0.12135811846E+02  0.14913719626E+03  0.23541154674E+03  0.80740019254E+02 0.  0.
         23    2    1    2    0    0 -0.14111843483E+02 -0.90899844888E+02  0.14527128585E+03  0.19503536719E+03  0.92049562926E+02 0.  0.
        -11    1    3    3    0    0  0.10993495858E+03 -0.24246429462E+02  0.66425585203E+02  0.13071320832E+03  0.00000000000E+00 0.  1.
         12    1    3    3    0    0  0.52885385333E+02  0.36382241308E+02  0.82711611056E+02  0.10469833842E+03  0.00000000000E+00 0. -1.
        -13    1    4    4    0    0  0.25557941250E+01 -0.41048930336E+02  0.13545731871E+03  0.14156352623E+03  0.00000000000E+00 0.  1.
         13    1    4    4    0    0 -0.16667637608E+02 -0.49850914552E+02  0.98139671425E+01  0.53471840965E+02  0.00000000000E+00 0. -1.
          1    1    1    2  501    0 -0.14870850043E+03  0.78764033042E+02  0.37083974427E+03  0.40723470742E+03  0.00000000000E+00 0. -1.
<scales pt_clust_5="13000.00000" pt_clust_6="13000.00000" pt_clust_7="13000.00000" pt_clust_8="13000.00000" pt_clust_9="13000.00000"></scales>
<clustering>
<clus scale="   80.740">  5  6 -1 -1</clus>
<clus scale="   92.050">  7  8 -1 -1</clus>
<clus scale="  168.280">  7  9 -1 -1</clus>
<clus scale="  182.145">  2  5  1 -1</clus>
<clus scale="  310.417">  1  5  2 -1</clus>
</clustering>
</event>
<event>
 9    2  0.3897980E-005  0.2963154E+03  0.7546771E-02  0.1122662E+00
         21   -1    0    0  501  502  0.00000000000E+00  0.00000000000E+00  0.12813393852E+03  0.12813393852E+03  0.00000000000E+00 0. -1.
          2   -1    0    0  502    0 -0.00000000000E+00 -0.00000000000E+00 -0.35293801706E+03  0.35293801706E+03  0.00000000000E+00 0. -1.
         24    2    1    2    0    0 -0.43023809188E+02  0.75248213695E+02 -0.11438399969E+03  0.16485140537E+03  0.81110693776E+02 0.  0.
         23    2    1    2    0    0 -0.68313315590E+02  0.47192855310E+02 -0.88499600793E+02  0.14928260339E+03  0.86943899465E+02 0.  0.
        -13    1    3    3    0    0 -0.27696156642E+02 -0.10805598183E+02 -0.18081887507E+02  0.34796446667E+02  0.00000000000E+00 0.  1.
         14    1    3    3    0    0 -0.15327652546E+02  0.86053811879E+02 -0.96302112184E+02  0.13005495870E+03  0.00000000000E+00 0. -1.
        -11    1    4    4    0    0 -0.21153785594E+02 -0.24042208522E+02 -0.39307810193E+02  0.50701226590E+02  0.00000000000E+00 0.  1.
         11    1    4    4    0    0 -0.47159529996E+02  0.71235063832E+02 -0.49191790600E+02  0.98581376796E+02  0.00000000000E+00 0. -1.
          1    1    1    2  501    0  0.11133712478E+03 -0.12244106901E+03 -0.21920478056E+02  0.16693794683E+03  0.00000000000E+00 0. -1.
<scales pt_clust_5="13000.00000" pt_clust_6="13000.00000" pt_clust_7="13000.00000" pt_clust_8="13000.00000" pt_clust_9="13000.00000"></scales>
<clustering>
<clus scale="   81.111">  5  6 -1 -1</clus>
<clus scale="   86.944">  7  8 -1 -1</clus>
<clus scale="  118.711">  2  5  1 -1</clus>
<clus scale="  128.305">  7  9 -1 -1</clus>
<clus scale="  296.315">  1  5  2 -1</clus>
</clustering>
</event>
<event>
 9    2  0.3897980E-005  0.3348738E+03  0.7546771E-02  0.1096828E+00
          4   -1    0    0  502    0 -0.00000000000E+00  0.00000000000E+00  0.42978172961E+03  0.42978172961E+03  0.00000000000E+00 0. -1.
         21   -1    0    0  501  502  0.00000000000E+00 -0.00000000000E+00 -0.34443987604E+03  0.34443987604E+03  0.00000000000E+00 0. -1.
         24    2    1    2    0    0 -0.22379594278E+02 -0.13672271045E+03  0.32545182634E+03  0.36216178856E+03  0.77770971655E+02 0.  0.
         23    2    1    2    0    0 -0.56097417934E+02  0.98295278205E+02  0.12297706468E+02  0.14495507073E+03  0.89732139900E+02 0.  0.
        -13    1    3    3    0    0 -0.47049113192E+02 -0.67729244773E+02  0.13619845625E+03  0.15921962547E+03  0.00000000000E+00 0.  1.
         14    1    3    3    0    0  0.24669518914E+02 -0.68993465675E+02  0.18925337009E+03  0.20294216309E+03  0.00000000000E+00 0. -1.
        -13    1    4    4    0    0 -0.27975297394E+02  0.11031664981E+03  0.82938931140E+01  0.11411033763E+03  0.00000000000E+00 0.  1.
         13    1    4    4    0    0 -0.28122120540E+02 -0.12021371610E+02  0.40038133540E+01  0.30844733106E+02  0.00000000000E+00 0. -1.
          3    1    1    2  501    0  0.78477012212E+02  0.38427432244E+02 -0.25240767924E+03  0.26710474637E+03  0.00000000000E+00 0. -1.
<scales pt_clust_5="13000.00000" pt_clust_6="13000.00000" pt_clust_7="13000.00000" pt_clust_8="13000.00000" pt_clust_9="13000.00000"></scales>
<clustering>
<clus scale="   77.771">  5  6 -1 -1</clus>
<clus scale="   89.732">  7  8 -1 -1</clus>
<clus scale="   87.380">  7  9 -1 -1</clus>
<clus scale="  158.878">  1  5  2 -1</clus>
<clus scale="  334.874">  2  5  1 -1</clus>
</clustering>
</event>
<event>
 9    2  0.3897980E-005  0.2830717E+03  0.7546771E-02  0.1132435E+00
          2   -1    0    0  502    0 -0.00000000000E+00  0.00000000000E+00  0.71558949460E+03  0.71558949460E+03  0.00000000000E+00 0. -1.
         21   -1    0    0  501  502  0.00000000000E+00 -0.00000000000E+00 -0.64440618204E+02  0.64440618204E+02  0.00000000000E+00 0. -1.
         24    2    1    2    0    0 -0.43330808161E+02  0.58680633643E+02  0.55480035839E+02  0.12052200723E+03  0.78272243806E+02 0.  0.
         23    2    1    2    0    0  0.72818618157E+02  0.57716916224E+02  0.15767344472E+03  0.20535186888E+03  0.93137969231E+02 0.  0.
        -11    1    3    3    0    0 -0.31246872625E+02 -0.72517120287E+01 -0.21139241480E+01  0.32146898008E+02  0.00000000000E+00 0.  1.
         12    1    3    3    0    0 -0.12083935536E+02  0.65932345672E+02  0.57593959987E+02  0.88375109226E+02  0.00000000000E+00 0. -1.
        -11    1    4    4    0    0  0.23442255503E+01  0.28304658628E+02 -0.18811496321E+01  0.28463798366E+02  0.00000000000E+00 0.  1.
         11    1    4    4    0    0  0.70474392606E+02  0.29412257596E+02  0.15955459435E+03  0.17688807051E+03  0.00000000000E+00 0. -1.
          1    1    1    2  501    0 -0.29487809995E+02 -0.11639754987E+03  0.43799539584E+03  0.45415623670E+03  0.00000000000E+00 0. -1.
<scales pt_clust_5="13000.00000" pt_clust_6="13000.00000" pt_clust_7="13000.00000" pt_clust_8="13000.00000" pt_clust_9="13000.00000"></scales>
<clustering>
<clus scale="   78.272">  5  6 -1 -1</clus>
<clus scale="   93.138">  7  8 -1 -1</clus>
<clus scale="  106.993">  1  5  2 -1</clus>
<clus scale="   95.984">  7  9 -1 -1</clus>
<clus scale="  283.072">  2  5  1 -1</clus>
</clustering>
</event>
<event>
 9    2  0.5378773E-005  0.7730759E+03  0.7546771E-02  0.9609009E-01
         21   -1    0    0  501  502  0.00000000000E+00  0.00000000000E+00  0.66175104428E+03  0.66175104428E+03  0.00000000000E+00 0. -1.
          2   -1    0    0  502    0 -0.00000000000E+00 -0.00000000000E+00 -0.90776428667E+03  0.90776428667E+03  0.00000000000E+00 0. -1.
         24    2    1    2    0    0  0.64293223197E+03 -0.37594763983E+03  0.26993312092E+02  0.74965013015E+03  0.80920923984E+02 0.  0.
         23    2    1    2    0    0 -0.15942412248E+03  0.51068789532E+02 -0.61006038950E+02  0.19996958224E+03  0.90785598754E+02 0.  0.
        -13    1    3    3    0    0  0.59483496528E+02 -0.59715970253E+02  0.16740699646E+02  0.85933314187E+02  0.00000000000E+00 0.  1.
         14    1    3    3    0    0  0.58344873544E+03 -0.31623166957E+03  0.10252612446E+02  0.66371681596E+03  0.00000000000E+00 0. -1.
        -13    1    4    4    0    0 -0.10149342272E+03  0.11376369092E+02  0.67963947339E+01  0.10235491004E+03  0.00000000000E+00 0. -1.
         13    1    4    4    0    0 -0.57930699767E+02  0.39692420440E+02 -0.67802433684E+02  0.97614672203E+02  0.00000000000E+00 0.  1.
          1    1    1    2  501    0 -0.48350810949E+03  0.32487885030E+03 -0.21200051553E+03  0.61989561855E+03  0.00000000000E+00 0. -1.
<scales pt_clust_5="13000.00000" pt_clust_6="13000.00000" pt_clust_7="13000.00000" pt_clust_8="13000.00000" pt_clust_9="13000.00000"></scales>
<clustering>
<clus scale="   80.921">  5  6 -1 -1</clus>
<clus scale="   90.786">  7  8 -1 -1</clus>
<clus scale="  582.518">  7  9 -1 -1</clus>
<clus scale="  749.164">  2  5  1 -1</clus>
<clus scale="  773.076">  1  5  2 -1</clus>
</clustering>
</event>
<event>
 9    2  0.3897980E-005  0.4655281E+03  0.7546771E-02  0.1035001E+00
         21   -1    0    0  501  502  0.00000000000E+00  0.00000000000E+00  0.71246782284E+02  0.71246782284E+02  0.00000000000E+00 0. -1.
          2   -1    0    0  502    0 -0.00000000000E+00 -0.00000000000E+00 -0.22392309666E+04  0.22392309666E+04  0.00000000000E+00 0. -1.
         24    2    1    2    0    0  0.21389150606E+03  0.23468946438E+03 -0.10331369793E+04  0.10838585844E+04  0.80923987328E+02 0.  0.
         23    2    1    2    0    0  0.63208886166E+01 -0.12408581897E+03 -0.16204387434E+03  0.22308890329E+03  0.89850973594E+02 0.  0.
        -13    1    3    3    0    0  0.10569131447E+03  0.88952679003E+02 -0.56807176534E+03  0.58462702951E+03  0.00000000000E+00 0.  1.
         14    1    3    3    0    0  0.10820019159E+03  0.14573678538E+03 -0.46506521401E+03  0.49923155485E+03  0.00000000000E+00 0. -1.
        -11    1    4    4    0    0 -0.36653947437E+02 -0.29539955086E+02 -0.33224670058E+02  0.57619436908E+02  0.00000000000E+00 0.  1.
         11    1    4    4    0    0  0.42974836053E+02 -0.94545863886E+02 -0.12881920428E+03  0.16546946638E+03  0.00000000000E+00 0. -1.
          1    1    1    2  501    0 -0.22021239468E+03 -0.11060364541E+03 -0.97280333060E+03  0.10035302612E+04  0.00000000000E+00 0. -1.
<scales pt_clust_5="13000.00000" pt_clust_6="13000.00000" pt_clust_7="13000.00000" pt_clust_8="13000.00000" pt_clust_9="13000.00000"></scales>
<clustering>
<clus scale="   80.924">  5  6 -1 -1</clus>
<clus scale="   89.851">  7  8 -1 -1</clus>
<clus scale="  246.428">  7  9 -1 -1</clus>
<clus scale="  327.685">  2  5  1 -1</clus>
<clus scale="  465.528">  1  5  2 -1</clus>
</clustering>
</event>
<event>
 9    2  0.3897980E-005  0.1775228E+03  0.7546771E-02  0.1205302E+00
          2   -1    0    0  502    0 -0.00000000000E+00  0.00000000000E+00  0.28701897413E+03  0.28701897413E+03  0.00000000000E+00 0. -1.
         21   -1    0    0  501  502  0.00000000000E+00 -0.00000000000E+00 -0.96995111589E+02  0.96995111589E+02  0.00000000000E+00 0. -1.
         24    2    1    2    0    0  0.47922395079E+01 -0.19536939390E+02 -0.42129285500E+02  0.91765194046E+02  0.79002003653E+02 0.  0.
         23    2    1    2    0    0  0.21710705285E+02  0.43609008054E+02  0.66804779057E+02  0.12306865140E+03  0.91158730498E+02 0.  0.
        -13    1    3    3    0    0  0.26154811352E+02 -0.38091043519E+02 -0.71204497087E+01  0.46751497915E+02  0.00000000000E+00 0.  1.
         14    1    3    3    0    0 -0.21362571844E+02  0.18554104129E+02 -0.35008835791E+02  0.45013696130E+02  0.00000000000E+00 0. -1.
        -13    1    4    4    0    0 -0.20406830703E+02 -0.17796634854E+02  0.28576372081E+02  0.39367092765E+02  0.00000000000E+00 0.  1.
         13    1    4    4    0    0  0.42117535988E+02  0.61405642908E+02  0.38228406975E+02  0.83701558638E+02  0.00000000000E+00 0. -1.
          1    1    1    2  501    0 -0.26502944793E+02 -0.24072068664E+02  0.16534836899E+03  0.16918024027E+03  0.00000000000E+00 0. -1.
<scales pt_clust_5="13000.00000" pt_clust_6="13000.00000" pt_clust_7="13000.00000" pt_clust_8="13000.00000" pt_clust_9="13000.00000"></scales>
<clustering>
<clus scale="   79.002">  5  6 -1 -1</clus>
<clus scale="   81.523">  1  5  2 -1</clus>
<clus scale="   91.159">  7  8 -1 -1</clus>
<clus scale="   43.411">  7  9 -1 -1</clus>
<clus scale="  177.523">  2  5  1 -1</clus>
</clustering>
</event>
<event>
 9    2  0.3897980E-005  0.1982640E+03  0.7546771E-02  0.1173330E+00
         21   -1    0    0  501  502  0.00000000000E+00  0.00000000000E+00  0.36425559880E+02  0.36425559880E+02  0.00000000000E+00 0.  1.
          2   -1    0    0  502    0 -0.00000000000E+00 -0.00000000000E+00 -0.69023788736E+03  0.69023788736E+03  0.00000000000E+00 0. -1.
         24    2    1    2    0    0 -0.85167963247E+02 -0.23232863581E+02 -0.25561523736E+03  0.28183816339E+03  0.79374132159E+02 0.  0.
         23    2    1    2    0    0  0.95215412657E+02 -0.13948459480E+02 -0.35554166587E+03  0.38735453267E+03  0.11988796219E+03 0.  0.
        -13    1    3    3    0    0 -0.27838228261E+02  0.28974876970E+02 -0.70634087911E+02  0.81263059401E+02  0.00000000000E+00 0.  1.
         14    1    3    3    0    0 -0.57329734986E+02 -0.52207740551E+02 -0.18498114945E+03  0.20057510399E+03  0.00000000000E+00 0. -1.
        -11    1    4    4    0    0  0.17739174896E+02 -0.60483702133E+02 -0.13385740244E+03  0.14795526600E+03  0.00000000000E+00 0.  1.
         11    1    4    4    0    0  0.77476237761E+02  0.46535242653E+02 -0.22168426343E+03  0.23939926667E+03  0.00000000000E+00 0. -1.
          1    1    1    2  501    0 -0.10047449411E+02  0.37181323061E+02 -0.42655424246E+02  0.57470751185E+02  0.00000000000E+00 0. -1.
<scales pt_clust_5="13000.00000" pt_clust_6="13000.00000" pt_clust_7="13000.00000" pt_clust_8="13000.00000" pt_clust_9="13000.00000"></scales>
<clustering>
<clus scale="   79.374">  5  6 -1 -1</clus>
<clus scale="  118.716">  2  5  1 -1</clus>
<clus scale="  119.888">  7  8 -1 -1</clus>
<clus scale="   39.893">  7  9 -1 -1</clus>
<clus scale="  198.264">  1  5  2 -1</clus>
</clustering>
</event>
<event>
 9    2  0.3897980E-005  0.5149247E+03  0.7546771E-02  0.1047311E+00
          2   -1    0    0  502    0 -0.00000000000E+00  0.00000000000E+00  0.14388328867E+04  0.14388328867E+04  0.00000000000E+00 0. -1.
         21   -1    0    0  501  502  0.00000000000E+00 -0.00000000000E+00 -0.83639284161E+02  0.83639284161E+02  0.00000000000E+00 0.  1.
         24    2    1    2    0    0 -0.14785298658E+03  0.40993064897E+01  0.45362051268E+03  0.48421330560E+03  0.82544811114E+02 0.  0.
         23    2    1    2    0    0 -0.14820769856E+03  0.57973913557E+02  0.18204427937E+03  0.25772909449E+03  0.89205772956E+02 0.  0.
        -13    1    3    3    0    0 -0.15422795523E+03 -0.82100534918E+01  0.42905578470E+03  0.45600716391E+03  0.00000000000E+00 0.  1.
         14    1    3    3    0    0  0.63749686457E+01  0.12309359981E+02  0.24564727980E+02  0.28206141692E+02  0.00000000000E+00 0. -1.
        -13    1    4    4    0    0 -0.81974166073E+02  0.57582997312E+02  0.15836271159E+03  0.18738813705E+03  0.00000000000E+00 0. -1.
         13    1    4    4    0    0 -0.66233532488E+02  0.39091624487E+00  0.23681567776E+02  0.70340957441E+02  0.00000000000E+00 0.  1.
          1    1    1    2  501    0  0.29606068514E+03 -0.62073220046E+02  0.71952881049E+03  0.78052977077E+03  0.00000000000E+00 0. -1.
<scales pt_clust_5="13000.00000" pt_clust_6="13000.00000" pt_clust_7="13000.00000" pt_clust_8="13000.00000" pt_clust_9="13000.00000"></scales>
<clustering>
<clus scale="   82.545">  5  6 -1 -1</clus>
<clus scale="   89.206">  7  8 -1 -1</clus>
<clus scale="  169.384">  1  5  2 -1</clus>
<clus scale="  191.035">  7  9 -1 -1</clus>
<clus scale="  514.925">  2  5  1 -1</clus>
</clustering>
</event>
<event>
 9    2  0.3897980E-005  0.2133385E+03  0.7546771E-02  0.1149759E+00
          4   -1    0    0  502    0 -0.00000000000E+00  0.00000000000E+00  0.21180074044E+03  0.21180074044E+03  0.00000000000E+00 0. -1.
         21   -1    0    0  501  502  0.00000000000E+00 -0.00000000000E+00 -0.41351491937E+03  0.41351491937E+03  0.00000000000E+00 0. -1.
         24    2    1    2    0    0 -0.12001927665E+03 -0.79036232864E+02  0.14419723593E+03  0.21890694816E+03  0.80473947527E+02 0.  0.
         23    2    1    2    0    0  0.11082825458E+03  0.10133724715E+03 -0.33917404818E+03  0.38136470568E+03  0.88588171346E+02 0.  0.
        -13    1    3    3    0    0 -0.73612991554E+02 -0.18626074326E+02  0.30022938435E+02  0.81652801560E+02  0.00000000000E+00 0.  1.
         14    1    3    3    0    0 -0.46406285099E+02 -0.60410158538E+02  0.11417429750E+03  0.13725414660E+03  0.00000000000E+00 0. -1.
        -13    1    4    4    0    0  0.59593815506E+02  0.25084853582E+02 -0.62853785629E+02  0.90173560946E+02  0.00000000000E+00 0.  1.
         13    1    4    4    0    0  0.51234439074E+02  0.76252393571E+02 -0.27632026255E+03  0.29119114473E+03  0.00000000000E+00 0. -1.
          3    1    1    2  501    0  0.91910220722E+01 -0.22301014289E+02 -0.67373666744E+01  0.25044005964E+02  0.00000000000E+00 0. -1.
<scales pt_clust_5="13000.00000" pt_clust_6="13000.00000" pt_clust_7="13000.00000" pt_clust_8="13000.00000" pt_clust_9="13000.00000"></scales>
<clustering>
<clus scale="   80.474">  5  6 -1 -1</clus>
<clus scale="   88.588">  7  8 -1 -1</clus>
<clus scale="   24.121">  7  9 -1 -1</clus>
<clus scale="  164.704">  1  5  2 -1</clus>
<clus scale="  213.339">  2  5  1 -1</clus>
</clustering>
</event>
<event>
 9    2  0.3897980E-005  0.2752437E+03  0.7546771E-02  0.1142971E+00
         21   -1    0    0  501  502  0.00000000000E+00  0.00000000000E+00  0.37174061032E+03  0.37174061032E+03  0.00000000000E+00 0. -1.
          2   -1    0    0  502    0 -0.00000000000E+00 -0.00000000000E+00 -0.89877512327E+02  0.89877512327E+02  0.00000000000E+00 0. -1.
         24    2    1    2    0    0  0.61187189438E+01  0.47218098984E+02  0.63724093736E+02  0.11041484721E+03  0.76574739753E+02 0.  0.
         23    2    1    2    0    0 -0.47123241319E+02  0.82611071626E+02  0.14744122816E+03  0.19779154205E+03  0.91309305765E+02 0.  0.
        -13    1    3    3    0    0  0.37882095795E+02  0.29415420068E+02  0.54994882907E+02  0.72970934388E+02  0.00000000000E+00 0.  1.
         14    1    3    3    0    0 -0.31763376851E+02  0.17802678916E+02  0.87292108293E+01  0.37443912820E+02  0.00000000000E+00 0. -1.
        -11    1    4    4    0    0  0.26601073771E+01  0.76658463071E+02  0.61587371317E+02  0.98369713008E+02  0.00000000000E+00 0.  1.
         11    1    4    4    0    0 -0.49783348696E+02  0.59526085545E+01  0.85853856839E+02  0.99421829042E+02  0.00000000000E+00 0. -1.
          1    1    1    2  501    0  0.41004522376E+02 -0.12982917061E+03  0.70697776107E+02  0.15341173339E+03  0.00000000000E+00 0. -1.
<scales pt_clust_5="13000.00000" pt_clust_6="13000.00000" pt_clust_7="13000.00000" pt_clust_8="13000.00000" pt_clust_9="13000.00000"></scales>
<clustering>
<clus scale="   76.575">  5  6 -1 -1</clus>
<clus scale="   90.170">  2  5  1 -1</clus>
<clus scale="   91.309">  7  8 -1 -1</clus>
<clus scale="  110.016">  7  9 -1 -1</clus>
<clus scale="  275.244">  1  5  2 -1</clus>
</clustering>
</event>
<event>
 9    2  0.3897980E-005  0.4625097E+03  0.7546771E-02  0.1070999E+00
         21   -1    0    0  501  502  0.00000000000E+00  0.00000000000E+00  0.27034608459E+03  0.27034608459E+03  0.00000000000E+00 0. -1.
          2   -1    0    0  502    0 -0.00000000000E+00 -0.00000000000E+00 -0.31778948675E+03  0.31778948675E+03  0.00000000000E+00 0. -1.
         24    2    1    2    0    0 -0.84201703270E+02  0.24568424553E+02 -0.35591141122E+02  0.12547402584E+03  0.82361808595E+02 0.  0.
         23    2    1    2    0    0 -0.14091266810E+03  0.20930157951E+02 -0.12160405457E+03  0.20811870550E+03  0.90727051920E+02 0.  0.
        -11    1    3    3    0    0 -0.54858594772E+02  0.39113431559E+02 -0.55376148292E+02  0.87211488626E+02  0.00000000000E+00 0.  1.
         12    1    3    3    0    0 -0.29343108499E+02 -0.14545007007E+02  0.19785007170E+02  0.38262537212E+02  0.00000000000E+00 0. -1.
        -13    1    4    4    0    0 -0.21159936590E+02  0.39638985676E+02 -0.17084255008E+02  0.48071445486E+02  0.00000000000E+00 0.  1.
         13    1    4    4    0    0 -0.11975273151E+03 -0.18708827725E+02 -0.10451979956E+03  0.16004726002E+03  0.00000000000E+00 0. -1.
          1    1    1    2  501    0  0.22511437137E+03 -0.45498582504E+02  0.10975179354E+03  0.25454283999E+03  0.00000000000E+00 0. -1.
<scales pt_clust_5="13000.00000" pt_clust_6="13000.00000" pt_clust_7="13000.00000" pt_clust_8="13000.00000" pt_clust_9="13000.00000"></scales>
<clustering>
<clus scale="   82.362">  5  6 -1 -1</clus>
<clus scale="   90.727">  7  8 -1 -1</clus>
<clus scale="  120.320">  2  5  1 -1</clus>
<clus scale="  203.010">  7  9 -1 -1</clus>
<clus scale="  462.510">  1  5  2 -1</clus>
</clustering>
</event>
<event>
 9    2  0.3897980E-005  0.3791124E+03  0.7546771E-02  0.1102321E+00
         21   -1    0    0  501  502  0.00000000000E+00  0.00000000000E+00  0.68032366625E+03  0.68032366625E+03  0.00000000000E+00 0. -1.
          2   -1    0    0  502    0 -0.00000000000E+00 -0.00000000000E+00 -0.86520413477E+02  0.86520413477E+02  0.00000000000E+00 0. -1.
         24    2    1    2    0    0 -0.28028384432E+02 -0.47260781867E+02  0.19334586480E+03  0.21539839247E+03  0.77425268526E+02 0.  0.
         23    2    1    2    0    0 -0.34342198750E+02 -0.12113678390E+03  0.59173512059E+02  0.16580010675E+03  0.90192371301E+02 0.  0.
        -11    1    3    3    0    0  0.14191474612E+02 -0.15786202597E+02  0.79478890792E+01  0.22666519030E+02  0.00000000000E+00 0.  1.
         12    1    3    3    0    0 -0.42219859044E+02 -0.31474579270E+02  0.18539797572E+03  0.19273187344E+03  0.00000000000E+00 0. -1.
        -11    1    4    4    0    0 -0.48350819293E+02 -0.19569524629E+02  0.16080859909E+02  0.54583533010E+02  0.00000000000E+00 0.  1.
         11    1    4    4    0    0  0.14008620543E+02 -0.10156725927E+03  0.43092652151E+02  0.11121657374E+03  0.00000000000E+00 0. -1.
          1    1    1    2  501    0  0.62370583182E+02  0.16839756577E+03  0.34128387591E+03  0.38564558050E+03  0.00000000000E+00 0. -1.
<scales pt_clust_5="13000.00000" pt_clust_6="13000.00000" pt_clust_7="13000.00000" pt_clust_8="13000.00000" pt_clust_9="13000.00000"></scales>
<clustering>
<clus scale="   77.425">  5  6 -1 -1</clus>
<clus scale="   90.192">  7  8 -1 -1</clus>
<clus scale="   94.941">  2  5  1 -1</clus>
<clus scale="  163.721">  7  9 -1 -1</clus>
<clus scale="  379.112">  1  5  2 -1</clus>
</clustering>
</event>
<event>
 9    2  0.3897980E-005  0.3045760E+03  0.7546771E-02  0.1102834E+00
         21   -1    0    0  501  502  0.00000000000E+00  0.00000000000E+00  0.42933880074E+02  0.42933880074E+02  0.00000000000E+00 0. -1.
          2   -1    0    0  502    0 -0.00000000000E+00 -0.00000000000E+00 -0.15836100069E+04  0.15836100069E+04  0.00000000000E+00 0. -1.
         24    2    1    2    0    0 -0.12752480682E+03 -0.99305109160E+02 -0.88940406388E+03  0.90757110456E+03  0.80756671103E+02 0.  0.
         23    2    1    2    0    0 -0.15592065907E+02  0.62286274923E+02 -0.10380455275E+03  0.15189826521E+03  0.90415735566E+02 0.  0.
        -11    1    3    3    0    0 -0.10279660606E+03 -0.10271548502E+03 -0.61070993317E+03  0.62776128867E+03  0.00000000000E+00 0.  1.
         12    1    3    3    0    0 -0.24728200761E+02  0.34103758626E+01 -0.27869413071E+03  0.27980981589E+03  0.00000000000E+00 0. -1.
        -11    1    4    4    0    0  0.15791861385E+02  0.71624882498E+02 -0.49500489478E+02  0.88486186139E+02  0.00000000000E+00 0. -1.
         11    1    4    4    0    0 -0.31383927292E+02 -0.93386075752E+01 -0.54304063274E+02  0.63412079068E+02  0.00000000000E+00 0.  1.
          1    1    1    2  501    0  0.14311687272E+03  0.37018834237E+02 -0.54746751018E+03  0.56707451719E+03  0.00000000000E+00 0. -1.
<scales pt_clust_5="13000.00000" pt_clust_6="13000.00000" pt_clust_7="13000.00000" pt_clust_8="13000.00000" pt_clust_9="13000.00000"></scales>
<clustering>
<clus scale="   80.757">  5  6 -1 -1</clus>
<clus scale="   90.416">  7  8 -1 -1</clus>
<clus scale="  147.827">  7  9 -1 -1</clus>
<clus scale="  180.681">  2  5  1 -1</clus>
<clus scale="  304.576">  1  5  2 -1</clus>
</clustering>
</event>
<event>
 9    2  0.3897980E-005  0.5882151E+03  0.7546771E-02  0.1038354E+00
          2   -1    0    0  502    0 -0.00000000000E+00  0.00000000000E+00  0.46613928418E+03  0.46613928418E+03  0.00000000000E+00 0. -1.
         21   -1    0    0  501  502  0.00000000000E+00 -0.00000000000E+00 -0.31215706816E+03  0.31215706816E+03  0.00000000000E+00 0. -1.
         24    2    1    2    0    0  0.22056662752E+02 -0.12236239846E+03 -0.50325728493E+02  0.15560961075E+03  0.78883579275E+02 0.  0.
         23    2    1    2    0    0 -0.24837270386E+02  0.18801843761E+03 -0.15230823653E+03  0.26006635079E+03  0.92026545160E+02 0.  0.
        -11    1    3    3    0    0  0.29051937198E+02 -0.39104636862E+02  0.13405874916E+02  0.50526281887E+02  0.00000000000E+00 0.  1.
         12    1    3    3    0    0 -0.69952744454E+01 -0.83257761600E+02 -0.63731603409E+02  0.10508332886E+03  0.00000000000E+00 0. -1.
        -11    1    4    4    0    0  0.60884448378E+00  0.15619987485E+03 -0.15391684286E+03  0.21929242146E+03  0.00000000000E+00 0. -1.
         11    1    4    4    0    0 -0.25446114870E+02  0.31818562767E+02  0.16086063299E+01  0.40773929328E+02  0.00000000000E+00 0.  1.
          1    1    1    2  501    0  0.27806076341E+01 -0.65656039152E+02  0.35661618103E+03  0.36262039081E+03  0.00000000000E+00 0. -1.
<scales pt_clust_5="13000.00000" pt_clust_6="13000.00000" pt_clust_7="13000.00000" pt_clust_8="13000.00000" pt_clust_9="13000.00000"></scales>
<clustering>
<clus scale="   78.884">  5  6 -1 -1</clus>
<clus scale="   92.027">  7  8 -1 -1</clus>
<clus scale="   65.715">  7  9 -1 -1</clus>
<clus scale="  147.247">  1  5  2 -1</clus>
<clus scale="  588.215">  2  5  1 -1</clus>
</clustering>
</event>
<event>
 9    2  0.3897980E-005  0.1279283E+03  0.7546771E-02  0.1252496E+00
          2   -1    0    0  502    0 -0.00000000000E+00  0.00000000000E+00  0.76657375285E+03  0.76657375285E+03  0.00000000000E+00 0. -1.
         21   -1    0    0  501  502  0.00000000000E+00 -0.00000000000E+00 -0.14795016346E+02  0.14795016346E+02  0.00000000000E+00 0. -1.
         24    2    1    2    0    0  0.21435254393E+02 -0.44274035985E+01  0.23188088671E+03  0.24596291517E+03  0.79056549299E+02 0.  0.
         23    2    1    2    0    0  0.15132017865E+01 -0.21054160516E+02  0.35543116727E+03  0.36740218915E+03  0.90595179052E+02 0.  0.
        -11    1    3    3    0    0 -0.13815622470E+02  0.28839857351E+02  0.11662905366E+03  0.12093363863E+03  0.00000000000E+00 0.  1.
         12    1    3    3    0    0  0.35250876863E+02 -0.33267260949E+02  0.11525183305E+03  0.12502927654E+03  0.00000000000E+00 0. -1.
        -11    1    4    4    0    0 -0.19532023238E+02 -0.50611470581E+02  0.25252851578E+03  0.25828989947E+03  0.00000000000E+00 0.  1.
         11    1    4    4    0    0  0.21045225025E+02  0.29557310065E+02  0.10290265149E+03  0.10911228967E+03  0.00000000000E+00 0. -1.
          1    1    1    2  501    0 -0.22948456180E+02  0.25481564114E+02  0.16446668253E+03  0.16800366488E+03  0.00000000000E+00 0. -1.
<scales pt_clust_5="13000.00000" pt_clust_6="13000.00000" pt_clust_7="13000.00000" pt_clust_8="13000.00000" pt_clust_9="13000.00000"></scales>
<clustering>
<clus scale="   79.057">  5  6 -1 -1</clus>
<clus scale="   82.031">  1  5  2 -1</clus>
<clus scale="   90.595">  7  8 -1 -1</clus>
<clus scale="   29.025">  7  9 -1 -1</clus>
<clus scale="  127.928">  2  5  1 -1</clus>
</clustering>
</event>
<event>
 9    2  0.3897980E-005  0.2381484E+03  0.7546771E-02  0.1150559E+00
         21   -1    0    0  501  502  0.00000000000E+00  0.00000000000E+00  0.97170847147E+02  0.97170847147E+02  0.00000000000E+00 0. -1.
          2   -1    0    0  502    0 -0.00000000000E+00 -0.00000000000E+00 -0.39407273078E+03  0.39407273078E+03  0.00000000000E+00 0. -1.
         24    2    1    2    0    0 -0.77264749420E+02  0.18355962993E+02 -0.20567195047E+03  0.23621894922E+03  0.84803643083E+02 0.  0.
         23    2    1    2    0    0 -0.48725401354E+02 -0.27286051865E+02 -0.12675096981E+02  0.10628281593E+03  0.89535945385E+02 0.  0.
        -11    1    3    3    0    0 -0.38528528299E+02 -0.27911318358E+02 -0.48855402838E+02  0.68193398301E+02  0.00000000000E+00 0.  1.
         12    1    3    3    0    0 -0.38736221121E+02  0.46267281351E+02 -0.15681654763E+03  0.16802555092E+03  0.00000000000E+00 0. -1.
        -11    1    4    4    0    0 -0.26014065925E+02  0.17415196025E+02 -0.38711789741E+02  0.49785774509E+02  0.00000000000E+00 0.  1.
         11    1    4    4    0    0 -0.22711335429E+02 -0.44701247889E+02  0.26036692760E+02  0.56497041425E+02  0.00000000000E+00 0. -1.
          1    1    1    2  501    0  0.12599015077E+03  0.89300888717E+01 -0.78554836181E+02  0.14874181277E+03  0.00000000000E+00 0. -1.
<scales pt_clust_5="13000.00000" pt_clust_6="13000.00000" pt_clust_7="13000.00000" pt_clust_8="13000.00000" pt_clust_9="13000.00000"></scales>
<clustering>
<clus scale="   84.804">  5  6 -1 -1</clus>
<clus scale="   89.536">  7  8 -1 -1</clus>
<clus scale="  116.183">  2  5  1 -1</clus>
<clus scale="   78.139">  7  9 -1 -1</clus>
<clus scale="  238.148">  1  5  2 -1</clus>
</clustering>
</event>
<event>
 9    2  0.3897980E-005  0.4879469E+03  0.7546771E-02  0.1040832E+00
          2   -1    0    0  502    0 -0.00000000000E+00  0.00000000000E+00  0.15830636902E+04  0.15830636902E+04  0.00000000000E+00 0. -1.
         21   -1    0    0  501  502  0.00000000000E+00 -0.00000000000E+00 -0.83704028114E+02  0.83704028114E+02  0.00000000000E+00 0.  1.
         24    2    1    2    0    0  0.60825294356E+02  0.21652472492E+03  0.48163361377E+03  0.53811434326E+03  0.83746257060E+02 0.  0.
         23    2    1    2    0    0 -0.12367947287E+02  0.90170604388E+02  0.10182954537E+03  0.16155640805E+03  0.86298972499E+02 0.  0.
        -11    1    3    3    0    0  0.69911754727E+02  0.18990931641E+03  0.35720226827E+03  0.41054434884E+03  0.00000000000E+00 0.  1.
         12    1    3    3    0    0 -0.90864603716E+01  0.26615408506E+02  0.12443134550E+03  0.12756999441E+03  0.00000000000E+00 0. -1.
        -13    1    4    4    0    0 -0.23074199689E+02  0.18063120478E+01  0.57778842632E+02  0.62242076688E+02  0.00000000000E+00 0. -1.
         13    1    4    4    0    0  0.10706252403E+02  0.88364292340E+02  0.44050702739E+02  0.99314331358E+02  0.00000000000E+00 0.  1.
          1    1    1    2  501    0 -0.48457347069E+02 -0.30669532930E+03  0.91589650298E+03  0.96709696705E+03  0.00000000000E+00 0. -1.
<scales pt_clust_5="13000.00000" pt_clust_6="13000.00000" pt_clust_7="13000.00000" pt_clust_8="13000.00000" pt_clust_9="13000.00000"></scales>
<clustering>
<clus scale="   83.746">  5  6 -1 -1</clus>
<clus scale="   86.299">  7  8 -1 -1</clus>
<clus scale="  239.992">  1  5  2 -1</clus>
<clus scale="  116.844">  7  9 -1 -1</clus>
<clus scale="  487.947">  2  5  1 -1</clus>
</clustering>
</event>
<event>
 9    2  0.3897980E-005  0.1817896E+03  0.7546771E-02  0.1188691E+00
         -1   -1    0    0    0  501 -0.00000000000E+00  0.00000000000E+00  0.84703886379E+02  0.84703886379E+02  0.00000000000E+00 0.  1.
         21   -1    0    0  501  502  0.00000000000E+00 -0.00000000000E+00 -0.27608991241E+03  0.27608991241E+03  0.00000000000E+00 0. -1.
         24    2    1    2    0    0  0.42505968105E+02 -0.54802317300E+02 -0.19932245241E+02  0.11090609752E+03  0.84218862256E+02 0.  0.
         23    2    1    2    0    0 -0.59315587936E+02 -0.19646859227E+02 -0.11821803301E+03  0.15683240563E+03  0.81954634278E+02 0.  0.
        -13    1    3    3    0    0  0.62587812229E+02 -0.61004976998E+02 -0.11079754207E+02  0.88099956932E+02  0.00000000000E+00 0.  1.
         14    1    3    3    0    0 -0.20081844125E+02  0.62026596981E+01 -0.88524910344E+01  0.22806140583E+02  0.00000000000E+00 0. -1.
        -11    1    4    4    0    0  0.20721558008E+02 -0.14569324373E+01 -0.20025469603E+02  0.28853510206E+02  0.00000000000E+00 0.  1.
         11    1    4    4    0    0 -0.80037145944E+02 -0.18189926789E+02 -0.98192563402E+02  0.12797889543E+03  0.00000000000E+00 0. -1.
         -2    1    1    2    0  502  0.16809619831E+02  0.74449176526E+02 -0.53235747785E+02  0.93055295639E+02  0.00000000000E+00 0.  1.
<scales pt_clust_5="13000.00000" pt_clust_6="13000.00000" pt_clust_7="13000.00000" pt_clust_8="13000.00000" pt_clust_9="13000.00000"></scales>
<clustering>
<clus scale="   81.955">  7  8 -1 -1</clus>
<clus scale="   76.323">  7  9 -1 -1</clus>
<clus scale="   84.219">  5  6 -1 -1</clus>
<clus scale="  109.100">  1  5  2 -1</clus>
<clus scale="  181.790">  2  5  1 -1</clus>
</clustering>
</event>
<event>
 9    2  0.3897980E-005  0.2368213E+03  0.7546771E-02  0.1144764E+00
         21   -1    0    0  501  502  0.00000000000E+00  0.00000000000E+00  0.12931488196E+03  0.12931488196E+03  0.00000000000E+00 0. -1.
          2   -1    0    0  502    0 -0.00000000000E+00 -0.00000000000E+00 -0.27064277121E+03  0.27064277121E+03  0.00000000000E+00 0. -1.
         24    2    1    2    0    0  0.26460925196E+02 -0.10647724233E+03 -0.70081159406E+02  0.15265128393E+03  0.79708606091E+02 0.  0.
         23    2    1    2    0    0  0.39043181285E+02  0.60299337577E+02  0.28641740121E+02  0.11924039685E+03  0.90760910350E+02 0.  0.
        -13    1    3    3    0    0 -0.19691874924E+02 -0.45753875512E+02 -0.56250953812E+02  0.75135589884E+02  0.00000000000E+00 0.  1.
         14    1    3    3    0    0  0.46152800119E+02 -0.60723366813E+02 -0.13830205593E+02  0.77515694042E+02  0.00000000000E+00 0. -1.
        -13    1    4    4    0    0  0.42257905860E+02  0.30180799472E+02 -0.25003249718E+02  0.57634831143E+02  0.00000000000E+00 0. -1.
         13    1    4    4    0    0 -0.32147245749E+01  0.30118538105E+02  0.53644989839E+02  0.61605565711E+02  0.00000000000E+00 0.  1.
          1    1    1    2  501    0 -0.65504106481E+02  0.46177904749E+02 -0.99888469963E+02  0.12806597239E+03  0.00000000000E+00 0. -1.
<scales pt_clust_5="13000.00000" pt_clust_6="13000.00000" pt_clust_7="13000.00000" pt_clust_8="13000.00000" pt_clust_9="13000.00000"></scales>
<clustering>
<clus scale="   79.709">  5  6 -1 -1</clus>
<clus scale="   90.761">  7  8 -1 -1</clus>
<clus scale="   80.145">  7  9 -1 -1</clus>
<clus scale="  135.614">  2  5  1 -1</clus>
<clus scale="  236.821">  1  5  2 -1</clus>
</clustering>
</event>
<event>
 9    2  0.3897980E-005  0.4571881E+03  0.7546771E-02  0.1082168E+00
         21   -1    0    0  501  502  0.00000000000E+00  0.00000000000E+00  0.48376280059E+03  0.48376280059E+03  0.00000000000E+00 0. -1.
          2   -1    0    0  502    0 -0.00000000000E+00 -0.00000000000E+00 -0.46089352758E+03  0.46089352758E+03  0.00000000000E+00 0. -1.
         24    2    1    2    0    0 -0.33661503498E+02 -0.97783584976E+01 -0.34549068227E+03  0.35753620994E+03  0.85085937553E+02 0.  0.
         23    2    1    2    0    0  0.87861424371E+02 -0.21394719480E+02 -0.69233502845E+02  0.14508230671E+03  0.89878995825E+02 0.  0.
        -13    1    3    3    0    0  0.20856812041E+01 -0.20546342313E+02 -0.16499815380E+02  0.26433807068E+02  0.00000000000E+00 0.  1.
         14    1    3    3    0    0 -0.35747184702E+02  0.10767983816E+02 -0.32899086689E+03  0.33110240287E+03  0.00000000000E+00 0. -1.
        -11    1    4    4    0    0  0.28470256255E+02 -0.25274249301E+01 -0.77141655522E+02  0.82266508281E+02  0.00000000000E+00 0. -1.
         11    1    4    4    0    0  0.59391168115E+02 -0.18867294550E+02  0.79081526769E+01  0.62815798431E+02  0.00000000000E+00 0.  1.
          1    1    1    2  501    0 -0.54199920872E+02  0.31173077978E+02  0.43759345813E+03  0.44203781152E+03  0.00000000000E+00 0. -1.
<scales pt_clust_5="13000.00000" pt_clust_6="13000.00000" pt_clust_7="13000.00000" pt_clust_8="13000.00000" pt_clust_9="13000.00000"></scales>
<clustering>
<clus scale="   85.086">  5  6 -1 -1</clus>
<clus scale="   89.879">  7  8 -1 -1</clus>
<clus scale="   62.525">  7  9 -1 -1</clus>
<clus scale="   92.024">  2  5  1 -1</clus>
<clus scale="  457.188">  1  5  2 -1</clus>
</clustering>
</event>
<event>
 9    2  0.3897980E-005  0.3369296E+03  0.7546771E-02  0.1112925E+00
          2   -1    0    0  502    0 -0.00000000000E+00  0.00000000000E+00  0.17657816610E+04  0.17657816610E+04  0.00000000000E+00 0. -1.
         21   -1    0    0  501  502  0.00000000000E+00 -0.00000000000E+00 -0.27658211606E+02  0.27658211606E+02  0.00000000000E+00 0. -1.
         24    2    1    2    0    0  0.63897163752E+02  0.18597775766E+02  0.48261352034E+03  0.49350650263E+03  0.78766321002E+02 0.  0.
         23    2    1    2    0    0  0.11468248221E+03 -0.49476105987E+02  0.63719237571E+03  0.65560367331E+03  0.90565423930E+02 0.  0.
        -11    1    3    3    0    0  0.82379194992E+02  0.15446051605E+02  0.41253943445E+03  0.42096757268E+03  0.00000000000E+00 0.  1.
         12    1    3    3    0    0 -0.18482031240E+02  0.31517241603E+01  0.70074085896E+02  0.72538929949E+02  0.00000000000E+00 0. -1.
        -13    1    4    4    0    0 -0.84175744376E+01 -0.28023546161E+02  0.12842841570E+03  0.13171952269E+03  0.00000000000E+00 0.  1.
         13    1    4    4    0    0  0.12310005664E+03 -0.21452559827E+02  0.50876396001E+03  0.52388415062E+03  0.00000000000E+00 0. -1.
          1    1    1    2  501    0 -0.17857964596E+03  0.30878330222E+02  0.61831755336E+03  0.64432969668E+03  0.00000000000E+00 0. -1.
<scales pt_clust_5="13000.00000" pt_clust_6="13000.00000" pt_clust_7="13000.00000" pt_clust_8="13000.00000" pt_clust_9="13000.00000"></scales>
<clustering>
<clus scale="   78.766">  5  6 -1 -1</clus>
<clus scale="   90.565">  7  8 -1 -1</clus>
<clus scale="  103.116">  1  5  2 -1</clus>
<clus scale="  152.371">  7  9 -1 -1</clus>
<clus scale="  336.930">  2  5  1 -1</clus>
</clustering>
</event>
<event>
 9    2  0.3897980E-005  0.1849307E+03  0.7546771E-02  0.1199389E+00
          2   -1    0    0  502    0 -0.00000000000E+00  0.00000000000E+00  0.59350020796E+02  0.59350020796E+02  0.00000000000E+00 0. -1.
         21   -1    0    0  501  502  0.00000000000E+00 -0.00000000000E+00 -0.30036852656E+03  0.30036852656E+03  0.00000000000E+00 0. -1.
         24    2    1    2    0    0 -0.12567248502E+02 -0.23660082177E+02 -0.79653974832E+02  0.11428451728E+03  0.77449725375E+02 0.  0.
         23    2    1    2    0    0 -0.12115394212E+02 -0.10001770035E+02 -0.14676291838E+02  0.92922415320E+02  0.90401125800E+02 0.  0.
        -11    1    3    3    0    0 -0.51140532303E+01  0.26619858703E+02 -0.11950349066E+02  0.29623998052E+02  0.00000000000E+00 0.  1.
         12    1    3    3    0    0 -0.74531952716E+01 -0.50279940880E+02 -0.67703625766E+02  0.84660519231E+02  0.00000000000E+00 0. -1.
        -11    1    4    4    0    0  0.12815274121E+02  0.35848184399E+02  0.20300575703E+01  0.38124069946E+02  0.00000000000E+00 0.  1.
         11    1    4    4    0    0 -0.24930668333E+02 -0.45849954434E+02 -0.16706349408E+02  0.54798345374E+02  0.00000000000E+00 0. -1.
          1    1    1    2  501    0  0.24682642714E+02  0.33661852212E+02 -0.14668823909E+03  0.15251161475E+03  0.00000000000E+00 0. -1.
<scales pt_clust_5="13000.00000" pt_clust_6="13000.00000" pt_clust_7="13000.00000" pt_clust_8="13000.00000" pt_clust_9="13000.00000"></scales>
<clustering>
<clus scale="   77.450">  5  6 -1 -1</clus>
<clus scale="   81.952">  1  5  2 -1</clus>
<clus scale="   90.401">  7  8 -1 -1</clus>
<clus scale="   39.906">  7  9 -1 -1</clus>
<clus scale="  184.931">  2  5  1 -1</clus>
</clustering>
</event>
<event>
 9    2  0.3897980E-005  0.1063081E+04  0.7546771E-02  0.9840193E-01
         21   -1    0    0  501  502  0.00000000000E+00  0.00000000000E+00  0.14904734834E+03  0.14904734834E+03  0.00000000000E+00 0.  1.
         -3   -1    0    0    0  501 -0.00000000000E+00 -0.00000000000E+00 -0.25658191019E+04  0.25658191019E+04  0.00000000000E+00 0.  1.
         24    2    1    2    0    0  0.75184720306E+02 -0.75269308789E+02 -0.10241195962E+03  0.16802483095E+03  0.80161857070E+02 0.  0.
         23    2    1    2    0    0  0.42702285133E+03 -0.17111190732E+03 -0.74194297452E+03  0.87788661610E+03  0.92616050969E+02 0.  0.
        -11    1    3    3    0    0  0.59987720577E+02 -0.83486585761E+02 -0.10872444874E+03  0.14963135492E+03  0.00000000000E+00 0.  1.
         12    1    3    3    0    0  0.15196999730E+02  0.82172769722E+01  0.63124891150E+01  0.18393476029E+02  0.00000000000E+00 0. -1.
        -11    1    4    4    0    0  0.32624334545E+03 -0.13090647998E+03 -0.48520449910E+03  0.59916160833E+03  0.00000000000E+00 0.  1.
         11    1    4    4    0    0  0.10077950588E+03 -0.40205427342E+02 -0.25673847542E+03  0.27872500777E+03  0.00000000000E+00 0. -1.
         -4    1    1    2    0  502 -0.50220757164E+03  0.24638121611E+03 -0.15724168194E+04  0.16689550032E+04  0.00000000000E+00 0.  1.
<scales pt_clust_5="13000.00000" pt_clust_6="13000.00000" pt_clust_7="13000.00000" pt_clust_8="13000.00000" pt_clust_9="13000.00000"></scales>
<clustering>
<clus scale="   80.162">  5  6 -1 -1</clus>
<clus scale="   92.616">  7  8 -1 -1</clus>
<clus scale="  133.207">  2  5  1 -1</clus>
<clus scale="  492.813">  7  9 -1 -1</clus>
<clus scale=" 1063.081">  1  5  2 -1</clus>
</clustering>
</event>
<event>
 9    2  0.3897980E-005  0.6626060E+03  0.7546771E-02  0.1031337E+00
          2   -1    0    0  502    0 -0.00000000000E+00  0.00000000000E+00  0.95021338023E+03  0.95021338023E+03  0.00000000000E+00 0. -1.
         21   -1    0    0  501  502  0.00000000000E+00 -0.00000000000E+00 -0.18690874239E+03  0.18690874239E+03  0.00000000000E+00 0. -1.
         24    2    1    2    0    0 -0.89904387065E+02  0.48972847371E+02  0.30843806997E+03  0.33341182237E+03  0.74486654497E+02 0.  0.
         23    2    1    2    0    0 -0.72145091777E+02  0.83068436929E+02 -0.12359402189E+03  0.18863990732E+03  0.90577331074E+02 0.  0.
        -13    1    3    3    0    0 -0.29401417562E+02  0.29054691878E+01  0.21424846470E+02  0.36495330553E+02  0.00000000000E+00 0.  1.
         14    1    3    3    0    0 -0.60502969502E+02  0.46067378183E+02  0.28701322349E+03  0.29691649182E+03  0.00000000000E+00 0. -1.
        -13    1    4    4    0    0 -0.35579710059E+02  0.32527197004E+02 -0.11622341138E+03  0.12582454317E+03  0.00000000000E+00 0. -1.
         13    1    4    4    0    0 -0.36565381718E+02  0.50541239925E+02 -0.73706105160E+01  0.62815364146E+02  0.00000000000E+00 0.  1.
          1    1    1    2  501    0  0.16204947884E+03 -0.13204128430E+03  0.57846058976E+03  0.61507039293E+03  0.00000000000E+00 0. -1.
<scales pt_clust_5="13000.00000" pt_clust_6="13000.00000" pt_clust_7="13000.00000" pt_clust_8="13000.00000" pt_clust_9="13000.00000"></scales>
<clustering>
<clus scale="   74.487">  5  6 -1 -1</clus>
<clus scale="   90.577">  7  8 -1 -1</clus>
<clus scale="  126.607">  1  5  2 -1</clus>
<clus scale="  114.997">  7  9 -1 -1</clus>
<clus scale="  662.606">  2  5  1 -1</clus>
</clustering>
</event>
<event>
 9    2  0.3897980E-005  0.2575614E+03  0.7546771E-02  0.1155254E+00
         21   -1    0    0  501  502  0.00000000000E+00  0.00000000000E+00  0.61330113875E+02  0.61330113875E+02  0.00000000000E+00 0. -1.
          2   -1    0    0  502    0 -0.00000000000E+00 -0.00000000000E+00 -0.48493266580E+03  0.48493266580E+03  0.00000000000E+00 0. -1.
         24    2    1    2    0    0 -0.70241032618E+01 -0.19257516167E+02 -0.65315626184E+02  0.10500617514E+03  0.79623965225E+02 0.  0.
         23    2    1    2    0    0 -0.77768125755E+01 -0.94518103112E+02 -0.25677607353E+03  0.28806257146E+03  0.89732616765E+02 0.  0.
        -13    1    3    3    0    0 -0.39736007593E+02  0.21876644446E+01 -0.47662692087E+02  0.62092418154E+02  0.00000000000E+00 0.  1.
         14    1    3    3    0    0  0.32711904332E+02 -0.21445180612E+02 -0.17652934097E+02  0.42913756986E+02  0.00000000000E+00 0. -1.
        -11    1    4    4    0    0 -0.46032798808E+02 -0.65482437310E+02 -0.13212991491E+03  0.15448392336E+03  0.00000000000E+00 0. -1.
         11    1    4    4    0    0  0.38255986232E+02 -0.29035665802E+02 -0.12464615861E+03  0.13357864810E+03  0.00000000000E+00 0.  1.
          1    1    1    2  501    0  0.14800915837E+02  0.11377561928E+03 -0.10151085221E+03  0.15319403307E+03  0.00000000000E+00 0. -1.
<scales pt_clust_5="13000.00000" pt_clust_6="13000.00000" pt_clust_7="13000.00000" pt_clust_8="13000.00000" pt_clust_9="13000.00000"></scales>
<clustering>
<clus scale="   79.624">  5  6 -1 -1</clus>
<clus scale="   82.220">  2  5  1 -1</clus>
<clus scale="   89.733">  7  8 -1 -1</clus>
<clus scale="  108.372">  7  9 -1 -1</clus>
<clus scale="  257.561">  1  5  2 -1</clus>
</clustering>
</event>
<event>
 9    2  0.3897980E-005  0.2323051E+03  0.7546771E-02  0.1136627E+00
          2   -1    0    0  502    0 -0.00000000000E+00  0.00000000000E+00  0.12423754039E+04  0.12423754039E+04  0.00000000000E+00 0. -1.
         21   -1    0    0  501  502  0.00000000000E+00 -0.00000000000E+00 -0.33378259484E+02  0.33378259484E+02  0.00000000000E+00 0. -1.
         24    2    1    2    0    0  0.15353111023E+03 -0.16940205270E+02  0.50059495028E+03  0.53023416831E+03  0.81818070294E+02 0.  0.
         23    2    1    2    0    0 -0.93679931932E+02  0.63944708699E+02  0.35017654877E+03  0.37929934287E+03  0.91539722396E+02 0.  0.
        -13    1    3    3    0    0  0.21144025704E+02  0.40353914709E+01  0.14392777259E+02  0.25894135330E+02  0.00000000000E+00 0.  1.
         14    1    3    3    0    0  0.13238708453E+03 -0.20975596741E+02  0.48620217302E+03  0.50434003297E+03  0.00000000000E+00 0. -1.
        -11    1    4    4    0    0 -0.40117279399E+02  0.76753315350E+02  0.25539130279E+03  0.26967607433E+03  0.00000000000E+00 0. -1.
         11    1    4    4    0    0 -0.53562652532E+02 -0.12808606651E+02  0.94785245975E+02  0.10962326854E+03  0.00000000000E+00 0.  1.
          1    1    1    2  501    0 -0.59851178301E+02 -0.47004503429E+02  0.35822564535E+03  0.36622015220E+03  0.00000000000E+00 0. -1.
<scales pt_clust_5="13000.00000" pt_clust_6="13000.00000" pt_clust_7="13000.00000" pt_clust_8="13000.00000" pt_clust_9="13000.00000"></scales>
<clustering>
<clus scale="   81.818">  5  6 -1 -1</clus>
<clus scale="   91.540">  7  8 -1 -1</clus>
<clus scale="   76.103">  7  9 -1 -1</clus>
<clus scale="  174.794">  1  5  2 -1</clus>
<clus scale="  232.305">  2  5  1 -1</clus>
</clustering>
</event>
<event>
 9    2  0.3897980E-005  0.1599471E+03  0.7546771E-02  0.1225752E+00
          2   -1    0    0  502    0 -0.00000000000E+00  0.00000000000E+00  0.42100347390E+02  0.42100347390E+02  0.00000000000E+00 0. -1.
         21   -1    0    0  501  502  0.00000000000E+00 -0.00000000000E+00 -0.33482454745E+03  0.33482454745E+03  0.00000000000E+00 0. -1.
         24    2    1    2    0    0 -0.26547644436E+02 -0.46389924707E+01 -0.12997121415E+03  0.14873284227E+03  0.67101745020E+02 0.  0.
         23    2    1    2    0    0  0.68822558166E+02 -0.35066207393E+01 -0.12602973069E+03  0.17160480296E+03  0.93892888326E+02 0.  0.
        -13    1    3    3    0    0  0.11887364667E+02 -0.25569083780E+02 -0.43928999480E+02  0.52200042906E+02  0.00000000000E+00 0.  1.
         14    1    3    3    0    0 -0.38435009103E+02  0.20930091310E+02 -0.86042214669E+02  0.96532799359E+02  0.00000000000E+00 0. -1.
        -13    1    4    4    0    0  0.75701399140E+02  0.30330481484E+02 -0.94765404061E+02  0.12502448458E+03  0.00000000000E+00 0. -1.
         13    1    4    4    0    0 -0.68788409735E+01 -0.33837102223E+02 -0.31264326628E+02  0.46580318371E+02  0.00000000000E+00 0.  1.
          1    1    1    2  501    0 -0.42274913730E+02  0.81456132100E+01 -0.36723255225E+02  0.56587249622E+02  0.00000000000E+00 0. -1.
<scales pt_clust_5="13000.00000" pt_clust_6="13000.00000" pt_clust_7="13000.00000" pt_clust_8="13000.00000" pt_clust_9="13000.00000"></scales>
<clustering>
<clus scale="   67.102">  5  6 -1 -1</clus>
<clus scale="   72.311">  1  5  2 -1</clus>
<clus scale="   93.893">  7  8 -1 -1</clus>
<clus scale="   50.782">  7  9 -1 -1</clus>
<clus scale="  159.947">  2  5  1 -1</clus>
</clustering>
</event>
<event>
 9    2  0.3897980E-005  0.7796477E+03  0.7546771E-02  0.1004796E+00
          2   -1    0    0  502    0 -0.00000000000E+00  0.00000000000E+00  0.10029519129E+04  0.10029519129E+04  0.00000000000E+00 0. -1.
         21   -1    0    0  501  502  0.00000000000E+00 -0.00000000000E+00 -0.30637079853E+03  0.30637079853E+03  0.00000000000E+00 0. -1.
         24    2    1    2    0    0 -0.69639930015E+02 -0.13842254647E+03  0.46419930095E+03  0.49577992040E+03  0.79411694605E+02 0.  0.
         23    2    1    2    0    0  0.23072640841E+03 -0.94275533570E+02  0.40393749031E+03  0.48259173694E+03  0.87216608043E+02 0.  0.
        -13    1    3    3    0    0 -0.57476659168E+02 -0.76374441531E+02  0.17159205716E+03  0.19641908194E+03  0.00000000000E+00 0.  1.
         14    1    3    3    0    0 -0.12163270847E+02 -0.62048104942E+02  0.29260724379E+03  0.29936083846E+03  0.00000000000E+00 0. -1.
        -13    1    4    4    0    0  0.74357812366E+01 -0.30627558547E+02  0.56896477227E+02  0.65042657587E+02  0.00000000000E+00 0.  1.
         13    1    4    4    0    0  0.22329062717E+03 -0.63647975023E+02  0.34704101308E+03  0.41754907935E+03  0.00000000000E+00 0. -1.
          1    1    1    2  501    0 -0.16108647839E+03  0.23269808004E+03 -0.17155567684E+03  0.33095105414E+03  0.00000000000E+00 0. -1.
<scales pt_clust_5="13000.00000" pt_clust_6="13000.00000" pt_clust_7="13000.00000" pt_clust_8="13000.00000" pt_clust_9="13000.00000"></scales>
<clustering>
<clus scale="   79.412">  5  6 -1 -1</clus>
<clus scale="   87.217">  7  8 -1 -1</clus>
<clus scale="  174.117">  1  5  2 -1</clus>
<clus scale="  272.501">  7  9 -1 -1</clus>
<clus scale="  779.648">  2  5  1 -1</clus>
</clustering>
</event>
<event>
 9    2  0.3897980E-005  0.2328954E+03  0.7546771E-02  0.1165038E+00
         21   -1    0    0  501  502  0.00000000000E+00  0.00000000000E+00  0.14004983679E+03  0.14004983679E+03  0.00000000000E+00 0.  1.
          2   -1    0    0  502    0 -0.00000000000E+00 -0.00000000000E+00 -0.23375789439E+03  0.23375789439E+03  0.00000000000E+00 0. -1.
         24    2    1    2    0    0  0.19746711588E+02  0.34101559945E+02 -0.10896180664E+03  0.14041336697E+03  0.79311974559E+02 0.  0.
         23    2    1    2    0    0  0.81028092257E+02  0.59520418069E+01  0.19148472234E+02  0.12488159551E+03  0.92885792082E+02 0.  0.
        -11    1    3    3    0    0 -0.17964776374E+02 -0.14466309863E+02 -0.50724161876E+02  0.55722059449E+02  0.00000000000E+00 0.  1.
         12    1    3    3    0    0  0.37711487962E+02  0.48567869808E+02 -0.58237644766E+02  0.84691307522E+02  0.00000000000E+00 0. -1.
        -11    1    4    4    0    0  0.94857962025E+02  0.26383378538E+02  0.11951766006E+02  0.99181451558E+02  0.00000000000E+00 0.  1.
         11    1    4    4    0    0 -0.13829869768E+02 -0.20431336731E+02  0.71967062279E+01  0.25700143948E+02  0.00000000000E+00 0. -1.
          1    1    1    2  501    0 -0.10077480384E+03 -0.40053601752E+02 -0.38947231955E+01  0.10851276870E+03  0.00000000000E+00 0. -1.
<scales pt_clust_5="13000.00000" pt_clust_6="13000.00000" pt_clust_7="13000.00000" pt_clust_8="13000.00000" pt_clust_9="13000.00000"></scales>
<clustering>
<clus scale="   79.312">  5  6 -1 -1</clus>
<clus scale="   88.562">  2  5  1 -1</clus>
<clus scale="   92.886">  7  8 -1 -1</clus>
<clus scale="   93.347">  7  9 -1 -1</clus>
<clus scale="  232.895">  1  5  2 -1</clus>
</clustering>
</event>
<event>
 9    2  0.3897980E-005  0.2785918E+03  0.7546771E-02  0.1142275E+00
         21   -1    0    0  501  502  0.00000000000E+00  0.00000000000E+00  0.16757902022E+03  0.16757902022E+03  0.00000000000E+00 0. -1.
          2   -1    0    0  502    0 -0.00000000000E+00 -0.00000000000E+00 -0.80988103300E+03  0.80988103300E+03  0.00000000000E+00 0. -1.
         24    2    1    2    0    0  0.34974832721E+02  0.26877913380E+01 -0.68928572587E+03  0.69493415373E+03  0.81167746008E+02 0.  0.
         23    2    1    2    0    0  0.75729305183E+02  0.81431387259E+01  0.10401421892E+03  0.15752512433E+03  0.90520542881E+02 0.  0.
        -11    1    3    3    0    0 -0.24624260120E+02  0.10780970546E+02 -0.16004861024E+03  0.16229029901E+03  0.00000000000E+00 0.  1.
         12    1    3    3    0    0  0.59599092841E+02 -0.80931792084E+01 -0.52923711563E+03  0.53264385472E+03  0.00000000000E+00 0. -1.
        -11    1    4    4    0    0  0.60545446575E+02 -0.54323937428E+01  0.11805518227E+03  0.13278662607E+03  0.00000000000E+00 0. -1.
         11    1    4    4    0    0  0.15183858608E+02  0.13575532469E+02 -0.14040963347E+02  0.24738498252E+02  0.00000000000E+00 0.  1.
          1    1    1    2  501    0 -0.11070413790E+03 -0.10830930064E+02 -0.57030505836E+02  0.12500077516E+03  0.00000000000E+00 0. -1.
<scales pt_clust_5="13000.00000" pt_clust_6="13000.00000" pt_clust_7="13000.00000" pt_clust_8="13000.00000" pt_clust_9="13000.00000"></scales>
<clustering>
<clus scale="   81.168">  5  6 -1 -1</clus>
<clus scale="   88.423">  2  5  1 -1</clus>
<clus scale="   90.521">  7  8 -1 -1</clus>
<clus scale="   84.132">  7  9 -1 -1</clus>
<clus scale="  278.592">  1  5  2 -1</clus>
</clustering>
</event>
<event>
 9    2  0.3897980E-005  0.4369125E+03  0.7546771E-02  0.1079393E+00
          2   -1    0    0  502    0 -0.00000000000E+00  0.00000000000E+00  0.79050056355E+03  0.79050056355E+03  0.00000000000E+00 0. -1.
         21   -1    0    0  501  502  0.00000000000E+00 -0.00000000000E+00 -0.11161271088E+03  0.11161271088E+03  0.00000000000E+00 0. -1.
         24    2    1    2    0    0  0.77616877262E+02 -0.30763120498E+01  0.31046664390E+03  0.33060059256E+03  0.82905798935E+02 0.  0.
         23    2    1    2    0    0 -0.63662313995E+02 -0.19966886094E+03  0.15185328610E+03  0.27452446639E+03  0.91562644641E+02 0.  0.
        -13    1    3    3    0    0 -0.10625305191E+02  0.19329039537E+02  0.48957567943E+02  0.53696855948E+02  0.00000000000E+00 0.  1.
         14    1    3    3    0    0  0.88242182452E+02 -0.22405351587E+02  0.26150907596E+03  0.27690373661E+03  0.00000000000E+00 0. -1.
        -13    1    4    4    0    0  0.45380338899E+01 -0.24549078305E+02  0.60740849739E+02  0.65671164328E+02  0.00000000000E+00 0.  1.
         13    1    4    4    0    0 -0.68200347885E+02 -0.17511978263E+03  0.91112436365E+02  0.20885330206E+03  0.00000000000E+00 0. -1.
          1    1    1    2  501    0 -0.13954563267E+02  0.20274517299E+03  0.21656792267E+03  0.29698821548E+03  0.00000000000E+00 0. -1.
<scales pt_clust_5="13000.00000" pt_clust_6="13000.00000" pt_clust_7="13000.00000" pt_clust_8="13000.00000" pt_clust_9="13000.00000"></scales>
<clustering>
<clus scale="   82.906">  5  6 -1 -1</clus>
<clus scale="   91.563">  7  8 -1 -1</clus>
<clus scale="  113.610">  1  5  2 -1</clus>
<clus scale="  203.068">  7  9 -1 -1</clus>
<clus scale="  436.913">  2  5  1 -1</clus>
</clustering>
</event>
<event>
 9    2  0.3897980E-005  0.2213766E+03  0.7546771E-02  0.1166055E+00
         21   -1    0    0  501  502  0.00000000000E+00  0.00000000000E+00  0.28234280492E+02  0.28234280492E+02  0.00000000000E+00 0. -1.
          2   -1    0    0  502    0 -0.00000000000E+00 -0.00000000000E+00 -0.14376515113E+04  0.14376515113E+04  0.00000000000E+00 0. -1.
         24    2    1    2    0    0 -0.37829473639E+02 -0.47630594053E+02 -0.95620758299E+03  0.96149847146E+03  0.80290885510E+02 0.  0.
         23    2    1    2    0    0  0.10508601795E+03  0.21156465903E+02 -0.35963992414E+03  0.38615189670E+03  0.91004093688E+02 0.  0.
        -11    1    3    3    0    0 -0.12736768838E+02 -0.37136370744E+02 -0.15720773510E+03  0.16203582100E+03  0.00000000000E+00 0.  1.
         12    1    3    3    0    0 -0.25092704802E+02 -0.10494223309E+02 -0.79899984789E+03  0.79946265046E+03  0.00000000000E+00 0. -1.
        -13    1    4    4    0    0  0.91468662600E+02  0.44840207929E+02 -0.33205024680E+03  0.34732481467E+03  0.00000000000E+00 0.  1.
         13    1    4    4    0    0  0.13617355349E+02 -0.23683742026E+02 -0.27589677346E+02  0.38827082032E+02  0.00000000000E+00 0. -1.
          1    1    1    2  501    0 -0.67256544310E+02  0.26474128150E+02 -0.93569723709E+02  0.11823542366E+03  0.00000000000E+00 0. -1.
<scales pt_clust_5="13000.00000" pt_clust_6="13000.00000" pt_clust_7="13000.00000" pt_clust_8="13000.00000" pt_clust_9="13000.00000"></scales>
<clustering>
<clus scale="   80.291">  5  6 -1 -1</clus>
<clus scale="   91.004">  7  8 -1 -1</clus>
<clus scale="   72.280">  7  9 -1 -1</clus>
<clus scale="  100.729">  2  5  1 -1</clus>
<clus scale="  221.377">  1  5  2 -1</clus>
</clustering>
</event>
<event>
 9    2  0.3897980E-005  0.1778912E+03  0.7546771E-02  0.1195323E+00
          2   -1    0    0  502    0 -0.00000000000E+00  0.00000000000E+00  0.10768425537E+03  0.10768425537E+03  0.00000000000E+00 0. -1.
         21   -1    0    0  501  502  0.00000000000E+00 -0.00000000000E+00 -0.18603607451E+03  0.18603607451E+03  0.00000000000E+00 0. -1.
         24    2    1    2    0    0 -0.68109213996E+01 -0.60300763353E+02 -0.53948181953E+02  0.11416308307E+03  0.80251059119E+02 0.  0.
         23    2    1    2    0    0  0.54314284377E+02  0.11785982601E+02 -0.24941245651E+02  0.11165627134E+03  0.93574068640E+02 0.  0.
        -13    1    3    3    0    0  0.25009016484E+02  0.66384922307E+01 -0.85686856001E+01  0.27256978143E+02  0.00000000000E+00 0.  1.
         14    1    3    3    0    0 -0.31819937884E+02 -0.66939255584E+02 -0.45379496353E+02  0.86906104931E+02  0.00000000000E+00 0. -1.
        -11    1    4    4    0    0  0.25698837269E+02  0.51736671971E+02 -0.30191125675E+01  0.57846594578E+02  0.00000000000E+00 0. -1.
         11    1    4    4    0    0  0.28615447108E+02 -0.39950689370E+02 -0.21922133084E+02  0.53809676763E+02  0.00000000000E+00 0.  1.
          1    1    1    2  501    0 -0.47503362978E+02  0.48514780752E+02  0.53760845937E+00  0.67900975461E+02  0.00000000000E+00 0. -1.
<scales pt_clust_5="13000.00000" pt_clust_6="13000.00000" pt_clust_7="13000.00000" pt_clust_8="13000.00000" pt_clust_9="13000.00000"></scales>
<clustering>
<clus scale="   80.251">  5  6 -1 -1</clus>
<clus scale="   93.574">  7  8 -1 -1</clus>
<clus scale="   67.899">  7  9 -1 -1</clus>
<clus scale="  100.612">  1  5  2 -1</clus>
<clus scale="  177.891">  2  5  1 -1</clus>
</clustering>
</event>
<event>
 9    2  0.3897980E-005  0.2556987E+03  0.7546771E-02  0.1147545E+00
         21   -1    0    0  501  502  0.00000000000E+00  0.00000000000E+00  0.20700393919E+03  0.20700393919E+03  0.00000000000E+00 0.  1.
          2   -1    0    0  502    0 -0.00000000000E+00 -0.00000000000E+00 -0.26310901250E+03  0.26310901250E+03  0.00000000000E+00 0. -1.
         24    2    1    2    0    0 -0.46701031236E+02 -0.76088006981E+01 -0.16405523651E+03  0.19256108577E+03  0.89032415227E+02 0.  0.
         23    2    1    2    0    0  0.27065776196E+01  0.84675738358E+02  0.13775038125E+03  0.18394162168E+03  0.87647284170E+02 0.  0.
        -13    1    3    3    0    0 -0.23612032088E+02 -0.45734680075E+02 -0.58141381669E+02  0.77650558809E+02  0.00000000000E+00 0.  1.
         14    1    3    3    0    0 -0.23088999148E+02  0.38125879377E+02 -0.10591385484E+03  0.11491052696E+03  0.00000000000E+00 0. -1.
        -11    1    4    4    0    0 -0.13693868946E+02 -0.15004814012E+02  0.30108330790E+02  0.36320491092E+02  0.00000000000E+00 0. -1.
         11    1    4    4    0    0  0.16400446566E+02  0.99680552370E+02  0.10764205046E+03  0.14762113059E+03  0.00000000000E+00 0.  1.
          1    1    1    2  501    0  0.43994453616E+02 -0.77066937660E+02 -0.29800218057E+02  0.93610244234E+02  0.00000000000E+00 0. -1.
<scales pt_clust_5="13000.00000" pt_clust_6="13000.00000" pt_clust_7="13000.00000" pt_clust_8="13000.00000" pt_clust_9="13000.00000"></scales>
<clustering>
<clus scale="   87.647">  7  8 -1 -1</clus>
<clus scale="   88.740">  7  9 -1 -1</clus>
<clus scale="   89.032">  5  6 -1 -1</clus>
<clus scale="  100.825">  2  5  1 -1</clus>
<clus scale="  255.699">  1  5  2 -1</clus>
</clustering>
</event>
<event>
 9    2  0.3897980E-005  0.5265550E+03  0.7546771E-02  0.1048759E+00
          2   -1    0    0  502    0 -0.00000000000E+00  0.00000000000E+00  0.87985985140E+03  0.87985985140E+03  0.00000000000E+00 0. -1.
         21   -1    0    0  501  502  0.00000000000E+00 -0.00000000000E+00 -0.32755469745E+03  0.32755469745E+03  0.00000000000E+00 0.  1.
         24    2    1    2    0    0 -0.11907523847E+03 -0.49311693479E+02  0.65374642740E+03  0.67117715304E+03  0.80522195105E+02 0.  0.
         23    2    1    2    0    0 -0.11968619662E+03 -0.93618328502E+02 -0.17428807797E+03  0.24858713770E+03  0.91269128472E+02 0.  0.
        -11    1    3    3    0    0 -0.20679605334E+02 -0.24701283036E+02  0.53722175918E+02  0.62640814536E+02  0.00000000000E+00 0.  1.
         12    1    3    3    0    0 -0.98395633131E+02 -0.24610410443E+02  0.60002425148E+03  0.60853633851E+03  0.00000000000E+00 0. -1.
        -13    1    4    4    0    0 -0.27992311275E+02 -0.47900946497E+02 -0.12160114895E+02  0.56797346418E+02  0.00000000000E+00 0. -1.
         13    1    4    4    0    0 -0.91693885342E+02 -0.45717382005E+02 -0.16212796308E+03  0.19178979128E+03  0.00000000000E+00 0.  1.
          1    1    1    2  501    0  0.23876143508E+03  0.14293002198E+03  0.72846804527E+02  0.28765025812E+03  0.00000000000E+00 0. -1.
<scales pt_clust_5="13000.00000" pt_clust_6="13000.00000" pt_clust_7="13000.00000" pt_clust_8="13000.00000" pt_clust_9="13000.00000"></scales>
<clustering>
<clus scale="   80.522">  5  6 -1 -1</clus>
<clus scale="   91.269">  7  8 -1 -1</clus>
<clus scale="  151.968">  1  5  2 -1</clus>
<clus scale="  173.271">  7  9 -1 -1</clus>
<clus scale="  526.555">  2  5  1 -1</clus>
</clustering>
</event>
<event>
 9    2  0.3897980E-005  0.1772106E+03  0.7546771E-02  0.1203752E+00
          2   -1    0    0  502    0 -0.00000000000E+00  0.00000000000E+00  0.52696385890E+02  0.52696385890E+02  0.00000000000E+00 0. -1.
         21   -1    0    0  501  502  0.00000000000E+00 -0.00000000000E+00 -0.37107567781E+03  0.37107567781E+03  0.00000000000E+00 0.  1.
         24    2    1    2    0    0 -0.11233509148E+02 -0.27596191178E+02 -0.39832226233E+02  0.93632583997E+02  0.79326622543E+02 0.  0.
         23    2    1    2    0    0 -0.17353305482E+02 -0.31652294454E+02 -0.10197115394E+03  0.14170741865E+03  0.91541637038E+02 0.  0.
        -11    1    3    3    0    0 -0.66419129320E+01  0.24178401179E+02 -0.32640534697E+02  0.41159623373E+02  0.00000000000E+00 0.  1.
         12    1    3    3    0    0 -0.45915962160E+01 -0.51774592356E+02 -0.71916915366E+01  0.52472960624E+02  0.00000000000E+00 0. -1.
        -13    1    4    4    0    0  0.12041799790E+02 -0.51300114134E+02 -0.27887223662E+02  0.59618821658E+02  0.00000000000E+00 0. -1.
         13    1    4    4    0    0 -0.29395105271E+02  0.19647819681E+02 -0.74083930273E+02  0.82088596997E+02  0.00000000000E+00 0.  1.
          1    1    1    2  501    0  0.28586814630E+02  0.59248485631E+02 -0.17657591175E+03  0.18843206105E+03  0.00000000000E+00 0. -1.
<scales pt_clust_5="13000.00000" pt_clust_6="13000.00000" pt_clust_7="13000.00000" pt_clust_8="13000.00000" pt_clust_9="13000.00000"></scales>
<clustering>
<clus scale="   79.327">  5  6 -1 -1</clus>
<clus scale="   84.738">  1  5  2 -1</clus>
<clus scale="   91.542">  7  8 -1 -1</clus>
<clus scale="   58.953">  7  9 -1 -1</clus>
<clus scale="  177.211">  2  5  1 -1</clus>
</clustering>
</event>
<event>
 9    2  0.3897980E-005  0.1617277E+03  0.7546771E-02  0.1197183E+00
          2   -1    0    0  502    0 -0.00000000000E+00  0.00000000000E+00  0.23996605364E+03  0.23996605364E+03  0.00000000000E+00 0. -1.
         21   -1    0    0  501  502  0.00000000000E+00 -0.00000000000E+00 -0.10627331460E+03  0.10627331460E+03  0.00000000000E+00 0. -1.
         24    2    1    2    0    0  0.81072791065E+02  0.59842386357E+02  0.13234234882E+03  0.18450605378E+03  0.79837822704E+02 0.  0.
         23    2    1    2    0    0 -0.28934767758E+02 -0.35934485550E+02  0.59878768247E+01  0.10418796298E+03  0.93224293637E+02 0.  0.
        -11    1    3    3    0    0 -0.12076615890E+02  0.18923800196E+02  0.79712627879E+01  0.23822172353E+02  0.00000000000E+00 0.  1.
         12    1    3    3    0    0  0.93149406955E+02  0.40918586161E+02  0.12437108603E+03  0.16068388142E+03  0.00000000000E+00 0. -1.
        -11    1    4    4    0    0 -0.66383929539E+00 -0.27472617908E+02  0.46532354556E+02  0.54041145786E+02  0.00000000000E+00 0.  1.
         11    1    4    4    0    0 -0.28270928463E+02 -0.84618676417E+01 -0.40544477732E+02  0.50146817194E+02  0.00000000000E+00 0. -1.
          1    1    1    2  501    0 -0.52138023307E+02 -0.23907900807E+02 -0.46374865980E+01  0.57545351483E+02  0.00000000000E+00 0. -1.
<scales pt_clust_5="13000.00000" pt_clust_6="13000.00000" pt_clust_7="13000.00000" pt_clust_8="13000.00000" pt_clust_9="13000.00000"></scales>
<clustering>
<clus scale="   79.838">  5  6 -1 -1</clus>
<clus scale="   93.224">  7  8 -1 -1</clus>
<clus scale="   57.358">  7  9 -1 -1</clus>
<clus scale="  128.561">  1  5  2 -1</clus>
<clus scale="  161.728">  2  5  1 -1</clus>
</clustering>
</event>
<event>
 9    2  0.3897980E-005  0.2085187E+03  0.7546771E-02  0.1180014E+00
         -3   -1    0    0    0  501 -0.00000000000E+00  0.00000000000E+00  0.33897460291E+03  0.33897460291E+03  0.00000000000E+00 0.  1.
         21   -1    0    0  501  502  0.00000000000E+00 -0.00000000000E+00 -0.65873619913E+02  0.65873619913E+02  0.00000000000E+00 0.  1.
         24    2    1    2    0    0 -0.33698503609E+02 -0.11436987782E+02  0.57437641281E+02  0.10486366760E+03  0.80192969218E+02 0.  0.
         23    2    1    2    0    0  0.89917791693E+01  0.20941671268E+02  0.12005472456E+02  0.94613454645E+02  0.91039380176E+02 0.  0.
        -11    1    3    3    0    0 -0.59172683759E+02 -0.13580328742E+02  0.48757341214E+02  0.77865975588E+02  0.00000000000E+00 0.  1.
         12    1    3    3    0    0  0.25474180151E+02  0.21433409593E+01  0.86803000669E+01  0.26997692014E+02  0.00000000000E+00 0. -1.
        -11    1    4    4    0    0 -0.32554703610E+02 -0.15855667802E+02  0.14624956458E+02  0.39052532312E+02  0.00000000000E+00 0. -1.
         11    1    4    4    0    0  0.41546482779E+02  0.36797339071E+02 -0.26194840020E+01  0.55560922333E+02  0.00000000000E+00 0.  1.
         -4    1    1    2    0  502  0.24706724439E+02 -0.95046834859E+01  0.20365786926E+03  0.20537110058E+03  0.00000000000E+00 0.  1.
<scales pt_clust_5="13000.00000" pt_clust_6="13000.00000" pt_clust_7="13000.00000" pt_clust_8="13000.00000" pt_clust_9="13000.00000"></scales>
<clustering>
<clus scale="   80.193">  5  6 -1 -1</clus>
<clus scale="   87.734">  1  5  2 -1</clus>
<clus scale="   91.039">  7  8 -1 -1</clus>
<clus scale="   18.687">  7  9 -1 -1</clus>
<clus scale="  208.519">  2  5  1 -1</clus>
</clustering>
</event>
<event>
 9    2  0.3897980E-005  0.1882772E+03  0.7546771E-02  0.1180208E+00
         -1   -1    0    0    0  501 -0.00000000000E+00  0.00000000000E+00  0.71876977250E+03  0.71876977250E+03  0.00000000000E+00 0.  1.
         21   -1    0    0  501  502  0.00000000000E+00 -0.00000000000E+00 -0.47316155502E+02  0.47316155502E+02  0.00000000000E+00 0. -1.
         24    2    1    2    0    0  0.75224109919E+02  0.45875471150E+02  0.49156759807E+03  0.50568759666E+03  0.79485950803E+02 0.  0.
         23    2    1    2    0    0 -0.67150913537E+02  0.11826557881E+02  0.66782990702E+02  0.13317020691E+03  0.92872081383E+02 0.  0.
        -11    1    3    3    0    0 -0.40625356684E+01  0.32477956999E+02  0.81810441462E+02  0.88115096432E+02  0.00000000000E+00 0.  1.
         12    1    3    3    0    0  0.79286645587E+02  0.13397514150E+02  0.40975715661E+03  0.41757250023E+03  0.00000000000E+00 0. -1.
        -13    1    4    4    0    0 -0.58325385808E+02  0.32075378192E+02  0.82541397398E+02  0.10603661066E+03  0.00000000000E+00 0.  1.
         13    1    4    4    0    0 -0.88255277292E+01 -0.20248820311E+02 -0.15758406697E+02  0.27133596247E+02  0.00000000000E+00 0. -1.
         -2    1    1    2    0  502 -0.80731963817E+01 -0.57702029030E+02  0.11310302823E+03  0.12722812444E+03  0.00000000000E+00 0.  1.
<scales pt_clust_5="13000.00000" pt_clust_6="13000.00000" pt_clust_7="13000.00000" pt_clust_8="13000.00000" pt_clust_9="13000.00000"></scales>
<clustering>
<clus scale="   79.486">  5  6 -1 -1</clus>
<clus scale="   92.872">  7  8 -1 -1</clus>
<clus scale="   58.264">  7  9 -1 -1</clus>
<clus scale="  118.664">  1  5  2 -1</clus>
<clus scale="  188.277">  2  5  1 -1</clus>
</clustering>
</event>
<event>
 9    2  0.3897980E-005  0.6462116E+03  0.7546771E-02  0.1017472E+00
          2   -1    0    0  502    0 -0.00000000000E+00  0.00000000000E+00  0.48523924993E+03  0.48523924993E+03  0.00000000000E+00 0. -1.
         21   -1    0    0  501  502  0.00000000000E+00 -0.00000000000E+00 -0.37704830460E+03  0.37704830460E+03  0.00000000000E+00 0.  1.
         24    2    1    2    0    0 -0.18134559917E+03 -0.58145405480E+02  0.53797169046E+02  0.21379079130E+03  0.80902735003E+02 0.  0.
         23    2    1    2    0    0  0.12236898285E+03  0.30096734246E+03 -0.10365725896E+03  0.35282656843E+03  0.90477902635E+02 0.  0.
        -11    1    3    3    0    0 -0.10075340409E+02 -0.18724330942E+02 -0.13956894166E+02  0.25434385157E+02  0.00000000000E+00 0.  1.
         12    1    3    3    0    0 -0.17127025876E+03 -0.39421074538E+02  0.67754063212E+02  0.18835640614E+03  0.00000000000E+00 0. -1.
        -13    1    4    4    0    0  0.10720156332E+03  0.17920829065E+03 -0.33528067147E+02  0.21149921490E+03  0.00000000000E+00 0.  1.
         13    1    4    4    0    0  0.15167419533E+02  0.12175905181E+03 -0.70129191810E+02  0.14132735353E+03  0.00000000000E+00 0. -1.
          1    1    1    2  501    0  0.58976616313E+02 -0.24282193698E+03  0.15805103524E+03  0.29567019479E+03  0.00000000000E+00 0. -1.
<scales pt_clust_5="13000.00000" pt_clust_6="13000.00000" pt_clust_7="13000.00000" pt_clust_8="13000.00000" pt_clust_9="13000.00000"></scales>
<clustering>
<clus scale="   80.903">  5  6 -1 -1</clus>
<clus scale="   90.478">  7  8 -1 -1</clus>
<clus scale="  206.911">  1  5  2 -1</clus>
<clus scale="  286.309">  7  9 -1 -1</clus>
<clus scale="  646.212">  2  5  1 -1</clus>
</clustering>
</event>
<event>
 9    2  0.3897980E-005  0.2424193E+03  0.7546771E-02  0.1162715E+00
         -1   -1    0    0    0  501 -0.00000000000E+00  0.00000000000E+00  0.41366453267E+03  0.41366453267E+03  0.00000000000E+00 0.  1.
         21   -1    0    0  501  502  0.00000000000E+00 -0.00000000000E+00 -0.64443094388E+02  0.64443094388E+02  0.00000000000E+00 0.  1.
         24    2    1    2    0    0 -0.19899390174E+02 -0.35757088478E+01  0.71291375712E+02  0.10930924887E+03  0.80357203871E+02 0.  0.
         23    2    1    2    0    0 -0.43445794306E+02  0.55088631426E+02  0.47380127783E+02  0.12421819498E+03  0.90900985143E+02 0.  0.
        -11    1    3    3    0    0 -0.95651800687E+01  0.37147191757E+02  0.47402927915E+02  0.60979046402E+02  0.00000000000E+00 0.  1.
         12    1    3    3    0    0 -0.10334210105E+02 -0.40722900605E+02  0.23888447798E+02  0.48330202465E+02  0.00000000000E+00 0. -1.
        -13    1    4    4    0    0 -0.60146804479E+02  0.14857840841E+02  0.51362789491E+02  0.80476889029E+02  0.00000000000E+00 0. -1.
         13    1    4    4    0    0  0.16701010173E+02  0.40230790586E+02 -0.39826617081E+01  0.43741305950E+02  0.00000000000E+00 0.  1.
         -2    1    1    2    0  502  0.63345184480E+02 -0.51512922579E+02  0.23054993479E+03  0.24458018321E+03  0.00000000000E+00 0.  1.
<scales pt_clust_5="13000.00000" pt_clust_6="13000.00000" pt_clust_7="13000.00000" pt_clust_8="13000.00000" pt_clust_9="13000.00000"></scales>
<clustering>
<clus scale="   80.357">  5  6 -1 -1</clus>
<clus scale="   82.862">  1  5  2 -1</clus>
<clus scale="   90.901">  7  8 -1 -1</clus>
<clus scale="   72.838">  7  9 -1 -1</clus>
<clus scale="  242.419">  2  5  1 -1</clus>
</clustering>
</event>
<event>
 9    2  0.3897980E-005  0.5181392E+03  0.7546771E-02  0.1061762E+00
         21   -1    0    0  501  502  0.00000000000E+00  0.00000000000E+00  0.87339579805E+02  0.87339579805E+02  0.00000000000E+00 0.  1.
          2   -1    0    0  502    0 -0.00000000000E+00 -0.00000000000E+00 -0.13037640807E+04  0.13037640807E+04  0.00000000000E+00 0. -1.
         24    2    1    2    0    0 -0.44061406562E+01 -0.77125940051E+02 -0.46775519499E+03  0.48062360207E+03  0.78970245819E+02 0.  0.
         23    2    1    2    0    0  0.20708504025E+03 -0.79008718380E+02 -0.22934653297E+03  0.33155613390E+03  0.90570670029E+02 0.  0.
        -13    1    3    3    0    0 -0.13296814991E+02 -0.27381581776E+02 -0.41948337549E+02  0.51828750058E+02  0.00000000000E+00 0.  1.
         14    1    3    3    0    0  0.88906743344E+01 -0.49744358275E+02 -0.42580685744E+03  0.42879485201E+03  0.00000000000E+00 0. -1.
        -13    1    4    4    0    0  0.14102168878E+03 -0.93747131086E+02 -0.18410890182E+03  0.25014341691E+03  0.00000000000E+00 0.  1.
         13    1    4    4    0    0  0.66063351473E+02  0.14738412706E+02 -0.45237631145E+02  0.81412716995E+02  0.00000000000E+00 0. -1.
          1    1    1    2  501    0 -0.20267889959E+03  0.15613465843E+03 -0.51932277297E+03  0.57892392456E+03  0.00000000000E+00 0. -1.
<scales pt_clust_5="13000.00000" pt_clust_6="13000.00000" pt_clust_7="13000.00000" pt_clust_8="13000.00000" pt_clust_9="13000.00000"></scales>
<clustering>
<clus scale="   78.970">  5  6 -1 -1</clus>
<clus scale="   90.571">  7  8 -1 -1</clus>
<clus scale="  110.472">  2  5  1 -1</clus>
<clus scale="  230.894">  7  9 -1 -1</clus>
<clus scale="  518.139">  1  5  2 -1</clus>
</clustering>
</event>
<event>
 9    2  0.3897980E-005  0.2410451E+03  0.7546771E-02  0.1151793E+00
         21   -1    0    0  501  502  0.00000000000E+00  0.00000000000E+00  0.49037918728E+02  0.49037918728E+02  0.00000000000E+00 0.  1.
          2   -1    0    0  502    0 -0.00000000000E+00 -0.00000000000E+00 -0.63558009755E+03  0.63558009755E+03  0.00000000000E+00 0. -1.
         24    2    1    2    0    0  0.65821870198E+02 -0.90683175673E+00 -0.14168368782E+03  0.17865179997E+03  0.86653662934E+02 0.  0.
         23    2    1    2    0    0 -0.60443238913E+02 -0.72437187323E+02 -0.14688526806E+03  0.19905203220E+03  0.95634190092E+02 0.  0.
        -13    1    3    3    0    0  0.83495262222E+02 -0.65296298396E+01 -0.86351402783E+02  0.12029405489E+03  0.00000000000E+00 0.  1.
         14    1    3    3    0    0 -0.17673392025E+02  0.56227980829E+01 -0.55332285035E+02  0.58357745083E+02  0.00000000000E+00 0. -1.
        -13    1    4    4    0    0 -0.79986272803E+02 -0.26410936535E+02 -0.88435639906E+02  0.12213191152E+03  0.00000000000E+00 0.  1.
         13    1    4    4    0    0  0.19543033890E+02 -0.46026250788E+02 -0.58449628149E+02  0.76920120684E+02  0.00000000000E+00 0. -1.
          1    1    1    2  501    0 -0.53786312842E+01  0.73344019080E+02 -0.29797322295E+03  0.30691418411E+03  0.00000000000E+00 0. -1.
<scales pt_clust_5="13000.00000" pt_clust_6="13000.00000" pt_clust_7="13000.00000" pt_clust_8="13000.00000" pt_clust_9="13000.00000"></scales>
<clustering>
<clus scale="   86.654">  5  6 -1 -1</clus>
<clus scale="   95.634">  7  8 -1 -1</clus>
<clus scale="   73.541">  7  9 -1 -1</clus>
<clus scale="  108.822">  2  5  1 -1</clus>
<clus scale="  241.045">  1  5  2 -1</clus>
</clustering>
</event>
<event>
 9    2  0.3897980E-005  0.1489897E+03  0.7546771E-02  0.1227882E+00
         21   -1    0    0  501  502  0.00000000000E+00  0.00000000000E+00  0.30566761489E+02  0.30566761489E+02  0.00000000000E+00 0. -1.
          2   -1    0    0  502    0 -0.00000000000E+00 -0.00000000000E+00 -0.47386986758E+03  0.47386986758E+03  0.00000000000E+00 0. -1.
         24    2    1    2    0    0 -0.21037416814E+02  0.18779142849E+02 -0.21926521910E+03  0.23538105077E+03  0.80819389020E+02 0.  0.
         23    2    1    2    0    0  0.10587856315E+02  0.23563314276E+02 -0.10204805182E+03  0.13950405622E+03  0.91543674489E+02 0.  0.
        -13    1    3    3    0    0  0.30751905271E+02  0.91061270911E+00 -0.75129489158E+02  0.81184660093E+02  0.00000000000E+00 0.  1.
         14    1    3    3    0    0 -0.51789322085E+02  0.17868530140E+02 -0.14413572994E+03  0.15419639068E+03  0.00000000000E+00 0. -1.
        -11    1    4    4    0    0 -0.36240877134E+01 -0.24265669123E+02 -0.82237457083E+02  0.85819322167E+02  0.00000000000E+00 0.  1.
         11    1    4    4    0    0  0.14211944028E+02  0.47828983399E+02 -0.19810594740E+02  0.53684734049E+02  0.00000000000E+00 0. -1.
          1    1    1    2  501    0  0.10449560499E+02 -0.42342457125E+02 -0.12198983516E+03  0.12955152208E+03  0.00000000000E+00 0. -1.
<scales pt_clust_5="13000.00000" pt_clust_6="13000.00000" pt_clust_7="13000.00000" pt_clust_8="13000.00000" pt_clust_9="13000.00000"></scales>
<clustering>
<clus scale="   80.819">  5  6 -1 -1</clus>
<clus scale="   85.598">  2  5  1 -1</clus>
<clus scale="   91.544">  7  8 -1 -1</clus>
<clus scale="   32.764">  7  9 -1 -1</clus>
<clus scale="  148.990">  1  5  2 -1</clus>
</clustering>
</event>
<event>
 9    2  0.3897980E-005  0.5692133E+03  0.7546771E-02  0.1036793E+00
         21   -1    0    0  501  502  0.00000000000E+00  0.00000000000E+00  0.10522614259E+03  0.10522614259E+03  0.00000000000E+00 0.  1.
          2   -1    0    0  502    0 -0.00000000000E+00 -0.00000000000E+00 -0.14349878149E+04  0.14349878149E+04  0.00000000000E+00 0. -1.
         24    2    1    2    0    0 -0.67308903914E+02 -0.13289651400E+03 -0.13627411101E+03  0.21793699593E+03  0.82060519629E+02 0.  0.
         23    2    1    2    0    0  0.15667752358E+03 -0.33195134091E+02 -0.95355826166E+02  0.20806580856E+03  0.92460174061E+02 0.  0.
        -13    1    3    3    0    0 -0.76105025686E+02 -0.86151240820E+02 -0.12342884799E+03  0.16866739977E+03  0.00000000000E+00 0.  1.
         14    1    3    3    0    0  0.87961217720E+01 -0.46745273184E+02 -0.12845263019E+02  0.49269596155E+02  0.00000000000E+00 0. -1.
        -11    1    4    4    0    0  0.10166779118E+03 -0.61785399132E+02 -0.41671224264E+02  0.12605659935E+03  0.00000000000E+00 0.  1.
         11    1    4    4    0    0  0.55009732401E+02  0.28590265041E+02 -0.53684601901E+02  0.82009209210E+02  0.00000000000E+00 0. -1.
          1    1    1    2  501    0 -0.89368619665E+02  0.16609164809E+03 -0.10981317352E+04  0.11142111530E+04  0.00000000000E+00 0. -1.
<scales pt_clust_5="13000.00000" pt_clust_6="13000.00000" pt_clust_7="13000.00000" pt_clust_8="13000.00000" pt_clust_9="13000.00000"></scales>
<clustering>
<clus scale="   82.061">  5  6 -1 -1</clus>
<clus scale="   92.460">  7  8 -1 -1</clus>
<clus scale="  170.076">  2  5  1 -1</clus>
<clus scale="  156.502">  7  9 -1 -1</clus>
<clus scale="  569.213">  1  5  2 -1</clus>
</clustering>
</event>
<event>
 9    2  0.6142639E-005  0.4404383E+03  0.7546771E-02  0.1053110E+00
          2   -1    0    0  502    0 -0.00000000000E+00  0.00000000000E+00  0.92437258954E+03  0.92437258954E+03  0.00000000000E+00 0. -1.
         21   -1    0    0  501  502  0.00000000000E+00 -0.00000000000E+00 -0.13511273049E+03  0.13511273049E+03  0.00000000000E+00 0.  1.
         24    2    1    2    0    0 -0.14911939046E+03 -0.15350621795E+03  0.12163395224E+03  0.25966645793E+03  0.82650465674E+02 0.  0.
         23    2    1    2    0    0 -0.41557597425E+01 -0.69747324314E+02  0.49745114845E+02  0.12519890324E+03  0.91204327389E+02 0.  0.
        -11    1    3    3    0    0 -0.56511671531E+02 -0.14443873021E+02  0.11207451877E+02  0.59395298338E+02  0.00000000000E+00 0.  1.
         12    1    3    3    0    0 -0.92607718933E+02 -0.13906234493E+03  0.11042650036E+03  0.20027115959E+03  0.00000000000E+00 0. -1.
        -13    1    4    4    0    0  0.29102774630E+02 -0.60259661226E+02  0.29160252876E+01  0.66982844563E+02  0.00000000000E+00 0.  1.
         13    1    4    4    0    0 -0.33258534373E+02 -0.94876630874E+01  0.46829089557E+02  0.58216058680E+02  0.00000000000E+00 0. -1.
          1    1    1    2  501    0  0.15327515021E+03  0.22325354226E+03  0.61788079197E+03  0.67461995885E+03  0.00000000000E+00 0. -1.
<scales pt_clust_5="13000.00000" pt_clust_6="13000.00000" pt_clust_7="13000.00000" pt_clust_8="13000.00000" pt_clust_9="13000.00000"></scales>
<clustering>
<clus scale="   82.650">  5  6 -1 -1</clus>
<clus scale="   91.204">  7  8 -1 -1</clus>
<clus scale="  229.416">  1  5  2 -1</clus>
<clus scale="   90.739">  7  9 -1 -1</clus>
<clus scale="  440.438">  2  5  1 -1</clus>
</clustering>
</event>
<event>
 9    2  0.3897980E-005  0.1439728E+03  0.7546771E-02  0.1232305E+00
         -1   -1    0    0    0  501 -0.00000000000E+00  0.00000000000E+00  0.39997925608E+02  0.39997925608E+02  0.00000000000E+00 0.  1.
         21   -1    0    0  501  502  0.00000000000E+00 -0.00000000000E+00 -0.36598256925E+03  0.36598256925E+03  0.00000000000E+00 0. -1.
         24    2    1    2    0    0  0.28629517482E+02 -0.24850521498E+01 -0.18603582766E+03  0.20519743574E+03  0.81675171910E+02 0.  0.
         23    2    1    2    0    0  0.17362832917E+02 -0.12597193735E+02 -0.10258113195E+03  0.13963476195E+03  0.92275786943E+02 0.  0.
        -11    1    3    3    0    0  0.41093102575E+01 -0.30283850010E+02 -0.23674489636E+02  0.38658497924E+02  0.00000000000E+00 0.  1.
         12    1    3    3    0    0  0.24520207224E+02  0.27798797860E+02 -0.16236133802E+03  0.16653893782E+03  0.00000000000E+00 0. -1.
        -13    1    4    4    0    0 -0.21799521923E+02  0.21001774960E+02 -0.70834974388E+01  0.31088094884E+02  0.00000000000E+00 0. -1.
         13    1    4    4    0    0  0.39162354841E+02 -0.33598968695E+02 -0.95497634513E+02  0.10854666707E+03  0.00000000000E+00 0.  1.
         -2    1    1    2    0  502 -0.45992350399E+02  0.15082245885E+02 -0.37367684031E+02  0.61148297163E+02  0.00000000000E+00 0.  1.
<scales pt_clust_5="13000.00000" pt_clust_6="13000.00000" pt_clust_7="13000.00000" pt_clust_8="13000.00000" pt_clust_9="13000.00000"></scales>
<clustering>
<clus scale="   81.675">  5  6 -1 -1</clus>
<clus scale="   86.583">  1  5  2 -1</clus>
<clus scale="   92.276">  7  8 -1 -1</clus>
<clus scale="   37.553">  7  9 -1 -1</clus>
<clus scale="  143.973">  2  5  1 -1</clus>
</clustering>
</event>
<event>
 9    2  0.3897980E-005  0.7535928E+03  0.7546771E-02  0.9964133E-01
         21   -1    0    0  501  502  0.00000000000E+00  0.00000000000E+00  0.83009388217E+02  0.83009388217E+02  0.00000000000E+00 0. -1.
          2   -1    0    0  502    0 -0.00000000000E+00 -0.00000000000E+00 -0.30779464211E+04  0.30779464211E+04  0.00000000000E+00 0. -1.
         24    2    1    2    0    0 -0.23197566829E+03  0.55172402589E+02 -0.91067952317E+03  0.94464548728E+03  0.78493299218E+02 0.  0.
         23    2    1    2    0    0 -0.20584751972E+03  0.10900730819E+02 -0.29037609638E+03  0.36859136939E+03  0.95127771601E+02 0.  0.
        -13    1    3    3    0    0 -0.59835059097E+02  0.31076345563E+02 -0.38819288406E+03  0.39400468117E+03  0.00000000000E+00 0.  1.
         14    1    3    3    0    0 -0.17214060919E+03  0.24096057026E+02 -0.52248663911E+03  0.55064080611E+03  0.00000000000E+00 0. -1.
        -11    1    4    4    0    0 -0.29332458116E+02  0.29384330923E+01 -0.11842459251E+03  0.12203856604E+03  0.00000000000E+00 0.  1.
         11    1    4    4    0    0 -0.17651506160E+03  0.79622977263E+01 -0.17195150387E+03  0.24655280335E+03  0.00000000000E+00 0. -1.
          1    1    1    2  501    0  0.43782318800E+03 -0.66073133408E+02 -0.17938814133E+04  0.18477189527E+04  0.00000000000E+00 0. -1.
<scales pt_clust_5="13000.00000" pt_clust_6="13000.00000" pt_clust_7="13000.00000" pt_clust_8="13000.00000" pt_clust_9="13000.00000"></scales>
<clustering>
<clus scale="   78.493">  5  6 -1 -1</clus>
<clus scale="   95.128">  7  8 -1 -1</clus>
<clus scale="  251.034">  2  5  1 -1</clus>
<clus scale="  242.167">  7  9 -1 -1</clus>
<clus scale="  753.593">  1  5  2 -1</clus>
</clustering>
</event>
<event>
 9    2  0.3897980E-005  0.5303844E+03  0.7546771E-02  0.1051061E+00
          2   -1    0    0  502    0 -0.00000000000E+00  0.00000000000E+00  0.10405558595E+04  0.10405558595E+04  0.00000000000E+00 0. -1.
         21   -1    0    0  501  502  0.00000000000E+00 -0.00000000000E+00 -0.13472908661E+03  0.13472908661E+03  0.00000000000E+00 0. -1.
         24    2    1    2    0    0  0.25771289597E+01 -0.11150323514E+03  0.46568833512E+03  0.48606110330E+03  0.83367605438E+02 0.  0.
         23    2    1    2    0    0  0.23845288833E+02 -0.19560172542E+03  0.21071327011E+03  0.30497456365E+03  0.98897772908E+02 0.  0.
        -13    1    3    3    0    0  0.21725486540E+02 -0.22573542052E+02  0.40250527247E+02  0.51006533992E+02  0.00000000000E+00 0.  1.
         14    1    3    3    0    0 -0.19148357580E+02 -0.88929693090E+02  0.42543780787E+03  0.43505456931E+03  0.00000000000E+00 0. -1.
        -13    1    4    4    0    0 -0.15041996291E+02 -0.18868328161E+02 -0.36905801377E+01  0.24410977894E+02  0.00000000000E+00 0.  1.
         13    1    4    4    0    0  0.38887285124E+02 -0.17673339726E+03  0.21440385025E+03  0.28056358576E+03  0.00000000000E+00 0. -1.
          1    1    1    2  501    0 -0.26422417793E+02  0.30710496056E+03  0.22942516764E+03  0.38424927913E+03  0.00000000000E+00 0. -1.
<scales pt_clust_5="13000.00000" pt_clust_6="13000.00000" pt_clust_7="13000.00000" pt_clust_8="13000.00000" pt_clust_9="13000.00000"></scales>
<clustering>
<clus scale="   83.368">  5  6 -1 -1</clus>
<clus scale="   98.898">  7  8 -1 -1</clus>
<clus scale="  139.247">  1  5  2 -1</clus>
<clus scale="  247.783">  7  9 -1 -1</clus>
<clus scale="  530.384">  2  5  1 -1</clus>
</clustering>
</event>
<event>
 9    2  0.3897980E-005  0.2990377E+03  0.7546771E-02  0.1106414E+00
          2   -1    0    0  502    0 -0.00000000000E+00  0.00000000000E+00  0.45568632663E+03  0.45568632663E+03  0.00000000000E+00 0. -1.
         21   -1    0    0  501  502  0.00000000000E+00 -0.00000000000E+00 -0.18901275255E+03  0.18901275255E+03  0.00000000000E+00 0.  1.
         24    2    1    2    0    0 -0.19000668453E+02  0.15382476766E+03  0.29684885704E+03  0.34414277059E+03  0.79321611675E+02 0.  0.
         23    2    1    2    0    0 -0.47544745338E+02 -0.15566856538E+03  0.52351482841E+02  0.19452631867E+03  0.92771794444E+02 0.  0.
        -13    1    3    3    0    0  0.20503166139E+02  0.43478044898E+02  0.42806613635E+02  0.64367121893E+02  0.00000000000E+00 0.  1.
         14    1    3    3    0    0 -0.39503834593E+02  0.11034672276E+03  0.25404224340E+03  0.27977564870E+03  0.00000000000E+00 0. -1.
        -13    1    4    4    0    0  0.24408776450E+02 -0.38160793256E+02  0.31488158948E+02  0.55168275881E+02  0.00000000000E+00 0. -1.
         13    1    4    4    0    0 -0.71953521788E+02 -0.11750777212E+03  0.20863323893E+02  0.13935804279E+03  0.00000000000E+00 0.  1.
          1    1    1    2  501    0  0.66545413791E+02  0.18437977191E+01 -0.82526765802E+02  0.10602998991E+03  0.00000000000E+00 0. -1.
<scales pt_clust_5="13000.00000" pt_clust_6="13000.00000" pt_clust_7="13000.00000" pt_clust_8="13000.00000" pt_clust_9="13000.00000"></scales>
<clustering>
<clus scale="   79.322">  5  6 -1 -1</clus>
<clus scale="   92.772">  7  8 -1 -1</clus>
<clus scale="   66.571">  7  9 -1 -1</clus>
<clus scale="  174.112">  1  5  2 -1</clus>
<clus scale="  299.038">  2  5  1 -1</clus>
</clustering>
</event>
<event>
 9    2  0.3897980E-005  0.1710793E+03  0.7546771E-02  0.1200689E+00
         21   -1    0    0  501  502  0.00000000000E+00  0.00000000000E+00  0.35374074443E+03  0.35374074443E+03  0.00000000000E+00 0.  1.
         -1   -1    0    0    0  501 -0.00000000000E+00 -0.00000000000E+00 -0.14288945443E+03  0.14288945443E+03  0.00000000000E+00 0.  1.
         24    2    1    2    0    0 -0.34743890402E+01  0.53975369667E+02 -0.99963273447E+02  0.14184318846E+03  0.84861193510E+02 0.  0.
         23    2    1    2    0    0  0.22020355028E+02 -0.15197061600E+02  0.89428111617E+02  0.12926612204E+03  0.89423131471E+02 0.  0.
        -11    1    3    3    0    0  0.13926295300E+02  0.56852003038E+02 -0.10770464683E+03  0.12258214755E+03  0.00000000000E+00 0.  1.
         12    1    3    3    0    0 -0.17400684340E+02 -0.28766333708E+01  0.77413733790E+01  0.19261040908E+02  0.00000000000E+00 0. -1.
        -13    1    4    4    0    0 -0.31305877702E+02 -0.86816253681E+01  0.11192800348E+02  0.34361422807E+02  0.00000000000E+00 0.  1.
         13    1    4    4    0    0  0.53326232730E+02 -0.65154362316E+01  0.78235311269E+02  0.94904699229E+02  0.00000000000E+00 0. -1.
         -2    1    1    2    0  502 -0.18545965988E+02 -0.38778308067E+02  0.22138645184E+03  0.22552088836E+03  0.00000000000E+00 0.  1.
<scales pt_clust_5="13000.00000" pt_clust_6="13000.00000" pt_clust_7="13000.00000" pt_clust_8="13000.00000" pt_clust_9="13000.00000"></scales>
<clustering>
<clus scale="   84.861">  5  6 -1 -1</clus>
<clus scale="   89.423">  7  8 -1 -1</clus>
<clus scale="   42.985">  7  9 -1 -1</clus>
<clus scale="  100.632">  2  5  1 -1</clus>
<clus scale="  171.079">  1  5  2 -1</clus>
</clustering>
</event>
<event>
 9    2  0.3897980E-005  0.5487451E+03  0.7546771E-02  0.1053231E+00
         21   -1    0    0  501  502  0.00000000000E+00  0.00000000000E+00  0.35594560383E+03  0.35594560383E+03  0.00000000000E+00 0. -1.
          2   -1    0    0  502    0 -0.00000000000E+00 -0.00000000000E+00 -0.62392282294E+03  0.62392282294E+03  0.00000000000E+00 0. -1.
         24    2    1    2    0    0 -0.52341773255E+02  0.69572075447E+02 -0.39862591399E+03  0.41578485382E+03  0.79965557921E+02 0.  0.
         23    2    1    2    0    0 -0.12305690535E+02  0.22623304162E+03  0.60081761730E+02  0.25318221574E+03  0.95700559740E+02 0.  0.
        -11    1    3    3    0    0 -0.95078355873E+01  0.74487808347E+02 -0.25117051173E+03  0.26215540904E+03  0.00000000000E+00 0.  1.
         12    1    3    3    0    0 -0.42833937667E+02 -0.49157329004E+01 -0.14745540226E+03  0.15362944478E+03  0.00000000000E+00 0. -1.
        -13    1    4    4    0    0 -0.41831267609E+02  0.44466604980E+02  0.64937608310E+01  0.61394648284E+02  0.00000000000E+00 0.  1.
         13    1    4    4    0    0  0.29525577074E+02  0.18176643664E+03  0.53588000899E+02  0.19178756746E+03  0.00000000000E+00 0. -1.
          1    1    1    2  501    0  0.64647463789E+02 -0.29580511707E+03  0.70566933152E+02  0.31090135721E+03  0.00000000000E+00 0. -1.
<scales pt_clust_5="13000.00000" pt_clust_6="13000.00000" pt_clust_7="13000.00000" pt_clust_8="13000.00000" pt_clust_9="13000.00000"></scales>
<clustering>
<clus scale="   79.966">  5  6 -1 -1</clus>
<clus scale="   95.701">  7  8 -1 -1</clus>
<clus scale="  118.213">  2  5  1 -1</clus>
<clus scale="  259.684">  7  9 -1 -1</clus>
<clus scale="  548.745">  1  5  2 -1</clus>
</clustering>
</event>
<event>
 9    2  0.3897980E-005  0.3848420E+03  0.7546771E-02  0.1088589E+00
         21   -1    0    0  501  502  0.00000000000E+00  0.00000000000E+00  0.34657048691E+03  0.34657048691E+03  0.00000000000E+00 0. -1.
          2   -1    0    0  502    0 -0.00000000000E+00 -0.00000000000E+00 -0.19608536320E+03  0.19608536320E+03  0.00000000000E+00 0. -1.
         24    2    1    2    0    0  0.84858186339E+02  0.54524012475E+02  0.76251215465E+02  0.15071962476E+03  0.82026688967E+02 0.  0.
         23    2    1    2    0    0 -0.12332172561E+03  0.12664702639E+03  0.51267945994E+02  0.20530872309E+03  0.90970062065E+02 0.  0.
        -13    1    3    3    0    0  0.28115080354E+02  0.37761535758E+02  0.78471808143E+02  0.91510742535E+02  0.00000000000E+00 0.  1.
         14    1    3    3    0    0  0.56743105985E+02  0.16762476717E+02 -0.22205926775E+01  0.59208882225E+02  0.00000000000E+00 0. -1.
        -13    1    4    4    0    0 -0.37023609296E+02 -0.63561471872E+01  0.23605897514E+02  0.44366503691E+02  0.00000000000E+00 0.  1.
         13    1    4    4    0    0 -0.86298116313E+02  0.13300317358E+03  0.27662048481E+02  0.16094221940E+03  0.00000000000E+00 0. -1.
          1    1    1    2  501    0  0.38463539270E+02 -0.18117103886E+03  0.22965962242E+02  0.18662750225E+03  0.00000000000E+00 0. -1.
<scales pt_clust_5="13000.00000" pt_clust_6="13000.00000" pt_clust_7="13000.00000" pt_clust_8="13000.00000" pt_clust_9="13000.00000"></scales>
<clustering>
<clus scale="   82.027">  5  6 -1 -1</clus>
<clus scale="   90.970">  7  8 -1 -1</clus>
<clus scale="  130.008">  2  5  1 -1</clus>
<clus scale="  173.746">  7  9 -1 -1</clus>
<clus scale="  384.842">  1  5  2 -1</clus>
</clustering>
</event>
<event>
 9    2  0.3897980E-005  0.5899673E+03  0.7546771E-02  0.1014612E+00
         21   -1    0    0  501  502  0.00000000000E+00  0.00000000000E+00  0.25935612621E+03  0.25935612621E+03  0.00000000000E+00 0. -1.
          2   -1    0    0  502    0 -0.00000000000E+00 -0.00000000000E+00 -0.77163203269E+03  0.77163203269E+03  0.00000000000E+00 0. -1.
         24    2    1    2    0    0 -0.21828698349E+03  0.19257963855E+03 -0.23810046024E+03  0.38042406743E+03  0.57397888177E+02 0.  0.
         23    2    1    2    0    0  0.83177377021E+02  0.13497688012E+03 -0.23004220452E+03  0.29349880093E+03  0.89916050146E+02 0.  0.
        -11    1    3    3    0    0 -0.31177095416E+02  0.66718329941E+01 -0.36321365171E+02  0.48329765176E+02  0.00000000000E+00 0.  1.
         12    1    3    3    0    0 -0.18710988807E+03  0.18590780556E+03 -0.20177909507E+03  0.33209430225E+03  0.00000000000E+00 0. -1.
        -11    1    4    4    0    0  0.64468258873E+02  0.92118743773E+02 -0.84560197191E+02  0.14068562935E+03  0.00000000000E+00 0.  1.
         11    1    4    4    0    0  0.18709118147E+02  0.42858136346E+02 -0.14548200733E+03  0.15281317158E+03  0.00000000000E+00 0. -1.
          1    1    1    2  501    0  0.13510960647E+03 -0.32755651867E+03 -0.44133241730E+02  0.35706529054E+03  0.00000000000E+00 0. -1.
<scales pt_clust_5="13000.00000" pt_clust_6="13000.00000" pt_clust_7="13000.00000" pt_clust_8="13000.00000" pt_clust_9="13000.00000"></scales>
<clustering>
<clus scale="   57.398">  5  6 -1 -1</clus>
<clus scale="   89.916">  7  8 -1 -1</clus>
<clus scale="  296.700">  2  5  1 -1</clus>
<clus scale="  247.329">  7  9 -1 -1</clus>
<clus scale="  589.967">  1  5  2 -1</clus>
</clustering>
</event>
<event>
 9    2  0.3897980E-005  0.2311983E+03  0.7546771E-02  0.1167196E+00
          2   -1    0    0  502    0 -0.00000000000E+00  0.00000000000E+00  0.66059239183E+03  0.66059239183E+03  0.00000000000E+00 0. -1.
         21   -1    0    0  501  502  0.00000000000E+00 -0.00000000000E+00 -0.48661744743E+02  0.48661744743E+02  0.00000000000E+00 0.  1.
         24    2    1    2    0    0 -0.24214980736E+02 -0.19895092794E+02  0.45412296012E+02  0.97375321666E+02  0.80234011685E+02 0.  0.
         23    2    1    2    0    0 -0.26383414034E+02  0.50227486386E+02  0.11895560553E+03  0.16044480771E+03  0.91505274761E+02 0.  0.
        -11    1    3    3    0    0 -0.45965655545E+02 -0.20865217060E+02  0.40614202606E+01  0.50642807062E+02  0.00000000000E+00 0.  1.
         12    1    3    3    0    0  0.21750674809E+02  0.97012426550E+00  0.41350875752E+02  0.46732514604E+02  0.00000000000E+00 0. -1.
        -13    1    4    4    0    0 -0.56884570343E+02  0.22414242450E+02  0.94229652715E+02  0.11232755699E+03  0.00000000000E+00 0.  1.
         13    1    4    4    0    0  0.30501156309E+02  0.27813243937E+02  0.24725952810E+02  0.48117250719E+02  0.00000000000E+00 0. -1.
          1    1    1    2  501    0  0.50598394770E+02 -0.30332393592E+02  0.44756274555E+03  0.45143400721E+03  0.00000000000E+00 0. -1.
<scales pt_clust_5="13000.00000" pt_clust_6="13000.00000" pt_clust_7="13000.00000" pt_clust_8="13000.00000" pt_clust_9="13000.00000"></scales>
<clustering>
<clus scale="   80.234">  5  6 -1 -1</clus>
<clus scale="   86.138">  1  5  2 -1</clus>
<clus scale="   91.505">  7  8 -1 -1</clus>
<clus scale="   55.706">  7  9 -1 -1</clus>
<clus scale="  231.198">  2  5  1 -1</clus>
</clustering>
</event>
<event>
 9    2  0.3897980E-005  0.7761047E+03  0.7546771E-02  0.1015987E+00
          2   -1    0    0  502    0 -0.00000000000E+00  0.00000000000E+00  0.13560638392E+04  0.13560638392E+04  0.00000000000E+00 0. -1.
         21   -1    0    0  501  502  0.00000000000E+00 -0.00000000000E+00 -0.15889754596E+03  0.15889754596E+03  0.00000000000E+00 0. -1.
         24    2    1    2    0    0 -0.32910001206E+02 -0.89534009403E+02  0.32111746607E+03  0.34457682669E+03  0.80730139728E+02 0.  0.
         23    2    1    2    0    0 -0.29022771338E+03 -0.44321593790E+02  0.72900355336E+03  0.79096708699E+03  0.89365667921E+02 0.  0.
        -11    1    3    3    0    0 -0.34974498134E+02 -0.80449860303E+02  0.15425271126E+03  0.17745223152E+03  0.00000000000E+00 0.  1.
         12    1    3    3    0    0  0.20644969272E+01 -0.90841490999E+01  0.16686475481E+03  0.16712459517E+03  0.00000000000E+00 0. -1.
        -13    1    4    4    0    0 -0.14023689588E+03 -0.22790509167E+02  0.46881715643E+03  0.48987275944E+03  0.00000000000E+00 0.  1.
         13    1    4    4    0    0 -0.14999081749E+03 -0.21531084623E+02  0.26018639693E+03  0.30109432755E+03  0.00000000000E+00 0. -1.
          1    1    1    2  501    0  0.32313771458E+03  0.13385560319E+03  0.14704527376E+03  0.37941747143E+03  0.00000000000E+00 0. -1.
<scales pt_clust_5="13000.00000" pt_clust_6="13000.00000" pt_clust_7="13000.00000" pt_clust_8="13000.00000" pt_clust_9="13000.00000"></scales>
<clustering>
<clus scale="   80.730">  5  6 -1 -1</clus>
<clus scale="   89.366">  7  8 -1 -1</clus>
<clus scale="  124.967">  1  5  2 -1</clus>
<clus scale="  333.616">  7  9 -1 -1</clus>
<clus scale="  776.105">  2  5  1 -1</clus>
</clustering>
</event>
<event>
 9    2  0.3897980E-005  0.2863674E+03  0.7546771E-02  0.1127288E+00
         21   -1    0    0  501  502  0.00000000000E+00  0.00000000000E+00  0.82269836368E+03  0.82269836368E+03  0.00000000000E+00 0. -1.
          4   -1    0    0  502    0 -0.00000000000E+00 -0.00000000000E+00 -0.58062404480E+02  0.58062404480E+02  0.00000000000E+00 0. -1.
         24    2    1    2    0    0 -0.33219539398E+02  0.80647678576E+02  0.89879430945E+02  0.14775143212E+03  0.78387420725E+02 0.  0.
         23    2    1    2    0    0 -0.10212592643E+03 -0.28263054995E+02  0.28836906350E+03  0.32026508493E+03  0.90468241461E+02 0.  0.
        -13    1    3    3    0    0  0.23125755820E+02  0.67688751018E+01  0.22610495921E+02  0.33043195641E+02  0.00000000000E+00 0.  1.
         14    1    3    3    0    0 -0.56345295218E+02  0.73878803474E+02  0.67268935024E+02  0.11470823648E+03  0.00000000000E+00 0. -1.
        -13    1    4    4    0    0 -0.75941095005E+02 -0.19449151126E+02  0.28091609695E+03  0.29164905780E+03  0.00000000000E+00 0. -1.
         13    1    4    4    0    0 -0.26184831426E+02 -0.88139038685E+01  0.74529665508E+01  0.28616027129E+02  0.00000000000E+00 0.  1.
          3    1    1    2  501    0  0.13534546583E+03 -0.52384623581E+02  0.38638746475E+03  0.41274425111E+03  0.00000000000E+00 0. -1.
<scales pt_clust_5="13000.00000" pt_clust_6="13000.00000" pt_clust_7="13000.00000" pt_clust_8="13000.00000" pt_clust_9="13000.00000"></scales>
<clustering>
<clus scale="   78.387">  5  6 -1 -1</clus>
<clus scale="   90.468">  7  8 -1 -1</clus>
<clus scale="  117.270">  2  5  1 -1</clus>
<clus scale="  121.361">  7  9 -1 -1</clus>
<clus scale="  286.367">  1  5  2 -1</clus>
</clustering>
</event>
<event>
 9    2  0.3897980E-005  0.5340073E+03  0.7546771E-02  0.1010674E+00
          2   -1    0    0  502    0 -0.00000000000E+00  0.00000000000E+00  0.10942443238E+04  0.10942443238E+04  0.00000000000E+00 0. -1.
         21   -1    0    0  501  502  0.00000000000E+00 -0.00000000000E+00 -0.23189655649E+03  0.23189655649E+03  0.00000000000E+00 0.  1.
         24    2    1    2    0    0  0.44379467270E+03  0.33205392416E+02  0.25951986376E+03  0.52080538552E+03  0.76363474843E+02 0.  0.
         23    2    1    2    0    0 -0.26662902884E+03 -0.15012062448E+03  0.40070036843E+03  0.51222736234E+03  0.90492234775E+02 0.  0.
        -13    1    3    3    0    0  0.41792348098E+03  0.37508354862E+02  0.26164192657E+03  0.49449308425E+03  0.00000000000E+00 0.  1.
         14    1    3    3    0    0  0.25871191725E+02 -0.43029624463E+01 -0.21220628068E+01  0.26312301261E+02  0.00000000000E+00 0. -1.
        -13    1    4    4    0    0 -0.11002567392E+03 -0.17795686109E+02  0.17331984819E+03  0.20606335226E+03  0.00000000000E+00 0.  1.
         13    1    4    4    0    0 -0.15660335492E+03 -0.13232493837E+03  0.22738052024E+03  0.30616401008E+03  0.00000000000E+00 0. -1.
          1    1    1    2  501    0 -0.17716564386E+03  0.11691523206E+03  0.20212753511E+03  0.29310813244E+03  0.00000000000E+00 0. -1.
<scales pt_clust_5="13000.00000" pt_clust_6="13000.00000" pt_clust_7="13000.00000" pt_clust_8="13000.00000" pt_clust_9="13000.00000"></scales>
<clustering>
<clus scale="   76.363">  5  6 -1 -1</clus>
<clus scale="   90.492">  7  8 -1 -1</clus>
<clus scale="  212.266">  7  9 -1 -1</clus>
<clus scale="  451.539">  1  5  2 -1</clus>
<clus scale="  534.007">  2  5  1 -1</clus>
</clustering>
</event>
<event>
 9    2  0.3897980E-005  0.5221724E+03  0.7546771E-02  0.1059057E+00
         21   -1    0    0  501  502  0.00000000000E+00  0.00000000000E+00  0.19555372159E+03  0.19555372159E+03  0.00000000000E+00 0. -1.
          2   -1    0    0  502    0 -0.00000000000E+00 -0.00000000000E+00 -0.79637323304E+03  0.79637323304E+03  0.00000000000E+00 0. -1.
         24    2    1    2    0    0 -0.19999660901E+02  0.85372193926E+02 -0.42545492742E+03  0.44109419127E+03  0.76575403182E+02 0.  0.
         23    2    1    2    0    0 -0.21031379220E+03 -0.52333934601E+01  0.29515017479E+02  0.23233289658E+03  0.94064653178E+02 0.  0.
        -13    1    3    3    0    0  0.21425482282E+01  0.88764975897E+02 -0.38225605045E+03  0.39243279624E+03  0.00000000000E+00 0.  1.
         14    1    3    3    0    0 -0.22142209129E+02 -0.33927819703E+01 -0.43198876967E+02  0.48661395026E+02  0.00000000000E+00 0. -1.
        -11    1    4    4    0    0 -0.68242069792E+02 -0.43376762159E+02 -0.57387710755E+01  0.81064524167E+02  0.00000000000E+00 0.  1.
         11    1    4    4    0    0 -0.14207172241E+03  0.38143368699E+02  0.35253788555E+02  0.15126837241E+03  0.00000000000E+00 0. -1.
          1    1    1    2  501    0  0.23031345310E+03 -0.80138800466E+02 -0.20487960151E+03  0.31849986678E+03  0.00000000000E+00 0. -1.
<scales pt_clust_5="13000.00000" pt_clust_6="13000.00000" pt_clust_7="13000.00000" pt_clust_8="13000.00000" pt_clust_9="13000.00000"></scales>
<clustering>
<clus scale="   76.575">  5  6 -1 -1</clus>
<clus scale="   94.065">  7  8 -1 -1</clus>
<clus scale="  116.414">  2  5  1 -1</clus>
<clus scale="  216.700">  7  9 -1 -1</clus>
<clus scale="  522.172">  1  5  2 -1</clus>
</clustering>
</event>
<event>
 9    2  0.4824095E-005  0.6063163E+03  0.7546771E-02  0.9993672E-01
         21   -1    0    0  501  502  0.00000000000E+00  0.00000000000E+00  0.27879011493E+03  0.27879011493E+03  0.00000000000E+00 0. -1.
          2   -1    0    0  502    0 -0.00000000000E+00 -0.00000000000E+00 -0.10016751370E+04  0.10016751370E+04  0.00000000000E+00 0. -1.
         24    2    1    2    0    0  0.26680511304E+03 -0.33781606587E+03 -0.39827052145E+03  0.59271966944E+03  0.85979855665E+02 0.  0.
         23    2    1    2    0    0 -0.32614532811E+02 -0.74677981548E+02 -0.11768668540E+03  0.17023646397E+03  0.92140051375E+02 0.  0.
        -11    1    3    3    0    0  0.79350656435E+02 -0.12635477276E+03 -0.88753726446E+02  0.17360667969E+03  0.00000000000E+00 0.  1.
         12    1    3    3    0    0  0.18745445661E+03 -0.21146129311E+03 -0.30951679501E+03  0.41911298975E+03  0.00000000000E+00 0. -1.
        -11    1    4    4    0    0 -0.21106685055E+02 -0.51982685391E+02 -0.68554230863E+01  0.56521576059E+02  0.00000000000E+00 0. -1.
         11    1    4    4    0    0 -0.11507847755E+02 -0.22695296157E+02 -0.11083126231E+03  0.11371488791E+03  0.00000000000E+00 0.  1.
          1    1    1    2  501    0 -0.23419058023E+03  0.41249404742E+03 -0.20692781519E+03  0.51750911849E+03  0.00000000000E+00 0. -1.
<scales pt_clust_5="13000.00000" pt_clust_6="13000.00000" pt_clust_7="13000.00000" pt_clust_8="13000.00000" pt_clust_9="13000.00000"></scales>
<clustering>
<clus scale="   85.980">  5  6 -1 -1</clus>
<clus scale="   92.140">  7  8 -1 -1</clus>
<clus scale="  438.973">  2  5  1 -1</clus>
<clus scale="  176.152">  7  9 -1 -1</clus>
<clus scale="  606.316">  1  5  2 -1</clus>
</clustering>
</event>
<event>
 9    2  0.3897980E-005  0.7788385E+03  0.7546771E-02  0.1023550E+00
         21   -1    0    0  501  502  0.00000000000E+00  0.00000000000E+00  0.18465665305E+03  0.18465665305E+03  0.00000000000E+00 0. -1.
          2   -1    0    0  502    0 -0.00000000000E+00 -0.00000000000E+00 -0.10604613664E+04  0.10604613664E+04  0.00000000000E+00 0. -1.
         24    2    1    2    0    0  0.48390526913E+02 -0.23928894586E+02 -0.51283171233E+02  0.11091113778E+03  0.82201470434E+02 0.  0.
         23    2    1    2    0    0  0.31553190294E+03 -0.28669695239E+02 -0.64621380083E+03  0.72555079497E+03  0.91920326925E+02 0.  0.
        -13    1    3    3    0    0 -0.68214357916E+00 -0.21205523429E+02  0.16715562354E+02  0.27010175278E+02  0.00000000000E+00 0.  1.
         14    1    3    3    0    0  0.49072670492E+02 -0.27233711572E+01 -0.67998733587E+02  0.83900962504E+02  0.00000000000E+00 0. -1.
        -13    1    4    4    0    0  0.19637241752E+03 -0.12437826825E+02 -0.29750786079E+03  0.35668999584E+03  0.00000000000E+00 0. -1.
         13    1    4    4    0    0  0.11915948542E+03 -0.16231868414E+02 -0.34870594004E+03  0.36886079913E+03  0.00000000000E+00 0.  1.
          1    1    1    2  501    0 -0.36392242985E+03  0.52598589825E+02 -0.17830774132E+03  0.40865608672E+03  0.00000000000E+00 0. -1.
<scales pt_clust_5="13000.00000" pt_clust_6="13000.00000" pt_clust_7="13000.00000" pt_clust_8="13000.00000" pt_clust_9="13000.00000"></scales>
<clustering>
<clus scale="   82.201">  5  6 -1 -1</clus>
<clus scale="   91.920">  7  8 -1 -1</clus>
<clus scale="   98.343">  2  5  1 -1</clus>
<clus scale="  352.362">  7  9 -1 -1</clus>
<clus scale="  778.839">  1  5  2 -1</clus>
</clustering>
</event>
<event>
 9    2  0.3897980E-005  0.4751410E+03  0.7546771E-02  0.1068649E+00
         21   -1    0    0  501  502  0.00000000000E+00  0.00000000000E+00  0.57254640086E+02  0.57254640086E+02  0.00000000000E+00 0. -1.
          4   -1    0    0  502    0 -0.00000000000E+00 -0.00000000000E+00 -0.15507546340E+04  0.15507546340E+04  0.00000000000E+00 0. -1.
         24    2    1    2    0    0 -0.84092345796E+02 -0.20510511921E+02 -0.35962590900E+03  0.37860723698E+03  0.80749252311E+02 0.  0.
         23    2    1    2    0    0 -0.18213986684E+03 -0.21684525762E+02 -0.47446959036E+03  0.51702973297E+03  0.92483527460E+02 0.  0.
        -13    1    3    3    0    0 -0.54133794806E+02 -0.10126453970E+02 -0.79614786956E+02  0.96806648078E+02  0.00000000000E+00 0.  1.
         14    1    3    3    0    0 -0.29958550990E+02 -0.10384057951E+02 -0.28001112204E+03  0.28180058890E+03  0.00000000000E+00 0. -1.
        -11    1    4    4    0    0 -0.10893793820E+03  0.31740451026E+02 -0.23425327657E+03  0.26028739538E+03  0.00000000000E+00 0. -1.
         11    1    4    4    0    0 -0.73201928647E+02 -0.53424976788E+02 -0.24021631379E+03  0.25674233759E+03  0.00000000000E+00 0.  1.
          3    1    1    2  501    0  0.26623221264E+03  0.42195037683E+02 -0.65940449450E+03  0.71237230408E+03  0.00000000000E+00 0. -1.
<scales pt_clust_5="13000.00000" pt_clust_6="13000.00000" pt_clust_7="13000.00000" pt_clust_8="13000.00000" pt_clust_9="13000.00000"></scales>
<clustering>
<clus scale="   80.749">  5  6 -1 -1</clus>
<clus scale="   92.484">  7  8 -1 -1</clus>
<clus scale="  118.375">  2  5  1 -1</clus>
<clus scale="  219.520">  7  9 -1 -1</clus>
<clus scale="  475.141">  1  5  2 -1</clus>
</clustering>
</event>
<event>
 9    2  0.3897980E-005  0.5214866E+03  0.7546771E-02  0.1038104E+00
         21   -1    0    0  501  502  0.00000000000E+00  0.00000000000E+00  0.52050194815E+03  0.52050194815E+03  0.00000000000E+00 0.  1.
         -1   -1    0    0    0  501 -0.00000000000E+00 -0.00000000000E+00 -0.26023085358E+03  0.26023085358E+03  0.00000000000E+00 0.  1.
         24    2    1    2    0    0 -0.12423176447E+03 -0.15267659237E+03  0.99949343064E+02  0.23515851055E+03  0.81030739489E+02 0.  0.
         23    2    1    2    0    0  0.93761865103E+02  0.14408528909E+03  0.32502590418E+03  0.37785523094E+03  0.87068244993E+02 0.  0.
        -11    1    3    3    0    0 -0.10970498944E+03 -0.80180545342E+02  0.45364191443E+02  0.14325506771E+03  0.00000000000E+00 0.  1.
         12    1    3    3    0    0 -0.14526775031E+02 -0.72496047027E+02  0.54585151621E+02  0.91903442834E+02  0.00000000000E+00 0. -1.
        -11    1    4    4    0    0  0.31320242535E+02  0.12023678300E+03  0.23377815907E+03  0.26474529125E+03  0.00000000000E+00 0.  1.
         11    1    4    4    0    0  0.62441622568E+02  0.23848506094E+02  0.91247745103E+02  0.11310993970E+03  0.00000000000E+00 0. -1.
         -2    1    1    2    0  502  0.30469899371E+02  0.85913032795E+01 -0.16470415268E+03  0.16771906024E+03  0.00000000000E+00 0.  1.
<scales pt_clust_5="13000.00000" pt_clust_6="13000.00000" pt_clust_7="13000.00000" pt_clust_8="13000.00000" pt_clust_9="13000.00000"></scales>
<clustering>
<clus scale="   81.031">  5  6 -1 -1</clus>
<clus scale="   87.068">  7  8 -1 -1</clus>
<clus scale="   31.658">  7  9 -1 -1</clus>
<clus scale="  212.861">  2  5  1 -1</clus>
<clus scale="  521.487">  1  5  2 -1</clus>
</clustering>
</event>
<event>
 9    2  0.3897980E-005  0.1768006E+03  0.7546771E-02  0.1198084E+00
         21   -1    0    0  501  502  0.00000000000E+00  0.00000000000E+00  0.13959806365E+02  0.13959806365E+02  0.00000000000E+00 0. -1.
          2   -1    0    0  502    0 -0.00000000000E+00 -0.00000000000E+00 -0.15290336410E+04  0.15290336410E+04  0.00000000000E+00 0. -1.
         24    2    1    2    0    0  0.52605060681E+02 -0.33366672709E+01 -0.82531287429E+03  0.83093402298E+03  0.80818217720E+02 0.  0.
         23    2    1    2    0    0  0.16268805484E+02 -0.19473717698E+01 -0.22804351751E+03  0.24520342140E+03  0.88613800834E+02 0.  0.
        -11    1    3    3    0    0 -0.12987648563E+02 -0.19572391304E+02 -0.11253543321E+03  0.11496078133E+03  0.00000000000E+00 0.  1.
         12    1    3    3    0    0  0.65592709244E+02  0.16235724033E+02 -0.71277744109E+03  0.71597324165E+03  0.00000000000E+00 0. -1.
        -11    1    4    4    0    0  0.45142696398E+02 -0.25732143160E+02 -0.11675173369E+03  0.12779269756E+03  0.00000000000E+00 0. -1.
         11    1    4    4    0    0 -0.28873890914E+02  0.23784771390E+02 -0.11129178382E+03  0.11741072384E+03  0.00000000000E+00 0.  1.
          1    1    1    2  501    0 -0.68873866165E+02  0.52840390407E+01 -0.46171744286E+03  0.46685600301E+03  0.00000000000E+00 0. -1.
<scales pt_clust_5="13000.00000" pt_clust_6="13000.00000" pt_clust_7="13000.00000" pt_clust_8="13000.00000" pt_clust_9="13000.00000"></scales>
<clustering>
<clus scale="   80.818">  5  6 -1 -1</clus>
<clus scale="   88.614">  7  8 -1 -1</clus>
<clus scale="   69.076">  7  9 -1 -1</clus>
<clus scale="   96.488">  2  5  1 -1</clus>
<clus scale="  176.801">  1  5  2 -1</clus>
</clustering>
</event>
<event>
 9    2  0.3897980E-005  0.2778018E+03  0.7546771E-02  0.1140164E+00
         21   -1    0    0  501  502  0.00000000000E+00  0.00000000000E+00  0.32041725169E+02  0.32041725169E+02  0.00000000000E+00 0. -1.
          2   -1    0    0  502    0 -0.00000000000E+00 -0.00000000000E+00 -0.10962211995E+04  0.10962211995E+04  0.00000000000E+00 0. -1.
         24    2    1    2    0    0  0.52136270425E+01  0.47358764433E+02 -0.33727225515E+03  0.35008045189E+03  0.80831393838E+02 0.  0.
         23    2    1    2    0    0 -0.78162468422E+02  0.67856180241E+02 -0.40924189033E+03  0.43248422562E+03  0.94073630425E+02 0.  0.
        -11    1    3    3    0    0  0.36791211118E+02  0.33828822391E+01 -0.97336470497E+02  0.10411256215E+03  0.00000000000E+00 0.  1.
         12    1    3    3    0    0 -0.31577584075E+02  0.43975882194E+02 -0.23993578465E+03  0.24596788975E+03  0.00000000000E+00 0. -1.
        -11    1    4    4    0    0 -0.70828570210E+02  0.17364346663E+02 -0.33198256361E+03  0.33989796916E+03  0.00000000000E+00 0.  1.
         11    1    4    4    0    0 -0.73338982129E+01  0.50491833578E+02 -0.77259326714E+02  0.92586256461E+02  0.00000000000E+00 0. -1.
          1    1    1    2  501    0  0.72948841380E+02 -0.11521494467E+03 -0.31766532889E+03  0.34569824720E+03  0.00000000000E+00 0. -1.
<scales pt_clust_5="13000.00000" pt_clust_6="13000.00000" pt_clust_7="13000.00000" pt_clust_8="13000.00000" pt_clust_9="13000.00000"></scales>
<clustering>
<clus scale="   80.831">  5  6 -1 -1</clus>
<clus scale="   93.828">  2  5  1 -1</clus>
<clus scale="   94.074">  7  8 -1 -1</clus>
<clus scale="  120.675">  7  9 -1 -1</clus>
<clus scale="  277.802">  1  5  2 -1</clus>
</clustering>
</event>
<event>
 9    2  0.3897980E-005  0.4407206E+03  0.7546771E-02  0.1053874E+00
         21   -1    0    0  501  502  0.00000000000E+00  0.00000000000E+00  0.59530230086E+03  0.59530230086E+03  0.00000000000E+00 0.  1.
         -1   -1    0    0    0  501 -0.00000000000E+00 -0.00000000000E+00 -0.19423278991E+03  0.19423278991E+03  0.00000000000E+00 0.  1.
         24    2    1    2    0    0 -0.69476008375E+02 -0.19744395593E+03  0.59186263111E+02  0.23175487775E+03  0.79976735034E+02 0.  0.
         23    2    1    2    0    0 -0.11300810771E+01  0.33494030364E+02 -0.64337842348E+02  0.11406817569E+03  0.88028765714E+02 0.  0.
        -11    1    3    3    0    0 -0.41173998579E+02 -0.81118279713E+02 -0.13095521884E+02  0.91907378137E+02  0.00000000000E+00 0.  1.
         12    1    3    3    0    0 -0.28302009796E+02 -0.11632567622E+03  0.72281784996E+02  0.13984749962E+03  0.00000000000E+00 0. -1.
        -13    1    4    4    0    0  0.40918169083E+02  0.43432655685E+01 -0.17543536427E+02  0.44731825218E+02  0.00000000000E+00 0.  1.
         13    1    4    4    0    0 -0.42048250160E+02  0.29150764796E+02 -0.46794305921E+02  0.69336350469E+02  0.00000000000E+00 0. -1.
         -2    1    1    2    0  502  0.70606089452E+02  0.16394992557E+03  0.40622109018E+03  0.44371203733E+03  0.00000000000E+00 0.  1.
<scales pt_clust_5="13000.00000" pt_clust_6="13000.00000" pt_clust_7="13000.00000" pt_clust_8="13000.00000" pt_clust_9="13000.00000"></scales>
<clustering>
<clus scale="   79.977">  5  6 -1 -1</clus>
<clus scale="   88.029">  7  8 -1 -1</clus>
<clus scale="  178.507">  7  9 -1 -1</clus>
<clus scale="  224.070">  2  5  1 -1</clus>
<clus scale="  440.721">  1  5  2 -1</clus>
</clustering>
</event>
<event>
 9    2  0.3897980E-005  0.4541679E+03  0.7546771E-02  0.1036760E+00
         21   -1    0    0  501  502  0.00000000000E+00  0.00000000000E+00  0.11185033263E+03  0.11185033263E+03  0.00000000000E+00 0. -1.
          2   -1    0    0  502    0 -0.00000000000E+00 -0.00000000000E+00 -0.15177324413E+04  0.15177324413E+04  0.00000000000E+00 0. -1.
         24    2    1    2    0    0 -0.27143548747E+03 -0.17946362956E+03 -0.83724058740E+03  0.90183166433E+03  0.80275347504E+02 0.  0.
         23    2    1    2    0    0  0.74938438120E+02 -0.42122883942E+02 -0.31119294725E+03  0.33533367670E+03  0.90650523737E+02 0.  0.
        -13    1    3    3    0    0 -0.13085878406E+02 -0.37286677480E+02 -0.80834653853E+02  0.89976540246E+02  0.00000000000E+00 0.  1.
         14    1    3    3    0    0 -0.25834960906E+03 -0.14217695208E+03 -0.75640593355E+03  0.81185512409E+03  0.00000000000E+00 0. -1.
        -13    1    4    4    0    0  0.39718276561E+02  0.87853006327E+01 -0.22819631047E+03  0.23179361318E+03  0.00000000000E+00 0.  1.
         13    1    4    4    0    0  0.35220161559E+02 -0.50908184575E+02 -0.82996636777E+02  0.10354006352E+03  0.00000000000E+00 0. -1.
          1    1    1    2  501    0  0.19649704935E+03  0.22158651350E+03 -0.25744857401E+03  0.39241743288E+03  0.00000000000E+00 0. -1.
<scales pt_clust_5="13000.00000" pt_clust_6="13000.00000" pt_clust_7="13000.00000" pt_clust_8="13000.00000" pt_clust_9="13000.00000"></scales>
<clustering>
<clus scale="   80.275">  5  6 -1 -1</clus>
<clus scale="   90.651">  7  8 -1 -1</clus>
<clus scale="  296.162">  7  9 -1 -1</clus>
<clus scale="  335.155">  2  5  1 -1</clus>
<clus scale="  454.168">  1  5  2 -1</clus>
</clustering>
</event>
<event>
 9    2  0.3897980E-005  0.2635706E+03  0.7546771E-02  0.1113614E+00
         21   -1    0    0  501  502  0.00000000000E+00  0.00000000000E+00  0.15469224717E+03  0.15469224717E+03  0.00000000000E+00 0. -1.
          2   -1    0    0  502    0 -0.00000000000E+00 -0.00000000000E+00 -0.37009749633E+03  0.37009749633E+03  0.00000000000E+00 0. -1.
         24    2    1    2    0    0  0.18863054800E+03  0.54662755716E+02 -0.12666786185E+03  0.24668224774E+03  0.78980273619E+02 0.  0.
         23    2    1    2    0    0 -0.34038940121E+02 -0.16401720693E+01 -0.56446742532E+02  0.11151624346E+03  0.89934966531E+02 0.  0.
        -13    1    3    3    0    0  0.66505921361E+02  0.59693586055E+02 -0.50095842098E+02  0.10244976910E+03  0.00000000000E+00 0.  1.
         14    1    3    3    0    0  0.12212462664E+03 -0.50308303394E+01 -0.76572019755E+02  0.14423247864E+03  0.00000000000E+00 0. -1.
        -11    1    4    4    0    0 -0.15233428860E+02 -0.45750619800E+02 -0.28750763078E+02  0.56140742286E+02  0.00000000000E+00 0. -1.
         11    1    4    4    0    0 -0.18805511261E+02  0.44110447730E+02 -0.27695979454E+02  0.55375501178E+02  0.00000000000E+00 0.  1.
          1    1    1    2  501    0 -0.15459160788E+03 -0.53022583646E+02 -0.32290644774E+02  0.16659125230E+03  0.00000000000E+00 0. -1.
<scales pt_clust_5="13000.00000" pt_clust_6="13000.00000" pt_clust_7="13000.00000" pt_clust_8="13000.00000" pt_clust_9="13000.00000"></scales>
<clustering>
<clus scale="   78.980">  5  6 -1 -1</clus>
<clus scale="   89.935">  7  8 -1 -1</clus>
<clus scale="  163.432">  7  9 -1 -1</clus>
<clus scale="  211.678">  2  5  1 -1</clus>
<clus scale="  263.571">  1  5  2 -1</clus>
</clustering>
</event>
<event>
 9    2  0.3897980E-005  0.1796151E+03  0.7546771E-02  0.1191894E+00
         -1   -1    0    0    0  501 -0.00000000000E+00  0.00000000000E+00  0.12672859496E+03  0.12672859496E+03  0.00000000000E+00 0.  1.
         21   -1    0    0  501  502  0.00000000000E+00 -0.00000000000E+00 -0.49580018398E+03  0.49580018398E+03  0.00000000000E+00 0.  1.
         24    2    1    2    0    0 -0.19283236057E+02  0.66098745235E+02  0.84247275529E+02  0.13492280183E+03  0.79785159676E+02 0.  0.
         23    2    1    2    0    0  0.29781743710E+02  0.81829545095E+01 -0.28869692880E+03  0.30669613407E+03  0.98806320407E+02 0.  0.
        -13    1    3    3    0    0 -0.13782309416E+02  0.75356013540E+02  0.93394869072E+02  0.12079355280E+03  0.00000000000E+00 0.  1.
         14    1    3    3    0    0 -0.55009266413E+01 -0.92572683052E+01 -0.91475935436E+01  0.14129249026E+02  0.00000000000E+00 0. -1.
        -13    1    4    4    0    0  0.53794426770E+02  0.36017476430E+02 -0.21163199772E+03  0.22131245202E+03  0.00000000000E+00 0.  1.
         13    1    4    4    0    0 -0.24012683060E+02 -0.27834521920E+02 -0.77064931079E+02  0.85383682050E+02  0.00000000000E+00 0. -1.
         -2    1    1    2    0  502 -0.10498507653E+02 -0.74281699745E+02 -0.16462193575E+03  0.18090984304E+03  0.00000000000E+00 0.  1.
<scales pt_clust_5="13000.00000" pt_clust_6="13000.00000" pt_clust_7="13000.00000" pt_clust_8="13000.00000" pt_clust_9="13000.00000"></scales>
<clustering>
<clus scale="   79.785">  5  6 -1 -1</clus>
<clus scale="   98.806">  7  8 -1 -1</clus>
<clus scale="   75.020">  7  9 -1 -1</clus>
<clus scale="  105.388">  1  5  2 -1</clus>
<clus scale="  179.615">  2  5  1 -1</clus>
</clustering>
</event>
<event>
 9    2  0.3897980E-005  0.3328279E+03  0.7546771E-02  0.1121304E+00
          2   -1    0    0  502    0 -0.00000000000E+00  0.00000000000E+00  0.43202969671E+03  0.43202969671E+03  0.00000000000E+00 0. -1.
         21   -1    0    0  501  502  0.00000000000E+00 -0.00000000000E+00 -0.12723600294E+03  0.12723600294E+03  0.00000000000E+00 0. -1.
         24    2    1    2    0    0  0.19165408137E+02  0.20854614402E+02  0.18718472728E+03  0.20626950810E+03  0.81894810785E+02 0.  0.
         23    2    1    2    0    0  0.12287002408E+03  0.63639336451E+02  0.78327563598E+02  0.18312470970E+03  0.90842964080E+02 0.  0.
        -11    1    3    3    0    0  0.36600468493E+02 -0.20342098302E+02  0.93885577070E+02  0.10280027645E+03  0.00000000000E+00 0.  1.
         12    1    3    3    0    0 -0.17435060356E+02  0.41196712704E+02  0.93299150212E+02  0.10346923165E+03  0.00000000000E+00 0. -1.
        -11    1    4    4    0    0  0.10692498555E+03  0.20222958660E+02  0.82682116231E+02  0.13666840504E+03  0.00000000000E+00 0. -1.
         11    1    4    4    0    0  0.15945038531E+02  0.43416377791E+02 -0.43545526329E+01  0.46456304662E+02  0.00000000000E+00 0.  1.
          1    1    1    2  501    0 -0.14203543222E+03 -0.84493950853E+02  0.39281402889E+02  0.16987148186E+03  0.00000000000E+00 0. -1.
<scales pt_clust_5="13000.00000" pt_clust_6="13000.00000" pt_clust_7="13000.00000" pt_clust_8="13000.00000" pt_clust_9="13000.00000"></scales>
<clustering>
<clus scale="   81.895">  5  6 -1 -1</clus>
<clus scale="   86.654">  1  5  2 -1</clus>
<clus scale="   90.843">  7  8 -1 -1</clus>
<clus scale="  153.251">  7  9 -1 -1</clus>
<clus scale="  332.828">  2  5  1 -1</clus>
</clustering>
</event>
<event>
 9    2  0.3897980E-005  0.3052067E+03  0.7546771E-02  0.1111932E+00
         21   -1    0    0  501  502  0.00000000000E+00  0.00000000000E+00  0.15973923166E+03  0.15973923166E+03  0.00000000000E+00 0.  1.
          2   -1    0    0  502    0 -0.00000000000E+00 -0.00000000000E+00 -0.33475736516E+03  0.33475736516E+03  0.00000000000E+00 0. -1.
         24    2    1    2    0    0  0.11594006653E+03  0.49879214866E+01 -0.11616914615E+03  0.18366817234E+03  0.82290635110E+02 0.  0.
         23    2    1    2    0    0 -0.39223350387E+02  0.12144851628E+03 -0.43461317119E+02  0.16213946145E+03  0.90067227961E+02 0.  0.
        -13    1    3    3    0    0  0.26937719532E+02 -0.26105719938E+02 -0.49025827592E+01  0.37831001372E+02  0.00000000000E+00 0.  1.
         14    1    3    3    0    0  0.89002346998E+02  0.31093641425E+02 -0.11126656339E+03  0.14583717097E+03  0.00000000000E+00 0. -1.
        -11    1    4    4    0    0 -0.45699785262E+02  0.37211937182E+02  0.13224596663E+02  0.60399408928E+02  0.00000000000E+00 0. -1.
         11    1    4    4    0    0  0.64764348759E+01  0.84236579095E+02 -0.56685913782E+02  0.10174005252E+03  0.00000000000E+00 0.  1.
          1    1    1    2  501    0 -0.76716716144E+02 -0.12643643776E+03 -0.15387670230E+02  0.14868896302E+03  0.00000000000E+00 0. -1.
<scales pt_clust_5="13000.00000" pt_clust_6="13000.00000" pt_clust_7="13000.00000" pt_clust_8="13000.00000" pt_clust_9="13000.00000"></scales>
<clustering>
<clus scale="   82.291">  5  6 -1 -1</clus>
<clus scale="   90.067">  7  8 -1 -1</clus>
<clus scale="  142.263">  2  5  1 -1</clus>
<clus scale="  126.765">  7  9 -1 -1</clus>
<clus scale="  305.207">  1  5  2 -1</clus>
</clustering>
</event>
<event>
 9    2  0.3897980E-005  0.1487777E+03  0.7546771E-02  0.1223484E+00
         21   -1    0    0  501  502  0.00000000000E+00  0.00000000000E+00  0.14844693576E+03  0.14844693576E+03  0.00000000000E+00 0.  1.
          2   -1    0    0  502    0 -0.00000000000E+00 -0.00000000000E+00 -0.10205198538E+03  0.10205198538E+03  0.00000000000E+00 0. -1.
         24    2    1    2    0    0  0.29116206363E+02 -0.31647916395E+02 -0.14733732111E+01  0.94210186353E+02  0.83809571642E+02 0.  0.
         23    2    1    2    0    0  0.18758617363E+02  0.38242248656E+02  0.46736892930E+02  0.10794864687E+03  0.87488387185E+02 0.  0.
        -13    1    3    3    0    0  0.43047248474E+02 -0.52756608027E+02  0.44454235873E+01  0.68235526543E+02  0.00000000000E+00 0.  1.
         14    1    3    3    0    0 -0.13931042111E+02  0.21108691632E+02 -0.59187967984E+01  0.25974659810E+02  0.00000000000E+00 0. -1.
        -13    1    4    4    0    0  0.40867832624E+02  0.11575335114E+02 -0.79507145013E+01  0.43213215427E+02  0.00000000000E+00 0. -1.
         13    1    4    4    0    0 -0.22109215262E+02  0.26666913542E+02  0.54687607431E+02  0.64735431441E+02  0.00000000000E+00 0.  1.
          1    1    1    2  501    0 -0.47874823726E+02 -0.65943322607E+01  0.11314306528E+01  0.48340087919E+02  0.00000000000E+00 0. -1.
<scales pt_clust_5="13000.00000" pt_clust_6="13000.00000" pt_clust_7="13000.00000" pt_clust_8="13000.00000" pt_clust_9="13000.00000"></scales>
<clustering>
<clus scale="   83.810">  5  6 -1 -1</clus>
<clus scale="   87.488">  7  8 -1 -1</clus>
<clus scale="   48.327">  7  9 -1 -1</clus>
<clus scale="   94.199">  2  5  1 -1</clus>
<clus scale="  148.778">  1  5  2 -1</clus>
</clustering>
</event>
<event>
 9    2  0.3897980E-005  0.8809187E+03  0.7546771E-02  0.1011542E+00
         21   -1    0    0  501  502  0.00000000000E+00  0.00000000000E+00  0.36105868648E+03  0.36105868648E+03  0.00000000000E+00 0. -1.
          2   -1    0    0  502    0 -0.00000000000E+00 -0.00000000000E+00 -0.73264411565E+03  0.73264411565E+03  0.00000000000E+00 0. -1.
         24    2    1    2    0    0 -0.33613441987E+02 -0.46455841825E+02 -0.16022560199E+03  0.18778294257E+03  0.79386278832E+02 0.  0.
         23    2    1    2    0    0 -0.22597541511E+03 -0.89096699061E+02  0.24998061367E+03  0.35948059630E+03  0.87936806219E+02 0.  0.
        -13    1    3    3    0    0  0.25109861365E+02 -0.55111808162E+01 -0.52242756124E+02  0.58225285050E+02  0.00000000000E+00 0.  1.
         14    1    3    3    0    0 -0.58723303352E+02 -0.40944661008E+02 -0.10798284586E+03  0.12955765752E+03  0.00000000000E+00 0. -1.
        -13    1    4    4    0    0 -0.15954392556E+03 -0.53349243420E+02  0.11161781510E+03  0.20188844099E+03  0.00000000000E+00 0.  1.
         13    1    4    4    0    0 -0.66431489549E+02 -0.35747455641E+02  0.13836279857E+03  0.15759215531E+03  0.00000000000E+00 0. -1.
          1    1    1    2  501    0  0.25958885709E+03  0.13555254089E+03 -0.46134044085E+03  0.54643926326E+03  0.00000000000E+00 0. -1.
<scales pt_clust_5="13000.00000" pt_clust_6="13000.00000" pt_clust_7="13000.00000" pt_clust_8="13000.00000" pt_clust_9="13000.00000"></scales>
<clustering>
<clus scale="   79.386">  5  6 -1 -1</clus>
<clus scale="   87.937">  7  8 -1 -1</clus>
<clus scale="   97.930">  2  5  1 -1</clus>
<clus scale="  247.659">  7  9 -1 -1</clus>
<clus scale="  880.919">  1  5  2 -1</clus>
</clustering>
</event>
<event>
 9    2  0.3897980E-005  0.3392804E+03  0.7546771E-02  0.1110184E+00
          2   -1    0    0  502    0 -0.00000000000E+00  0.00000000000E+00  0.25994301081E+03  0.25994301081E+03  0.00000000000E+00 0. -1.
         21   -1    0    0  501  502  0.00000000000E+00 -0.00000000000E+00 -0.19462207871E+03  0.19462207871E+03  0.00000000000E+00 0. -1.
         24    2    1    2    0    0  0.42888766618E+02  0.57641128948E+02  0.35673795598E+02  0.11399179469E+03  0.80991132325E+02 0.  0.
         23    2    1    2    0    0  0.10104694526E+03 -0.75544427352E+02  0.94564966196E+02  0.18166344033E+03  0.90230965141E+02 0.  0.
        -13    1    3    3    0    0  0.40040472830E+02  0.48561365651E+02  0.60562669310E+02  0.87345764708E+02  0.00000000000E+00 0.  1.
         14    1    3    3    0    0  0.28482937880E+01  0.90797632972E+01 -0.24888873712E+02  0.26646029980E+02  0.00000000000E+00 0. -1.
        -11    1    4    4    0    0  0.11426832993E+03 -0.47504378569E+02  0.80444754839E+02  0.14759835971E+03  0.00000000000E+00 0. -1.
         11    1    4    4    0    0 -0.13221384676E+02 -0.28040048783E+02  0.14120211358E+02  0.34065080615E+02  0.00000000000E+00 0.  1.
          1    1    1    2  501    0 -0.14393571188E+03  0.17903298404E+02 -0.64917829686E+02  0.15890985450E+03  0.00000000000E+00 0. -1.
<scales pt_clust_5="13000.00000" pt_clust_6="13000.00000" pt_clust_7="13000.00000" pt_clust_8="13000.00000" pt_clust_9="13000.00000"></scales>
<clustering>
<clus scale="   80.991">  5  6 -1 -1</clus>
<clus scale="   90.231">  7  8 -1 -1</clus>
<clus scale="  108.266">  1  5  2 -1</clus>
<clus scale="  136.968">  7  9 -1 -1</clus>
<clus scale="  339.280">  2  5  1 -1</clus>
</clustering>
</event>
<event>
 9    2  0.3897980E-005  0.1719548E+03  0.7546771E-02  0.1209511E+00
          4   -1    0    0  502    0 -0.00000000000E+00  0.00000000000E+00  0.25228803172E+03  0.25228803172E+03  0.00000000000E+00 0. -1.
         21   -1    0    0  501  502  0.00000000000E+00 -0.00000000000E+00 -0.86923412414E+02  0.86923412414E+02  0.00000000000E+00 0.  1.
         24    2    1    2    0    0 -0.36651009910E+02 -0.23788199904E+02  0.14432774405E+03  0.16597457102E+03  0.69338917945E+02 0.  0.
         23    2    1    2    0    0  0.53548251592E+02 -0.52766619049E+01 -0.34047271804E+02  0.10870357763E+03  0.88102171725E+02 0.  0.
        -11    1    3    3    0    0 -0.15165707405E+01 -0.42048016784E+02  0.81265775571E+02  0.91512086532E+02  0.00000000000E+00 0.  1.
         12    1    3    3    0    0 -0.35134439170E+02  0.18259816879E+02  0.63061968480E+02  0.74462484492E+02  0.00000000000E+00 0. -1.
        -11    1    4    4    0    0  0.76756022392E+02  0.57523822789E+01 -0.20493049741E+02  0.79652633120E+02  0.00000000000E+00 0.  1.
         11    1    4    4    0    0 -0.23207770800E+02 -0.11029044184E+02 -0.13554222063E+02  0.29050944509E+02  0.00000000000E+00 0. -1.
          3    1    1    2  501    0 -0.16897241682E+02  0.29064861809E+02  0.55084147059E+02  0.64533295482E+02  0.00000000000E+00 0. -1.
<scales pt_clust_5="13000.00000" pt_clust_6="13000.00000" pt_clust_7="13000.00000" pt_clust_8="13000.00000" pt_clust_9="13000.00000"></scales>
<clustering>
<clus scale="   69.339">  5  6 -1 -1</clus>
<clus scale="   81.958">  1  5  2 -1</clus>
<clus scale="   88.102">  7  8 -1 -1</clus>
<clus scale="   42.015">  7  9 -1 -1</clus>
<clus scale="  171.955">  2  5  1 -1</clus>
</clustering>
</event>
<event>
 9    2  0.5700303E-005  0.4141825E+03  0.7546771E-02  0.1078209E+00
          2   -1    0    0  502    0 -0.00000000000E+00  0.00000000000E+00  0.99438171383E+03  0.99438171383E+03  0.00000000000E+00 0. -1.
         21   -1    0    0  501  502  0.00000000000E+00 -0.00000000000E+00 -0.95784080240E+02  0.95784080240E+02  0.00000000000E+00 0. -1.
         24    2    1    2    0    0 -0.45377965089E+02 -0.10534263098E+03  0.48760952890E+03  0.50667766894E+03  0.76177279508E+02 0.  0.
         23    2    1    2    0    0 -0.99145329770E+02 -0.77867653604E+02  0.26545325521E+03  0.30847288274E+03  0.93791901517E+02 0.  0.
        -13    1    3    3    0    0 -0.20300311886E+01 -0.29116475819E+02  0.34633802698E+02  0.45292278372E+02  0.00000000000E+00 0.  1.
         14    1    3    3    0    0 -0.43347933900E+02 -0.76226155161E+02  0.45297572620E+03  0.46138539057E+03  0.00000000000E+00 0. -1.
        -11    1    4    4    0    0 -0.10242678182E+03 -0.29189600158E+02  0.15903459782E+03  0.19140345267E+03  0.00000000000E+00 0. -1.
         11    1    4    4    0    0  0.32814520515E+01 -0.48678053445E+02  0.10641865739E+03  0.11706943007E+03  0.00000000000E+00 0.  1.
          1    1    1    2  501    0  0.14452329486E+03  0.18321028458E+03  0.14553484948E+03  0.27501524239E+03  0.00000000000E+00 0. -1.
<scales pt_clust_5="13000.00000" pt_clust_6="13000.00000" pt_clust_7="13000.00000" pt_clust_8="13000.00000" pt_clust_9="13000.00000"></scales>
<clustering>
<clus scale="   76.177">  5  6 -1 -1</clus>
<clus scale="   93.792">  7  8 -1 -1</clus>
<clus scale="  137.692">  1  5  2 -1</clus>
<clus scale="  186.911">  7  9 -1 -1</clus>
<clus scale="  414.183">  2  5  1 -1</clus>
</clustering>
</event>
<event>
 9    2  0.3897980E-005  0.4974228E+03  0.7546771E-02  0.1073857E+00
         21   -1    0    0  501  502  0.00000000000E+00  0.00000000000E+00  0.23863137522E+03  0.23863137522E+03  0.00000000000E+00 0.  1.
          2   -1    0    0  502    0 -0.00000000000E+00 -0.00000000000E+00 -0.41234149470E+03  0.41234149470E+03  0.00000000000E+00 0. -1.
         24    2    1    2    0    0 -0.27897762254E+02  0.27332129102E+02 -0.12141228109E+03  0.15080844057E+03  0.80479272669E+02 0.  0.
         23    2    1    2    0    0 -0.18904426048E+03  0.35165894677E+01  0.10181908973E+03  0.23226983776E+03  0.88498879525E+02 0.  0.
        -11    1    3    3    0    0 -0.21101432441E+02  0.55900746470E+02 -0.87411981196E+02  0.10588209652E+03  0.00000000000E+00 0.  1.
         12    1    3    3    0    0 -0.67963298136E+01 -0.28568617368E+02 -0.34000299893E+02  0.44926344054E+02  0.00000000000E+00 0. -1.
        -11    1    4    4    0    0 -0.86569067619E+02  0.71469215871E+01  0.96145822803E+02  0.12957353587E+03  0.00000000000E+00 0.  1.
         11    1    4    4    0    0 -0.10247519286E+03 -0.36303321194E+01  0.56732669286E+01  0.10269630188E+03  0.00000000000E+00 0. -1.
          1    1    1    2  501    0  0.21694202273E+03 -0.30848718570E+02 -0.15411692812E+03  0.26789459158E+03  0.00000000000E+00 0. -1.
<scales pt_clust_5="13000.00000" pt_clust_6="13000.00000" pt_clust_7="13000.00000" pt_clust_8="13000.00000" pt_clust_9="13000.00000"></scales>
<clustering>
<clus scale="   80.479">  5  6 -1 -1</clus>
<clus scale="   88.499">  7  8 -1 -1</clus>
<clus scale="   89.455">  2  5  1 -1</clus>
<clus scale="  195.886">  7  9 -1 -1</clus>
<clus scale="  497.423">  1  5  2 -1</clus>
</clustering>
</event>
<event>
 9    2  0.3897980E-005  0.7879234E+03  0.7546771E-02  0.1019114E+00
         21   -1    0    0  501  502  0.00000000000E+00  0.00000000000E+00  0.30538646178E+03  0.30538646178E+03  0.00000000000E+00 0. -1.
          2   -1    0    0  502    0 -0.00000000000E+00 -0.00000000000E+00 -0.66577299788E+03  0.66577299788E+03  0.00000000000E+00 0. -1.
         24    2    1    2    0    0 -0.36858741720E+02 -0.64882711178E+02 -0.79837136860E+02  0.13477959507E+03  0.78887500752E+02 0.  0.
         23    2    1    2    0    0  0.10569002392E+03  0.32421655588E+03 -0.40801060132E+03  0.53933080053E+03  0.90101639001E+02 0.  0.
        -13    1    3    3    0    0  0.18557792293E+02 -0.45936343416E+02 -0.42922924843E+02  0.65550871683E+02  0.00000000000E+00 0.  1.
         14    1    3    3    0    0 -0.55416534013E+02 -0.18946367762E+02 -0.36914212017E+02  0.69228723390E+02  0.00000000000E+00 0. -1.
        -13    1    4    4    0    0  0.76553291104E+02  0.16692575156E+03 -0.15661759380E+03  0.24135799883E+03  0.00000000000E+00 0.  1.
         13    1    4    4    0    0  0.29136732815E+02  0.15729080432E+03 -0.25139300752E+03  0.29797280170E+03  0.00000000000E+00 0. -1.
          1    1    1    2  501    0 -0.68831282199E+02 -0.25933384470E+03  0.12746120208E+03  0.29704906405E+03  0.00000000000E+00 0. -1.
<scales pt_clust_5="13000.00000" pt_clust_6="13000.00000" pt_clust_7="13000.00000" pt_clust_8="13000.00000" pt_clust_9="13000.00000"></scales>
<clustering>
<clus scale="   78.888">  5  6 -1 -1</clus>
<clus scale="   90.102">  7  8 -1 -1</clus>
<clus scale="  108.589">  2  5  1 -1</clus>
<clus scale="  279.285">  7  9 -1 -1</clus>
<clus scale="  787.923">  1  5  2 -1</clus>
</clustering>
</event>
<event>
 9    2  0.3897980E-005  0.6461750E+03  0.7546771E-02  0.1044381E+00
          2   -1    0    0  502    0 -0.00000000000E+00  0.00000000000E+00  0.71894726362E+03  0.71894726362E+03  0.00000000000E+00 0. -1.
         21   -1    0    0  501  502  0.00000000000E+00 -0.00000000000E+00 -0.27695072346E+03  0.27695072346E+03  0.00000000000E+00 0.  1.
         24    2    1    2    0    0 -0.24267832898E+02 -0.39139827540E+02  0.32640685043E+03  0.33946591785E+03  0.81085285695E+02 0.  0.
         23    2    1    2    0    0  0.34107742964E+02 -0.25281227022E+03 -0.10525084765E+03  0.29023076644E+03  0.89882004636E+02 0.  0.
        -11    1    3    3    0    0  0.13759783563E+02  0.17179937806E+02  0.12447430476E+03  0.12640543680E+03  0.00000000000E+00 0.  1.
         12    1    3    3    0    0 -0.38027616461E+02 -0.56319765346E+02  0.20193254567E+03  0.21306048105E+03  0.00000000000E+00 0. -1.
        -11    1    4    4    0    0  0.31643038424E+02 -0.19949707016E+02 -0.18394015138E+02  0.41684679243E+02  0.00000000000E+00 0. -1.
         11    1    4    4    0    0  0.24647045405E+01 -0.23286256320E+03 -0.86856832509E+02  0.24854608720E+03  0.00000000000E+00 0.  1.
          1    1    1    2  501    0 -0.98399100665E+01  0.29195209776E+03  0.22084053738E+03  0.36620130279E+03  0.00000000000E+00 0. -1.
<scales pt_clust_5="13000.00000" pt_clust_6="13000.00000" pt_clust_7="13000.00000" pt_clust_8="13000.00000" pt_clust_9="13000.00000"></scales>
<clustering>
<clus scale="   81.085">  5  6 -1 -1</clus>
<clus scale="   89.882">  7  8 -1 -1</clus>
<clus scale="   93.251">  1  5  2 -1</clus>
<clus scale="  263.713">  7  9 -1 -1</clus>
<clus scale="  646.175">  2  5  1 -1</clus>
</clustering>
</event>
<event>
 9    2  0.3897980E-005  0.2200738E+03  0.7546771E-02  0.1164167E+00
         21   -1    0    0  501  502  0.00000000000E+00  0.00000000000E+00  0.23546028089E+02  0.23546028089E+02  0.00000000000E+00 0. -1.
          2   -1    0    0  502    0 -0.00000000000E+00 -0.00000000000E+00 -0.11471301758E+04  0.11471301758E+04  0.00000000000E+00 0. -1.
         24    2    1    2    0    0  0.70795182493E+02 -0.29488161213E+02 -0.31662610024E+03  0.33424701552E+03  0.74749384730E+02 0.  0.
         23    2    1    2    0    0  0.71574194381E+01  0.72807960674E+02 -0.30379142807E+03  0.32542051911E+03  0.90868337167E+02 0.  0.
        -13    1    3    3    0    0  0.59471724951E+02 -0.24559108953E+02 -0.31533203216E+03  0.32182965433E+03  0.00000000000E+00 0.  1.
         14    1    3    3    0    0  0.11323457542E+02 -0.49290522599E+01 -0.12940680850E+01  0.12417361197E+02  0.00000000000E+00 0. -1.
        -13    1    4    4    0    0 -0.16538145157E+02  0.82818623978E+02 -0.27032592679E+03  0.28321112517E+03  0.00000000000E+00 0. -1.
         13    1    4    4    0    0  0.23695564595E+02 -0.10010663304E+02 -0.33465501276E+02  0.42209393942E+02  0.00000000000E+00 0.  1.
          1    1    1    2  501    0 -0.77952601931E+02 -0.43319799461E+02 -0.50316661941E+03  0.51100866926E+03  0.00000000000E+00 0. -1.
<scales pt_clust_5="13000.00000" pt_clust_6="13000.00000" pt_clust_7="13000.00000" pt_clust_8="13000.00000" pt_clust_9="13000.00000"></scales>
<clustering>
<clus scale="   74.749">  5  6 -1 -1</clus>
<clus scale="   90.868">  7  8 -1 -1</clus>
<clus scale="   89.181">  7  9 -1 -1</clus>
<clus scale="  107.093">  2  5  1 -1</clus>
<clus scale="  220.074">  1  5  2 -1</clus>
</clustering>
</event>
<event>
 9    2  0.3897980E-005  0.6209278E+03  0.7546771E-02  0.1039177E+00
          2   -1    0    0  502    0 -0.00000000000E+00  0.00000000000E+00  0.20722929066E+03  0.20722929066E+03  0.00000000000E+00 0. -1.
         21   -1    0    0  501  502  0.00000000000E+00 -0.00000000000E+00 -0.69007259566E+03  0.69007259566E+03  0.00000000000E+00 0. -1.
         24    2    1    2    0    0 -0.83945284749E+02  0.35300774339E+02 -0.22313724151E+02  0.12423085364E+03  0.81501209872E+02 0.  0.
         23    2    1    2    0    0 -0.12167080958E+03 -0.21779056947E+01 -0.53185249386E+03  0.55293003106E+03  0.89755305397E+02 0.  0.
        -13    1    3    3    0    0 -0.26900217763E+02  0.52444872765E+02 -0.26277208416E+02  0.64533542264E+02  0.00000000000E+00 0.  1.
         14    1    3    3    0    0 -0.57045066986E+02 -0.17144098425E+02  0.39634842647E+01  0.59697311378E+02  0.00000000000E+00 0. -1.
        -13    1    4    4    0    0 -0.22738122163E+02  0.34421715903E+02 -0.95893824242E+02  0.10439110237E+03  0.00000000000E+00 0.  1.
         13    1    4    4    0    0 -0.98932687420E+02 -0.36599621598E+02 -0.43595866961E+03  0.44853892869E+03  0.00000000000E+00 0. -1.
          1    1    1    2  501    0  0.20561609433E+03 -0.33122868645E+02  0.71322913005E+02  0.22014100162E+03  0.00000000000E+00 0. -1.
<scales pt_clust_5="13000.00000" pt_clust_6="13000.00000" pt_clust_7="13000.00000" pt_clust_8="13000.00000" pt_clust_9="13000.00000"></scales>
<clustering>
<clus scale="   81.501">  5  6 -1 -1</clus>
<clus scale="   89.755">  7  8 -1 -1</clus>
<clus scale="  122.210">  1  5  2 -1</clus>
<clus scale="  127.332">  7  9 -1 -1</clus>
<clus scale="  620.928">  2  5  1 -1</clus>
</clustering>
</event>
<event>
 9    2  0.3897980E-005  0.2691842E+03  0.7546771E-02  0.1138143E+00
          4   -1    0    0  502    0 -0.00000000000E+00  0.00000000000E+00  0.24648718137E+03  0.24648718137E+03  0.00000000000E+00 0. -1.
         21   -1    0    0  501  502  0.00000000000E+00 -0.00000000000E+00 -0.15127056475E+03  0.15127056475E+03  0.00000000000E+00 0.  1.
         24    2    1    2    0    0 -0.81247756151E+01 -0.70662293330E+02  0.66418887102E+02  0.12703752395E+03  0.81657162876E+02 0.  0.
         23    2    1    2    0    0 -0.55162802882E+02 -0.53314342853E+02 -0.25407066429E+02  0.12134256717E+03  0.90515996412E+02 0.  0.
        -13    1    3    3    0    0 -0.18659444591E+02  0.13046529653E+02  0.69124385789E+01  0.23794297962E+02  0.00000000000E+00 0.  1.
         14    1    3    3    0    0  0.10534668976E+02 -0.83708822983E+02  0.59506448523E+02  0.10324322598E+03  0.00000000000E+00 0. -1.
        -11    1    4    4    0    0 -0.81457818926E+01 -0.68661283867E+02 -0.13043986264E+02  0.70362427776E+02  0.00000000000E+00 0.  1.
         11    1    4    4    0    0 -0.47017020989E+02  0.15346941014E+02 -0.12363080165E+02  0.50980139391E+02  0.00000000000E+00 0. -1.
          3    1    1    2  501    0  0.63287578497E+02  0.12397663618E+03  0.54204795943E+02  0.14937765500E+03  0.00000000000E+00 0. -1.
<scales pt_clust_5="13000.00000" pt_clust_6="13000.00000" pt_clust_7="13000.00000" pt_clust_8="13000.00000" pt_clust_9="13000.00000"></scales>
<clustering>
<clus scale="   81.657">  5  6 -1 -1</clus>
<clus scale="   90.516">  7  8 -1 -1</clus>
<clus scale="  108.292">  1  5  2 -1</clus>
<clus scale="   95.419">  7  9 -1 -1</clus>
<clus scale="  269.184">  2  5  1 -1</clus>
</clustering>
</event>
<event>
 9    2  0.3897980E-005  0.1778655E+03  0.7546771E-02  0.1191191E+00
          2   -1    0    0  502    0 -0.00000000000E+00  0.00000000000E+00  0.69731919608E+03  0.69731919608E+03  0.00000000000E+00 0. -1.
         21   -1    0    0  501  502  0.00000000000E+00 -0.00000000000E+00 -0.83878978966E+02  0.83878978966E+02  0.00000000000E+00 0.  1.
         24    2    1    2    0    0 -0.64568905515E+02  0.14820928976E+02  0.59185134005E+03  0.60202723247E+03  0.88090728353E+02 0.  0.
         23    2    1    2    0    0  0.97291674108E+02 -0.22368847881E+02 -0.66506379125E+01  0.13529360366E+03  0.91071911146E+02 0.  0.
        -11    1    3    3    0    0 -0.13399357532E+02  0.17688364414E+02  0.27421674812E+02  0.35275618597E+02  0.00000000000E+00 0.  1.
         12    1    3    3    0    0 -0.51169547982E+02 -0.28674354386E+01  0.56442966524E+03  0.56675161387E+03  0.00000000000E+00 0. -1.
        -11    1    4    4    0    0  0.75996712461E+01 -0.31614077977E+02  0.23611609828E+02  0.40183492233E+02  0.00000000000E+00 0. -1.
         11    1    4    4    0    0  0.89692002862E+02  0.92452300963E+01 -0.30262247740E+02  0.95110111425E+02  0.00000000000E+00 0.  1.
          1    1    1    2  501    0 -0.32722768593E+02  0.75479189049E+01  0.28239514971E+02  0.43877338912E+02  0.00000000000E+00 0. -1.
<scales pt_clust_5="13000.00000" pt_clust_6="13000.00000" pt_clust_7="13000.00000" pt_clust_8="13000.00000" pt_clust_9="13000.00000"></scales>
<clustering>
<clus scale="   88.091">  5  6 -1 -1</clus>
<clus scale="   91.072">  7  8 -1 -1</clus>
<clus scale="   33.582">  7  9 -1 -1</clus>
<clus scale="  110.222">  1  5  2 -1</clus>
<clus scale="  177.866">  2  5  1 -1</clus>
</clustering>
</event>
<event>
 9    2  0.3897980E-005  0.1613967E+03  0.7546771E-02  0.1213781E+00
         21   -1    0    0  501  502  0.00000000000E+00  0.00000000000E+00  0.14524165813E+03  0.14524165813E+03  0.00000000000E+00 0.  1.
          2   -1    0    0  502    0 -0.00000000000E+00 -0.00000000000E+00 -0.11473987246E+03  0.11473987246E+03  0.00000000000E+00 0. -1.
         24    2    1    2    0    0 -0.29955518912E+02  0.23589919003E+02 -0.16249721715E+02  0.91949961069E+02  0.82078770051E+02 0.  0.
         23    2    1    2    0    0  0.66100654186E+02 -0.41033216726E+02  0.26996831030E+02  0.12329917994E+03  0.91765121537E+02 0.  0.
        -11    1    3    3    0    0  0.24588880747E+02 -0.83745748517E+01 -0.11923355797E+02  0.28581689485E+02  0.00000000000E+00 0.  1.
         12    1    3    3    0    0 -0.54544399659E+02  0.31964493854E+02 -0.43263659174E+01  0.63368271584E+02  0.00000000000E+00 0. -1.
        -11    1    4    4    0    0  0.89121270724E+02 -0.26232027175E+02  0.19560245392E+02  0.94938524030E+02  0.00000000000E+00 0.  1.
         11    1    4    4    0    0 -0.23020616539E+02 -0.14801189552E+02  0.74365856377E+01  0.28360655915E+02  0.00000000000E+00 0. -1.
          1    1    1    2  501    0 -0.36145135274E+02  0.17443297724E+02  0.19754676353E+02  0.44732389577E+02  0.00000000000E+00 0. -1.
<scales pt_clust_5="13000.00000" pt_clust_6="13000.00000" pt_clust_7="13000.00000" pt_clust_8="13000.00000" pt_clust_9="13000.00000"></scales>
<clustering>
<clus scale="   82.079">  5  6 -1 -1</clus>
<clus scale="   90.503">  2  5  1 -1</clus>
<clus scale="   91.765">  7  8 -1 -1</clus>
<clus scale="   47.832">  7  9 -1 -1</clus>
<clus scale="  161.397">  1  5  2 -1</clus>
</clustering>
</event>
<event>
 9    2  0.3897980E-005  0.3383978E+03  0.7546771E-02  0.1089904E+00
          2   -1    0    0  502    0 -0.00000000000E+00  0.00000000000E+00  0.99891590633E+03  0.99891590633E+03  0.00000000000E+00 0. -1.
         21   -1    0    0  501  502  0.00000000000E+00 -0.00000000000E+00 -0.11141281339E+03  0.11141281339E+03  0.00000000000E+00 0. -1.
         24    2    1    2    0    0  0.14004781916E+03  0.87818121545E+02  0.69896833132E+03  0.72295496104E+03  0.82351280391E+02 0.  0.
         23    2    1    2    0    0 -0.51345784586E+02  0.16514617200E+02  0.22229911132E+03  0.24632978460E+03  0.91391168680E+02 0.  0.
        -11    1    3    3    0    0  0.74762414394E+02  0.93032999368E+01  0.20170556986E+03  0.21531629504E+03  0.00000000000E+00 0.  1.
         12    1    3    3    0    0  0.65285404766E+02  0.78514821608E+02  0.49726276146E+03  0.50763866601E+03  0.00000000000E+00 0. -1.
        -11    1    4    4    0    0 -0.17854922405E+00 -0.26195522103E+02  0.18936716861E+02  0.32323930819E+02  0.00000000000E+00 0. -1.
         11    1    4    4    0    0 -0.51167235362E+02  0.42710139303E+02  0.20336239446E+03  0.21400585378E+03  0.00000000000E+00 0.  1.
          1    1    1    2  501    0 -0.88702034575E+02 -0.10433273874E+03 -0.33764349706E+02  0.14104397407E+03  0.00000000000E+00 0. -1.
<scales pt_clust_5="13000.00000" pt_clust_6="13000.00000" pt_clust_7="13000.00000" pt_clust_8="13000.00000" pt_clust_9="13000.00000"></scales>
<clustering>
<clus scale="   82.351">  5  6 -1 -1</clus>
<clus scale="   91.391">  7  8 -1 -1</clus>
<clus scale="  136.943">  7  9 -1 -1</clus>
<clus scale="  184.681">  1  5  2 -1</clus>
<clus scale="  338.398">  2  5  1 -1</clus>
</clustering>
</event>
<event>
 9    2  0.3897980E-005  0.3433531E+03  0.7546771E-02  0.1115250E+00
         21   -1    0    0  501  502  0.00000000000E+00  0.00000000000E+00  0.23930391447E+03  0.23930391447E+03  0.00000000000E+00 0. -1.
          2   -1    0    0  502    0 -0.00000000000E+00 -0.00000000000E+00 -0.20241091519E+03  0.20241091519E+03  0.00000000000E+00 0. -1.
         24    2    1    2    0    0 -0.40333628484E+02 -0.67587565921E+01  0.35121172329E+02  0.98357192711E+02  0.82268816905E+02 0.  0.
         23    2    1    2    0    0 -0.13238528561E+02  0.10736994905E+03 -0.11331202595E+03  0.18137960987E+03  0.91407784425E+02 0.  0.
        -13    1    3    3    0    0  0.22575950212E+02 -0.13842541421E+02  0.11396491773E+01  0.26506381896E+02  0.00000000000E+00 0.  1.
         14    1    3    3    0    0 -0.62909578696E+02  0.70837848286E+01  0.33981523151E+02  0.71850810816E+02  0.00000000000E+00 0. -1.
        -11    1    4    4    0    0 -0.50169865058E+02  0.59246950918E+02 -0.43866908797E+02  0.89171308392E+02  0.00000000000E+00 0.  1.
         11    1    4    4    0    0  0.36931336497E+02  0.48122998133E+02 -0.69445117150E+02  0.92208301474E+02  0.00000000000E+00 0. -1.
          1    1    1    2  501    0  0.53572157045E+02 -0.10061119246E+03  0.11508385290E+03  0.16197802708E+03  0.00000000000E+00 0. -1.
<scales pt_clust_5="13000.00000" pt_clust_6="13000.00000" pt_clust_7="13000.00000" pt_clust_8="13000.00000" pt_clust_9="13000.00000"></scales>
<clustering>
<clus scale="   82.269">  5  6 -1 -1</clus>
<clus scale="   91.408">  7  8 -1 -1</clus>
<clus scale="   91.873">  2  5  1 -1</clus>
<clus scale="  112.328">  7  9 -1 -1</clus>
<clus scale="  343.353">  1  5  2 -1</clus>
</clustering>
</event>
<event>
 9    2  0.3897980E-005  0.1208291E+03  0.7546771E-02  0.1261205E+00
          2   -1    0    0  502    0 -0.00000000000E+00  0.00000000000E+00  0.59437689367E+03  0.59437689367E+03  0.00000000000E+00 0. -1.
         21   -1    0    0  501  502  0.00000000000E+00 -0.00000000000E+00 -0.35581738044E+02  0.35581738044E+02  0.00000000000E+00 0. -1.
         24    2    1    2    0    0 -0.13514404555E+02  0.16708830669E+02  0.47713132071E+03  0.48412086288E+03  0.79100496364E+02 0.  0.
         23    2    1    2    0    0 -0.22150568965E+02 -0.21739595535E+02  0.70534194571E+02  0.10813938922E+03  0.75866970270E+02 0.  0.
        -13    1    3    3    0    0 -0.18205989468E+02 -0.29962762284E+02  0.20503269426E+03  0.20800872792E+03  0.00000000000E+00 0.  1.
         14    1    3    3    0    0  0.46915849131E+01  0.46671592953E+02  0.27209862645E+03  0.27611213496E+03  0.00000000000E+00 0. -1.
        -11    1    4    4    0    0  0.50536189365E+01  0.20590741412E+02  0.49031732165E+02  0.53419364049E+02  0.00000000000E+00 0.  1.
         11    1    4    4    0    0 -0.27204187901E+02 -0.42330336947E+02  0.21502462406E+02  0.54720025174E+02  0.00000000000E+00 0. -1.
          1    1    1    2  501    0  0.35664973520E+02  0.50307648659E+01  0.11129640353E+02  0.37698379616E+02  0.00000000000E+00 0. -1.
<scales pt_clust_5="13000.00000" pt_clust_6="13000.00000" pt_clust_7="13000.00000" pt_clust_8="13000.00000" pt_clust_9="13000.00000"></scales>
<clustering>
<clus scale="   75.867">  7  8 -1 -1</clus>
<clus scale="   36.018">  7  9 -1 -1</clus>
<clus scale="   79.100">  5  6 -1 -1</clus>
<clus scale="   81.968">  1  5  2 -1</clus>
<clus scale="  120.829">  2  5  1 -1</clus>
</clustering>
</event>
<event>
 9    2  0.3897980E-005  0.4324215E+03  0.7546771E-02  0.1083039E+00
         21   -1    0    0  501  502  0.00000000000E+00  0.00000000000E+00  0.13576435377E+03  0.13576435377E+03  0.00000000000E+00 0.  1.
         -3   -1    0    0    0  501 -0.00000000000E+00 -0.00000000000E+00 -0.10628194054E+04  0.10628194054E+04  0.00000000000E+00 0.  1.
         24    2    1    2    0    0  0.65039634524E+02  0.24056861448E+02 -0.70409469900E+03  0.71206586863E+03  0.80495773052E+02 0.  0.
         23    2    1    2    0    0 -0.15297137402E+03  0.10962152233E+03 -0.24842880044E+03  0.32449769758E+03  0.90359102578E+02 0.  0.
        -11    1    3    3    0    0  0.52943302421E+02  0.50888603864E+02 -0.41211785123E+03  0.41860932452E+03  0.00000000000E+00 0.  1.
         12    1    3    3    0    0  0.12096332104E+02 -0.26831742416E+02 -0.29197684776E+03  0.29345654411E+03  0.00000000000E+00 0. -1.
        -13    1    4    4    0    0 -0.98823899677E+02  0.19081672456E+02 -0.95761561229E+02  0.13892641930E+03  0.00000000000E+00 0. -1.
         13    1    4    4    0    0 -0.54147474341E+02  0.90539849876E+02 -0.15266723921E+03  0.18557127828E+03  0.00000000000E+00 0.  1.
         -4    1    1    2    0  502  0.87931739493E+02 -0.13367838378E+03  0.25468447787E+02  0.16202019298E+03  0.00000000000E+00 0.  1.
<scales pt_clust_5="13000.00000" pt_clust_6="13000.00000" pt_clust_7="13000.00000" pt_clust_8="13000.00000" pt_clust_9="13000.00000"></scales>
<clustering>
<clus scale="   80.496">  5  6 -1 -1</clus>
<clus scale="   90.359">  7  8 -1 -1</clus>
<clus scale="  106.247">  2  5  1 -1</clus>
<clus scale="  163.535">  7  9 -1 -1</clus>
<clus scale="  432.421">  1  5  2 -1</clus>
</clustering>
</event>
<event>
 9    2  0.3897980E-005  0.1760334E+03  0.7546771E-02  0.1193345E+00
         -1   -1    0    0    0  501 -0.00000000000E+00  0.00000000000E+00  0.86981235013E+02  0.86981235013E+02  0.00000000000E+00 0.  1.
         21   -1    0    0  501  502  0.00000000000E+00 -0.00000000000E+00 -0.26138965414E+03  0.26138965414E+03  0.00000000000E+00 0.  1.
         24    2    1    2    0    0  0.43257449572E+02  0.61241637716E+02 -0.12413257348E+02  0.10914253359E+03  0.78334274401E+02 0.  0.
         23    2    1    2    0    0  0.15527323904E+02  0.99303555610E+00 -0.92060618496E+02  0.12868585472E+03  0.88559628609E+02 0.  0.
        -13    1    3    3    0    0  0.42995227773E+02  0.60655901724E+02  0.19786361539E+02  0.76936520120E+02  0.00000000000E+00 0.  1.
         14    1    3    3    0    0  0.26222179861E+00  0.58573599187E+00 -0.32199618887E+02  0.32206013466E+02  0.00000000000E+00 0. -1.
        -11    1    4    4    0    0  0.49995984092E+00 -0.34750464836E+02 -0.81345379426E+02  0.88458552555E+02  0.00000000000E+00 0.  1.
         11    1    4    4    0    0  0.15027364064E+02  0.35743500392E+02 -0.10715239069E+02  0.40227302163E+02  0.00000000000E+00 0. -1.
         -2    1    1    2    0  502 -0.58784773476E+02 -0.62234673272E+02 -0.69934543285E+02  0.11054250085E+03  0.00000000000E+00 0.  1.
<scales pt_clust_5="13000.00000" pt_clust_6="13000.00000" pt_clust_7="13000.00000" pt_clust_8="13000.00000" pt_clust_9="13000.00000"></scales>
<clustering>
<clus scale="   78.334">  5  6 -1 -1</clus>
<clus scale="   88.560">  7  8 -1 -1</clus>
<clus scale="   85.608">  7  9 -1 -1</clus>
<clus scale="  108.434">  1  5  2 -1</clus>
<clus scale="  176.033">  2  5  1 -1</clus>
</clustering>
</event>
<event>
 9    2  0.3897980E-005  0.6219232E+03  0.7546771E-02  0.1043095E+00
          2   -1    0    0  502    0 -0.00000000000E+00  0.00000000000E+00  0.11723169590E+04  0.11723169590E+04  0.00000000000E+00 0. -1.
         21   -1    0    0  501  502  0.00000000000E+00 -0.00000000000E+00 -0.11444301700E+03  0.11444301700E+03  0.00000000000E+00 0. -1.
         24    2    1    2    0    0  0.68435671795E+02  0.26925667843E+02  0.19402334935E+03  0.22232291235E+03  0.79837237553E+02 0.  0.
         23    2    1    2    0    0  0.61876190356E+02  0.23099531813E+03  0.66596987560E+03  0.71420686136E+03  0.96892030994E+02 0.  0.
        -13    1    3    3    0    0  0.22075673137E+01 -0.23946639716E+02  0.31836604764E+02  0.39898424907E+02  0.00000000000E+00 0.  1.
         14    1    3    3    0    0  0.66228104482E+02  0.50872307559E+02  0.16218674459E+03  0.18242448745E+03  0.00000000000E+00 0. -1.
        -11    1    4    4    0    0  0.36203742763E+02  0.94593170031E+02  0.41738296832E+03  0.42949635743E+03  0.00000000000E+00 0.  1.
         11    1    4    4    0    0  0.25672447593E+02  0.13640214810E+03  0.24858690728E+03  0.28471050392E+03  0.00000000000E+00 0. -1.
          1    1    1    2  501    0 -0.13031186215E+03 -0.25792098598E+03  0.19788071708E+03  0.35023020232E+03  0.00000000000E+00 0. -1.
<scales pt_clust_5="13000.00000" pt_clust_6="13000.00000" pt_clust_7="13000.00000" pt_clust_8="13000.00000" pt_clust_9="13000.00000"></scales>
<clustering>
<clus scale="   79.837">  5  6 -1 -1</clus>
<clus scale="   96.892">  7  8 -1 -1</clus>
<clus scale="  108.547">  1  5  2 -1</clus>
<clus scale="  273.722">  7  9 -1 -1</clus>
<clus scale="  621.923">  2  5  1 -1</clus>
</clustering>
</event>
<event>
 9    2  0.3897980E-005  0.4550030E+03  0.7546771E-02  0.1091709E+00
         21   -1    0    0  501  502  0.00000000000E+00  0.00000000000E+00  0.15503389127E+03  0.15503389127E+03  0.00000000000E+00 0.  1.
          2   -1    0    0  502    0 -0.00000000000E+00 -0.00000000000E+00 -0.55999378876E+03  0.55999378876E+03  0.00000000000E+00 0. -1.
         24    2    1    2    0    0 -0.14911707722E+02  0.73917546075E+01 -0.20611357793E+03  0.21847191770E+03  0.70499466315E+02 0.  0.
         23    2    1    2    0    0 -0.21031714993E+02 -0.12340384986E+03  0.88710589290E+02  0.18440241587E+03  0.10229290850E+03 0.  0.
        -11    1    3    3    0    0 -0.11367692078E+02 -0.29956434283E+02 -0.65165621427E+02  0.72616599990E+02  0.00000000000E+00 0.  1.
         12    1    3    3    0    0 -0.35440156440E+01  0.37348188891E+02 -0.14094795651E+03  0.14585531771E+03  0.00000000000E+00 0. -1.
        -11    1    4    4    0    0  0.14778759166E+02 -0.38440089449E+02 -0.16626412700E+02  0.44412721135E+02  0.00000000000E+00 0. -1.
         11    1    4    4    0    0 -0.35810474159E+02 -0.84963760410E+02  0.10533700199E+03  0.13998969473E+03  0.00000000000E+00 0.  1.
          1    1    1    2  501    0  0.35943422715E+02  0.11601209525E+03 -0.28755690885E+03  0.31215334646E+03  0.00000000000E+00 0. -1.
<scales pt_clust_5="13000.00000" pt_clust_6="13000.00000" pt_clust_7="13000.00000" pt_clust_8="13000.00000" pt_clust_9="13000.00000"></scales>
<clustering>
<clus scale="   70.499">  5  6 -1 -1</clus>
<clus scale="   72.437">  2  5  1 -1</clus>
<clus scale="  102.293">  7  8 -1 -1</clus>
<clus scale="  124.545">  7  9 -1 -1</clus>
<clus scale="  455.003">  1  5  2 -1</clus>
</clustering>
</event>
<event>
 9    2  0.3897980E-005  0.2515660E+03  0.7546771E-02  0.1145184E+00
         -1   -1    0    0    0  501 -0.00000000000E+00  0.00000000000E+00  0.90012596309E+02  0.90012596309E+02  0.00000000000E+00 0.  1.
         21   -1    0    0  501  502  0.00000000000E+00 -0.00000000000E+00 -0.84814554317E+03  0.84814554317E+03  0.00000000000E+00 0. -1.
         24    2    1    2    0    0 -0.77799075443E+02 -0.67977258971E+01  0.25722638751E+02  0.11492364766E+03  0.80292499211E+02 0.  0.
         23    2    1    2    0    0 -0.48186812343E+02 -0.37632472434E+02 -0.37020506367E+03  0.38854697101E+03  0.10088997794E+03 0.  0.
        -11    1    3    3    0    0 -0.42769289134E+02 -0.42354557972E+01  0.54576941860E+02  0.69467933333E+02  0.00000000000E+00 0.  1.
         12    1    3    3    0    0 -0.35029786309E+02 -0.25622700999E+01 -0.28854303108E+02  0.45455714325E+02  0.00000000000E+00 0. -1.
        -13    1    4    4    0    0 -0.22731777218E+02  0.32428717261E+02 -0.17892890476E+03  0.18325912899E+03  0.00000000000E+00 0.  1.
         13    1    4    4    0    0 -0.25455035125E+02 -0.70061189696E+02 -0.19127615890E+03  0.20528784201E+03  0.00000000000E+00 0. -1.
         -2    1    1    2    0  502  0.12598588779E+03  0.44430198331E+02 -0.41365052194E+03  0.43468752081E+03  0.00000000000E+00 0.  1.
<scales pt_clust_5="13000.00000" pt_clust_6="13000.00000" pt_clust_7="13000.00000" pt_clust_8="13000.00000" pt_clust_9="13000.00000"></scales>
<clustering>
<clus scale="   80.292">  5  6 -1 -1</clus>
<clus scale="  100.890">  7  8 -1 -1</clus>
<clus scale="  112.008">  1  5  2 -1</clus>
<clus scale="   93.765">  7  9 -1 -1</clus>
<clus scale="  251.566">  2  5  1 -1</clus>
</clustering>
</event>
<event>
 9    2  0.3897980E-005  0.1276023E+03  0.7546771E-02  0.1250846E+00
         21   -1    0    0  501  502  0.00000000000E+00  0.00000000000E+00  0.34349853302E+02  0.34349853302E+02  0.00000000000E+00 0.  1.
         -3   -1    0    0    0  501 -0.00000000000E+00 -0.00000000000E+00 -0.34192049969E+03  0.34192049969E+03  0.00000000000E+00 0.  1.
         24    2    1    2    0    0 -0.22354496362E+02 -0.17145146617E+02 -0.15842149462E+03  0.17998532735E+03  0.80645325612E+02 0.  0.
         23    2    1    2    0    0  0.13666231492E+02  0.47089399256E+02 -0.12696266937E+03  0.15801775224E+03  0.80286444708E+02 0.  0.
        -11    1    3    3    0    0 -0.13989955585E+02  0.22744541331E+02 -0.12337645146E+03  0.12623304556E+03  0.00000000000E+00 0.  1.
         12    1    3    3    0    0 -0.83645407777E+01 -0.39889687947E+02 -0.35045043161E+02  0.53752281785E+02  0.00000000000E+00 0. -1.
        -11    1    4    4    0    0 -0.33129182323E+02  0.20412287670E+02 -0.40623436953E+02  0.56253602900E+02  0.00000000000E+00 0.  1.
         11    1    4    4    0    0  0.46795413815E+02  0.26677111586E+02 -0.86339232412E+02  0.10176414934E+03  0.00000000000E+00 0. -1.
         -4    1    1    2    0  502  0.86882648706E+01 -0.29944252639E+02 -0.22186482402E+02  0.38267273407E+02  0.00000000000E+00 0.  1.
<scales pt_clust_5="13000.00000" pt_clust_6="13000.00000" pt_clust_7="13000.00000" pt_clust_8="13000.00000" pt_clust_9="13000.00000"></scales>
<clustering>
<clus scale="   80.286">  7  8 -1 -1</clus>
<clus scale="   31.179">  7  9 -1 -1</clus>
<clus scale="   80.645">  5  6 -1 -1</clus>
<clus scale="   85.425">  2  5  1 -1</clus>
<clus scale="  127.602">  1  5  2 -1</clus>
</clustering>
</event>
<event>
 9    2  0.3897980E-005  0.1902590E+03  0.7546771E-02  0.1186066E+00
         21   -1    0    0  501  502  0.00000000000E+00  0.00000000000E+00  0.20485447926E+03  0.20485447926E+03  0.00000000000E+00 0.  1.
          2   -1    0    0  502    0 -0.00000000000E+00 -0.00000000000E+00 -0.15601723550E+03  0.15601723550E+03  0.00000000000E+00 0. -1.
         24    2    1    2    0    0  0.51836024273E+02  0.42067896813E+02  0.12086744254E+03  0.15743412246E+03  0.75629907403E+02 0.  0.
         23    2    1    2    0    0 -0.25291896515E+02  0.10444907130E+02  0.17178750342E+02  0.96571218263E+02  0.91006124075E+02 0.  0.
        -11    1    3    3    0    0  0.64599480281E+02  0.10712029487E+02  0.92115955999E+02  0.11301853732E+03  0.00000000000E+00 0.  1.
         12    1    3    3    0    0 -0.12763456008E+02  0.31355867326E+02  0.28751486546E+02  0.44415585144E+02  0.00000000000E+00 0. -1.
        -13    1    4    4    0    0 -0.20129785177E+02  0.50592877883E+02  0.12064334316E+02  0.55770921691E+02  0.00000000000E+00 0.  1.
         13    1    4    4    0    0 -0.51621113378E+01 -0.40147970753E+02  0.51144160256E+01  0.40800296572E+02  0.00000000000E+00 0. -1.
          1    1    1    2  501    0 -0.26544127757E+02 -0.52512803943E+02 -0.89208949125E+02  0.10686637404E+03  0.00000000000E+00 0. -1.
<scales pt_clust_5="13000.00000" pt_clust_6="13000.00000" pt_clust_7="13000.00000" pt_clust_8="13000.00000" pt_clust_9="13000.00000"></scales>
<clustering>
<clus scale="   75.630">  5  6 -1 -1</clus>
<clus scale="   91.006">  7  8 -1 -1</clus>
<clus scale="   58.840">  7  9 -1 -1</clus>
<clus scale="  100.879">  2  5  1 -1</clus>
<clus scale="  190.259">  1  5  2 -1</clus>
</clustering>
</event>
<event>
 9    2  0.3897980E-005  0.5535695E+03  0.7546771E-02  0.1056431E+00
         -1   -1    0    0    0  501 -0.00000000000E+00  0.00000000000E+00  0.14823403535E+04  0.14823403535E+04  0.00000000000E+00 0.  1.
         21   -1    0    0  501  502  0.00000000000E+00 -0.00000000000E+00 -0.85548235056E+02  0.85548235056E+02  0.00000000000E+00 0.  1.
         24    2    1    2    0    0 -0.74714949330E+02  0.33051154927E+02  0.52321823771E+03  0.53368814794E+03  0.66264715237E+02 0.  0.
         23    2    1    2    0    0 -0.15741883529E+03  0.14951767478E+03  0.53902154445E+03  0.58794632327E+03  0.89445116633E+02 0.  0.
        -13    1    3    3    0    0 -0.19955376175E+02  0.41047493174E+02  0.16401694092E+03  0.17024884916E+03  0.00000000000E+00 0.  1.
         14    1    3    3    0    0 -0.54759573155E+02 -0.79963382473E+01  0.35920129679E+03  0.36343929877E+03  0.00000000000E+00 0. -1.
        -13    1    4    4    0    0 -0.13448820097E+03  0.72377057768E+02  0.38455217946E+03  0.41377033898E+03  0.00000000000E+00 0.  1.
         13    1    4    4    0    0 -0.22930634316E+02  0.77140617009E+02  0.15446936499E+03  0.17417598429E+03  0.00000000000E+00 0. -1.
         -2    1    1    2    0  502  0.23213378462E+03 -0.18256882970E+03  0.33455233630E+03  0.44625411736E+03  0.00000000000E+00 0.  1.
<scales pt_clust_5="13000.00000" pt_clust_6="13000.00000" pt_clust_7="13000.00000" pt_clust_8="13000.00000" pt_clust_9="13000.00000"></scales>
<clustering>
<clus scale="   66.265">  5  6 -1 -1</clus>
<clus scale="   89.445">  7  8 -1 -1</clus>
<clus scale="  105.194">  1  5  2 -1</clus>
<clus scale="  263.058">  7  9 -1 -1</clus>
<clus scale="  553.570">  2  5  1 -1</clus>
</clustering>
</event>
<event>
 9    2  0.3897980E-005  0.2607300E+03  0.7546771E-02  0.1142322E+00
          2   -1    0    0  502    0 -0.00000000000E+00  0.00000000000E+00  0.41223700875E+03  0.41223700875E+03  0.00000000000E+00 0. -1.
         21   -1    0    0  501  502  0.00000000000E+00 -0.00000000000E+00 -0.82355387062E+02  0.82355387062E+02  0.00000000000E+00 0. -1.
         24    2    1    2    0    0  0.55841043284E+02  0.44065679036E+02  0.93566449059E+02  0.14270461107E+03  0.80931572631E+02 0.  0.
         23    2    1    2    0    0 -0.42926015379E+02  0.74409048520E+02  0.18137436993E+03  0.22065687825E+03  0.91724841536E+02 0.  0.
        -13    1    3    3    0    0  0.41056917448E+02 -0.61111881213E+01  0.77613876383E+02  0.88016651253E+02  0.00000000000E+00 0.  1.
         14    1    3    3    0    0  0.14784125837E+02  0.50176867157E+02  0.15952572675E+02  0.54687959821E+02  0.00000000000E+00 0. -1.
        -11    1    4    4    0    0 -0.25996026284E+02 -0.18031653717E+02  0.48517397204E+02  0.57921254733E+02  0.00000000000E+00 0.  1.
         11    1    4    4    0    0 -0.16929989095E+02  0.92440702236E+02  0.13285697273E+03  0.16273562352E+03  0.00000000000E+00 0. -1.
          1    1    1    2  501    0 -0.12915027905E+02 -0.11847472756E+03  0.54940802697E+02  0.13123090648E+03  0.00000000000E+00 0. -1.
<scales pt_clust_5="13000.00000" pt_clust_6="13000.00000" pt_clust_7="13000.00000" pt_clust_8="13000.00000" pt_clust_9="13000.00000"></scales>
<clustering>
<clus scale="   80.932">  5  6 -1 -1</clus>
<clus scale="   91.725">  7  8 -1 -1</clus>
<clus scale="  107.749">  1  5  2 -1</clus>
<clus scale="  104.636">  7  9 -1 -1</clus>
<clus scale="  260.730">  2  5  1 -1</clus>
</clustering>
</event>
<event>
 9    2  0.3897980E-005  0.4829204E+03  0.7546771E-02  0.1052140E+00
          2   -1    0    0  502    0 -0.00000000000E+00  0.00000000000E+00  0.20635889458E+04  0.20635889458E+04  0.00000000000E+00 0. -1.
         21   -1    0    0  501  502  0.00000000000E+00 -0.00000000000E+00 -0.53951222780E+02  0.53951222780E+02  0.00000000000E+00 0. -1.
         24    2    1    2    0    0  0.14600966407E+03  0.64632455340E+02  0.67173703878E+03  0.69515122106E+03  0.80674621771E+02 0.  0.
         23    2    1    2    0    0 -0.24561388706E+03  0.40469779570E+02  0.44900559564E+03  0.52177695583E+03  0.93172861633E+02 0.  0.
        -13    1    3    3    0    0  0.62930742224E+02  0.55062117265E+02  0.45923462723E+03  0.46678534458E+03  0.00000000000E+00 0.  1.
         14    1    3    3    0    0  0.83078921847E+02  0.95703380745E+01  0.21250241155E+03  0.22836587648E+03  0.00000000000E+00 0. -1.
        -13    1    4    4    0    0 -0.44537248461E+02  0.37766170334E+02  0.59180108755E+02  0.83139253030E+02  0.00000000000E+00 0.  1.
         13    1    4    4    0    0 -0.20107663860E+03  0.27036092368E+01  0.38982548689E+03  0.43863770280E+03  0.00000000000E+00 0. -1.
          1    1    1    2  501    0  0.99604222991E+02 -0.10510223491E+03  0.88889508857E+03  0.90061199165E+03  0.00000000000E+00 0. -1.
<scales pt_clust_5="13000.00000" pt_clust_6="13000.00000" pt_clust_7="13000.00000" pt_clust_8="13000.00000" pt_clust_9="13000.00000"></scales>
<clustering>
<clus scale="   80.675">  5  6 -1 -1</clus>
<clus scale="   93.173">  7  8 -1 -1</clus>
<clus scale="  144.802">  7  9 -1 -1</clus>
<clus scale="  178.898">  1  5  2 -1</clus>
<clus scale="  482.920">  2  5  1 -1</clus>
</clustering>
</event>
<event>
 9    2  0.3897980E-005  0.1900090E+03  0.7546771E-02  0.1193783E+00
         21   -1    0    0  501  502  0.00000000000E+00  0.00000000000E+00  0.54159413779E+02  0.54159413779E+02  0.00000000000E+00 0. -1.
          2   -1    0    0  502    0 -0.00000000000E+00 -0.00000000000E+00 -0.41609844379E+03  0.41609844379E+03  0.00000000000E+00 0. -1.
         24    2    1    2    0    0 -0.95564166911E+01  0.29217811422E+02 -0.35370371560E+02  0.92434494476E+02  0.79674757486E+02 0.  0.
         23    2    1    2    0    0 -0.10908205265E+02  0.11586463440E+02 -0.67695520724E+02  0.11495630347E+03  0.91537058638E+02 0.  0.
        -13    1    3    3    0    0 -0.18968948156E+02 -0.22263168454E+02  0.35716860369E-01  0.29248434821E+02  0.00000000000E+00 0.  1.
         14    1    3    3    0    0  0.94125314650E+01  0.51480979876E+02 -0.35406088420E+02  0.63186059656E+02  0.00000000000E+00 0. -1.
        -11    1    4    4    0    0 -0.36018293803E+02 -0.50738856468E+00 -0.77458731602E+02  0.85424996535E+02  0.00000000000E+00 0.  1.
         11    1    4    4    0    0  0.25110088537E+02  0.12093852005E+02  0.97632108770E+01  0.29531306935E+02  0.00000000000E+00 0. -1.
          1    1    1    2  501    0  0.20464621957E+02 -0.40804274862E+02 -0.25887313773E+03  0.26286705963E+03  0.00000000000E+00 0. -1.
<scales pt_clust_5="13000.00000" pt_clust_6="13000.00000" pt_clust_7="13000.00000" pt_clust_8="13000.00000" pt_clust_9="13000.00000"></scales>
<clustering>
<clus scale="   79.675">  5  6 -1 -1</clus>
<clus scale="   85.400">  2  5  1 -1</clus>
<clus scale="   91.537">  7  8 -1 -1</clus>
<clus scale="   23.375">  7  9 -1 -1</clus>
<clus scale="  190.009">  1  5  2 -1</clus>
</clustering>
</event>
<event>
 9    2  0.3897980E-005  0.2441027E+03  0.7546771E-02  0.1133146E+00
          2   -1    0    0  502    0 -0.00000000000E+00  0.00000000000E+00  0.58157059366E+03  0.58157059366E+03  0.00000000000E+00 0. -1.
         21   -1    0    0  501  502  0.00000000000E+00 -0.00000000000E+00 -0.72783254785E+02  0.72783254785E+02  0.00000000000E+00 0.  1.
         24    2    1    2    0    0 -0.14241122566E+03 -0.35099294417E+01  0.16410375731E+03  0.23198803904E+03  0.81210407556E+02 0.  0.
         23    2    1    2    0    0 -0.31894552868E+01  0.23836832157E+02  0.10536317583E+03  0.14149751667E+03  0.91333352124E+02 0.  0.
        -11    1    3    3    0    0 -0.10145700919E+03  0.31470655430E+02  0.83829493099E+02  0.13531929197E+03  0.00000000000E+00 0.  1.
         12    1    3    3    0    0 -0.40954216470E+02 -0.34980584872E+02  0.80274264215E+02  0.96668747069E+02  0.00000000000E+00 0. -1.
        -13    1    4    4    0    0  0.12842424710E+02  0.54633346718E+02  0.83019673818E+02  0.10020976343E+03  0.00000000000E+00 0. -1.
         13    1    4    4    0    0 -0.16031879997E+02 -0.30796514561E+02  0.22343502011E+02  0.41287753238E+02  0.00000000000E+00 0.  1.
          1    1    1    2  501    0  0.14560068094E+03 -0.20326902716E+02  0.23932040573E+03  0.28086829274E+03  0.00000000000E+00 0. -1.
<scales pt_clust_5="13000.00000" pt_clust_6="13000.00000" pt_clust_7="13000.00000" pt_clust_8="13000.00000" pt_clust_9="13000.00000"></scales>
<clustering>
<clus scale="   81.210">  5  6 -1 -1</clus>
<clus scale="   91.333">  7  8 -1 -1</clus>
<clus scale="  147.013">  7  9 -1 -1</clus>
<clus scale="  163.977">  1  5  2 -1</clus>
<clus scale="  244.103">  2  5  1 -1</clus>
</clustering>
</event>
<event>
 9    2  0.3897980E-005  0.3505054E+03  0.7546771E-02  0.1117106E+00
         21   -1    0    0  501  502  0.00000000000E+00  0.00000000000E+00  0.25387417048E+03  0.25387417048E+03  0.00000000000E+00 0. -1.
          2   -1    0    0  502    0 -0.00000000000E+00 -0.00000000000E+00 -0.23767874589E+03  0.23767874589E+03  0.00000000000E+00 0. -1.
         24    2    1    2    0    0  0.17935834637E+02 -0.23310376958E+01 -0.93159333363E+02  0.12438467871E+03  0.80409943435E+02 0.  0.
         23    2    1    2    0    0  0.14660661422E+03 -0.44831231162E+02  0.63930035819E+02  0.19007531726E+03  0.92402587259E+02 0.  0.
        -13    1    3    3    0    0 -0.28206648124E+02 -0.16585727858E+02 -0.26706946099E+02  0.42236978312E+02  0.00000000000E+00 0.  1.
         14    1    3    3    0    0  0.46142482761E+02  0.14254690162E+02 -0.66452387263E+02  0.82147700393E+02  0.00000000000E+00 0. -1.
        -11    1    4    4    0    0  0.10217097747E+03 -0.44851935934E+01 -0.15999848303E+00  0.10226950277E+03  0.00000000000E+00 0.  1.
         11    1    4    4    0    0  0.44435636751E+02 -0.40346037569E+02  0.64090034302E+02  0.87805814488E+02  0.00000000000E+00 0. -1.
          1    1    1    2  501    0 -0.16454244885E+03  0.47162268858E+02  0.45424722132E+02  0.17709292041E+03  0.00000000000E+00 0. -1.
<scales pt_clust_5="13000.00000" pt_clust_6="13000.00000" pt_clust_7="13000.00000" pt_clust_8="13000.00000" pt_clust_9="13000.00000"></scales>
<clustering>
<clus scale="   80.410">  5  6 -1 -1</clus>
<clus scale="   82.419">  2  5  1 -1</clus>
<clus scale="   92.403">  7  8 -1 -1</clus>
<clus scale="  162.041">  7  9 -1 -1</clus>
<clus scale="  350.505">  1  5  2 -1</clus>
</clustering>
</event>
<event>
 9    2  0.5220000E-005  0.6257913E+03  0.7546771E-02  0.1025773E+00
         21   -1    0    0  501  502  0.00000000000E+00  0.00000000000E+00  0.10145857819E+03  0.10145857819E+03  0.00000000000E+00 0. -1.
          2   -1    0    0  502    0 -0.00000000000E+00 -0.00000000000E+00 -0.16222913258E+04  0.16222913258E+04  0.00000000000E+00 0. -1.
         24    2    1    2    0    0 -0.15746260111E+03  0.61605737833E+00 -0.44669130143E+03  0.48061089329E+03  0.81601848649E+02 0.  0.
         23    2    1    2    0    0 -0.19892382110E+03  0.28496872996E+02 -0.65767282766E+03  0.69422649047E+03  0.95047953432E+02 0.  0.
        -13    1    3    3    0    0 -0.33517209586E+02  0.27363534355E+02 -0.18260546245E+03  0.18766172030E+03  0.00000000000E+00 0.  1.
         14    1    3    3    0    0 -0.12394539153E+03 -0.26747476976E+02 -0.26408583898E+03  0.29294917299E+03  0.00000000000E+00 0. -1.
        -11    1    4    4    0    0 -0.40329172806E+02 -0.28597878180E+02 -0.98669533419E+02  0.11036284538E+03  0.00000000000E+00 0.  1.
         11    1    4    4    0    0 -0.15859464830E+03  0.57094751176E+02 -0.55900329424E+03  0.58386364509E+03  0.00000000000E+00 0. -1.
          1    1    1    2  501    0  0.35638642221E+03 -0.29112930374E+02 -0.41646861849E+03  0.54891252020E+03  0.00000000000E+00 0. -1.
<scales pt_clust_5="13000.00000" pt_clust_6="13000.00000" pt_clust_7="13000.00000" pt_clust_8="13000.00000" pt_clust_9="13000.00000"></scales>
<clustering>
<clus scale="   81.602">  5  6 -1 -1</clus>
<clus scale="   95.048">  7  8 -1 -1</clus>
<clus scale="  177.352">  2  5  1 -1</clus>
<clus scale="  292.216">  7  9 -1 -1</clus>
<clus scale="  625.791">  1  5  2 -1</clus>
</clustering>
</event>
<event>
 9    2  0.6744349E-005  0.3697830E+03  0.7546771E-02  0.1096577E+00
         21   -1    0    0  501  502  0.00000000000E+00  0.00000000000E+00  0.13811792864E+03  0.13811792864E+03  0.00000000000E+00 0. -1.
          2   -1    0    0  502    0 -0.00000000000E+00 -0.00000000000E+00 -0.48902200942E+03  0.48902200942E+03  0.00000000000E+00 0. -1.
         24    2    1    2    0    0  0.84081959793E+02 -0.24066838879E+02 -0.20760350417E+01  0.11878918965E+03  0.80359025375E+02 0.  0.
         23    2    1    2    0    0  0.43010080725E+02 -0.70127241028E+02  0.20336718478E+01  0.12347563059E+03  0.92056496511E+02 0.  0.
        -13    1    3    3    0    0 -0.11643249869E+02 -0.18533185743E+02  0.56160976607E+01  0.22596123434E+02  0.00000000000E+00 0.  1.
         14    1    3    3    0    0  0.95725209663E+02 -0.55336531363E+01 -0.76921327024E+01  0.96193066213E+02  0.00000000000E+00 0. -1.
        -11    1    4    4    0    0  0.24927160739E+02 -0.47158389984E+02  0.46162473540E+02  0.70542547812E+02  0.00000000000E+00 0. -1.
         11    1    4    4    0    0  0.18082919986E+02 -0.22968851044E+02 -0.44128801692E+02  0.52933082777E+02  0.00000000000E+00 0.  1.
          1    1    1    2  501    0 -0.12709204052E+03  0.94194079908E+02 -0.35086171759E+03  0.38487511782E+03  0.00000000000E+00 0. -1.
<scales pt_clust_5="13000.00000" pt_clust_6="13000.00000" pt_clust_7="13000.00000" pt_clust_8="13000.00000" pt_clust_9="13000.00000"></scales>
<clustering>
<clus scale="   80.359">  5  6 -1 -1</clus>
<clus scale="   92.056">  7  8 -1 -1</clus>
<clus scale="  118.771">  2  5  1 -1</clus>
<clus scale="   91.783">  7  9 -1 -1</clus>
<clus scale="  369.783">  1  5  2 -1</clus>
</clustering>
</event>
<event>
 9    2  0.3897980E-005  0.5576824E+03  0.7546771E-02  0.1063321E+00
         -3   -1    0    0    0  501 -0.00000000000E+00  0.00000000000E+00  0.73229904913E+03  0.73229904913E+03  0.00000000000E+00 0.  1.
         21   -1    0    0  501  502  0.00000000000E+00 -0.00000000000E+00 -0.16695296669E+03  0.16695296669E+03  0.00000000000E+00 0.  1.
         24    2    1    2    0    0  0.28212840039E+02 -0.70650762817E+01  0.23783269534E+03  0.25251044706E+03  0.79694763013E+02 0.  0.
         23    2    1    2    0    0  0.23238796820E+03  0.10245357797E+02  0.30577867588E+02  0.25165474515E+03  0.91027301657E+02 0.  0.
        -13    1    3    3    0    0  0.10456546257E+02  0.35656822642E+02  0.83553085294E+02  0.91443241536E+02  0.00000000000E+00 0.  1.
         14    1    3    3    0    0  0.17756293782E+02 -0.42721898924E+02  0.15427961005E+03  0.16106720552E+03  0.00000000000E+00 0. -1.
        -11    1    4    4    0    0  0.10757043667E+03  0.42648364738E+02  0.39802213383E+02  0.12237033158E+03  0.00000000000E+00 0.  1.
         11    1    4    4    0    0  0.12481753153E+03 -0.32403006941E+02 -0.92243457952E+01  0.12928441357E+03  0.00000000000E+00 0. -1.
         -4    1    1    2    0  502 -0.26060080824E+03 -0.31802815155E+01  0.29693551952E+03  0.39508682362E+03  0.00000000000E+00 0.  1.
<scales pt_clust_5="13000.00000" pt_clust_6="13000.00000" pt_clust_7="13000.00000" pt_clust_8="13000.00000" pt_clust_9="13000.00000"></scales>
<clustering>
<clus scale="   79.695">  5  6 -1 -1</clus>
<clus scale="   84.836">  1  5  2 -1</clus>
<clus scale="   91.027">  7  8 -1 -1</clus>
<clus scale="  240.701">  7  9 -1 -1</clus>
<clus scale="  557.682">  2  5  1 -1</clus>
</clustering>
</event>
<event>
 9    2  0.3897980E-005  0.2393686E+03  0.7546771E-02  0.1156094E+00
         21   -1    0    0  501  502  0.00000000000E+00  0.00000000000E+00  0.52784121919E+02  0.52784121919E+02  0.00000000000E+00 0.  1.
         -1   -1    0    0    0  501 -0.00000000000E+00 -0.00000000000E+00 -0.67033837302E+03  0.67033837302E+03  0.00000000000E+00 0.  1.
         24    2    1    2    0    0  0.61644446487E+02  0.10752147170E+02 -0.61571927547E+02  0.11780137800E+03  0.78551995170E+02 0.  0.
         23    2    1    2    0    0 -0.18067985957E+02 -0.98433430387E+02 -0.39101395537E+03  0.41348400416E+03  0.89785945826E+02 0.  0.
        -11    1    3    3    0    0  0.79148725861E+02  0.16924593345E+02 -0.43460177964E+02  0.91868110539E+02  0.00000000000E+00 0.  1.
         12    1    3    3    0    0 -0.17504279375E+02 -0.61724461744E+01 -0.18111749583E+02  0.25933267460E+02  0.00000000000E+00 0. -1.
        -11    1    4    4    0    0  0.25166833776E+01 -0.10740489534E+03 -0.27350448068E+03  0.29384833875E+03  0.00000000000E+00 0.  1.
         11    1    4    4    0    0 -0.20584669335E+02  0.89714649488E+01 -0.11750947469E+03  0.11963566540E+03  0.00000000000E+00 0. -1.
         -2    1    1    2    0  502 -0.43576460530E+02  0.87681283216E+02 -0.16496836819E+03  0.19183711278E+03  0.00000000000E+00 0.  1.
<scales pt_clust_5="13000.00000" pt_clust_6="13000.00000" pt_clust_7="13000.00000" pt_clust_8="13000.00000" pt_clust_9="13000.00000"></scales>
<clustering>
<clus scale="   78.552">  5  6 -1 -1</clus>
<clus scale="   89.786">  7  8 -1 -1</clus>
<clus scale="   97.913">  7  9 -1 -1</clus>
<clus scale="  100.429">  2  5  1 -1</clus>
<clus scale="  239.369">  1  5  2 -1</clus>
</clustering>
</event>
<event>
 9    2  0.3897980E-005  0.1598907E+03  0.7546771E-02  0.1213836E+00
         21   -1    0    0  501  502  0.00000000000E+00  0.00000000000E+00  0.65013306595E+03  0.65013306595E+03  0.00000000000E+00 0.  1.
          2   -1    0    0  502    0 -0.00000000000E+00 -0.00000000000E+00 -0.46361368313E+02  0.46361368313E+02  0.00000000000E+00 0. -1.
         24    2    1    2    0    0 -0.32664398642E+02 -0.36747553131E+02  0.25334734899E+02  0.96365816674E+02  0.78912459290E+02 0.  0.
         23    2    1    2    0    0  0.38279734863E+01  0.23025787736E+02  0.49028818964E+03  0.50637344461E+03  0.12444563562E+03 0.  0.
        -13    1    3    3    0    0  0.12680921689E+02 -0.31749730223E+02  0.35861713956E+02  0.49547085404E+02  0.00000000000E+00 0.  1.
         14    1    3    3    0    0 -0.45345320331E+02 -0.49978229075E+01 -0.10526979057E+02  0.46818731271E+02  0.00000000000E+00 0. -1.
        -13    1    4    4    0    0  0.60727446321E+02  0.33883074662E+01  0.17183774983E+03  0.18228416176E+03  0.00000000000E+00 0. -1.
         13    1    4    4    0    0 -0.56899472835E+02  0.19637480270E+02  0.31845043981E+03  0.32408928285E+03  0.00000000000E+00 0.  1.
          1    1    1    2  501    0  0.28836425156E+02  0.13721765395E+02  0.88148773096E+02  0.93755172976E+02  0.00000000000E+00 0. -1.
<scales pt_clust_5="13000.00000" pt_clust_6="13000.00000" pt_clust_7="13000.00000" pt_clust_8="13000.00000" pt_clust_9="13000.00000"></scales>
<clustering>
<clus scale="   78.912">  5  6 -1 -1</clus>
<clus scale="   92.976">  2  5  1 -1</clus>
<clus scale="  124.446">  7  8 -1 -1</clus>
<clus scale="   20.827">  7  9 -1 -1</clus>
<clus scale="  159.891">  1  5  2 -1</clus>
</clustering>
</event>
<event>
 9    2  0.3897980E-005  0.1507943E+03  0.7546771E-02  0.1222211E+00
         21   -1    0    0  501  502  0.00000000000E+00  0.00000000000E+00  0.36707182790E+02  0.36707182790E+02  0.00000000000E+00 0. -1.
          2   -1    0    0  502    0 -0.00000000000E+00 -0.00000000000E+00 -0.56669280611E+03  0.56669280611E+03  0.00000000000E+00 0. -1.
         24    2    1    2    0    0  0.13171102884E+02  0.44943314102E+02 -0.37819034753E+03  0.38943567677E+03  0.80242307690E+02 0.  0.
         23    2    1    2    0    0 -0.49303277007E+02 -0.47011364076E+02 -0.12272308752E+03  0.16754230260E+03  0.91479973084E+02 0.  0.
        -13    1    3    3    0    0 -0.66622173379E+01 -0.21923339501E+02 -0.10637277932E+03  0.10881261937E+03  0.00000000000E+00 0.  1.
         14    1    3    3    0    0  0.19833320222E+02  0.66866653603E+02 -0.27181756821E+03  0.28062305739E+03  0.00000000000E+00 0. -1.
        -11    1    4    4    0    0  0.24428664747E+02 -0.13649867743E+02 -0.56202071088E+02  0.62783368381E+02  0.00000000000E+00 0.  1.
         11    1    4    4    0    0 -0.73731941754E+02 -0.33361496334E+02 -0.66521016432E+02  0.10475893422E+03  0.00000000000E+00 0. -1.
          1    1    1    2  501    0  0.36132174123E+02  0.20680499744E+01 -0.29072188273E+02  0.46422009527E+02  0.00000000000E+00 0. -1.
<scales pt_clust_5="13000.00000" pt_clust_6="13000.00000" pt_clust_7="13000.00000" pt_clust_8="13000.00000" pt_clust_9="13000.00000"></scales>
<clustering>
<clus scale="   80.242">  5  6 -1 -1</clus>
<clus scale="   91.480">  7  8 -1 -1</clus>
<clus scale="   36.191">  7  9 -1 -1</clus>
<clus scale="   92.910">  2  5  1 -1</clus>
<clus scale="  150.794">  1  5  2 -1</clus>
</clustering>
</event>
<event>
 9    2  0.3897980E-005  0.4131484E+03  0.7546771E-02  0.1083210E+00
         -1   -1    0    0    0  501 -0.00000000000E+00  0.00000000000E+00  0.18272815634E+03  0.18272815634E+03  0.00000000000E+00 0.  1.
         21   -1    0    0  501  502  0.00000000000E+00 -0.00000000000E+00 -0.39297328059E+03  0.39297328059E+03  0.00000000000E+00 0. -1.
         24    2    1    2    0    0  0.61617182088E+02  0.53809419674E+02 -0.29841657739E+02  0.12488324267E+03  0.89516305710E+02 0.  0.
         23    2    1    2    0    0  0.10665256830E+03  0.10353984396E+03 -0.12305367284E+03  0.21341032056E+03  0.91139941357E+02 0.  0.
        -13    1    3    3    0    0  0.10481376576E+02  0.44780558930E+02 -0.51122161131E+02  0.68765057054E+02  0.00000000000E+00 0.  1.
         14    1    3    3    0    0  0.51135805512E+02  0.90288607443E+01  0.21280503392E+02  0.56118185611E+02  0.00000000000E+00 0. -1.
        -13    1    4    4    0    0 -0.62678076865E+01  0.42461598722E+02 -0.14554812192E+02  0.45322349202E+02  0.00000000000E+00 0.  1.
         13    1    4    4    0    0  0.11292037598E+03  0.61078245238E+02 -0.10849886065E+03  0.16808797136E+03  0.00000000000E+00 0. -1.
         -2    1    1    2    0  502 -0.16826975038E+03 -0.15734926363E+03 -0.57349793671E+02  0.23740787370E+03  0.00000000000E+00 0.  1.
<scales pt_clust_5="13000.00000" pt_clust_6="13000.00000" pt_clust_7="13000.00000" pt_clust_8="13000.00000" pt_clust_9="13000.00000"></scales>
<clustering>
<clus scale="   89.516">  5  6 -1 -1</clus>
<clus scale="   91.140">  7  8 -1 -1</clus>
<clus scale="  121.265">  1  5  2 -1</clus>
<clus scale="  175.947">  7  9 -1 -1</clus>
<clus scale="  413.148">  2  5  1 -1</clus>
</clustering>
</event>
<event>
 9    2  0.3897980E-005  0.3224273E+03  0.7546771E-02  0.1118810E+00
         21   -1    0    0  501  502  0.00000000000E+00  0.00000000000E+00  0.19865369105E+03  0.19865369105E+03  0.00000000000E+00 0.  1.
          2   -1    0    0  502    0 -0.00000000000E+00 -0.00000000000E+00 -0.28255374730E+03  0.28255374730E+03  0.00000000000E+00 0. -1.
         24    2    1    2    0    0 -0.45294318901E+02  0.42385504326E+02 -0.11957629801E+03  0.15681233738E+03  0.80271488137E+02 0.  0.
         23    2    1    2    0    0 -0.54578322502E+02  0.85511096316E+02  0.77355463146E+02  0.15685632201E+03  0.91263887693E+02 0.  0.
        -11    1    3    3    0    0  0.13660923229E+02  0.39443945426E+02 -0.40761631974E+02  0.58343434038E+02  0.00000000000E+00 0.  1.
         12    1    3    3    0    0 -0.58955242129E+02  0.29415589002E+01 -0.78814666036E+02  0.98468903343E+02  0.00000000000E+00 0. -1.
        -11    1    4    4    0    0 -0.12182634306E+02  0.87333060969E+02  0.29700149062E+02  0.93046112069E+02  0.00000000000E+00 0.  1.
         11    1    4    4    0    0 -0.42395688196E+02 -0.18219646530E+01  0.47655314084E+02  0.63810209945E+02  0.00000000000E+00 0. -1.
          1    1    1    2  501    0  0.99872641403E+02 -0.12789660064E+03 -0.41679221391E+02  0.16753877895E+03  0.00000000000E+00 0. -1.
<scales pt_clust_5="13000.00000" pt_clust_6="13000.00000" pt_clust_7="13000.00000" pt_clust_8="13000.00000" pt_clust_9="13000.00000"></scales>
<clustering>
<clus scale="   80.271">  5  6 -1 -1</clus>
<clus scale="   91.264">  7  8 -1 -1</clus>
<clus scale="  101.448">  2  5  1 -1</clus>
<clus scale="  118.068">  7  9 -1 -1</clus>
<clus scale="  322.427">  1  5  2 -1</clus>
</clustering>
</event>
<event>
 9    2  0.3897980E-005  0.2911364E+03  0.7546771E-02  0.1133526E+00
          2   -1    0    0  502    0 -0.00000000000E+00  0.00000000000E+00  0.38798473509E+03  0.38798473509E+03  0.00000000000E+00 0. -1.
         21   -1    0    0  501  502  0.00000000000E+00 -0.00000000000E+00 -0.18797349222E+03  0.18797349222E+03  0.00000000000E+00 0. -1.
         24    2    1    2    0    0 -0.34320390502E+02  0.37062518322E+02  0.26142821846E+03  0.27841422760E+03  0.81352622924E+02 0.  0.
         23    2    1    2    0    0  0.11138528589E+02  0.10076265417E+02 -0.15946627016E+03  0.18630943754E+03  0.95163634100E+02 0.  0.
        -13    1    3    3    0    0  0.15460018477E+02 -0.13833807178E+02  0.97682590752E+02  0.99861278424E+02  0.00000000000E+00 0.  1.
         14    1    3    3    0    0 -0.49780408979E+02  0.50896325500E+02  0.16374562771E+03  0.17855294918E+03  0.00000000000E+00 0. -1.
        -11    1    4    4    0    0 -0.24368149841E+02 -0.16381238615E+02 -0.10958376048E+02  0.31340671832E+02  0.00000000000E+00 0.  1.
         11    1    4    4    0    0  0.35506678430E+02  0.26457504032E+02 -0.14850789411E+03  0.15496876571E+03  0.00000000000E+00 0. -1.
          1    1    1    2  501    0  0.23181861913E+02 -0.47138783739E+02  0.98049294566E+02  0.11123456216E+03  0.00000000000E+00 0. -1.
<scales pt_clust_5="13000.00000" pt_clust_6="13000.00000" pt_clust_7="13000.00000" pt_clust_8="13000.00000" pt_clust_9="13000.00000"></scales>
<clustering>
<clus scale="   81.353">  5  6 -1 -1</clus>
<clus scale="   95.164">  7  8 -1 -1</clus>
<clus scale="   52.531">  7  9 -1 -1</clus>
<clus scale="   95.759">  1  5  2 -1</clus>
<clus scale="  291.136">  2  5  1 -1</clus>
</clustering>
</event>
<event>
 9    2  0.3897980E-005  0.3783959E+03  0.7546771E-02  0.1086569E+00
          2   -1    0    0  502    0 -0.00000000000E+00  0.00000000000E+00  0.10817488568E+04  0.10817488568E+04  0.00000000000E+00 0. -1.
         21   -1    0    0  501  502  0.00000000000E+00 -0.00000000000E+00 -0.99915025983E+02  0.99915025983E+02  0.00000000000E+00 0. -1.
         24    2    1    2    0    0 -0.11239335005E+03 -0.42740029370E+02  0.68692734808E+03  0.70192091951E+03  0.79779824923E+02 0.  0.
         23    2    1    2    0    0 -0.41568710268E+02 -0.93822990511E+02  0.22171369249E+03  0.26131457921E+03  0.92723441736E+02 0.  0.
        -13    1    3    3    0    0 -0.79661108925E+02  0.11961195170E+02  0.38091381340E+03  0.38933827927E+03  0.00000000000E+00 0.  1.
         14    1    3    3    0    0 -0.32732241127E+02 -0.54701224539E+02  0.30601353467E+03  0.31258264024E+03  0.00000000000E+00 0. -1.
        -11    1    4    4    0    0  0.25470437291E+02 -0.12182319922E+02  0.77997595333E+02  0.82950448897E+02  0.00000000000E+00 0.  1.
         11    1    4    4    0    0 -0.67039147559E+02 -0.81640670588E+02  0.14371609716E+03  0.17836413031E+03  0.00000000000E+00 0. -1.
          1    1    1    2  501    0  0.15396206032E+03  0.13656301988E+03  0.73192790237E+02  0.21842838405E+03  0.00000000000E+00 0. -1.
<scales pt_clust_5="13000.00000" pt_clust_6="13000.00000" pt_clust_7="13000.00000" pt_clust_8="13000.00000" pt_clust_9="13000.00000"></scales>
<clustering>
<clus scale="   79.780">  5  6 -1 -1</clus>
<clus scale="   92.723">  7  8 -1 -1</clus>
<clus scale="  144.305">  1  5  2 -1</clus>
<clus scale="  164.255">  7  9 -1 -1</clus>
<clus scale="  378.396">  2  5  1 -1</clus>
</clustering>
</event>
<event>
 9    2  0.3897980E-005  0.1580611E+03  0.7546771E-02  0.1211402E+00
         -3   -1    0    0    0  501 -0.00000000000E+00  0.00000000000E+00  0.15137620962E+03  0.15137620962E+03  0.00000000000E+00 0.  1.
         21   -1    0    0  501  502  0.00000000000E+00 -0.00000000000E+00 -0.14522681718E+03  0.14522681718E+03  0.00000000000E+00 0.  1.
         24    2    1    2    0    0 -0.40422566872E+02 -0.45036646509E+02  0.73082114713E+02  0.12495421608E+03  0.81303611143E+02 0.  0.
         23    2    1    2    0    0 -0.11027126300E+02  0.50789739378E+02 -0.36383573768E+02  0.11153708574E+03  0.91736371821E+02 0.  0.
        -11    1    3    3    0    0 -0.30806263026E+02 -0.11487932130E+02  0.82496570417E+02  0.88806996103E+02  0.00000000000E+00 0.  1.
         12    1    3    3    0    0 -0.96163038464E+01 -0.33548714379E+02 -0.94144557039E+01  0.36147219981E+02  0.00000000000E+00 0. -1.
        -11    1    4    4    0    0 -0.39298970679E+02  0.36578169110E+02 -0.53303444305E+02  0.75654667580E+02  0.00000000000E+00 0.  1.
         11    1    4    4    0    0  0.28271844379E+02  0.14211570267E+02  0.16919870537E+02  0.35882418160E+02  0.00000000000E+00 0. -1.
         -4    1    1    2    0  502  0.51449693172E+02 -0.57530928688E+01 -0.30549148502E+02  0.60111724973E+02  0.00000000000E+00 0.  1.
<scales pt_clust_5="13000.00000" pt_clust_6="13000.00000" pt_clust_7="13000.00000" pt_clust_8="13000.00000" pt_clust_9="13000.00000"></scales>
<clustering>
<clus scale="   81.304">  5  6 -1 -1</clus>
<clus scale="   91.736">  7  8 -1 -1</clus>
<clus scale="   51.770">  7  9 -1 -1</clus>
<clus scale="  101.354">  1  5  2 -1</clus>
<clus scale="  158.061">  2  5  1 -1</clus>
</clustering>
</event>
<event>
 9    2  0.3897980E-005  0.4407909E+03  0.7546771E-02  0.1058627E+00
          2   -1    0    0  502    0 -0.00000000000E+00  0.00000000000E+00  0.14226800453E+04  0.14226800453E+04  0.00000000000E+00 0. -1.
         21   -1    0    0  501  502  0.00000000000E+00 -0.00000000000E+00 -0.80270431544E+02  0.80270431544E+02  0.00000000000E+00 0. -1.
         24    2    1    2    0    0 -0.77017251350E+02 -0.15773715963E+03  0.67714688494E+03  0.70490844800E+03  0.86921503410E+02 0.  0.
         23    2    1    2    0    0  0.58020523211E+02 -0.11978271603E+03  0.26148751147E+03  0.30772317013E+03  0.92755326570E+02 0.  0.
        -11    1    3    3    0    0 -0.42344940645E+02 -0.10022925027E+02  0.12851938997E+03  0.13568635385E+03  0.00000000000E+00 0.  1.
         12    1    3    3    0    0 -0.34672310705E+02 -0.14771423460E+03  0.54862749497E+03  0.56922209415E+03  0.00000000000E+00 0. -1.
        -13    1    4    4    0    0  0.39323738326E+02  0.86381263333E+00  0.77572842517E+02  0.86974987579E+02  0.00000000000E+00 0.  1.
         13    1    4    4    0    0  0.18696784885E+02 -0.12064652866E+03  0.18391466895E+03  0.22074818255E+03  0.00000000000E+00 0. -1.
          1    1    1    2  501    0  0.18996728139E+02  0.27751987566E+03  0.40377521738E+03  0.49031885874E+03  0.00000000000E+00 0. -1.
<scales pt_clust_5="13000.00000" pt_clust_6="13000.00000" pt_clust_7="13000.00000" pt_clust_8="13000.00000" pt_clust_9="13000.00000"></scales>
<clustering>
<clus scale="   86.922">  5  6 -1 -1</clus>
<clus scale="   92.755">  7  8 -1 -1</clus>
<clus scale="  195.878">  1  5  2 -1</clus>
<clus scale="  183.302">  7  9 -1 -1</clus>
<clus scale="  440.791">  2  5  1 -1</clus>
</clustering>
</event>
<event>
 9    2  0.3897980E-005  0.2294568E+03  0.7546771E-02  0.1167514E+00
         21   -1    0    0  501  502  0.00000000000E+00  0.00000000000E+00  0.14696067099E+03  0.14696067099E+03  0.00000000000E+00 0. -1.
          2   -1    0    0  502    0 -0.00000000000E+00 -0.00000000000E+00 -0.47451294169E+03  0.47451294169E+03  0.00000000000E+00 0. -1.
         24    2    1    2    0    0 -0.18763152151E+02  0.25218611336E+02 -0.37677570994E+03  0.38679644749E+03  0.81630398489E+02 0.  0.
         23    2    1    2    0    0  0.67661103947E+02  0.27700683873E+02  0.94901859984E+02  0.14936608961E+03  0.89210497263E+02 0.  0.
        -13    1    3    3    0    0 -0.12447629765E+02 -0.29335647902E+02 -0.11579232588E+03  0.12009740404E+03  0.00000000000E+00 0.  1.
         14    1    3    3    0    0 -0.63155223865E+01  0.54554259238E+02 -0.26098338406E+03  0.26669904346E+03  0.00000000000E+00 0. -1.
        -13    1    4    4    0    0 -0.17302087401E+02  0.18365543670E+02  0.57894363456E+01  0.25887699703E+02  0.00000000000E+00 0.  1.
         13    1    4    4    0    0  0.84963191348E+02  0.93351402032E+01  0.89112423638E+02  0.12347838990E+03  0.00000000000E+00 0. -1.
          1    1    1    2  501    0 -0.48897951795E+02 -0.52919295209E+02 -0.45678420738E+02  0.85311075579E+02  0.00000000000E+00 0. -1.
<scales pt_clust_5="13000.00000" pt_clust_6="13000.00000" pt_clust_7="13000.00000" pt_clust_8="13000.00000" pt_clust_9="13000.00000"></scales>
<clustering>
<clus scale="   81.630">  5  6 -1 -1</clus>
<clus scale="   87.473">  2  5  1 -1</clus>
<clus scale="   89.210">  7  8 -1 -1</clus>
<clus scale="   71.381">  7  9 -1 -1</clus>
<clus scale="  229.457">  1  5  2 -1</clus>
</clustering>
</event>
<event>
 9    2  0.3897980E-005  0.2637501E+03  0.7546771E-02  0.1139364E+00
         21   -1    0    0  501  502  0.00000000000E+00  0.00000000000E+00  0.29841667475E+02  0.29841667475E+02  0.00000000000E+00 0. -1.
          2   -1    0    0  502    0 -0.00000000000E+00 -0.00000000000E+00 -0.11868112327E+04  0.11868112327E+04  0.00000000000E+00 0. -1.
         24    2    1    2    0    0  0.55405342283E+01  0.78083653608E+02 -0.38299905375E+03  0.39897665046E+03  0.79789334858E+02 0.  0.
         23    2    1    2    0    0 -0.10186233218E+03 -0.92997162171E+02 -0.48329863098E+03  0.51109764053E+03  0.92837624706E+02 0.  0.
        -11    1    3    3    0    0  0.35721411581E+02  0.20177998830E+02 -0.91871983742E+02  0.10061626250E+03  0.00000000000E+00 0.  1.
         12    1    3    3    0    0 -0.30180877353E+02  0.57905654778E+02 -0.29112707001E+03  0.29836038796E+03  0.00000000000E+00 0. -1.
        -13    1    4    4    0    0 -0.77131828235E+02 -0.10961487285E+03 -0.42487890547E+03  0.44551860073E+03  0.00000000000E+00 0. -1.
         13    1    4    4    0    0 -0.24730503943E+02  0.16617710679E+02 -0.58419725504E+02  0.65579039803E+02  0.00000000000E+00 0.  1.
          1    1    1    2  501    0  0.96321797951E+02  0.14913508563E+02 -0.29067188045E+03  0.30657860914E+03  0.00000000000E+00 0. -1.
<scales pt_clust_5="13000.00000" pt_clust_6="13000.00000" pt_clust_7="13000.00000" pt_clust_8="13000.00000" pt_clust_9="13000.00000"></scales>
<clustering>
<clus scale="   79.789">  5  6 -1 -1</clus>
<clus scale="   92.838">  7  8 -1 -1</clus>
<clus scale="   97.470">  7  9 -1 -1</clus>
<clus scale="  111.777">  2  5  1 -1</clus>
<clus scale="  263.750">  1  5  2 -1</clus>
</clustering>
</event>
<event>
 9    2  0.3897980E-005  0.1771536E+03  0.7546771E-02  0.1194086E+00
         -3   -1    0    0    0  501 -0.00000000000E+00  0.00000000000E+00  0.51352874755E+02  0.51352874755E+02  0.00000000000E+00 0.  1.
         21   -1    0    0  501  502  0.00000000000E+00 -0.00000000000E+00 -0.38842502385E+03  0.38842502385E+03  0.00000000000E+00 0. -1.
         24    2    1    2    0    0 -0.61778328372E+02  0.10853536141E+02 -0.11112061273E+03  0.15265858031E+03  0.83800301114E+02 0.  0.
         23    2    1    2    0    0  0.48180344028E+02 -0.61750979281E+02 -0.18744028510E+03  0.22186158794E+03  0.89186180169E+02 0.  0.
        -11    1    3    3    0    0  0.70815970319E+00  0.32297404177E+02 -0.14022269708E+02  0.35217152845E+02  0.00000000000E+00 0.  1.
         12    1    3    3    0    0 -0.62486488075E+02 -0.21443868036E+02 -0.97098343022E+02  0.11744142747E+03  0.00000000000E+00 0. -1.
        -11    1    4    4    0    0  0.23068599192E+02  0.75383417327E+01 -0.11844697871E+03  0.12090770708E+03  0.00000000000E+00 0. -1.
         11    1    4    4    0    0  0.25111744837E+02 -0.69289321014E+02 -0.68993306387E+02  0.10095388086E+03  0.00000000000E+00 0.  1.
         -4    1    1    2    0  502  0.13597984344E+02  0.50897443140E+02 -0.38511251268E+02  0.65257730351E+02  0.00000000000E+00 0.  1.
<scales pt_clust_5="13000.00000" pt_clust_6="13000.00000" pt_clust_7="13000.00000" pt_clust_8="13000.00000" pt_clust_9="13000.00000"></scales>
<clustering>
<clus scale="   83.800">  5  6 -1 -1</clus>
<clus scale="   89.186">  7  8 -1 -1</clus>
<clus scale="   52.683">  7  9 -1 -1</clus>
<clus scale="  104.675">  1  5  2 -1</clus>
<clus scale="  177.154">  2  5  1 -1</clus>
</clustering>
</event>
<event>
 9    2  0.3897980E-005  0.3504378E+03  0.7546771E-02  0.1112737E+00
         -1   -1    0    0    0  501 -0.00000000000E+00  0.00000000000E+00  0.61819430030E+03  0.61819430030E+03  0.00000000000E+00 0.  1.
         21   -1    0    0  501  502  0.00000000000E+00 -0.00000000000E+00 -0.83288436641E+02  0.83288436641E+02  0.00000000000E+00 0.  1.
         24    2    1    2    0    0 -0.99551515096E+01 -0.47147294877E+02  0.18294013832E+03  0.20480727543E+03  0.78466256482E+02 0.  0.
         23    2    1    2    0    0  0.46530809467E+02  0.34474841686E+02  0.41150298724E+03  0.42566098847E+03  0.92189683079E+02 0.  0.
        -11    1    3    3    0    0  0.31295022139E+02 -0.26452514927E+02  0.53524454073E+02  0.67409058297E+02  0.00000000000E+00 0.  1.
         12    1    3    3    0    0 -0.41250173649E+02 -0.20694779950E+02  0.12941568425E+03  0.13739821714E+03  0.00000000000E+00 0. -1.
        -11    1    4    4    0    0  0.10543861903E+02 -0.29466556588E+02  0.18329888749E+03  0.18595142682E+03  0.00000000000E+00 0. -1.
         11    1    4    4    0    0  0.35986947564E+02  0.63941398275E+02  0.22820409975E+03  0.23970956166E+03  0.00000000000E+00 0.  1.
         -2    1    1    2    0  502 -0.36575657957E+02  0.12672453191E+02 -0.59537261901E+02  0.71014473029E+02  0.00000000000E+00 0.  1.
<scales pt_clust_5="13000.00000" pt_clust_6="13000.00000" pt_clust_7="13000.00000" pt_clust_8="13000.00000" pt_clust_9="13000.00000"></scales>
<clustering>
<clus scale="   78.466">  5  6 -1 -1</clus>
<clus scale="   92.081">  1  5  2 -1</clus>
<clus scale="   92.190">  7  8 -1 -1</clus>
<clus scale="   38.633">  7  9 -1 -1</clus>
<clus scale="  350.438">  2  5  1 -1</clus>
</clustering>
</event>
<event>
 9    2  0.3897980E-005  0.3276099E+03  0.7546771E-02  0.1114606E+00
         -1   -1    0    0    0  501 -0.00000000000E+00  0.00000000000E+00  0.26520178709E+03  0.26520178709E+03  0.00000000000E+00 0.  1.
         21   -1    0    0  501  502  0.00000000000E+00 -0.00000000000E+00 -0.21546309287E+03  0.21546309287E+03  0.00000000000E+00 0.  1.
         24    2    1    2    0    0 -0.81164850749E+01  0.72378967950E+02 -0.73955917549E+02  0.13048119751E+03  0.79064991192E+02 0.  0.
         23    2    1    2    0    0 -0.10015800189E+02  0.10439848217E+03  0.94915454216E+01  0.13894593251E+03  0.90645040646E+02 0.  0.
        -13    1    3    3    0    0  0.28481376592E+02  0.50470151384E+02 -0.19152622946E+02  0.61034809404E+02  0.00000000000E+00 0.  1.
         14    1    3    3    0    0 -0.36597861667E+02  0.21908816566E+02 -0.54803294603E+02  0.69446388108E+02  0.00000000000E+00 0. -1.
        -13    1    4    4    0    0  0.29119783832E+02  0.30128079163E+02  0.31192061977E+02  0.52236076564E+02  0.00000000000E+00 0. -1.
         13    1    4    4    0    0 -0.39135584021E+02  0.74270403002E+02 -0.21700516555E+02  0.86709855942E+02  0.00000000000E+00 0.  1.
         -2    1    1    2    0  502  0.18132285264E+02 -0.17677745011E+03  0.11420306634E+03  0.21123774994E+03  0.00000000000E+00 0.  1.
<scales pt_clust_5="13000.00000" pt_clust_6="13000.00000" pt_clust_7="13000.00000" pt_clust_8="13000.00000" pt_clust_9="13000.00000"></scales>
<clustering>
<clus scale="   79.065">  5  6 -1 -1</clus>
<clus scale="   90.645">  7  8 -1 -1</clus>
<clus scale="  107.498">  1  5  2 -1</clus>
<clus scale="  127.690">  7  9 -1 -1</clus>
<clus scale="  327.610">  2  5  1 -1</clus>
</clustering>
</event>
<event>
 9    2  0.3897980E-005  0.1429868E+03  0.7546771E-02  0.1230163E+00
          2   -1    0    0  502    0 -0.00000000000E+00  0.00000000000E+00  0.55070810895E+03  0.55070810895E+03  0.00000000000E+00 0. -1.
         21   -1    0    0  501  502  0.00000000000E+00 -0.00000000000E+00 -0.29792904621E+02  0.29792904621E+02  0.00000000000E+00 0.  1.
         24    2    1    2    0    0 -0.40987016911E+02 -0.10771755954E+02  0.32553598242E+03  0.33838890850E+03  0.82081735256E+02 0.  0.
         23    2    1    2    0    0  0.10076618028E+02 -0.63505036674E+01  0.75517603026E+02  0.11715038207E+03  0.88766190217E+02 0.  0.
        -11    1    3    3    0    0  0.43761945076E+01 -0.36113095408E+02  0.87743774987E+02  0.94985666220E+02  0.00000000000E+00 0.  1.
         12    1    3    3    0    0 -0.45363211418E+02  0.25341339453E+02  0.23779220744E+03  0.24340324228E+03  0.00000000000E+00 0. -1.
        -13    1    4    4    0    0  0.17397049793E+02  0.38914314037E+02  0.27340200336E+02  0.50640573978E+02  0.00000000000E+00 0. -1.
         13    1    4    4    0    0 -0.73204317646E+01 -0.45264817704E+02  0.48177402690E+02  0.66509808096E+02  0.00000000000E+00 0.  1.
          1    1    1    2  501    0  0.30910398883E+02  0.17122259622E+02  0.11986161888E+03  0.12496172299E+03  0.00000000000E+00 0. -1.
<scales pt_clust_5="13000.00000" pt_clust_6="13000.00000" pt_clust_7="13000.00000" pt_clust_8="13000.00000" pt_clust_9="13000.00000"></scales>
<clustering>
<clus scale="   82.082">  5  6 -1 -1</clus>
<clus scale="   88.766">  7  8 -1 -1</clus>
<clus scale="   35.336">  7  9 -1 -1</clus>
<clus scale="   92.376">  1  5  2 -1</clus>
<clus scale="  142.987">  2  5  1 -1</clus>
</clustering>
</event>
<event>
 9    2  0.3897980E-005  0.1302190E+04  0.7546771E-02  0.9346160E-01
          2   -1    0    0  502    0 -0.00000000000E+00  0.00000000000E+00  0.22814679552E+04  0.22814679552E+04  0.00000000000E+00 0. -1.
         21   -1    0    0  501  502  0.00000000000E+00 -0.00000000000E+00 -0.32716639801E+03  0.32716639801E+03  0.00000000000E+00 0.  1.
         24    2    1    2    0    0  0.32026697723E+03 -0.21592353758E+03  0.26499711922E+03  0.47569096470E+03  0.82852338040E+02 0.  0.
         23    2    1    2    0    0  0.12652996834E+02  0.66384070001E+03  0.12661238925E+04  0.14325525922E+04  0.91063960329E+02 0.  0.
        -13    1    3    3    0    0  0.31639143370E+02 -0.49462206915E+02  0.19656146362E+02  0.61918570687E+02  0.00000000000E+00 0.  1.
         14    1    3    3    0    0  0.28862783386E+03 -0.16646133066E+03  0.24534097286E+03  0.41377239402E+03  0.00000000000E+00 0. -1.
        -11    1    4    4    0    0  0.22491167141E+02  0.58175431711E+03  0.11611886875E+04  0.12989623190E+04  0.00000000000E+00 0.  1.
         11    1    4    4    0    0 -0.98381703070E+01  0.82086382905E+02  0.10493520503E+03  0.13359027326E+03  0.00000000000E+00 0. -1.
          1    1    1    2  501    0 -0.33291997407E+03 -0.44791716244E+03  0.42318054548E+03  0.70039079635E+03  0.00000000000E+00 0. -1.
<scales pt_clust_5="13000.00000" pt_clust_6="13000.00000" pt_clust_7="13000.00000" pt_clust_8="13000.00000" pt_clust_9="13000.00000"></scales>
<clustering>
<clus scale="   82.852">  5  6 -1 -1</clus>
<clus scale="   91.064">  7  8 -1 -1</clus>
<clus scale="  395.042">  1  5  2 -1</clus>
<clus scale="  564.387">  7  9 -1 -1</clus>
<clus scale=" 1302.190">  2  5  1 -1</clus>
</clustering>
</event>
<event>
 9    2  0.3897980E-005  0.6424672E+03  0.7546771E-02  0.1040643E+00
          2   -1    0    0  502    0 -0.00000000000E+00  0.00000000000E+00  0.11604629245E+04  0.11604629245E+04  0.00000000000E+00 0. -1.
         21   -1    0    0  501  502  0.00000000000E+00 -0.00000000000E+00 -0.14733460308E+03  0.14733460308E+03  0.00000000000E+00 0. -1.
         24    2    1    2    0    0 -0.66684473992E+02 -0.17479183870E+02  0.42103761005E+03  0.43410677219E+03  0.80147861152E+02 0.  0.
         23    2    1    2    0    0 -0.24098667186E+03 -0.83306289306E+02  0.43654705634E+03  0.51450685512E+03  0.95548195744E+02 0.  0.
        -13    1    3    3    0    0  0.14318678794E+01 -0.29479760413E+02  0.64634274939E+02  0.71054176630E+02  0.00000000000E+00 0.  1.
         14    1    3    3    0    0 -0.68116341871E+02  0.12000576543E+02  0.35640333511E+03  0.36305259556E+03  0.00000000000E+00 0. -1.
        -11    1    4    4    0    0 -0.65130697777E+02 -0.35462259354E+02  0.21615479740E+03  0.22852237543E+03  0.00000000000E+00 0.  1.
         11    1    4    4    0    0 -0.17585597408E+03 -0.47844029952E+02  0.22039225894E+03  0.28598447969E+03  0.00000000000E+00 0. -1.
          1    1    1    2  501    0  0.30767114585E+03  0.10078547318E+03  0.15554365503E+03  0.35918390027E+03  0.00000000000E+00 0. -1.
<scales pt_clust_5="13000.00000" pt_clust_6="13000.00000" pt_clust_7="13000.00000" pt_clust_8="13000.00000" pt_clust_9="13000.00000"></scales>
<clustering>
<clus scale="   80.148">  5  6 -1 -1</clus>
<clus scale="   95.548">  7  8 -1 -1</clus>
<clus scale="  105.717">  1  5  2 -1</clus>
<clus scale="  299.597">  7  9 -1 -1</clus>
<clus scale="  642.467">  2  5  1 -1</clus>
</clustering>
</event>
<event>
 9    2  0.3897980E-005  0.1380131E+03  0.7546771E-02  0.1236949E+00
         21   -1    0    0  501  502  0.00000000000E+00  0.00000000000E+00  0.41515977483E+02  0.41515977483E+02  0.00000000000E+00 0. -1.
         -3   -1    0    0    0  501 -0.00000000000E+00 -0.00000000000E+00 -0.48182087422E+03  0.48182087422E+03  0.00000000000E+00 0.  1.
         24    2    1    2    0    0  0.36770449384E+02  0.16412560208E+02 -0.36391210726E+02  0.96495086723E+02  0.79784356005E+02 0.  0.
         23    2    1    2    0    0 -0.21548530796E+02 -0.39615712733E+02 -0.36176797554E+03  0.37638035394E+03  0.93554042317E+02 0.  0.
        -13    1    3    3    0    0 -0.14758173688E+02  0.27481165267E+02 -0.30219713725E+02  0.43430970893E+02  0.00000000000E+00 0.  1.
         14    1    3    3    0    0  0.51528623072E+02 -0.11068605060E+02 -0.61714970016E+01  0.53064115831E+02  0.00000000000E+00 0. -1.
        -13    1    4    4    0    0 -0.43642208494E+02 -0.59164873948E+02 -0.27851396193E+03  0.28805407767E+03  0.00000000000E+00 0.  1.
         13    1    4    4    0    0  0.22093677698E+02  0.19549161216E+02 -0.83254013606E+02  0.88326276272E+02  0.00000000000E+00 0. -1.
         -4    1    1    2    0  502 -0.15221918587E+02  0.23203152525E+02 -0.42145710470E+02  0.50461411035E+02  0.00000000000E+00 0.  1.
<scales pt_clust_5="13000.00000" pt_clust_6="13000.00000" pt_clust_7="13000.00000" pt_clust_8="13000.00000" pt_clust_9="13000.00000"></scales>
<clustering>
<clus scale="   79.784">  5  6 -1 -1</clus>
<clus scale="   89.370">  2  5  1 -1</clus>
<clus scale="   93.554">  7  8 -1 -1</clus>
<clus scale="   27.393">  7  9 -1 -1</clus>
<clus scale="  138.013">  1  5  2 -1</clus>
</clustering>
</event>
<event>
 9    2  0.3897980E-005  0.1365277E+03  0.7546771E-02  0.1244404E+00
         21   -1    0    0  501  502  0.00000000000E+00  0.00000000000E+00  0.47755391204E+02  0.47755391204E+02  0.00000000000E+00 0.  1.
          2   -1    0    0  502    0 -0.00000000000E+00 -0.00000000000E+00 -0.27283754890E+03  0.27283754890E+03  0.00000000000E+00 0. -1.
         24    2    1    2    0    0  0.25700601755E+01 -0.78943591186E+01 -0.13635026656E+03  0.15776434927E+03  0.78925715667E+02 0.  0.
         23    2    1    2    0    0 -0.26834256001E+02 -0.22899756206E+02 -0.55480950336E+02  0.11142184223E+03  0.89956739309E+02 0.  0.
        -13    1    3    3    0    0 -0.37302956082E+02 -0.10415541229E+02 -0.77427204525E+02  0.86573471872E+02  0.00000000000E+00 0.  1.
         14    1    3    3    0    0  0.39873016257E+02  0.25211821100E+01 -0.58923062034E+02  0.71190877394E+02  0.00000000000E+00 0. -1.
        -13    1    4    4    0    0 -0.58714060618E+02 -0.26418024741E+02 -0.40109214160E+02  0.75855138296E+02  0.00000000000E+00 0.  1.
         13    1    4    4    0    0  0.31879804617E+02  0.35182685353E+01 -0.15371736176E+02  0.35566703937E+02  0.00000000000E+00 0. -1.
          1    1    1    2  501    0  0.24264195825E+02  0.30794115324E+02 -0.33250940797E+02  0.51406748599E+02  0.00000000000E+00 0. -1.
<scales pt_clust_5="13000.00000" pt_clust_6="13000.00000" pt_clust_7="13000.00000" pt_clust_8="13000.00000" pt_clust_9="13000.00000"></scales>
<clustering>
<clus scale="   78.926">  5  6 -1 -1</clus>
<clus scale="   79.361">  2  5  1 -1</clus>
<clus scale="   89.957">  7  8 -1 -1</clus>
<clus scale="   37.725">  7  9 -1 -1</clus>
<clus scale="  136.528">  1  5  2 -1</clus>
</clustering>
</event>
<event>
 9    2  0.7062146E-005  0.7626834E+03  0.7546771E-02  0.9781643E-01
         21   -1    0    0  501  502  0.00000000000E+00  0.00000000000E+00  0.33415425877E+03  0.33415425877E+03  0.00000000000E+00 0. -1.
          2   -1    0    0  502    0 -0.00000000000E+00 -0.00000000000E+00 -0.10768393520E+04  0.10768393520E+04  0.00000000000E+00 0. -1.
         24    2    1    2    0    0  0.32318240675E+03  0.28138167432E+03 -0.27003324729E+03  0.51372790989E+03  0.85883037258E+02 0.  0.
         23    2    1    2    0    0 -0.22149102183E+01 -0.61676405749E+02 -0.49585587935E+03  0.50761333530E+03  0.89383221227E+02 0.  0.
        -11    1    3    3    0    0  0.57710898448E+02  0.14803099830E+02 -0.50785472924E+02  0.78286932654E+02  0.00000000000E+00 0.  1.
         12    1    3    3    0    0  0.26547150830E+03  0.26657857449E+03 -0.21924777436E+03  0.43544097724E+03  0.00000000000E+00 0. -1.
        -11    1    4    4    0    0 -0.43216487252E+02 -0.49523720942E+02 -0.31224457096E+03  0.31908766163E+03  0.00000000000E+00 0.  1.
         11    1    4    4    0    0  0.41001577033E+02 -0.12152684806E+02 -0.18361130839E+03  0.18852567368E+03  0.00000000000E+00 0. -1.
          1    1    1    2  501    0 -0.32096749653E+03 -0.21970526857E+03  0.23204033362E+02  0.38965236562E+03  0.00000000000E+00 0. -1.
<scales pt_clust_5="13000.00000" pt_clust_6="13000.00000" pt_clust_7="13000.00000" pt_clust_8="13000.00000" pt_clust_9="13000.00000"></scales>
<clustering>
<clus scale="   85.883">  5  6 -1 -1</clus>
<clus scale="   89.383">  7  8 -1 -1</clus>
<clus scale="  388.961">  7  9 -1 -1</clus>
<clus scale="  437.034">  2  5  1 -1</clus>
<clus scale="  762.683">  1  5  2 -1</clus>
</clustering>
</event>
<event>
 9    2  0.3897980E-005  0.2783472E+03  0.7546771E-02  0.1134990E+00
         21   -1    0    0  501  502  0.00000000000E+00  0.00000000000E+00  0.81544099104E+02  0.81544099104E+02  0.00000000000E+00 0. -1.
          2   -1    0    0  502    0 -0.00000000000E+00 -0.00000000000E+00 -0.84784443524E+03  0.84784443524E+03  0.00000000000E+00 0. -1.
         24    2    1    2    0    0 -0.25122333937E+02 -0.63459477927E+02  0.85293635050E+01  0.10607921147E+03  0.80757736860E+02 0.  0.
         23    2    1    2    0    0 -0.77241052847E+02 -0.43008937399E+02 -0.27313735737E+03  0.30032845066E+03  0.88188510254E+02 0.  0.
        -13    1    3    3    0    0 -0.14856972340E+02  0.17814979206E+02 -0.28538547137E+01  0.23371940397E+02  0.00000000000E+00 0.  1.
         14    1    3    3    0    0 -0.10265361598E+02 -0.81274457133E+02  0.11383218219E+02  0.82707271071E+02  0.00000000000E+00 0. -1.
        -13    1    4    4    0    0 -0.33083967357E+02 -0.63949645365E+02 -0.19810918998E+03  0.21078746925E+03  0.00000000000E+00 0.  1.
         13    1    4    4    0    0 -0.44157085490E+02  0.20940707966E+02 -0.75028167392E+02  0.89540981407E+02  0.00000000000E+00 0. -1.
          1    1    1    2  501    0  0.10236338678E+03  0.10646841533E+03 -0.50169234227E+03  0.52298087222E+03  0.00000000000E+00 0. -1.
<scales pt_clust_5="13000.00000" pt_clust_6="13000.00000" pt_clust_7="13000.00000" pt_clust_8="13000.00000" pt_clust_9="13000.00000"></scales>
<clustering>
<clus scale="   80.758">  5  6 -1 -1</clus>
<clus scale="   88.189">  7  8 -1 -1</clus>
<clus scale="  105.736">  2  5  1 -1</clus>
<clus scale="  108.476">  7  9 -1 -1</clus>
<clus scale="  278.347">  1  5  2 -1</clus>
</clustering>
</event>
<event>
 9    2  0.3897980E-005  0.1812258E+03  0.7546771E-02  0.1186521E+00
          2   -1    0    0  502    0 -0.00000000000E+00  0.00000000000E+00  0.83153996406E+03  0.83153996406E+03  0.00000000000E+00 0. -1.
         21   -1    0    0  501  502  0.00000000000E+00 -0.00000000000E+00 -0.27654851240E+02  0.27654851240E+02  0.00000000000E+00 0. -1.
         24    2    1    2    0    0 -0.98134448440E+01 -0.84447999152E+02  0.40320186606E+03  0.41943368045E+03  0.78263013234E+02 0.  0.
         23    2    1    2    0    0  0.54610706319E+02  0.13458959804E+02  0.13852676002E+03  0.16449351619E+03  0.68592862484E+02 0.  0.
        -11    1    3    3    0    0 -0.23433005951E+02  0.48500204498E+01  0.11266951434E+03  0.11518267199E+03  0.00000000000E+00 0.  1.
         12    1    3    3    0    0  0.13619561107E+02 -0.89298019602E+02  0.29053235172E+03  0.30425100846E+03  0.00000000000E+00 0. -1.
        -13    1    4    4    0    0  0.31317501080E+02  0.40079512822E+02  0.62054862710E+02  0.80236894306E+02  0.00000000000E+00 0. -1.
         13    1    4    4    0    0  0.23293205238E+02 -0.26620553018E+02  0.76471897312E+02  0.84256621886E+02  0.00000000000E+00 0.  1.
          1    1    1    2  501    0 -0.44797261475E+02  0.70989039347E+02  0.26215648674E+03  0.27526761866E+03  0.00000000000E+00 0. -1.
<scales pt_clust_5="13000.00000" pt_clust_6="13000.00000" pt_clust_7="13000.00000" pt_clust_8="13000.00000" pt_clust_9="13000.00000"></scales>
<clustering>
<clus scale="   68.593">  7  8 -1 -1</clus>
<clus scale="   78.263">  5  6 -1 -1</clus>
<clus scale="   83.942">  7  9 -1 -1</clus>
<clus scale="  115.555">  1  5  2 -1</clus>
<clus scale="  181.226">  2  5  1 -1</clus>
</clustering>
</event>
<event>
 9    2  0.3897980E-005  0.4577875E+03  0.7546771E-02  0.1085349E+00
         21   -1    0    0  501  502  0.00000000000E+00  0.00000000000E+00  0.97520255190E+02  0.97520255190E+02  0.00000000000E+00 0. -1.
          2   -1    0    0  502    0 -0.00000000000E+00 -0.00000000000E+00 -0.17923869882E+04  0.17923869882E+04  0.00000000000E+00 0. -1.
         24    2    1    2    0    0  0.38193006853E+02  0.95612885098E+01 -0.12457786996E+04  0.12486199195E+04  0.74411094967E+02 0.  0.
         23    2    1    2    0    0 -0.19882473041E+02  0.20239969540E+03 -0.12102491579E+03  0.25027818907E+03  0.81432132783E+02 0.  0.
        -13    1    3    3    0    0 -0.31387210360E+01  0.21858148606E+02 -0.11995174001E+03  0.12196741435E+03  0.00000000000E+00 0.  1.
         14    1    3    3    0    0  0.41331727889E+02 -0.12296860096E+02 -0.11258269595E+04  0.11266525051E+04  0.00000000000E+00 0. -1.
        -11    1    4    4    0    0  0.18083631356E+02  0.96102205082E+02 -0.90760500822E+02  0.13341709056E+03  0.00000000000E+00 0. -1.
         11    1    4    4    0    0 -0.37966104397E+02  0.10629749032E+03 -0.30264414969E+02  0.11686109851E+03  0.00000000000E+00 0.  1.
          1    1    1    2  501    0 -0.18310533812E+02 -0.21196098391E+03 -0.32806311761E+03  0.39100913479E+03  0.00000000000E+00 0. -1.
<scales pt_clust_5="13000.00000" pt_clust_6="13000.00000" pt_clust_7="13000.00000" pt_clust_8="13000.00000" pt_clust_9="13000.00000"></scales>
<clustering>
<clus scale="   74.411">  5  6 -1 -1</clus>
<clus scale="   81.432">  7  8 -1 -1</clus>
<clus scale="   84.185">  2  5  1 -1</clus>
<clus scale="  205.771">  7  9 -1 -1</clus>
<clus scale="  457.787">  1  5  2 -1</clus>
</clustering>
</event>
<event>
 9    2  0.3897980E-005  0.2269310E+03  0.7546771E-02  0.1144379E+00
         21   -1    0    0  501  502  0.00000000000E+00  0.00000000000E+00  0.84022832396E+02  0.84022832396E+02  0.00000000000E+00 0.  1.
          2   -1    0    0  502    0 -0.00000000000E+00 -0.00000000000E+00 -0.44536182849E+03  0.44536182849E+03  0.00000000000E+00 0. -1.
         24    2    1    2    0    0 -0.59644345043E+02 -0.11912483839E+03 -0.10858074357E+03  0.18970181816E+03  0.80304588438E+02 0.  0.
         23    2    1    2    0    0 -0.21357785175E+02  0.31378617389E+02 -0.68326556900E+02  0.11996530871E+03  0.91007605722E+02 0.  0.
        -13    1    3    3    0    0 -0.52948291365E+02 -0.13015914013E+03 -0.89272254202E+02  0.16647660102E+03  0.00000000000E+00 0.  1.
         14    1    3    3    0    0 -0.66960536778E+01  0.11034301739E+02 -0.19308489364E+02  0.23225217141E+02  0.00000000000E+00 0. -1.
        -11    1    4    4    0    0  0.76989844487E+01  0.54659315610E+02 -0.19455925009E+02  0.58527328339E+02  0.00000000000E+00 0.  1.
         11    1    4    4    0    0 -0.29056769623E+02 -0.23280698221E+02 -0.48870631891E+02  0.61437980371E+02  0.00000000000E+00 0. -1.
          1    1    1    2  501    0  0.81002130218E+02  0.87746221002E+02 -0.18443169563E+03  0.21971753401E+03  0.00000000000E+00 0. -1.
<scales pt_clust_5="13000.00000" pt_clust_6="13000.00000" pt_clust_7="13000.00000" pt_clust_8="13000.00000" pt_clust_9="13000.00000"></scales>
<clustering>
<clus scale="   80.305">  5  6 -1 -1</clus>
<clus scale="   91.008">  7  8 -1 -1</clus>
<clus scale="  119.418">  7  9 -1 -1</clus>
<clus scale="  155.554">  2  5  1 -1</clus>
<clus scale="  226.931">  1  5  2 -1</clus>
</clustering>
</event>
<event>
 9    2  0.3897980E-005  0.1275746E+04  0.7546771E-02  0.9284693E-01
         21   -1    0    0  501  502  0.00000000000E+00  0.00000000000E+00  0.15951468298E+04  0.15951468298E+04  0.00000000000E+00 0. -1.
          2   -1    0    0  502    0 -0.00000000000E+00 -0.00000000000E+00 -0.84498679340E+03  0.84498679340E+03  0.00000000000E+00 0. -1.
         24    2    1    2    0    0  0.38678299270E+03 -0.34628393171E+03 -0.44755038067E+03  0.69026543561E+03  0.81556014857E+02 0.  0.
         23    2    1    2    0    0 -0.31679605304E+03 -0.17703954978E+03 -0.66397935329E+02  0.37992820183E+03  0.90741453162E+02 0.  0.
        -11    1    3    3    0    0  0.69108261070E+02 -0.61409987167E+02 -0.41840970771E+02  0.10147810161E+03  0.00000000000E+00 0.  1.
         12    1    3    3    0    0  0.31767473163E+03 -0.28487394454E+03 -0.40570940990E+03  0.58878733400E+03  0.00000000000E+00 0. -1.
        -13    1    4    4    0    0 -0.18062726046E+03 -0.84490994084E+02 -0.79700880608E+02  0.21474907607E+03  0.00000000000E+00 0.  1.
         13    1    4    4    0    0 -0.13616879258E+03 -0.92548555699E+02  0.13302945280E+02  0.16517912576E+03  0.00000000000E+00 0. -1.
          1    1    1    2  501    0 -0.69986939658E+02  0.52332348149E+03  0.12641083524E+04  0.13699399858E+04  0.00000000000E+00 0. -1.
<scales pt_clust_5="13000.00000" pt_clust_6="13000.00000" pt_clust_7="13000.00000" pt_clust_8="13000.00000" pt_clust_9="13000.00000"></scales>
<clustering>
<clus scale="   81.556">  5  6 -1 -1</clus>
<clus scale="   90.741">  7  8 -1 -1</clus>
<clus scale="  525.514">  2  5  1 -1</clus>
<clus scale="  456.971">  7  9 -1 -1</clus>
<clus scale=" 1275.746">  1  5  2 -1</clus>
</clustering>
</event>
<event>
 9    2  0.3897980E-005  0.7863615E+03  0.7546771E-02  0.9954991E-01
          2   -1    0    0  502    0 -0.00000000000E+00  0.00000000000E+00  0.51395578278E+03  0.51395578278E+03  0.00000000000E+00 0. -1.
         21   -1    0    0  501  502  0.00000000000E+00 -0.00000000000E+00 -0.50684034897E+03  0.50684034897E+03  0.00000000000E+00 0.  1.
         24    2    1    2    0    0 -0.77978995136E+02  0.19790806436E+03  0.51401346093E+02  0.23318862107E+03  0.80538866356E+02 0.  0.
         23    2    1    2    0    0  0.22393899877E+03 -0.42451975057E+03 -0.12878996285E+03  0.50512191185E+03  0.90529539429E+02 0.  0.
        -13    1    3    3    0    0 -0.17148142990E+02  0.11291917573E+03  0.58706113422E+02  0.12841809378E+03  0.00000000000E+00 0.  1.
         14    1    3    3    0    0 -0.60830852147E+02  0.84988888632E+02 -0.73047673296E+01  0.10477052729E+03  0.00000000000E+00 0. -1.
        -11    1    4    4    0    0  0.27693513877E+02 -0.49423694930E+02  0.13999721160E+02  0.58357728914E+02  0.00000000000E+00 0. -1.
         11    1    4    4    0    0  0.19624548489E+03 -0.37509605564E+03 -0.14278968401E+03  0.44676418294E+03  0.00000000000E+00 0.  1.
          1    1    1    2  501    0 -0.14596000363E+03  0.22661168620E+03  0.84504050570E+02  0.28248559883E+03  0.00000000000E+00 0. -1.
<scales pt_clust_5="13000.00000" pt_clust_6="13000.00000" pt_clust_7="13000.00000" pt_clust_8="13000.00000" pt_clust_9="13000.00000"></scales>
<clustering>
<clus scale="   80.539">  5  6 -1 -1</clus>
<clus scale="   90.530">  7  8 -1 -1</clus>
<clus scale="  227.453">  1  5  2 -1</clus>
<clus scale="  373.109">  7  9 -1 -1</clus>
<clus scale="  786.361">  2  5  1 -1</clus>
</clustering>
</event>
<event>
 9    2  0.3897980E-005  0.5127216E+03  0.7546771E-02  0.1073121E+00
          2   -1    0    0  502    0 -0.00000000000E+00  0.00000000000E+00  0.68325397014E+03  0.68325397014E+03  0.00000000000E+00 0. -1.
         21   -1    0    0  501  502  0.00000000000E+00 -0.00000000000E+00 -0.18432036345E+03  0.18432036345E+03  0.00000000000E+00 0. -1.
         24    2    1    2    0    0  0.71915400454E+01 -0.40681271225E+01 -0.64788570229E+02  0.10555979508E+03  0.82927942201E+02 0.  0.
         23    2    1    2    0    0  0.72078313560E+02 -0.62656550809E+02  0.62689424959E+03  0.64066132223E+03  0.91265562995E+02 0.  0.
        -13    1    3    3    0    0  0.20388967424E+02  0.31990230890E+02 -0.53411022460E+02  0.65512000315E+02  0.00000000000E+00 0.  1.
         14    1    3    3    0    0 -0.13197427378E+02 -0.36058358013E+02 -0.11377547769E+02  0.40047794761E+02  0.00000000000E+00 0. -1.
        -11    1    4    4    0    0  0.30278986544E+02  0.21565464181E+02  0.14573079353E+03  0.15039730866E+03  0.00000000000E+00 0.  1.
         11    1    4    4    0    0  0.41799327016E+02 -0.84222014990E+02  0.48116345606E+03  0.49026401356E+03  0.00000000000E+00 0. -1.
          1    1    1    2  501    0 -0.79269853605E+02  0.66724677932E+02 -0.63172072669E+02  0.12135321628E+03  0.00000000000E+00 0. -1.
<scales pt_clust_5="13000.00000" pt_clust_6="13000.00000" pt_clust_7="13000.00000" pt_clust_8="13000.00000" pt_clust_9="13000.00000"></scales>
<clustering>
<clus scale="   82.928">  5  6 -1 -1</clus>
<clus scale="   83.339">  1  5  2 -1</clus>
<clus scale="   91.266">  7  8 -1 -1</clus>
<clus scale="  103.258">  7  9 -1 -1</clus>
<clus scale="  512.722">  2  5  1 -1</clus>
</clustering>
</event>
<event>
 9    2  0.3897980E-005  0.1458050E+03  0.7546771E-02  0.1233917E+00
         21   -1    0    0  501  502  0.00000000000E+00  0.00000000000E+00  0.30338070082E+02  0.30338070082E+02  0.00000000000E+00 0.  1.
         -1   -1    0    0    0  501 -0.00000000000E+00 -0.00000000000E+00 -0.49722518324E+03  0.49722518324E+03  0.00000000000E+00 0.  1.
         24    2    1    2    0    0  0.14413033974E+02  0.23597024476E+01 -0.77804896982E+02  0.11205864409E+03  0.79310995307E+02 0.  0.
         23    2    1    2    0    0  0.29956368633E+02 -0.10349726772E+02 -0.23136248102E+03  0.25146803028E+03  0.93290255464E+02 0.  0.
        -11    1    3    3    0    0  0.45752671238E+02 -0.10103365089E+02 -0.47410334945E+02  0.66656768382E+02  0.00000000000E+00 0.  1.
         12    1    3    3    0    0 -0.31339637264E+02  0.12463067537E+02 -0.30394562037E+02  0.45401875707E+02  0.00000000000E+00 0. -1.
        -13    1    4    4    0    0  0.50467985458E+02  0.14008806064E+02 -0.20010622999E+03  0.20684720807E+03  0.00000000000E+00 0. -1.
         13    1    4    4    0    0 -0.20511616825E+02 -0.24358532836E+02 -0.31256251022E+02  0.44620822209E+02  0.00000000000E+00 0.  1.
         -2    1    1    2    0  502 -0.44369402607E+02  0.79900243243E+01 -0.15771973516E+03  0.16403657896E+03  0.00000000000E+00 0.  1.
<scales pt_clust_5="13000.00000" pt_clust_6="13000.00000" pt_clust_7="13000.00000" pt_clust_8="13000.00000" pt_clust_9="13000.00000"></scales>
<clustering>
<clus scale="   79.311">  5  6 -1 -1</clus>
<clus scale="   80.645">  2  5  1 -1</clus>
<clus scale="   93.290">  7  8 -1 -1</clus>
<clus scale="   39.626">  7  9 -1 -1</clus>
<clus scale="  145.805">  1  5  2 -1</clus>
</clustering>
</event>
<event>
 9    2  0.3897980E-005  0.1944272E+03  0.7546771E-02  0.1182405E+00
         21   -1    0    0  501  502  0.00000000000E+00  0.00000000000E+00  0.81627970202E+02  0.81627970202E+02  0.00000000000E+00 0.  1.
         -1   -1    0    0    0  501 -0.00000000000E+00 -0.00000000000E+00 -0.27064467821E+03  0.27064467821E+03  0.00000000000E+00 0.  1.
         24    2    1    2    0    0 -0.54268214025E+02 -0.34346447327E+02 -0.72401006049E+02  0.12555437158E+03  0.79982979748E+02 0.  0.
         23    2    1    2    0    0 -0.21005415188E+01 -0.37452208116E+02 -0.92969778759E+02  0.13242292589E+03  0.86518040724E+02 0.  0.
        -13    1    3    3    0    0 -0.74050874625E+02 -0.17325041051E+02 -0.48748412378E+02  0.90333254062E+02  0.00000000000E+00 0.  1.
         14    1    3    3    0    0  0.19782660600E+02 -0.17021406277E+02 -0.23652593672E+02  0.35221117521E+02  0.00000000000E+00 0. -1.
        -13    1    4    4    0    0  0.14625094266E+02 -0.62071508979E+02 -0.55261366511E+02  0.84383554309E+02  0.00000000000E+00 0.  1.
         13    1    4    4    0    0 -0.16725635785E+02  0.24619300863E+02 -0.37708412248E+02  0.48039371578E+02  0.00000000000E+00 0. -1.
         -2    1    1    2    0  502  0.56368755544E+02  0.71798655443E+02 -0.23645923199E+02  0.94295350940E+02  0.00000000000E+00 0.  1.
<scales pt_clust_5="13000.00000" pt_clust_6="13000.00000" pt_clust_7="13000.00000" pt_clust_8="13000.00000" pt_clust_9="13000.00000"></scales>
<clustering>
<clus scale="   79.983">  5  6 -1 -1</clus>
<clus scale="   86.518">  7  8 -1 -1</clus>
<clus scale="   91.282">  7  9 -1 -1</clus>
<clus scale="  102.577">  2  5  1 -1</clus>
<clus scale="  194.427">  1  5  2 -1</clus>
</clustering>
</event>
<event>
 9    2  0.3897980E-005  0.2354055E+03  0.7546771E-02  0.1152816E+00
          2   -1    0    0  502    0 -0.00000000000E+00  0.00000000000E+00  0.30722253867E+03  0.30722253867E+03  0.00000000000E+00 0. -1.
         21   -1    0    0  501  502  0.00000000000E+00 -0.00000000000E+00 -0.11203777321E+03  0.11203777321E+03  0.00000000000E+00 0.  1.
         24    2    1    2    0    0  0.53088445581E+02  0.61795264352E+02  0.13413944764E+03  0.17606843941E+03  0.79810188519E+02 0.  0.
         23    2    1    2    0    0 -0.10506876594E+03 -0.44416419226E+01  0.83357164314E+02  0.16263623826E+03  0.91885555950E+02 0.  0.
        -11    1    3    3    0    0  0.41453180428E+01  0.27912221622E+02 -0.11712043926E+01  0.28242653864E+02  0.00000000000E+00 0.  1.
         12    1    3    3    0    0  0.48943127538E+02  0.33883042730E+02  0.13531065203E+03  0.14782578554E+03  0.00000000000E+00 0. -1.
        -13    1    4    4    0    0 -0.30869354636E+02 -0.59010821746E+01 -0.18607208435E+02  0.36523527105E+02  0.00000000000E+00 0.  1.
         13    1    4    4    0    0 -0.74199411307E+02  0.14594402520E+01  0.10196437275E+03  0.12611271115E+03  0.00000000000E+00 0. -1.
          1    1    1    2  501    0  0.51980320362E+02 -0.57353622429E+02 -0.22311846495E+02  0.80555634221E+02  0.00000000000E+00 0. -1.
<scales pt_clust_5="13000.00000" pt_clust_6="13000.00000" pt_clust_7="13000.00000" pt_clust_8="13000.00000" pt_clust_9="13000.00000"></scales>
<clustering>
<clus scale="   79.810">  5  6 -1 -1</clus>
<clus scale="   91.886">  7  8 -1 -1</clus>
<clus scale="   77.404">  7  9 -1 -1</clus>
<clus scale="  114.047">  1  5  2 -1</clus>
<clus scale="  235.406">  2  5  1 -1</clus>
</clustering>
</event>
<event>
 9    2  0.3897980E-005  0.3340843E+03  0.7546771E-02  0.1100659E+00
         21   -1    0    0  501  502  0.00000000000E+00  0.00000000000E+00  0.46374914869E+02  0.46374914869E+02  0.00000000000E+00 0. -1.
          2   -1    0    0  502    0 -0.00000000000E+00 -0.00000000000E+00 -0.12393571803E+04  0.12393571803E+04  0.00000000000E+00 0. -1.
         24    2    1    2    0    0  0.11293417480E+03  0.43005543803E+02 -0.33272606134E+03  0.36288160073E+03  0.79829941874E+02 0.  0.
         23    2    1    2    0    0  0.78039305729E+02 -0.60330392269E+02 -0.25507427476E+03  0.28801493445E+03  0.90331762686E+02 0.  0.
        -11    1    3    3    0    0  0.17617644358E+02 -0.14497907436E+02 -0.12638483139E+03  0.12842778640E+03  0.00000000000E+00 0.  1.
         12    1    3    3    0    0  0.95316530446E+02  0.57503451239E+02 -0.20634122995E+03  0.23445381434E+03  0.00000000000E+00 0. -1.
        -13    1    4    4    0    0  0.58962590374E+02 -0.20348034372E+02 -0.22735765628E+03  0.23575863386E+03  0.00000000000E+00 0.  1.
         13    1    4    4    0    0  0.19076715356E+02 -0.39982357897E+02 -0.27716618475E+02  0.52256300591E+02  0.00000000000E+00 0. -1.
          1    1    1    2  501    0 -0.19097348053E+03  0.17324848465E+02 -0.60518192938E+03  0.63483556004E+03  0.00000000000E+00 0. -1.
<scales pt_clust_5="13000.00000" pt_clust_6="13000.00000" pt_clust_7="13000.00000" pt_clust_8="13000.00000" pt_clust_9="13000.00000"></scales>
<clustering>
<clus scale="   79.830">  5  6 -1 -1</clus>
<clus scale="   90.332">  7  8 -1 -1</clus>
<clus scale="  144.832">  2  5  1 -1</clus>
<clus scale="  121.954">  7  9 -1 -1</clus>
<clus scale="  334.084">  1  5  2 -1</clus>
</clustering>
</event>
<event>
 9    2  0.3897980E-005  0.2432794E+03  0.7546771E-02  0.1155228E+00
         21   -1    0    0  501  502  0.00000000000E+00  0.00000000000E+00  0.26932823658E+03  0.26932823658E+03  0.00000000000E+00 0. -1.
          2   -1    0    0  502    0 -0.00000000000E+00 -0.00000000000E+00 -0.10897772405E+03  0.10897772405E+03  0.00000000000E+00 0. -1.
         24    2    1    2    0    0  0.31294187042E+02 -0.45598182962E+02  0.63470084705E+02  0.11644588635E+03  0.80452920173E+02 0.  0.
         23    2    1    2    0    0 -0.12445484138E+02 -0.53480433941E+02  0.11489813215E+03  0.15940772634E+03  0.95886367929E+02 0.  0.
        -13    1    3    3    0    0  0.44937209658E+02  0.49414719284E+01  0.27201118505E+02  0.52760513687E+02  0.00000000000E+00 0.  1.
         14    1    3    3    0    0 -0.13643022616E+02 -0.50539654891E+02  0.36268966200E+02  0.63685372667E+02  0.00000000000E+00 0. -1.
        -11    1    4    4    0    0 -0.15111382790E+02  0.25776503166E+02  0.21096901695E+02  0.36576785895E+02  0.00000000000E+00 0.  1.
         11    1    4    4    0    0  0.26658986513E+01 -0.79256937107E+02  0.93801230457E+02  0.12283094044E+03  0.00000000000E+00 0. -1.
          1    1    1    2  501    0 -0.18848702904E+02  0.99078616903E+02 -0.18017704331E+02  0.10245234794E+03  0.00000000000E+00 0. -1.
<scales pt_clust_5="13000.00000" pt_clust_6="13000.00000" pt_clust_7="13000.00000" pt_clust_8="13000.00000" pt_clust_9="13000.00000"></scales>
<clustering>
<clus scale="   80.453">  5  6 -1 -1</clus>
<clus scale="   95.886">  7  8 -1 -1</clus>
<clus scale="   97.628">  2  5  1 -1</clus>
<clus scale="   65.904">  7  9 -1 -1</clus>
<clus scale="  243.279">  1  5  2 -1</clus>
</clustering>
</event>
<event>
 9    2  0.3897980E-005  0.2600474E+03  0.7546771E-02  0.1111336E+00
         21   -1    0    0  501  502  0.00000000000E+00  0.00000000000E+00  0.12817171258E+03  0.12817171258E+03  0.00000000000E+00 0. -1.
          2   -1    0    0  502    0 -0.00000000000E+00 -0.00000000000E+00 -0.49652400113E+03  0.49652400113E+03  0.00000000000E+00 0. -1.
         24    2    1    2    0    0  0.16158708337E+02  0.22137349836E+03 -0.23945325562E+03  0.33445507198E+03  0.72491405776E+02 0.  0.
         23    2    1    2    0    0  0.90818183653E+01 -0.11139301272E+03 -0.50070068441E+02  0.15259327687E+03  0.91031937718E+02 0.  0.
        -13    1    3    3    0    0  0.27882170944E+02  0.14781207652E+03 -0.11472393599E+03  0.18917559808E+03  0.00000000000E+00 0.  1.
         14    1    3    3    0    0 -0.11723462607E+02  0.73561421846E+02 -0.12472931963E+03  0.14527947390E+03  0.00000000000E+00 0. -1.
        -11    1    4    4    0    0  0.34295880394E+02 -0.43108195119E+02 -0.57250177386E+02  0.79448767827E+02  0.00000000000E+00 0.  1.
         11    1    4    4    0    0 -0.25214062029E+02 -0.68284817600E+02  0.71801089454E+01  0.73144509043E+02  0.00000000000E+00 0. -1.
          1    1    1    2  501    0 -0.25240526702E+02 -0.10998048564E+03 -0.78828964488E+02  0.13764736486E+03  0.00000000000E+00 0. -1.
<scales pt_clust_5="13000.00000" pt_clust_6="13000.00000" pt_clust_7="13000.00000" pt_clust_8="13000.00000" pt_clust_9="13000.00000"></scales>
<clustering>
<clus scale="   72.491">  5  6 -1 -1</clus>
<clus scale="   91.032">  7  8 -1 -1</clus>
<clus scale="  112.840">  7  9 -1 -1</clus>
<clus scale="  233.500">  2  5  1 -1</clus>
<clus scale="  260.047">  1  5  2 -1</clus>
</clustering>
</event>
<event>
 9    2  0.3897980E-005  0.2907742E+03  0.7546771E-02  0.1128286E+00
         21   -1    0    0  501  502  0.00000000000E+00  0.00000000000E+00  0.28131360975E+03  0.28131360975E+03  0.00000000000E+00 0. -1.
         -3   -1    0    0    0  501 -0.00000000000E+00 -0.00000000000E+00 -0.16286305247E+03  0.16286305247E+03  0.00000000000E+00 0.  1.
         24    2    1    2    0    0  0.68847495497E+02  0.26573708988E+02  0.10733793107E+03  0.15319016575E+03  0.80620442746E+02 0.  0.
         23    2    1    2    0    0 -0.40856746738E+02  0.96861387402E+02  0.64643564663E+02  0.15356282163E+03  0.91385707911E+02 0.  0.
        -13    1    3    3    0    0  0.40723744561E+02 -0.11187705103E+02  0.95825910591E+02  0.10471959347E+03  0.00000000000E+00 0.  1.
         14    1    3    3    0    0  0.28123750936E+02  0.37761414091E+02  0.11512020483E+02  0.48470572273E+02  0.00000000000E+00 0. -1.
        -13    1    4    4    0    0 -0.52335014226E+02  0.24155821752E+02  0.54380836693E+02  0.79244765366E+02  0.00000000000E+00 0. -1.
         13    1    4    4    0    0  0.11478267488E+02  0.72705565650E+02  0.10262727970E+02  0.74318056261E+02  0.00000000000E+00 0.  1.
         -4    1    1    2    0  502 -0.27990748759E+02 -0.12343509639E+03 -0.53530938453E+02  0.13742367485E+03  0.00000000000E+00 0.  1.
<scales pt_clust_5="13000.00000" pt_clust_6="13000.00000" pt_clust_7="13000.00000" pt_clust_8="13000.00000" pt_clust_9="13000.00000"></scales>
<clustering>
<clus scale="   80.620">  5  6 -1 -1</clus>
<clus scale="   91.386">  7  8 -1 -1</clus>
<clus scale="  109.297">  2  5  1 -1</clus>
<clus scale="  107.002">  7  9 -1 -1</clus>
<clus scale="  290.774">  1  5  2 -1</clus>
</clustering>
</event>
<event>
 9    2  0.3897980E-005  0.7482238E+03  0.7546771E-02  0.9943873E-01
         21   -1    0    0  501  502  0.00000000000E+00  0.00000000000E+00  0.26082229427E+03  0.26082229427E+03  0.00000000000E+00 0.  1.
         -1   -1    0    0    0  501 -0.00000000000E+00 -0.00000000000E+00 -0.10373148326E+04  0.10373148326E+04  0.00000000000E+00 0.  1.
         24    2    1    2    0    0 -0.11526404490E+03  0.23499628048E+03 -0.32275133004E+03  0.42308291350E+03  0.79508985452E+02 0.  0.
         23    2    1    2    0    0  0.14596123247E+03  0.19962781358E+01 -0.57996633012E+03  0.60479402110E+03  0.90034423240E+02 0.  0.
        -13    1    3    3    0    0 -0.61262676935E+02  0.18839272355E+03 -0.26744083248E+03  0.33282057140E+03  0.00000000000E+00 0.  1.
         14    1    3    3    0    0 -0.54001367965E+02  0.46603556935E+02 -0.55310497561E+02  0.90262342101E+02  0.00000000000E+00 0. -1.
        -13    1    4    4    0    0  0.49972939979E+02  0.38877568665E+02 -0.29827159262E+03  0.30491753482E+03  0.00000000000E+00 0.  1.
         13    1    4    4    0    0  0.95988292487E+02 -0.36881290529E+02 -0.28169473750E+03  0.29987648627E+03  0.00000000000E+00 0. -1.
         -2    1    1    2    0  502 -0.30697187566E+02 -0.23699255862E+03  0.12622512180E+03  0.27026019230E+03  0.00000000000E+00 0.  1.
<scales pt_clust_5="13000.00000" pt_clust_6="13000.00000" pt_clust_7="13000.00000" pt_clust_8="13000.00000" pt_clust_9="13000.00000"></scales>
<clustering>
<clus scale="   79.509">  5  6 -1 -1</clus>
<clus scale="   90.034">  7  8 -1 -1</clus>
<clus scale="  238.972">  7  9 -1 -1</clus>
<clus scale="  273.552">  2  5  1 -1</clus>
<clus scale="  748.224">  1  5  2 -1</clus>
</clustering>
</event>
<event>
 9    2  0.3897980E-005  0.4297733E+03  0.7546771E-02  0.1072976E+00
         -1   -1    0    0    0  501 -0.00000000000E+00  0.00000000000E+00  0.50518040822E+03  0.50518040822E+03  0.00000000000E+00 0.  1.
         21   -1    0    0  501  502  0.00000000000E+00 -0.00000000000E+00 -0.25971076097E+03  0.25971076097E+03  0.00000000000E+00 0.  1.
         24    2    1    2    0    0  0.11508044057E+03 -0.27896241990E+02  0.29974171284E+03  0.33170461817E+03  0.78493000834E+02 0.  0.
         23    2    1    2    0    0  0.11220279050E+03 -0.86220151723E+02 -0.57846822699E+02  0.17883836972E+03  0.92809088068E+02 0.  0.
        -13    1    3    3    0    0  0.10365516654E+03  0.80788280861E+00  0.17686049065E+03  0.20499921799E+03  0.00000000000E+00 0.  1.
         14    1    3    3    0    0  0.11425274032E+02 -0.28704124799E+02  0.12288122219E+03  0.12670540017E+03  0.00000000000E+00 0. -1.
        -13    1    4    4    0    0  0.11317842519E+03 -0.61997028209E+02 -0.74891265020E+02  0.14920351541E+03  0.00000000000E+00 0.  1.
         13    1    4    4    0    0 -0.97563468595E+00 -0.24223123514E+02  0.17044442321E+02  0.29634854308E+02  0.00000000000E+00 0. -1.
         -2    1    1    2    0  502 -0.22728323107E+03  0.11411639371E+03  0.35747571082E+01  0.25434818130E+03  0.00000000000E+00 0.  1.
<scales pt_clust_5="13000.00000" pt_clust_6="13000.00000" pt_clust_7="13000.00000" pt_clust_8="13000.00000" pt_clust_9="13000.00000"></scales>
<clustering>
<clus scale="   78.493">  5  6 -1 -1</clus>
<clus scale="   92.809">  7  8 -1 -1</clus>
<clus scale="  142.066">  1  5  2 -1</clus>
<clus scale="  176.735">  7  9 -1 -1</clus>
<clus scale="  429.773">  2  5  1 -1</clus>
</clustering>
</event>
<event>
 9    2  0.3897980E-005  0.1756336E+03  0.7546771E-02  0.1194890E+00
         21   -1    0    0  501  502  0.00000000000E+00  0.00000000000E+00  0.48871266251E+03  0.48871266251E+03  0.00000000000E+00 0. -1.
          2   -1    0    0  502    0 -0.00000000000E+00 -0.00000000000E+00 -0.40657349388E+02  0.40657349388E+02  0.00000000000E+00 0. -1.
         24    2    1    2    0    0  0.38907596124E+02  0.56256685172E+02  0.14981539859E+03  0.18325700368E+03  0.80373254767E+02 0.  0.
         23    2    1    2    0    0  0.20106722401E+02 -0.21305437291E+02  0.11774475761E+03  0.15302551201E+03  0.93245790448E+02 0.  0.
        -13    1    3    3    0    0  0.53001068565E+02  0.11762214106E+02  0.10669660325E+03  0.11971477810E+03  0.00000000000E+00 0.  1.
         14    1    3    3    0    0 -0.14093472441E+02  0.44494471066E+02  0.43118795334E+02  0.63542225582E+02  0.00000000000E+00 0. -1.
        -11    1    4    4    0    0  0.68795001673E+01 -0.49228099416E+02  0.25748942647E+02  0.55979829779E+02  0.00000000000E+00 0.  1.
         11    1    4    4    0    0  0.13227222234E+02  0.27922662124E+02  0.91995814964E+02  0.97045682228E+02  0.00000000000E+00 0. -1.
          1    1    1    2  501    0 -0.59014318525E+02 -0.34951247880E+02  0.18049515692E+03  0.19308749621E+03  0.00000000000E+00 0. -1.
<scales pt_clust_5="13000.00000" pt_clust_6="13000.00000" pt_clust_7="13000.00000" pt_clust_8="13000.00000" pt_clust_9="13000.00000"></scales>
<clustering>
<clus scale="   80.373">  5  6 -1 -1</clus>
<clus scale="   93.246">  7  8 -1 -1</clus>
<clus scale="   68.588">  7  9 -1 -1</clus>
<clus scale="  105.539">  2  5  1 -1</clus>
<clus scale="  175.634">  1  5  2 -1</clus>
</clustering>
</event>
<event>
 9    2  0.3897980E-005  0.3886979E+03  0.7546771E-02  0.1066691E+00
          2   -1    0    0  502    0 -0.00000000000E+00  0.00000000000E+00  0.52860272229E+03  0.52860272229E+03  0.00000000000E+00 0. -1.
         21   -1    0    0  501  502  0.00000000000E+00 -0.00000000000E+00 -0.18001314498E+03  0.18001314498E+03  0.00000000000E+00 0.  1.
         24    2    1    2    0    0 -0.41173151276E+02  0.21102234210E+03  0.12526609844E+03  0.26033089051E+03  0.76517448240E+02 0.  0.
         23    2    1    2    0    0  0.40599706108E+02  0.59672233057E+02  0.52389899061E+02  0.12813786906E+03  0.92008154150E+02 0.  0.
        -11    1    3    3    0    0 -0.20130649790E+02  0.12071680220E+03  0.27202813370E+02  0.12537058048E+03  0.00000000000E+00 0.  1.
         12    1    3    3    0    0 -0.21042501486E+02  0.90305539901E+02  0.98063285074E+02  0.13496031004E+03  0.00000000000E+00 0. -1.
        -13    1    4    4    0    0  0.42323072642E+00  0.70750686891E+02  0.49526240614E+02  0.86363692193E+02  0.00000000000E+00 0.  1.
         13    1    4    4    0    0  0.40176475381E+02 -0.11078453834E+02  0.28636584474E+01  0.41774176869E+02  0.00000000000E+00 0. -1.
          1    1    1    2  501    0  0.57344516840E+00 -0.27069457516E+03  0.17093357981E+03  0.32014710769E+03  0.00000000000E+00 0. -1.
<scales pt_clust_5="13000.00000" pt_clust_6="13000.00000" pt_clust_7="13000.00000" pt_clust_8="13000.00000" pt_clust_9="13000.00000"></scales>
<clustering>
<clus scale="   76.517">  5  6 -1 -1</clus>
<clus scale="   92.008">  7  8 -1 -1</clus>
<clus scale="  228.212">  1  5  2 -1</clus>
<clus scale="  120.083">  7  9 -1 -1</clus>
<clus scale="  388.698">  2  5  1 -1</clus>
</clustering>
</event>
<event>
 9    2  0.3897980E-005  0.3184267E+03  0.7546771E-02  0.1119521E+00
          2   -1    0    0  502    0 -0.00000000000E+00  0.00000000000E+00  0.22988781166E+03  0.22988781166E+03  0.00000000000E+00 0. -1.
         21   -1    0    0  501  502  0.00000000000E+00 -0.00000000000E+00 -0.32701101849E+03  0.32701101849E+03  0.00000000000E+00 0. -1.
         24    2    1    2    0    0  0.65408098843E+02 -0.73568545292E+01  0.12972683625E+03  0.16593014591E+03  0.79821166215E+02 0.  0.
         23    2    1    2    0    0  0.10045463547E+03  0.19815544887E+02 -0.45243914607E+02  0.14470368166E+03  0.91697077760E+02 0.  0.
        -11    1    3    3    0    0  0.38773316280E+02  0.17275948854E+02  0.14073615201E+02  0.44720186817E+02  0.00000000000E+00 0.  1.
         12    1    3    3    0    0  0.26634782563E+02 -0.24632803383E+02  0.11565322105E+03  0.12120995909E+03  0.00000000000E+00 0. -1.
        -13    1    4    4    0    0 -0.28304106630E+01 -0.20807233020E+02  0.68657861485E+01  0.22092785924E+02  0.00000000000E+00 0.  1.
         13    1    4    4    0    0  0.10328504614E+03  0.40622777907E+02 -0.52109700756E+02  0.12261089574E+03  0.00000000000E+00 0. -1.
          1    1    1    2  501    0 -0.16586273432E+03 -0.12458690358E+02 -0.18160612847E+03  0.24626500258E+03  0.00000000000E+00 0. -1.
<scales pt_clust_5="13000.00000" pt_clust_6="13000.00000" pt_clust_7="13000.00000" pt_clust_8="13000.00000" pt_clust_9="13000.00000"></scales>
<clustering>
<clus scale="   79.821">  5  6 -1 -1</clus>
<clus scale="   91.697">  7  8 -1 -1</clus>
<clus scale="  103.459">  1  5  2 -1</clus>
<clus scale="  140.933">  7  9 -1 -1</clus>
<clus scale="  318.427">  2  5  1 -1</clus>
</clustering>
</event>
<event>
 9    2  0.3897980E-005  0.2914616E+03  0.7546771E-02  0.1122185E+00
         -3   -1    0    0    0  501 -0.00000000000E+00  0.00000000000E+00  0.82771763453E+02  0.82771763453E+02  0.00000000000E+00 0.  1.
         21   -1    0    0  501  502  0.00000000000E+00 -0.00000000000E+00 -0.10711420723E+04  0.10711420723E+04  0.00000000000E+00 0.  1.
         24    2    1    2    0    0 -0.97342332778E+02 -0.10111833324E+02 -0.29191378334E+01  0.12626415963E+03  0.79726643713E+02 0.  0.
         23    2    1    2    0    0 -0.57202070049E+00  0.10997974638E+03 -0.37495225928E+03  0.40133526474E+03  0.91569242473E+02 0.  0.
        -13    1    3    3    0    0 -0.10677572887E+03 -0.16421438185E+02  0.10672852899E+02  0.10855703430E+03  0.00000000000E+00 0.  1.
         14    1    3    3    0    0  0.94333960907E+01  0.63096048614E+01 -0.13591990733E+02  0.17707125328E+02  0.00000000000E+00 0. -1.
        -13    1    4    4    0    0 -0.28755987934E+02  0.68621703702E+02 -0.31285208956E+03  0.32157778997E+03  0.00000000000E+00 0.  1.
         13    1    4    4    0    0  0.28183967234E+02  0.41358042674E+02 -0.62100169723E+02  0.79757474775E+02  0.00000000000E+00 0. -1.
         -4    1    1    2    0  502  0.97914353479E+02 -0.99867913052E+02 -0.61049891178E+03  0.62631441143E+03  0.00000000000E+00 0.  1.
<scales pt_clust_5="13000.00000" pt_clust_6="13000.00000" pt_clust_7="13000.00000" pt_clust_8="13000.00000" pt_clust_9="13000.00000"></scales>
<clustering>
<clus scale="   79.727">  5  6 -1 -1</clus>
<clus scale="   91.569">  7  8 -1 -1</clus>
<clus scale="  126.230">  1  5  2 -1</clus>
<clus scale="  120.494">  7  9 -1 -1</clus>
<clus scale="  291.462">  2  5  1 -1</clus>
</clustering>
</event>
<event>
 9    2  0.3897980E-005  0.2465565E+03  0.7546771E-02  0.1156565E+00
         21   -1    0    0  501  502  0.00000000000E+00  0.00000000000E+00  0.53434047242E+02  0.53434047242E+02  0.00000000000E+00 0. -1.
          2   -1    0    0  502    0 -0.00000000000E+00 -0.00000000000E+00 -0.54237313003E+03  0.54237313003E+03  0.00000000000E+00 0. -1.
         24    2    1    2    0    0 -0.26429723020E+01  0.45180432595E+02 -0.16896226508E+03  0.19185759315E+03  0.78821521398E+02 0.  0.
         23    2    1    2    0    0 -0.25320275996E+02  0.73035710854E+02 -0.19978646509E+03  0.23306154858E+03  0.91802627193E+02 0.  0.
        -11    1    3    3    0    0  0.29417482812E+02  0.25992310121E+02 -0.34370638913E+02  0.52175945604E+02  0.00000000000E+00 0.  1.
         12    1    3    3    0    0 -0.32060455114E+02  0.19188122474E+02 -0.13459162617E+03  0.13968164755E+03  0.00000000000E+00 0. -1.
        -13    1    4    4    0    0  0.11460529505E+02  0.74079969848E+02 -0.89206246875E+02  0.11652012766E+03  0.00000000000E+00 0. -1.
         13    1    4    4    0    0 -0.36780805501E+02 -0.10442589935E+01 -0.11058021821E+03  0.11654142092E+03  0.00000000000E+00 0.  1.
          1    1    1    2  501    0  0.27963248298E+02 -0.11821614345E+03 -0.12019035262E+03  0.17088803554E+03  0.00000000000E+00 0. -1.
<scales pt_clust_5="13000.00000" pt_clust_6="13000.00000" pt_clust_7="13000.00000" pt_clust_8="13000.00000" pt_clust_9="13000.00000"></scales>
<clustering>
<clus scale="   78.822">  5  6 -1 -1</clus>
<clus scale="   90.891">  2  5  1 -1</clus>
<clus scale="   91.803">  7  8 -1 -1</clus>
<clus scale="  103.603">  7  9 -1 -1</clus>
<clus scale="  246.556">  1  5  2 -1</clus>
</clustering>
</event>
